   2   2   0   0
  0.2016476E+02  0.3849278E-09  0.3849279E-09  0.3849278E-09  0.5000000E-15
  1.000000000000000E-004
  CAR 
 unknown system                          
     16.42738329     -7.27394118  301      5.84326058      1.00000000
     -7.274  0.0000E+00  0.0000E+00
     -7.195  0.0000E+00  0.0000E+00
     -7.116  0.0000E+00  0.0000E+00
     -7.037  0.0000E+00  0.0000E+00
     -6.958  0.0000E+00  0.0000E+00
     -6.879  0.0000E+00  0.0000E+00
     -6.800  0.0000E+00  0.0000E+00
     -6.721  0.0000E+00  0.0000E+00
     -6.642  0.0000E+00  0.0000E+00
     -6.563  0.0000E+00  0.0000E+00
     -6.484  0.1666E-19  0.1316E-20
     -6.405  0.1438E-12  0.1136E-13
     -6.326  0.9626E-08  0.7605E-09
     -6.247  0.6585E-05  0.5210E-06
     -6.168  0.2187E-03  0.1780E-04
     -6.089  0.8654E-03  0.8616E-04
     -6.010  0.1324E-02  0.1908E-03
     -5.931  0.1891E-02  0.3402E-03
     -5.852  0.1401E-02  0.4509E-03
     -5.773  0.2884E-02  0.6787E-03
     -5.694  0.2503E-02  0.8765E-03
     -5.615  0.1834E-02  0.1021E-02
     -5.536  0.3216E-02  0.1275E-02
     -5.457  0.3827E-02  0.1578E-02
     -5.378  0.3160E-02  0.1827E-02
     -5.299  0.2230E-02  0.2004E-02
     -5.220  0.3804E-02  0.2304E-02
     -5.141  0.4790E-02  0.2683E-02
     -5.062  0.5076E-02  0.3084E-02
     -4.983  0.1990E-02  0.3241E-02
     -4.904  0.4238E-02  0.3576E-02
     -4.825  0.5261E-02  0.3991E-02
     -4.746  0.4443E-02  0.4342E-02
     -4.667  0.6112E-02  0.4825E-02
     -4.588  0.5568E-02  0.5265E-02
     -4.509  0.2873E-02  0.5492E-02
     -4.430  0.5363E-02  0.5916E-02
     -4.351  0.6386E-02  0.6420E-02
     -4.272  0.6767E-02  0.6955E-02
     -4.193  0.7758E-02  0.7568E-02
     -4.114  0.6329E-02  0.8068E-02
     -4.035  0.4527E-02  0.8425E-02
     -3.956  0.6069E-02  0.8905E-02
     -3.877  0.1046E-01  0.9732E-02
     -3.798  0.1202E-01  0.1068E-01
     -3.719  0.9572E-02  0.1144E-01
     -3.640  0.4324E-02  0.1178E-01
     -3.561  0.6944E-02  0.1233E-01
     -3.482  0.9281E-02  0.1306E-01
     -3.403  0.8629E-02  0.1374E-01
     -3.324  0.7576E-02  0.1434E-01
     -3.245  0.9288E-02  0.1507E-01
     -3.166  0.2867E-02  0.1530E-01
     -3.087  0.5573E-02  0.1574E-01
     -3.008  0.5892E-02  0.1621E-01
     -2.929  0.1069E-01  0.1705E-01
     -2.850  0.4812E-02  0.1743E-01
     -2.771  0.3292E-02  0.1769E-01
     -2.692  0.2869E-02  0.1792E-01
     -2.613  0.4094E-02  0.1824E-01
     -2.534  0.9178E-02  0.1897E-01
     -2.455  0.3764E-02  0.1926E-01
     -2.376  0.1225E-02  0.1936E-01
     -2.297  0.1895E-02  0.1951E-01
     -2.218  0.1983E-02  0.1967E-01
     -2.139  0.3365E-02  0.1993E-01
     -2.060  0.1530E-02  0.2005E-01
     -1.981  0.1046E-02  0.2014E-01
     -1.902  0.1001E-02  0.2022E-01
     -1.823  0.1178E-02  0.2031E-01
     -1.744  0.1328E-02  0.2041E-01
     -1.665  0.1954E-02  0.2057E-01
     -1.586  0.5093E-02  0.2097E-01
     -1.507  0.6046E-02  0.2145E-01
     -1.428  0.4550E-02  0.2181E-01
     -1.349  0.3027E-02  0.2205E-01
     -1.270  0.3195E-02  0.2230E-01
     -1.191  0.7052E-02  0.2286E-01
     -1.112  0.1893E-01  0.2435E-01
     -1.033  0.1672E-01  0.2567E-01
     -0.954  0.1128E-01  0.2656E-01
     -0.875  0.8035E-02  0.2720E-01
     -0.796  0.6902E-02  0.2774E-01
     -0.717  0.1074E-01  0.2859E-01
     -0.638  0.9362E-02  0.2933E-01
     -0.559  0.3899E-02  0.2964E-01
     -0.480  0.6335E-02  0.3014E-01
     -0.401  0.8502E-02  0.3081E-01
     -0.322  0.2934E-02  0.3104E-01
     -0.243  0.3280E-02  0.3130E-01
     -0.164  0.9010E-02  0.3202E-01
     -0.085  0.4437E-02  0.3237E-01
     -0.006  0.3043E-02  0.3261E-01
      0.073  0.5604E-02  0.3305E-01
      0.152  0.4070E-02  0.3337E-01
      0.231  0.1551E-02  0.3349E-01
      0.310  0.2978E-02  0.3373E-01
      0.389  0.7138E-02  0.3429E-01
      0.468  0.4442E-02  0.3464E-01
      0.547  0.2330E-02  0.3483E-01
      0.627  0.6831E-03  0.3488E-01
      0.706  0.2841E-02  0.3511E-01
      0.785  0.5449E-02  0.3554E-01
      0.864  0.2586E-02  0.3574E-01
      0.943  0.1688E-03  0.3575E-01
      1.022  0.1949E-02  0.3591E-01
      1.101  0.6095E-02  0.3639E-01
      1.180  0.3068E-02  0.3663E-01
      1.259  0.9136E-03  0.3670E-01
      1.338  0.2076E-02  0.3687E-01
      1.417  0.5078E-02  0.3727E-01
      1.496  0.9555E-02  0.3802E-01
      1.575  0.7295E-02  0.3860E-01
      1.654  0.1400E-01  0.3971E-01
      1.733  0.1265E-01  0.4071E-01
      1.812  0.1203E-01  0.4166E-01
      1.891  0.1395E-01  0.4276E-01
      1.970  0.8238E-02  0.4341E-01
      2.049  0.6719E-02  0.4394E-01
      2.128  0.8037E-02  0.4457E-01
      2.207  0.1703E-01  0.4592E-01
      2.286  0.1313E-01  0.4696E-01
      2.365  0.7225E-02  0.4753E-01
      2.444  0.8241E-02  0.4818E-01
      2.523  0.9146E-02  0.4890E-01
      2.602  0.1383E-01  0.4999E-01
      2.681  0.1762E-01  0.5139E-01
      2.760  0.1374E-01  0.5247E-01
      2.839  0.1078E-01  0.5332E-01
      2.918  0.1579E-01  0.5457E-01
      2.997  0.1508E-01  0.5576E-01
      3.076  0.1417E-01  0.5688E-01
      3.155  0.1814E-01  0.5832E-01
      3.234  0.1140E-01  0.5922E-01
      3.313  0.9024E-02  0.5993E-01
      3.392  0.1514E-01  0.6113E-01
      3.471  0.2408E-01  0.6303E-01
      3.550  0.1356E-01  0.6410E-01
      3.629  0.1298E-01  0.6512E-01
      3.708  0.9390E-02  0.6587E-01
      3.787  0.1040E-01  0.6669E-01
      3.866  0.1385E-01  0.6778E-01
      3.945  0.1247E-01  0.6877E-01
      4.024  0.1442E-01  0.6991E-01
      4.103  0.1347E-01  0.7097E-01
      4.182  0.8832E-02  0.7167E-01
      4.261  0.1393E-01  0.7277E-01
      4.340  0.1393E-01  0.7387E-01
      4.419  0.6001E-02  0.7434E-01
      4.498  0.1380E-01  0.7543E-01
      4.577  0.1086E-01  0.7629E-01
      4.656  0.4403E-02  0.7664E-01
      4.735  0.5903E-02  0.7711E-01
      4.814  0.7433E-02  0.7769E-01
      4.893  0.3406E-02  0.7796E-01
      4.972  0.3016E-02  0.7820E-01
      5.051  0.6199E-02  0.7869E-01
      5.130  0.4523E-02  0.7905E-01
      5.209  0.3389E-02  0.7932E-01
      5.288  0.2288E-02  0.7950E-01
      5.367  0.2338E-02  0.7968E-01
      5.446  0.1566E-02  0.7980E-01
      5.525  0.8739E-03  0.7987E-01
      5.604  0.1351E-02  0.7998E-01
      5.683  0.2334E-03  0.8000E-01
      5.762  0.1067E-04  0.8000E-01
      5.841  0.1044E-07  0.8000E-01
      5.920  0.9088E-13  0.8000E-01
      5.999  0.1527E-14  0.8000E-01
      6.078  0.8345E-09  0.8000E-01
      6.157  0.3855E-05  0.8000E-01
      6.236  0.2372E-03  0.8002E-01
      6.315  0.6065E-03  0.8007E-01
      6.394  0.1461E-02  0.8018E-01
      6.473  0.2448E-02  0.8038E-01
      6.552  0.2679E-02  0.8059E-01
      6.631  0.1349E-02  0.8069E-01
      6.710  0.5674E-02  0.8114E-01
      6.789  0.4530E-02  0.8150E-01
      6.868  0.3299E-02  0.8176E-01
      6.947  0.7718E-02  0.8237E-01
      7.026  0.5605E-02  0.8281E-01
      7.105  0.8674E-02  0.8350E-01
      7.184  0.6239E-02  0.8399E-01
      7.263  0.4990E-02  0.8439E-01
      7.342  0.7571E-02  0.8498E-01
      7.421  0.7985E-02  0.8561E-01
      7.500  0.9014E-02  0.8633E-01
      7.579  0.1430E-01  0.8746E-01
      7.658  0.1158E-01  0.8837E-01
      7.737  0.1144E-01  0.8928E-01
      7.816  0.1498E-01  0.9046E-01
      7.895  0.1360E-01  0.9153E-01
      7.974  0.2406E-01  0.9343E-01
      8.053  0.1616E-01  0.9471E-01
      8.132  0.1205E-01  0.9566E-01
      8.211  0.1759E-01  0.9705E-01
      8.290  0.1617E-01  0.9833E-01
      8.369  0.6717E-02  0.9886E-01
      8.448  0.7495E-02  0.9945E-01
      8.527  0.1269E-01  0.1005E+00
      8.606  0.9348E-02  0.1012E+00
      8.685  0.9442E-02  0.1019E+00
      8.764  0.7516E-02  0.1025E+00
      8.843  0.1668E-01  0.1039E+00
      8.922  0.2708E-01  0.1060E+00
      9.001  0.2194E-01  0.1077E+00
      9.080  0.2041E-01  0.1093E+00
      9.159  0.2031E-01  0.1109E+00
      9.238  0.1600E-01  0.1122E+00
      9.317  0.1581E-01  0.1135E+00
      9.396  0.1640E-01  0.1147E+00
      9.475  0.1997E-01  0.1163E+00
      9.554  0.1432E-01  0.1175E+00
      9.633  0.1079E-01  0.1183E+00
      9.712  0.1226E-01  0.1193E+00
      9.791  0.1070E-01  0.1201E+00
      9.870  0.1047E-01  0.1210E+00
      9.949  0.1380E-01  0.1220E+00
     10.028  0.9353E-02  0.1228E+00
     10.107  0.1279E-01  0.1238E+00
     10.186  0.1762E-01  0.1252E+00
     10.265  0.1753E-01  0.1266E+00
     10.344  0.7070E-02  0.1271E+00
     10.423  0.6247E-02  0.1276E+00
     10.502  0.1305E-01  0.1287E+00
     10.581  0.2250E-01  0.1304E+00
     10.660  0.1208E-01  0.1314E+00
     10.739  0.1598E-01  0.1326E+00
     10.818  0.1826E-01  0.1341E+00
     10.897  0.9567E-02  0.1348E+00
     10.976  0.1226E-01  0.1358E+00
     11.055  0.1003E-01  0.1366E+00
     11.134  0.5507E-02  0.1370E+00
     11.213  0.7754E-02  0.1377E+00
     11.292  0.7545E-02  0.1383E+00
     11.371  0.8297E-02  0.1389E+00
     11.450  0.7693E-02  0.1395E+00
     11.529  0.7833E-02  0.1401E+00
     11.608  0.1458E-01  0.1413E+00
     11.687  0.1406E-01  0.1424E+00
     11.766  0.1402E-01  0.1435E+00
     11.845  0.1764E-01  0.1449E+00
     11.924  0.1380E-01  0.1460E+00
     12.003  0.1140E-01  0.1469E+00
     12.082  0.9346E-02  0.1476E+00
     12.161  0.6937E-02  0.1482E+00
     12.240  0.5158E-02  0.1486E+00
     12.319  0.4507E-02  0.1489E+00
     12.398  0.1053E-01  0.1498E+00
     12.477  0.3727E-02  0.1501E+00
     12.556  0.5064E-02  0.1505E+00
     12.635  0.7161E-02  0.1510E+00
     12.714  0.6101E-02  0.1515E+00
     12.793  0.5839E-02  0.1520E+00
     12.872  0.6272E-02  0.1525E+00
     12.951  0.9004E-02  0.1532E+00
     13.030  0.5574E-02  0.1536E+00
     13.109  0.1495E-01  0.1548E+00
     13.188  0.9506E-02  0.1556E+00
     13.267  0.2909E-02  0.1558E+00
     13.346  0.4480E-02  0.1561E+00
     13.425  0.3623E-02  0.1564E+00
     13.504  0.5344E-02  0.1568E+00
     13.583  0.5259E-02  0.1573E+00
     13.662  0.1280E-02  0.1574E+00
     13.741  0.1790E-02  0.1575E+00
     13.820  0.4622E-02  0.1579E+00
     13.899  0.1220E-02  0.1580E+00
     13.978  0.1956E-02  0.1581E+00
     14.057  0.3472E-02  0.1584E+00
     14.136  0.2353E-02  0.1586E+00
     14.215  0.2676E-02  0.1588E+00
     14.294  0.3233E-02  0.1590E+00
     14.373  0.6545E-02  0.1596E+00
     14.452  0.1043E-02  0.1596E+00
     14.531  0.4342E-05  0.1596E+00
     14.610  0.2613E-09  0.1596E+00
     14.689  0.1475E-15  0.1596E+00
     14.768  0.0000E+00  0.1596E+00
     14.847  0.3276E-14  0.1596E+00
     14.926  0.2166E-08  0.1596E+00
     15.005  0.1178E-04  0.1596E+00
     15.084  0.7132E-03  0.1597E+00
     15.163  0.1165E-02  0.1598E+00
     15.242  0.1246E-02  0.1599E+00
     15.321  0.6471E-03  0.1599E+00
     15.400  0.6480E-03  0.1600E+00
     15.479  0.6965E-04  0.1600E+00
     15.558  0.1150E-06  0.1600E+00
     15.637  0.1726E-11  0.1600E+00
     15.716  0.1999E-18  0.1600E+00
     15.795  0.0000E+00  0.1600E+00
     15.874  0.0000E+00  0.1600E+00
     15.953  0.0000E+00  0.1600E+00
     16.032  0.0000E+00  0.1600E+00
     16.111  0.0000E+00  0.1600E+00
     16.190  0.0000E+00  0.1600E+00
     16.269  0.0000E+00  0.1600E+00
     16.348  0.0000E+00  0.1600E+00
     16.427  0.0000E+00  0.1600E+00
