 running on    4 total cores
 distrk:  each k-point on    4 cores,    1 groups
 distr:  one band on    1 cores,    4 groups
 vasp.6.2.0 18Jan21 (build Aug 12 2022 13:00:08) complex                        
  
 POSCAR found type information on POSCAR Si
 POSCAR found :  1 types and       2 ions
 scaLAPACK will be used
 LDA part: xc-table for Pade appr. of Perdew
 POSCAR, INCAR and KPOINTS ok, starting setup
 FFT: planning ...
 WAVECAR not read
 entering main loop
       N       E                     dE             d eps       ncg     rms          rms(c)
DAV:   1     0.759801912925E+00    0.75980E+00   -0.25290E+03  1920   0.575E+02
DAV:   2    -0.108957516619E+02   -0.11656E+02   -0.11308E+02  3056   0.655E+01
DAV:   3    -0.110209163940E+02   -0.12516E+00   -0.12516E+00  2384   0.856E+00
DAV:   4    -0.110214528230E+02   -0.53643E-03   -0.53643E-03  3128   0.599E-01
DAV:   5    -0.110214535928E+02   -0.76980E-06   -0.76983E-06  2464   0.149E-02    0.486E+00
DAV:   6    -0.108999504723E+02    0.12150E+00   -0.80029E-02  2344   0.147E+00    0.297E+00
DAV:   7    -0.108443971384E+02    0.55553E-01   -0.15203E-01  2472   0.216E+00    0.186E-01
DAV:   8    -0.108454569745E+02   -0.10598E-02   -0.38372E-03  2136   0.462E-01    0.740E-02
DAV:   9    -0.108456494151E+02   -0.19244E-03   -0.18987E-04  2888   0.107E-01    0.572E-02
DAV:  10    -0.108456750180E+02   -0.25603E-04   -0.30577E-05  2248   0.411E-02    0.100E-02
DAV:  11    -0.108456746608E+02    0.35719E-06   -0.54327E-07  2664   0.511E-03
   1 F= -.10845675E+02 E0= -.10845675E+02  d E =-.108457E+02
 curvature:   0.00 expect dE= 0.000E+00 dE for cont linesearch  0.000E+00
 trial: gam= 0.00000 g(F)=  0.464E-43 g(S)=  0.675E-02 ort = 0.000E+00 (trialstep = 0.100E+01)
 search vector abs. value=  0.675E-02
 bond charge predicted
       N       E                     dE             d eps       ncg     rms          rms(c)
DAV:   1    -0.108494538294E+02   -0.37788E-02   -0.10418E-01  2392   0.181E+00    0.302E-01
DAV:   2    -0.108476880035E+02    0.17658E-02   -0.14753E-03  2600   0.255E-01    0.183E-01
DAV:   3    -0.108467582934E+02    0.92971E-03   -0.19232E-03  2272   0.221E-01    0.604E-02
DAV:   4    -0.108467581974E+02    0.96044E-07   -0.19353E-05  2752   0.394E-02    0.541E-02
DAV:   5    -0.108467519916E+02    0.62058E-05   -0.50077E-06  2192   0.163E-02    0.131E-02
DAV:   6    -0.108467521169E+02   -0.12532E-06   -0.55912E-08  1280   0.221E-03
   2 F= -.10846752E+02 E0= -.10846752E+02  d E =-.107746E-02
 trial-energy change:   -0.001077  1 .order   -0.001172   -0.006752    0.004409
 step:   0.5928(harm=  0.6050)  dis= 0.00000  next Energy=   -10.847656 (dE=-0.198E-02)
 bond charge predicted
       N       E                     dE             d eps       ncg     rms          rms(c)
DAV:   1    -0.108480876428E+02   -0.13357E-02   -0.17500E-02  2392   0.747E-01    0.127E-01
DAV:   2    -0.108477963700E+02    0.29127E-03   -0.24355E-04  2616   0.103E-01    0.759E-02
DAV:   3    -0.108476490407E+02    0.14733E-03   -0.32016E-04  2248   0.905E-02    0.250E-02
DAV:   4    -0.108476496759E+02   -0.63519E-06   -0.32303E-06  2624   0.161E-02    0.226E-02
DAV:   5    -0.108476513688E+02   -0.16929E-05   -0.81943E-07  2016   0.671E-03    0.604E-03
DAV:   6    -0.108476513237E+02    0.45099E-07   -0.11294E-08  1056   0.976E-04
   3 F= -.10847651E+02 E0= -.10847651E+02  d E =-.197666E-02
 curvature:  -0.30 expect dE=-0.693E-07 dE for cont linesearch -0.693E-07
 trial: gam=-0.00580 g(F)=  0.147E-43 g(S)=  0.229E-06 ort = 0.394E-04 (trialstep = 0.919E+00)
 search vector abs. value=  0.108E-09
 reached required accuracy - stopping structural energy minimisation
