   2   2   0   0
  0.2043015E+02  0.3866091E-09  0.3866092E-09  0.3866091E-09  0.5000000E-15
  1.000000000000000E-004
  CAR 
 unknown system                          
     16.24164148     -7.26686568  301      5.82076104      1.00000000
     -7.267  0.0000E+00  0.0000E+00
     -7.189  0.0000E+00  0.0000E+00
     -7.110  0.0000E+00  0.0000E+00
     -7.032  0.0000E+00  0.0000E+00
     -6.953  0.0000E+00  0.0000E+00
     -6.875  0.0000E+00  0.0000E+00
     -6.797  0.0000E+00  0.0000E+00
     -6.718  0.0000E+00  0.0000E+00
     -6.640  0.0000E+00  0.0000E+00
     -6.562  0.0000E+00  0.0000E+00
     -6.483  0.7451E-19  0.5839E-20
     -6.405  0.4908E-12  0.3846E-13
     -6.327  0.2751E-07  0.2156E-08
     -6.248  0.1517E-04  0.1191E-05
     -6.170  0.1583E-03  0.1359E-04
     -6.091  0.9786E-03  0.9028E-04
     -6.013  0.1584E-02  0.2144E-03
     -5.935  0.8234E-03  0.2789E-03
     -5.856  0.1972E-02  0.4335E-03
     -5.778  0.4167E-02  0.7600E-03
     -5.700  0.1624E-02  0.8872E-03
     -5.621  0.7517E-03  0.9461E-03
     -5.543  0.2746E-02  0.1161E-02
     -5.465  0.5944E-02  0.1627E-02
     -5.386  0.2161E-02  0.1796E-02
     -5.308  0.3595E-02  0.2078E-02
     -5.229  0.4516E-02  0.2432E-02
     -5.151  0.1493E-02  0.2549E-02
     -5.073  0.1707E-02  0.2683E-02
     -4.994  0.6337E-02  0.3179E-02
     -4.916  0.8413E-02  0.3839E-02
     -4.838  0.1762E-02  0.3977E-02
     -4.759  0.5386E-02  0.4399E-02
     -4.681  0.5586E-02  0.4837E-02
     -4.603  0.2832E-02  0.5059E-02
     -4.524  0.1297E-02  0.5160E-02
     -4.446  0.7060E-02  0.5713E-02
     -4.367  0.8546E-02  0.6383E-02
     -4.289  0.9444E-02  0.7123E-02
     -4.211  0.5684E-02  0.7569E-02
     -4.132  0.5882E-02  0.8030E-02
     -4.054  0.4850E-02  0.8410E-02
     -3.976  0.5452E-02  0.8837E-02
     -3.897  0.2939E-02  0.9067E-02
     -3.819  0.1289E-01  0.1008E-01
     -3.741  0.1864E-01  0.1154E-01
     -3.662  0.5550E-02  0.1197E-01
     -3.584  0.4014E-02  0.1229E-01
     -3.506  0.1276E-01  0.1329E-01
     -3.427  0.1951E-02  0.1344E-01
     -3.349  0.3513E-02  0.1372E-01
     -3.270  0.8287E-02  0.1436E-01
     -3.192  0.1425E-01  0.1548E-01
     -3.114  0.8864E-02  0.1618E-01
     -3.035  0.1692E-02  0.1631E-01
     -2.957  0.3908E-02  0.1661E-01
     -2.879  0.5062E-02  0.1701E-01
     -2.800  0.1565E-02  0.1713E-01
     -2.722  0.1138E-01  0.1803E-01
     -2.644  0.7979E-02  0.1865E-01
     -2.565  0.2441E-02  0.1884E-01
     -2.487  0.3056E-02  0.1908E-01
     -2.408  0.4594E-03  0.1912E-01
     -2.330  0.3104E-02  0.1936E-01
     -2.252  0.2621E-02  0.1957E-01
     -2.173  0.3939E-02  0.1987E-01
     -2.095  0.1803E-02  0.2002E-01
     -2.017  0.1738E-02  0.2015E-01
     -1.938  0.4062E-03  0.2018E-01
     -1.860  0.2064E-02  0.2035E-01
     -1.782  0.2413E-02  0.2053E-01
     -1.703  0.1347E-03  0.2055E-01
     -1.625  0.2168E-02  0.2072E-01
     -1.546  0.2352E-02  0.2090E-01
     -1.468  0.3073E-02  0.2114E-01
     -1.390  0.1176E-01  0.2206E-01
     -1.311  0.9162E-02  0.2278E-01
     -1.233  0.2946E-02  0.2301E-01
     -1.155  0.4749E-02  0.2338E-01
     -1.076  0.1647E-01  0.2467E-01
     -0.998  0.1514E-01  0.2586E-01
     -0.920  0.1324E-01  0.2690E-01
     -0.841  0.7531E-02  0.2749E-01
     -0.763  0.9535E-02  0.2823E-01
     -0.684  0.1329E-01  0.2928E-01
     -0.606  0.3919E-02  0.2958E-01
     -0.528  0.1432E-03  0.2959E-01
     -0.449  0.4644E-02  0.2996E-01
     -0.371  0.1504E-01  0.3114E-01
     -0.293  0.3975E-02  0.3145E-01
     -0.214  0.4586E-02  0.3181E-01
     -0.136  0.1771E-02  0.3195E-01
     -0.058  0.3515E-02  0.3222E-01
      0.021  0.1009E-01  0.3301E-01
      0.099  0.2084E-02  0.3318E-01
      0.177  0.6826E-03  0.3323E-01
      0.256  0.4287E-02  0.3357E-01
      0.334  0.5411E-02  0.3399E-01
      0.413  0.6363E-02  0.3449E-01
      0.491  0.2308E-02  0.3467E-01
      0.569  0.2374E-02  0.3486E-01
      0.648  0.2132E-02  0.3502E-01
      0.726  0.1049E-02  0.3510E-01
      0.804  0.5664E-02  0.3555E-01
      0.883  0.6225E-02  0.3604E-01
      0.961  0.9101E-03  0.3611E-01
      1.039  0.3934E-05  0.3611E-01
      1.118  0.1073E-08  0.3611E-01
      1.196  0.1361E-04  0.3611E-01
      1.275  0.2526E-02  0.3631E-01
      1.353  0.1225E-01  0.3727E-01
      1.431  0.6371E-02  0.3777E-01
      1.510  0.7268E-02  0.3834E-01
      1.588  0.1211E-01  0.3929E-01
      1.666  0.1089E-01  0.4014E-01
      1.745  0.4326E-02  0.4048E-01
      1.823  0.9167E-02  0.4120E-01
      1.901  0.1702E-01  0.4253E-01
      1.980  0.1839E-01  0.4397E-01
      2.058  0.9169E-02  0.4469E-01
      2.137  0.4183E-02  0.4502E-01
      2.215  0.1123E-01  0.4590E-01
      2.293  0.8945E-02  0.4660E-01
      2.372  0.9364E-02  0.4733E-01
      2.450  0.1129E-01  0.4822E-01
      2.528  0.1104E-01  0.4908E-01
      2.607  0.2078E-01  0.5071E-01
      2.685  0.1295E-01  0.5173E-01
      2.763  0.7640E-02  0.5232E-01
      2.842  0.7134E-02  0.5288E-01
      2.920  0.1848E-01  0.5433E-01
      2.999  0.2079E-01  0.5596E-01
      3.077  0.2306E-01  0.5777E-01
      3.155  0.1210E-01  0.5872E-01
      3.234  0.3116E-02  0.5896E-01
      3.312  0.1424E-01  0.6008E-01
      3.390  0.1960E-01  0.6161E-01
      3.469  0.1854E-01  0.6306E-01
      3.547  0.1188E-01  0.6399E-01
      3.625  0.3739E-02  0.6429E-01
      3.704  0.1061E-01  0.6512E-01
      3.782  0.2040E-01  0.6672E-01
      3.860  0.1881E-01  0.6819E-01
      3.939  0.1513E-01  0.6938E-01
      4.017  0.1028E-01  0.7018E-01
      4.096  0.5748E-02  0.7063E-01
      4.174  0.1848E-01  0.7208E-01
      4.252  0.1372E-01  0.7316E-01
      4.331  0.7047E-02  0.7371E-01
      4.409  0.3521E-02  0.7398E-01
      4.487  0.1042E-01  0.7480E-01
      4.566  0.1689E-01  0.7612E-01
      4.644  0.6773E-02  0.7665E-01
      4.722  0.3125E-02  0.7690E-01
      4.801  0.7732E-02  0.7751E-01
      4.879  0.8815E-02  0.7820E-01
      4.958  0.5748E-02  0.7865E-01
      5.036  0.1381E-02  0.7875E-01
      5.114  0.2043E-02  0.7891E-01
      5.193  0.4850E-02  0.7930E-01
      5.271  0.2918E-02  0.7952E-01
      5.349  0.1392E-03  0.7953E-01
      5.428  0.9236E-03  0.7961E-01
      5.506  0.3795E-02  0.7990E-01
      5.584  0.7443E-03  0.7996E-01
      5.663  0.4193E-03  0.8000E-01
      5.741  0.5659E-04  0.8000E-01
      5.820  0.1308E-06  0.8000E-01
      5.898  0.3021E-11  0.8000E-01
      5.976  0.3002E-17  0.8000E-01
      6.055  0.1035E-10  0.8000E-01
      6.133  0.3729E-06  0.8000E-01
      6.211  0.1468E-03  0.8001E-01
      6.290  0.1388E-02  0.8012E-01
      6.368  0.8189E-03  0.8018E-01
      6.446  0.1735E-02  0.8032E-01
      6.525  0.4131E-02  0.8064E-01
      6.603  0.2152E-02  0.8081E-01
      6.682  0.4030E-02  0.8113E-01
      6.760  0.3358E-02  0.8139E-01
      6.838  0.2812E-02  0.8161E-01
      6.917  0.1152E-02  0.8170E-01
      6.995  0.8660E-02  0.8238E-01
      7.073  0.8753E-02  0.8307E-01
      7.152  0.5630E-02  0.8351E-01
      7.230  0.4456E-02  0.8386E-01
      7.308  0.1367E-01  0.8493E-01
      7.387  0.1262E-01  0.8592E-01
      7.465  0.1092E-01  0.8677E-01
      7.543  0.7439E-02  0.8736E-01
      7.622  0.1132E-01  0.8824E-01
      7.700  0.1258E-01  0.8923E-01
      7.779  0.1250E-01  0.9021E-01
      7.857  0.1406E-01  0.9131E-01
      7.935  0.2239E-01  0.9306E-01
      8.014  0.1508E-01  0.9425E-01
      8.092  0.7177E-02  0.9481E-01
      8.170  0.9672E-02  0.9557E-01
      8.249  0.1620E-01  0.9684E-01
      8.327  0.2101E-01  0.9848E-01
      8.405  0.3978E-02  0.9879E-01
      8.484  0.1544E-01  0.1000E+00
      8.562  0.1077E-01  0.1008E+00
      8.641  0.6970E-02  0.1014E+00
      8.719  0.1181E-01  0.1023E+00
      8.797  0.1266E-01  0.1033E+00
      8.876  0.2335E-01  0.1051E+00
      8.954  0.3149E-01  0.1076E+00
      9.032  0.1851E-01  0.1091E+00
      9.111  0.1478E-01  0.1102E+00
      9.189  0.2155E-01  0.1119E+00
      9.267  0.1199E-01  0.1128E+00
      9.346  0.2075E-01  0.1145E+00
      9.424  0.2267E-01  0.1162E+00
      9.503  0.1157E-01  0.1172E+00
      9.581  0.5780E-02  0.1176E+00
      9.659  0.1132E-01  0.1185E+00
      9.738  0.7922E-02  0.1191E+00
      9.816  0.7583E-02  0.1197E+00
      9.894  0.1901E-01  0.1212E+00
      9.973  0.1326E-01  0.1222E+00
     10.051  0.6950E-02  0.1228E+00
     10.129  0.4313E-02  0.1231E+00
     10.208  0.8605E-02  0.1238E+00
     10.286  0.3219E-01  0.1263E+00
     10.365  0.2559E-01  0.1283E+00
     10.443  0.1505E-01  0.1295E+00
     10.521  0.1533E-01  0.1307E+00
     10.600  0.1004E-01  0.1315E+00
     10.678  0.1605E-01  0.1327E+00
     10.756  0.1172E-01  0.1337E+00
     10.835  0.6880E-02  0.1342E+00
     10.913  0.7816E-02  0.1348E+00
     10.991  0.1023E-01  0.1356E+00
     11.070  0.2093E-02  0.1358E+00
     11.148  0.9850E-02  0.1366E+00
     11.226  0.8829E-02  0.1372E+00
     11.305  0.1342E-01  0.1383E+00
     11.383  0.1981E-01  0.1399E+00
     11.462  0.8408E-02  0.1405E+00
     11.540  0.2263E-02  0.1407E+00
     11.618  0.1078E-01  0.1415E+00
     11.697  0.9224E-02  0.1423E+00
     11.775  0.1536E-01  0.1435E+00
     11.853  0.1396E-01  0.1446E+00
     11.932  0.1513E-01  0.1457E+00
     12.010  0.1892E-01  0.1472E+00
     12.088  0.6210E-02  0.1477E+00
     12.167  0.2580E-02  0.1479E+00
     12.245  0.6011E-02  0.1484E+00
     12.324  0.1260E-01  0.1494E+00
     12.402  0.6656E-02  0.1499E+00
     12.480  0.5185E-02  0.1503E+00
     12.559  0.8094E-02  0.1509E+00
     12.637  0.7016E-03  0.1510E+00
     12.715  0.2813E-02  0.1512E+00
     12.794  0.1218E-01  0.1522E+00
     12.872  0.8699E-02  0.1528E+00
     12.950  0.6603E-02  0.1534E+00
     13.029  0.5144E-02  0.1538E+00
     13.107  0.6017E-03  0.1538E+00
     13.186  0.2023E-02  0.1540E+00
     13.264  0.1030E-01  0.1548E+00
     13.342  0.1267E-01  0.1558E+00
     13.421  0.9249E-02  0.1565E+00
     13.499  0.6069E-02  0.1570E+00
     13.577  0.3898E-02  0.1573E+00
     13.656  0.9132E-02  0.1580E+00
     13.734  0.1342E-01  0.1590E+00
     13.812  0.7231E-03  0.1591E+00
     13.891  0.6245E-06  0.1591E+00
     13.969  0.5474E-11  0.1591E+00
     14.048  0.0000E+00  0.1591E+00
     14.126  0.0000E+00  0.1591E+00
     14.204  0.0000E+00  0.1591E+00
     14.283  0.0000E+00  0.1591E+00
     14.361  0.0000E+00  0.1591E+00
     14.439  0.0000E+00  0.1591E+00
     14.518  0.0000E+00  0.1591E+00
     14.596  0.1579E-12  0.1591E+00
     14.674  0.3804E-07  0.1591E+00
     14.753  0.8405E-04  0.1591E+00
     14.831  0.2449E-02  0.1593E+00
     14.909  0.2440E-02  0.1595E+00
     14.988  0.2220E-02  0.1597E+00
     15.066  0.1846E-02  0.1598E+00
     15.145  0.6481E-03  0.1599E+00
     15.223  0.1636E-02  0.1600E+00
     15.301  0.1819E-03  0.1600E+00
     15.380  0.3301E-06  0.1600E+00
     15.458  0.5890E-11  0.1600E+00
     15.536  0.1022E-17  0.1600E+00
     15.615  0.0000E+00  0.1600E+00
     15.693  0.0000E+00  0.1600E+00
     15.771  0.0000E+00  0.1600E+00
     15.850  0.0000E+00  0.1600E+00
     15.928  0.0000E+00  0.1600E+00
     16.007  0.0000E+00  0.1600E+00
     16.085  0.0000E+00  0.1600E+00
     16.163  0.0000E+00  0.1600E+00
     16.242  0.0000E+00  0.1600E+00
