    2    2  100    1
  0.2043015E+02  0.3866091E-09  0.3866092E-09  0.3866091E-09  0.5000000E-15
  1.000000000000000E-004
  CAR 
 unknown system                          
      8     56      8
 
  0.0000000E+00  0.0000000E+00  0.0000000E+00  0.7513148E-03
    1       -6.198297   1.000000
    2        5.617217   1.000000
    3        5.617217   1.000000
    4        5.617220   1.000000
    5        8.174432   0.000000
    6        8.174439   0.000000
    7        8.174441   0.000000
    8        8.752095   0.000000
 
  0.9090909E-01 -0.3469447E-17  0.0000000E+00  0.6010518E-02
    1       -6.091973   1.000000
    2        4.632217   1.000000
    3        5.453241   1.000000
    4        5.453243   1.000000
    5        8.164624   0.000000
    6        8.416085   0.000000
    7        8.416092   0.000000
    8        9.573696   0.000000
 
  0.1818182E+00 -0.2081668E-16  0.0000000E+00  0.6010518E-02
    1       -5.777143   1.000000
    2        2.971819   1.000000
    3        5.118282   1.000000
    4        5.118284   1.000000
    5        7.843125   0.000000
    6        8.883431   0.000000
    7        8.883439   0.000000
    8       11.169954   0.000000
 
  0.2727273E+00  0.1387779E-16  0.0000000E+00  0.6010518E-02
    1       -5.270482   1.000000
    2        1.334973   1.000000
    3        4.799099   1.000000
    4        4.799101   1.000000
    5        7.496213   0.000000
    6        9.136188   0.000000
    7        9.136197   0.000000
    8       12.737263   0.000000
 
  0.3636364E+00 -0.1387779E-16  0.0000000E+00  0.6010518E-02
    1       -4.623249   1.000000
    2       -0.097785   1.000000
    3        4.570163   1.000000
    4        4.570165   1.000000
    5        7.236732   0.000000
    6        9.085748   0.000000
    7        9.085757   0.000000
    8       13.461118   0.000000
 
  0.4545455E+00  0.2775558E-16  0.0000000E+00  0.6010518E-02
    1       -4.027763   1.000000
    2       -1.093285   1.000000
    3        4.453261   1.000000
    4        4.453264   1.000000
    5        7.101610   0.000000
    6        8.983085   0.000000
    7        8.983094   0.000000
    8       13.344605   0.000000
 
  0.9090909E-01  0.9090909E-01  0.0000000E+00  0.4507889E-02
    1       -6.056316   1.000000
    2        4.798333   1.000000
    3        5.134730   1.000000
    4        5.134730   1.000000
    5        7.859981   0.000000
    6        8.831374   0.000000
    7        8.831379   0.000000
    8        9.501873   0.000000
 
  0.1818182E+00  0.9090909E-01  0.0000000E+00  0.1803156E-01
    1       -5.810207   1.000000
    2        3.458148   1.000000
    3        4.744710   1.000000
    4        4.917973   1.000000
    5        7.892753   0.000000
    6        8.857676   0.000000
    7        9.415518   0.000000
    8       10.485313   0.000000
 
  0.2727273E+00  0.9090909E-01  0.0000000E+00  0.1803156E-01
    1       -5.364910   1.000000
    2        1.859989   1.000000
    3        4.429935   1.000000
    4        4.549417   1.000000
    5        7.997969   0.000000
    6        8.864824   0.000000
    7        9.767538   0.000000
    8       10.946102   0.000000
 
  0.3636364E+00  0.9090909E-01  0.0000000E+00  0.1803156E-01
    1       -4.754758   1.000000
    2        0.375171   1.000000
    3        4.172563   1.000000
    4        4.244958   1.000000
    5        7.833920   0.000000
    6        8.920068   0.000000
    7        9.708737   0.000000
    8       11.711434   0.000000
 
  0.4545455E+00  0.9090909E-01  0.0000000E+00  0.1803156E-01
    1       -4.099948   1.000000
    2       -0.796035   1.000000
    3        3.878916   1.000000
    4        4.204004   1.000000
    5        7.690014   0.000000
    6        8.888065   0.000000
    7        9.479580   0.000000
    8       12.939897   0.000000
 
 -0.4545455E+00  0.9090909E-01  0.0000000E+00  0.1803156E-01
    1       -3.837667   1.000000
    2       -1.188211   1.000000
    3        3.704685   1.000000
    4        4.303022   1.000000
    5        7.661003   0.000000
    6        8.946122   0.000000
    7        9.297940   0.000000
    8       13.648311   0.000000
 
 -0.3636364E+00  0.9090909E-01  0.0000000E+00  0.1803156E-01
    1       -4.308379   1.000000
    2       -0.455418   1.000000
    3        3.670689   1.000000
    4        4.526269   1.000000
    5        7.759618   0.000000
    6        9.134471   0.000000
    7        9.219233   0.000000
    8       13.322292   0.000000
 
 -0.2727273E+00  0.9090909E-01  0.0000000E+00  0.1803156E-01
    1       -4.973863   1.000000
    2        0.850093   1.000000
    3        3.792408   1.000000
    4        4.845187   1.000000
    5        7.974599   0.000000
    6        9.147542   0.000000
    7        9.340312   0.000000
    8       12.260704   0.000000
 
 -0.1818182E+00  0.9090909E-01  0.0000000E+00  0.1803156E-01
    1       -5.535237   1.000000
    2        2.377148   1.000000
    3        4.087805   1.000000
    4        5.203996   1.000000
    5        8.271230   0.000000
    6        8.863969   0.000000
    7        9.209604   0.000000
    8       11.366709   0.000000
 
 -0.9090909E-01  0.9090909E-01  0.0000000E+00  0.9015778E-02
    1       -5.915833   1.000000
    2        3.829003   1.000000
    3        4.646496   1.000000
    4        5.475122   1.000000
    5        8.466946   0.000000
    6        8.504386   0.000000
    7        8.628020   0.000000
    8       10.464777   0.000000
 
  0.1818182E+00  0.1818182E+00  0.0000000E+00  0.4507889E-02
    1       -5.632982   1.000000
    2        3.300646   1.000000
    3        4.318464   1.000000
    4        4.318465   1.000000
    5        7.222411   0.000000
    6        9.691503   0.000000
    7       10.161523   0.000000
    8       10.161525   0.000000
 
  0.2727273E+00  0.1818182E+00  0.0000000E+00  0.1803156E-01
    1       -5.252571   1.000000
    2        2.159691   1.000000
    3        3.903367   1.000000
    4        3.980370   1.000000
    5        7.273834   0.000000
    6        9.297153   0.000000
    7       10.444583   0.000000
    8       10.740568   0.000000
 
  0.3636364E+00  0.1818182E+00  0.0000000E+00  0.1803156E-01
    1       -4.691835   1.000000
    2        0.810602   1.000000
    3        3.377082   1.000000
    4        3.786060   1.000000
    5        7.507085   0.000000
    6        9.654543   0.000000
    7       10.243239   0.000000
    8       10.825820   0.000000
 
  0.4545455E+00  0.1818182E+00  0.0000000E+00  0.1803156E-01
    1       -4.025459   1.000000
    2       -0.404645   1.000000
    3        2.906772   1.000000
    4        3.753465   1.000000
    5        7.545256   0.000000
    6       10.012352   0.000000
    7       10.580026   0.000000
    8       10.860233   0.000000
 
 -0.4545455E+00  0.1818182E+00  0.0000000E+00  0.1803156E-01
    1       -3.555048   1.000000
    2       -1.098589   1.000000
    3        2.576769   1.000000
    4        3.881628   1.000000
    5        7.640827   0.000000
    6        9.887780   0.000000
    7       10.294526   0.000000
    8       12.467580   0.000000
 
 -0.3636364E+00  0.1818182E+00  0.0000000E+00  0.1803156E-01
    1       -3.832977   1.000000
    2       -0.696482   1.000000
    3        2.427924   1.000000
    4        4.154575   1.000000
    5        7.884902   0.000000
    6        9.881713   0.000000
    7       10.072196   0.000000
    8       13.274777   0.000000
 
 -0.2727273E+00  0.1818182E+00  0.0000000E+00  0.1803156E-01
    1       -4.490364   1.000000
    2        0.398555   1.000000
    3        2.512219   1.000000
    4        4.534913   1.000000
    5        8.240720   0.000000
    6        9.826904   0.000000
    7        9.936436   0.000000
    8       11.891643   0.000000
 
 -0.1818182E+00  0.1818182E+00  0.0000000E+00  0.9015778E-02
    1       -5.095443   1.000000
    2        1.571135   1.000000
    3        2.991537   1.000000
    4        4.941464   1.000000
    5        8.555638   0.000000
    6        9.340260   0.000000
    7        9.629122   0.000000
    8       11.221734   0.000000
 
  0.2727273E+00  0.2727273E+00  0.0000000E+00  0.4507889E-02
    1       -4.936727   1.000000
    2        1.695726   1.000000
    3        3.608578   1.000000
    4        3.608579   1.000000
    5        6.640961   0.000000
    6        8.426593   0.000000
    7       11.705299   0.000000
    8       11.705300   0.000000
 
  0.3636364E+00  0.2727273E+00  0.0000000E+00  0.1803156E-01
    1       -4.432140   1.000000
    2        0.754625   1.000000
    3        3.081143   1.000000
    4        3.380313   1.000000
    5        6.772200   0.000000
    6        8.140960   0.000000
    7       11.983268   0.000000
    8       12.169542   0.000000
 
  0.4545455E+00  0.2727273E+00  0.0000000E+00  0.1803156E-01
    1       -3.784929   1.000000
    2       -0.257244   1.000000
    3        2.367192   1.000000
    4        3.319480   1.000000
    5        6.971987   0.000000
    6        8.881016   0.000000
    7       11.819769   0.000000
    8       12.041521   0.000000
 
 -0.4545455E+00  0.2727273E+00  0.0000000E+00  0.1803156E-01
    1       -3.184566   1.000000
    2       -1.042474   1.000000
    3        1.804181   1.000000
    4        3.429748   1.000000
    5        7.104220   0.000000
    6       10.343030   0.000000
    7       11.650899   0.000000
    8       11.720309   0.000000
 
 -0.3636364E+00  0.2727273E+00  0.0000000E+00  0.1803156E-01
    1       -3.240300   1.000000
    2       -0.964047   1.000000
    3        1.525443   1.000000
    4        3.699342   1.000000
    5        7.387811   0.000000
    6       11.371450   0.000000
    7       11.388442   0.000000
    8       12.272919   0.000000
 
 -0.2727273E+00  0.2727273E+00  0.0000000E+00  0.9015778E-02
    1       -3.861662   1.000000
    2       -0.218178   1.000000
    3        1.684956   1.000000
    4        4.094450   1.000000
    5        7.821910   0.000000
    6       10.777061   0.000000
    7       11.117303   0.000000
    8       11.940995   0.000000
 
  0.3636364E+00  0.3636364E+00  0.0000000E+00  0.4507889E-02
    1       -3.983183   1.000000
    2        0.100285   1.000000
    3        3.109789   1.000000
    4        3.109792   1.000000
    5        6.290699   0.000000
    6        7.306628   0.000000
    7       13.346134   0.000000
    8       13.346135   0.000000
 
  0.4545455E+00  0.3636364E+00  0.0000000E+00  0.1803156E-01
    1       -3.372128   1.000000
    2       -0.702321   1.000000
    3        2.587171   1.000000
    4        3.006101   1.000000
    5        6.498158   0.000000
    6        7.317293   0.000000
    7       13.665690   0.000000
    8       13.675896   0.000000
 
 -0.4545455E+00  0.3636364E+00  0.0000000E+00  0.1803156E-01
    1       -2.711399   1.000000
    2       -1.407687   1.000000
    3        1.826234   1.000000
    4        3.077782   1.000000
    5        6.667296   0.000000
    6        8.483302   0.000000
    7       13.397768   0.000000
    8       13.531389   0.000000
 
 -0.3636364E+00  0.3636364E+00  0.0000000E+00  0.9015778E-02
    1       -2.651503   1.000000
    2       -1.436734   1.000000
    3        1.351528   1.000000
    4        3.317829   1.000000
    5        6.940044   0.000000
    6       10.185991   0.000000
    7       12.726186   0.000000
    8       13.251886   0.000000
 
  0.4545455E+00  0.4545455E+00  0.0000000E+00  0.4507889E-02
    1       -2.797725   1.000000
    2       -1.418793   1.000000
    3        2.854792   1.000000
    4        2.854795   1.000000
    5        6.253688   0.000000
    6        6.580454   0.000000
    7       15.014731   0.000000
    8       15.014733   0.000000
 
 -0.4545455E+00  0.4545455E+00  0.0000000E+00  0.9015778E-02
    1       -2.164170   1.000000
    2       -2.052250   1.000000
    3        2.424331   1.000000
    4        2.879457   1.000000
    5        6.434331   0.000000
    6        7.008622   0.000000
    7       14.941978   0.000000
    8       15.173073   0.000000
 
  0.2727273E+00  0.1818182E+00  0.9090909E-01  0.1803156E-01
    1       -5.497429   1.000000
    2        2.601893   1.000000
    3        3.821605   1.000000
    4        4.807042   1.000000
    5        7.951740   0.000000
    6        9.172284   0.000000
    7        9.958177   0.000000
    8       10.377004   0.000000
 
  0.3636364E+00  0.1818182E+00  0.9090909E-01  0.3606311E-01
    1       -4.993568   1.000000
    2        1.302136   1.000000
    3        3.264684   1.000000
    4        4.494088   1.000000
    5        8.255224   0.000000
    6        9.135555   0.000000
    7       10.286850   0.000000
    8       10.493402   0.000000
 
  0.4545455E+00  0.1818182E+00  0.9090909E-01  0.3606311E-01
    1       -4.347818   1.000000
    2       -0.017704   1.000000
    3        3.007418   1.000000
    4        4.157376   1.000000
    5        8.278567   0.000000
    6        8.956339   0.000000
    7       10.381468   0.000000
    8       11.324543   0.000000
 
 -0.4545455E+00  0.1818182E+00  0.9090909E-01  0.3606311E-01
    1       -3.747537   1.000000
    2       -0.979212   1.000000
    3        2.906951   1.000000
    4        3.951451   1.000000
    5        8.246920   0.000000
    6        8.766763   0.000000
    7       10.317556   0.000000
    8       12.771701   0.000000
 
  0.3636364E+00  0.2727273E+00  0.9090909E-01  0.1803156E-01
    1       -4.811145   1.000000
    2        1.321001   1.000000
    3        3.117841   1.000000
    4        3.820182   1.000000
    5        7.398486   0.000000
    6        8.916844   0.000000
    7       10.553893   0.000000
    8       11.589660   0.000000
 
  0.4545455E+00  0.2727273E+00  0.9090909E-01  0.3606311E-01
    1       -4.204718   1.000000
    2        0.258061   1.000000
    3        2.550248   1.000000
    4        3.513903   1.000000
    5        7.756129   0.000000
    6        9.326028   0.000000
    7       10.242096   0.000000
    8       11.977017   0.000000
 
 -0.4545455E+00  0.2727273E+00  0.9090909E-01  0.3606311E-01
    1       -3.545693   1.000000
    2       -0.731287   1.000000
    3        2.168658   1.000000
    4        3.362046   1.000000
    5        7.888158   0.000000
    6        9.860562   0.000000
    7       10.669900   0.000000
    8       11.933381   0.000000
 
 -0.3636364E+00  0.2727273E+00  0.9090909E-01  0.3606311E-01
    1       -3.285987   1.000000
    2       -1.072019   1.000000
    3        1.942770   1.000000
    4        3.449699   1.000000
    5        8.096853   0.000000
    6        9.598636   0.000000
    7       11.820848   0.000000
    8       12.337229   0.000000
 
 -0.2727273E+00  0.2727273E+00  0.9090909E-01  0.3606311E-01
    1       -3.780572   1.000000
    2       -0.398051   1.000000
    3        1.935437   1.000000
    4        3.739109   1.000000
    5        8.450250   0.000000
    6        9.412107   0.000000
    7       11.122410   0.000000
    8       11.754166   0.000000
 
 -0.1818182E+00  0.2727273E+00  0.9090909E-01  0.1803156E-01
    1       -4.442927   1.000000
    2        0.566935   1.000000
    3        2.309440   1.000000
    4        4.145142   1.000000
    5        8.875744   0.000000
    6        8.999326   0.000000
    7       10.250830   0.000000
    8       11.301080   0.000000
 
  0.4545455E+00  0.3636364E+00  0.9090909E-01  0.1803156E-01
    1       -3.876308   1.000000
    2       -0.034631   1.000000
    3        2.650279   1.000000
    4        3.035383   1.000000
    5        7.047622   0.000000
    6        7.898660   0.000000
    7       11.918006   0.000000
    8       13.312249   0.000000
 
 -0.4545455E+00  0.3636364E+00  0.9090909E-01  0.3606311E-01
    1       -3.208507   1.000000
    2       -0.844765   1.000000
    3        2.020775   1.000000
    4        2.860834   1.000000
    5        7.390726   0.000000
    6        8.700102   0.000000
    7       11.571603   0.000000
    8       13.670704   0.000000
 
 -0.3636364E+00  0.3636364E+00  0.9090909E-01  0.3606311E-01
    1       -2.750547   1.000000
    2       -1.333208   1.000000
    3        1.510286   1.000000
    4        2.974614   1.000000
    5        7.602598   0.000000
    6       10.254009   0.000000
    7       11.273820   0.000000
    8       12.858673   0.000000
 
 -0.2727273E+00  0.3636364E+00  0.9090909E-01  0.1803156E-01
    1       -3.129774   1.000000
    2       -0.938582   1.000000
    3        1.408055   1.000000
    4        3.291683   1.000000
    5        7.967509   0.000000
    6       10.661694   0.000000
    7       11.384098   0.000000
    8       12.269880   0.000000
 
 -0.4545455E+00  0.4545455E+00  0.9090909E-01  0.1803156E-01
    1       -2.726409   1.000000
    2       -1.417233   1.000000
    3        2.462375   1.000000
    4        2.582430   1.000000
    5        6.981728   0.000000
    6        7.252359   0.000000
    7       13.434816   0.000000
    8       14.826691   0.000000
 
 -0.3636364E+00  0.4545455E+00  0.9090909E-01  0.1803156E-01
    1       -2.232725   1.000000
    2       -1.856212   1.000000
    3        1.817936   1.000000
    4        2.653340   1.000000
    5        7.260769   0.000000
    6        8.494299   0.000000
    7       12.987726   0.000000
    8       13.216112   0.000000
 
 -0.4545455E+00  0.3636364E+00  0.1818182E+00  0.1803156E-01
    1       -3.572640   1.000000
    2       -0.421442   1.000000
    3        1.908518   1.000000
    4        3.059440   1.000000
    5        8.683850   0.000000
    6        9.333461   0.000000
    7        9.871163   0.000000
    8       13.212016   0.000000
 
 -0.3636364E+00  0.3636364E+00  0.1818182E+00  0.3606311E-01
    1       -2.950833   1.000000
    2       -1.110476   1.000000
    3        1.632839   1.000000
    4        2.746169   1.000000
    5        9.057611   0.000000
    6        9.403377   0.000000
    7       10.660841   0.000000
    8       12.506775   0.000000
 
 -0.3636364E+00  0.4545455E+00  0.1818182E+00  0.1803156E-01
    1       -2.545828   1.000000
    2       -1.461757   1.000000
    3        1.861344   1.000000
    4        2.237737   1.000000
    5        8.604663   0.000000
    6        8.813813   0.000000
    7       11.167898   0.000000
    8       12.741964   0.000000
 
 -0.2727273E+00  0.4545455E+00  0.1818182E+00  0.1803156E-01
    1       -2.351105   1.000000
    2       -1.623317   1.000000
    3        1.588474   1.000000
    4        2.273323   1.000000
    5        8.951897   0.000000
    6       10.226780   0.000000
    7       10.938615   0.000000
    8       10.946709   0.000000
