 running on    4 total cores
 distrk:  each k-point on    4 cores,    1 groups
 distr:  one band on    1 cores,    4 groups
 vasp.6.2.0 18Jan21 (build Aug 12 2022 13:00:08) complex                        
  
 POSCAR found type information on POSCAR Si
 POSCAR found :  1 types and       2 ions
 scaLAPACK will be used
 LDA part: xc-table for Pade appr. of Perdew
 POSCAR, INCAR and KPOINTS ok, starting setup
 FFT: planning ...
 WAVECAR not read
 entering main loop
       N       E                     dE             d eps       ncg     rms          rms(c)
DAV:   1     0.210196439847E+01    0.21020E+01   -0.27832E+03   912   0.646E+02
DAV:   2    -0.108712985015E+02   -0.12973E+02   -0.12385E+02  1424   0.683E+01
DAV:   3    -0.110173153541E+02   -0.14602E+00   -0.14602E+00  1208   0.927E+00
DAV:   4    -0.110178519263E+02   -0.53657E-03   -0.53657E-03  1384   0.590E-01
DAV:   5    -0.110178528576E+02   -0.93129E-06   -0.93129E-06  1216   0.188E-02    0.475E+00
DAV:   6    -0.109017480202E+02    0.11610E+00   -0.75803E-02  1088   0.144E+00    0.290E+00
DAV:   7    -0.108480777433E+02    0.53670E-01   -0.14565E-01  1136   0.212E+00    0.174E-01
DAV:   8    -0.108491641503E+02   -0.10864E-02   -0.37655E-03   992   0.460E-01    0.732E-02
DAV:   9    -0.108493639664E+02   -0.19982E-03   -0.20103E-04  1320   0.110E-01    0.560E-02
DAV:  10    -0.108493890977E+02   -0.25131E-04   -0.29842E-05  1032   0.406E-02    0.874E-03
DAV:  11    -0.108493888530E+02    0.24467E-06   -0.56139E-07  1216   0.523E-03
   1 F= -.10849389E+02 E0= -.10849389E+02  d E =-.108494E+02
 curvature:   0.00 expect dE= 0.000E+00 dE for cont linesearch  0.000E+00
 trial: gam= 0.00000 g(F)=  0.201E-42 g(S)=  0.138E-04 ort = 0.000E+00 (trialstep = 0.100E+01)
 search vector abs. value=  0.138E-04
 bond charge predicted
       N       E                     dE             d eps       ncg     rms          rms(c)
DAV:   1    -0.108493958853E+02   -0.67876E-05   -0.21055E-04  1088   0.824E-02    0.143E-02
DAV:   2    -0.108493920099E+02    0.38754E-05   -0.32330E-06  1240   0.123E-02    0.874E-03
DAV:   3    -0.108493894942E+02    0.25157E-05   -0.39444E-06  1040   0.101E-02    0.277E-03
DAV:   4    -0.108493894442E+02    0.49988E-07   -0.37174E-08   504   0.184E-03    0.232E-03
DAV:   5    -0.108493892187E+02    0.22551E-06   -0.13453E-08   472   0.981E-04    0.188E-04
DAV:   6    -0.108493892236E+02   -0.49286E-08   -0.14367E-09   456   0.361E-04
   2 F= -.10849389E+02 E0= -.10849389E+02  d E =-.370600E-06
 trial-energy change:   -0.000000  1 .order   -0.000002   -0.000014    0.000010
 step:   0.5766(harm=  0.5766)  dis= 0.00000  next Energy=   -10.849393 (dE=-0.399E-05)
 bond charge predicted
       N       E                     dE             d eps       ncg     rms          rms(c)
DAV:   1    -0.108493924732E+02   -0.32545E-05   -0.38982E-05  1064   0.355E-02    0.592E-03
DAV:   2    -0.108493919472E+02    0.52602E-06   -0.54500E-07   880   0.507E-03    0.358E-03
DAV:   3    -0.108493918781E+02    0.69086E-07   -0.68737E-07   472   0.435E-03    0.771E-04
DAV:   4    -0.108493919116E+02   -0.33475E-07   -0.29206E-08   448   0.155E-03    0.851E-04
DAV:   5    -0.108493919496E+02   -0.38016E-07   -0.50085E-09   448   0.627E-04    0.336E-04
DAV:   6    -0.108493919990E+02   -0.49397E-07   -0.22372E-09   448   0.386E-04
   3 F= -.10849392E+02 E0= -.10849392E+02  d E =-.314599E-05
 curvature:  -0.29 expect dE=-0.667E-08 dE for cont linesearch -0.667E-08
 trial: gam= 0.00000 g(F)=  0.284E-43 g(S)=  0.231E-07 ort =-0.566E-06 (trialstep = 0.915E+00)
 search vector abs. value=  0.232E-07
 reached required accuracy - stopping structural energy minimisation
