unknown system                          
           1
     3.348133    0.000000    1.933045
     1.116044    3.156652    1.933045
     0.000000    0.000000    3.866091
   Si
     2
Direct configuration=     1
   0.87500000  0.87500000  0.87500000
   0.12500000  0.12500000  0.12500000
unknown system                          
           1
     3.349250   -0.000000    1.933690
     1.116417    3.157705    1.933690
     0.000000    0.000000    3.867381
   Si
     2
Direct configuration=     2
   0.87500000  0.87500000  0.87500000
   0.12500000  0.12500000  0.12500000
unknown system                          
           1
     3.348777   -0.000000    1.933417
     1.116259    3.157259    1.933417
     0.000000    0.000000    3.866835
   Si
     2
Direct configuration=     3
   0.87500000  0.87500000  0.87500000
   0.12500000  0.12500000  0.12500000
