   1   1   0   0
  0.1386300E+02  0.2621157E-09  0.2621157E-09  0.2621157E-09  0.5000000E-15
  1.000000000000000E-004
  CAR 
 unknown system                          
     36.33839989     -6.24881869  301      9.93530851      1.00000000
     -6.249  0.0000E+00  0.0000E+00
     -6.107  0.0000E+00  0.0000E+00
     -5.965  0.0000E+00  0.0000E+00
     -5.823  0.0000E+00  0.0000E+00
     -5.681  0.0000E+00  0.0000E+00
     -5.539  0.0000E+00  0.0000E+00
     -5.397  0.0000E+00  0.0000E+00
     -5.255  0.0000E+00  0.0000E+00
     -5.113  0.0000E+00  0.0000E+00
     -4.971  0.0000E+00  0.0000E+00
     -4.829  0.0000E+00  0.0000E+00
     -4.687  0.0000E+00  0.0000E+00
     -4.545  0.5158E-15  0.7323E-16
     -4.403  0.1091E-06  0.1549E-07
     -4.261  0.6179E-04  0.8787E-05
     -4.119  0.3183E-03  0.5397E-04
     -3.978  0.6137E-03  0.1411E-03
     -3.836  0.6283E-03  0.2303E-03
     -3.694  0.9297E-03  0.3623E-03
     -3.552  0.7070E-03  0.4626E-03
     -3.410  0.9471E-03  0.5971E-03
     -3.268  0.8947E-03  0.7241E-03
     -3.126  0.1492E-02  0.9359E-03
     -2.984  0.1003E-02  0.1078E-02
     -2.842  0.1090E-02  0.1233E-02
     -2.700  0.1594E-02  0.1459E-02
     -2.558  0.1387E-02  0.1656E-02
     -2.416  0.1236E-02  0.1832E-02
     -2.274  0.1097E-02  0.1987E-02
     -2.132  0.1886E-02  0.2255E-02
     -1.990  0.2244E-02  0.2574E-02
     -1.848  0.1413E-02  0.2774E-02
     -1.706  0.9657E-03  0.2912E-02
     -1.564  0.1611E-02  0.3140E-02
     -1.422  0.2435E-02  0.3486E-02
     -1.280  0.1556E-02  0.3707E-02
     -1.138  0.2818E-02  0.4107E-02
     -0.996  0.1351E-02  0.4299E-02
     -0.854  0.1217E-02  0.4471E-02
     -0.712  0.2122E-02  0.4773E-02
     -0.571  0.2449E-02  0.5120E-02
     -0.429  0.2290E-02  0.5446E-02
     -0.287  0.2100E-02  0.5744E-02
     -0.145  0.2477E-02  0.6095E-02
     -0.003  0.1513E-02  0.6310E-02
      0.139  0.2396E-02  0.6650E-02
      0.281  0.2128E-02  0.6952E-02
      0.423  0.2390E-02  0.7292E-02
      0.565  0.2765E-02  0.7684E-02
      0.707  0.2331E-02  0.8015E-02
      0.849  0.2886E-02  0.8425E-02
      0.991  0.2487E-02  0.8778E-02
      1.133  0.1460E-02  0.8985E-02
      1.275  0.2373E-02  0.9322E-02
      1.417  0.3576E-02  0.9829E-02
      1.559  0.2594E-02  0.1020E-01
      1.701  0.1544E-02  0.1042E-01
      1.843  0.4143E-02  0.1100E-01
      1.985  0.2771E-02  0.1140E-01
      2.127  0.3008E-02  0.1183E-01
      2.269  0.1536E-02  0.1204E-01
      2.411  0.2032E-02  0.1233E-01
      2.553  0.3593E-02  0.1284E-01
      2.694  0.3440E-02  0.1333E-01
      2.836  0.3300E-02  0.1380E-01
      2.978  0.3165E-02  0.1425E-01
      3.120  0.2762E-02  0.1464E-01
      3.262  0.3260E-02  0.1510E-01
      3.404  0.2971E-02  0.1552E-01
      3.546  0.2283E-02  0.1585E-01
      3.688  0.1483E-02  0.1606E-01
      3.830  0.3973E-02  0.1662E-01
      3.972  0.4561E-02  0.1727E-01
      4.114  0.2839E-02  0.1767E-01
      4.256  0.3531E-02  0.1817E-01
      4.398  0.3140E-02  0.1862E-01
      4.540  0.3053E-02  0.1905E-01
      4.682  0.3103E-02  0.1949E-01
      4.824  0.2673E-02  0.1987E-01
      4.966  0.2489E-02  0.2023E-01
      5.108  0.5179E-02  0.2096E-01
      5.250  0.2778E-02  0.2136E-01
      5.392  0.3351E-02  0.2183E-01
      5.534  0.5334E-02  0.2259E-01
      5.676  0.2098E-02  0.2289E-01
      5.818  0.2405E-02  0.2323E-01
      5.960  0.4960E-02  0.2393E-01
      6.101  0.3601E-02  0.2444E-01
      6.243  0.3637E-02  0.2496E-01
      6.385  0.2653E-02  0.2534E-01
      6.527  0.3734E-02  0.2587E-01
      6.669  0.3645E-02  0.2638E-01
      6.811  0.4088E-02  0.2697E-01
      6.953  0.4336E-02  0.2758E-01
      7.095  0.4093E-02  0.2816E-01
      7.237  0.4757E-02  0.2884E-01
      7.379  0.2628E-02  0.2921E-01
      7.521  0.3316E-02  0.2968E-01
      7.663  0.4111E-02  0.3026E-01
      7.805  0.4246E-02  0.3087E-01
      7.947  0.5225E-02  0.3161E-01
      8.089  0.2553E-02  0.3197E-01
      8.231  0.2914E-02  0.3238E-01
      8.373  0.5097E-02  0.3311E-01
      8.515  0.5498E-02  0.3389E-01
      8.657  0.4199E-02  0.3449E-01
      8.799  0.3920E-02  0.3504E-01
      8.941  0.3810E-02  0.3558E-01
      9.083  0.5721E-02  0.3639E-01
      9.225  0.3799E-02  0.3693E-01
      9.366  0.3470E-02  0.3743E-01
      9.508  0.5035E-02  0.3814E-01
      9.650  0.4248E-02  0.3874E-01
      9.792  0.4302E-02  0.3935E-01
      9.934  0.4507E-02  0.3999E-01
     10.076  0.6296E-02  0.4089E-01
     10.218  0.4497E-02  0.4153E-01
     10.360  0.4944E-02  0.4223E-01
     10.502  0.4273E-02  0.4284E-01
     10.644  0.2748E-02  0.4323E-01
     10.786  0.5359E-02  0.4399E-01
     10.928  0.4275E-02  0.4459E-01
     11.070  0.5860E-02  0.4542E-01
     11.212  0.2553E-02  0.4579E-01
     11.354  0.3992E-02  0.4635E-01
     11.496  0.3653E-02  0.4687E-01
     11.638  0.3884E-02  0.4742E-01
     11.780  0.4292E-02  0.4803E-01
     11.922  0.6889E-02  0.4901E-01
     12.064  0.4760E-02  0.4969E-01
     12.206  0.4549E-02  0.5033E-01
     12.348  0.2640E-02  0.5071E-01
     12.490  0.2669E-02  0.5109E-01
     12.632  0.6593E-02  0.5202E-01
     12.773  0.3951E-02  0.5258E-01
     12.915  0.5588E-02  0.5338E-01
     13.057  0.3156E-02  0.5382E-01
     13.199  0.4699E-02  0.5449E-01
     13.341  0.5908E-02  0.5533E-01
     13.483  0.4290E-02  0.5594E-01
     13.625  0.4766E-02  0.5662E-01
     13.767  0.4110E-02  0.5720E-01
     13.909  0.5169E-02  0.5793E-01
     14.051  0.5770E-02  0.5875E-01
     14.193  0.6270E-02  0.5964E-01
     14.335  0.5295E-02  0.6039E-01
     14.477  0.3472E-02  0.6089E-01
     14.619  0.3809E-02  0.6143E-01
     14.761  0.4691E-02  0.6209E-01
     14.903  0.6625E-02  0.6303E-01
     15.045  0.4433E-02  0.6366E-01
     15.187  0.5773E-02  0.6448E-01
     15.329  0.3614E-02  0.6500E-01
     15.471  0.7060E-02  0.6600E-01
     15.613  0.6743E-02  0.6696E-01
     15.755  0.5101E-02  0.6768E-01
     15.897  0.3886E-02  0.6823E-01
     16.038  0.4670E-02  0.6889E-01
     16.180  0.4641E-02  0.6955E-01
     16.322  0.5646E-02  0.7035E-01
     16.464  0.6376E-02  0.7126E-01
     16.606  0.5909E-02  0.7210E-01
     16.748  0.5937E-02  0.7294E-01
     16.890  0.3656E-02  0.7346E-01
     17.032  0.5826E-02  0.7429E-01
     17.174  0.7000E-02  0.7528E-01
     17.316  0.7579E-02  0.7636E-01
     17.458  0.8576E-02  0.7757E-01
     17.600  0.3760E-02  0.7811E-01
     17.742  0.6445E-02  0.7902E-01
     17.884  0.5363E-02  0.7978E-01
     18.026  0.4644E-02  0.8044E-01
     18.168  0.6271E-02  0.8133E-01
     18.310  0.4566E-02  0.8198E-01
     18.452  0.5462E-02  0.8276E-01
     18.594  0.1315E-02  0.8294E-01
     18.736  0.3018E-02  0.8337E-01
     18.878  0.5019E-02  0.8408E-01
     19.020  0.2072E-02  0.8438E-01
     19.162  0.5208E-02  0.8512E-01
     19.304  0.4965E-02  0.8582E-01
     19.445  0.3656E-02  0.8634E-01
     19.587  0.3789E-02  0.8688E-01
     19.729  0.5098E-02  0.8760E-01
     19.871  0.4424E-02  0.8823E-01
     20.013  0.1021E-01  0.8968E-01
     20.155  0.8622E-02  0.9091E-01
     20.297  0.3851E-02  0.9145E-01
     20.439  0.3491E-02  0.9195E-01
     20.581  0.5317E-02  0.9270E-01
     20.723  0.6646E-02  0.9365E-01
     20.865  0.5042E-02  0.9436E-01
     21.007  0.5841E-02  0.9519E-01
     21.149  0.5024E-02  0.9590E-01
     21.291  0.5768E-02  0.9672E-01
     21.433  0.7834E-02  0.9783E-01
     21.575  0.6881E-02  0.9881E-01
     21.717  0.7301E-02  0.9985E-01
     21.859  0.8186E-02  0.1010E+00
     22.001  0.1088E-01  0.1026E+00
     22.143  0.7556E-02  0.1036E+00
     22.285  0.4689E-02  0.1043E+00
     22.427  0.5693E-02  0.1051E+00
     22.569  0.6507E-02  0.1060E+00
     22.710  0.4999E-02  0.1067E+00
     22.852  0.8569E-02  0.1080E+00
     22.994  0.8164E-02  0.1091E+00
     23.136  0.5886E-02  0.1099E+00
     23.278  0.7195E-02  0.1110E+00
     23.420  0.4866E-02  0.1117E+00
     23.562  0.4634E-02  0.1123E+00
     23.704  0.2905E-02  0.1127E+00
     23.846  0.3703E-02  0.1133E+00
     23.988  0.5883E-02  0.1141E+00
     24.130  0.5092E-02  0.1148E+00
     24.272  0.3687E-02  0.1153E+00
     24.414  0.7745E-02  0.1164E+00
     24.556  0.6753E-02  0.1174E+00
     24.698  0.6308E-02  0.1183E+00
     24.840  0.7276E-02  0.1193E+00
     24.982  0.7036E-02  0.1203E+00
     25.124  0.8918E-02  0.1216E+00
     25.266  0.6424E-02  0.1225E+00
     25.408  0.4004E-02  0.1231E+00
     25.550  0.4266E-02  0.1237E+00
     25.692  0.6566E-02  0.1246E+00
     25.834  0.5623E-02  0.1254E+00
     25.976  0.7371E-02  0.1264E+00
     26.117  0.7409E-02  0.1275E+00
     26.259  0.4394E-02  0.1281E+00
     26.401  0.5899E-02  0.1290E+00
     26.543  0.7498E-02  0.1300E+00
     26.685  0.6881E-02  0.1310E+00
     26.827  0.6894E-02  0.1320E+00
     26.969  0.5312E-02  0.1327E+00
     27.111  0.4592E-02  0.1334E+00
     27.253  0.8251E-02  0.1346E+00
     27.395  0.3307E-02  0.1350E+00
     27.537  0.6518E-02  0.1360E+00
     27.679  0.7002E-02  0.1369E+00
     27.821  0.3794E-02  0.1375E+00
     27.963  0.4757E-02  0.1382E+00
     28.105  0.7763E-02  0.1393E+00
     28.247  0.6800E-02  0.1402E+00
     28.389  0.6032E-02  0.1411E+00
     28.531  0.1117E-01  0.1427E+00
     28.673  0.7973E-02  0.1438E+00
     28.815  0.7128E-02  0.1448E+00
     28.957  0.4855E-02  0.1455E+00
     29.099  0.6965E-02  0.1465E+00
     29.241  0.5237E-02  0.1472E+00
     29.382  0.7367E-02  0.1483E+00
     29.524  0.4797E-02  0.1490E+00
     29.666  0.5528E-02  0.1497E+00
     29.808  0.7504E-02  0.1508E+00
     29.950  0.4896E-02  0.1515E+00
     30.092  0.4448E-02  0.1521E+00
     30.234  0.1010E-01  0.1536E+00
     30.376  0.6844E-02  0.1545E+00
     30.518  0.8288E-02  0.1557E+00
     30.660  0.4403E-02  0.1563E+00
     30.802  0.3554E-02  0.1569E+00
     30.944  0.4291E-02  0.1575E+00
     31.086  0.2389E-02  0.1578E+00
     31.228  0.2547E-02  0.1582E+00
     31.370  0.1162E-02  0.1583E+00
     31.512  0.9322E-03  0.1585E+00
     31.654  0.5025E-03  0.1585E+00
     31.796  0.2425E-02  0.1589E+00
     31.938  0.1733E-02  0.1591E+00
     32.080  0.9649E-03  0.1593E+00
     32.222  0.6510E-03  0.1593E+00
     32.364  0.8032E-03  0.1595E+00
     32.506  0.1629E-03  0.1595E+00
     32.648  0.6151E-03  0.1596E+00
     32.789  0.6599E-04  0.1596E+00
     32.931  0.2712E-03  0.1596E+00
     33.073  0.5891E-03  0.1597E+00
     33.215  0.3203E-03  0.1598E+00
     33.357  0.2230E-03  0.1598E+00
     33.499  0.6433E-03  0.1599E+00
     33.641  0.4822E-03  0.1599E+00
     33.783  0.2539E-06  0.1599E+00
     33.925  0.6378E-16  0.1599E+00
     34.067  0.8316E-10  0.1599E+00
     34.209  0.2553E-04  0.1599E+00
     34.351  0.1955E-03  0.1600E+00
     34.493  0.1889E-03  0.1600E+00
     34.635  0.8726E-06  0.1600E+00
     34.777  0.4127E-14  0.1600E+00
     34.919  0.0000E+00  0.1600E+00
     35.061  0.0000E+00  0.1600E+00
     35.203  0.0000E+00  0.1600E+00
     35.345  0.0000E+00  0.1600E+00
     35.487  0.0000E+00  0.1600E+00
     35.629  0.0000E+00  0.1600E+00
     35.771  0.0000E+00  0.1600E+00
     35.913  0.0000E+00  0.1600E+00
     36.054  0.0000E+00  0.1600E+00
     36.196  0.0000E+00  0.1600E+00
     36.338  0.0000E+00  0.1600E+00
