    1    1  100    1
  0.1386300E+02  0.2621157E-09  0.2621157E-09  0.2621157E-09  0.5000000E-15
  1.000000000000000E-004
  CAR 
 unknown system                          
      4    220      8
 
  0.0000000E+00  0.0000000E+00  0.0000000E+00  0.1457938E-03
    1       -4.313036   1.000000
    2       21.310219   0.000000
    3       21.310219   0.000000
    4       21.310219   0.000000
    5       22.481882   0.000000
    6       22.481882   0.000000
    7       22.481882   0.000000
    8       26.161762   0.000000
 
  0.5263158E-01  0.0000000E+00  0.0000000E+00  0.1749526E-02
    1       -4.228181   1.000000
    2       20.182500   0.000000
    3       20.479778   0.000000
    4       21.189540   0.000000
    5       22.191855   0.000000
    6       23.087683   0.000000
    7       23.455030   0.000000
    8       25.478801   0.000000
 
  0.1052632E+00  0.0000000E+00  0.0000000E+00  0.1749526E-02
    1       -3.973789   1.000000
    2       18.239111   0.000000
    3       19.383293   0.000000
    4       20.848723   0.000000
    5       21.494417   0.000000
    6       23.290921   0.000000
    7       24.968586   0.000000
    8       24.997753   0.000000
 
  0.1578947E+00  0.0000000E+00  0.0000000E+00  0.1749526E-02
    1       -3.550484   1.000000
    2       16.055404   0.000000
    3       18.396661   0.000000
    4       20.355264   0.000000
    5       20.657431   0.000000
    6       22.657362   0.000000
    7       25.462494   0.000000
    8       26.000100   0.000000
 
  0.2105263E+00  0.0000000E+00  0.0000000E+00  0.1749526E-02
    1       -2.959323   1.000000
    2       13.821760   0.000000
    3       17.545066   0.000000
    4       19.800949   0.000000
    5       19.837760   0.000000
    6       21.904500   0.000000
    7       26.210427   0.000000
    8       26.305438   0.000000
 
  0.2631579E+00  0.0000000E+00  0.0000000E+00  0.1749526E-02
    1       -2.201816   1.000000
    2       11.633395   0.000000
    3       16.833267   0.000000
    4       19.105960   0.000000
    5       19.263692   0.000000
    6       21.230668   0.000000
    7       26.812596   0.000000
    8       27.066492   0.000000
 
  0.3157895E+00  0.0000000E+00  0.0000000E+00  0.1749526E-02
    1       -1.279800   1.000000
    2        9.539638   1.000000
    3       16.264028   0.000000
    4       18.500562   0.000000
    5       18.795236   0.000000
    6       20.674876   0.000000
    7       27.503966   0.000000
    8       28.018660   0.000000
 
  0.3684211E+00  0.0000000E+00  0.0000000E+00  0.1749526E-02
    1       -0.196021   1.000000
    2        7.563043   1.000000
    3       15.836978   0.000000
    4       18.035488   0.000000
    5       18.425407   0.000000
    6       20.242573   0.000000
    7       28.331546   0.000000
    8       29.020048   0.000000
 
  0.4210526E+00  0.0000000E+00  0.0000000E+00  0.1749526E-02
    1        1.045661   1.000000
    2        5.722018   1.000000
    3       15.552290   0.000000
    4       17.721630   0.000000
    5       18.171466   0.000000
    6       19.949491   0.000000
    7       29.243483   0.000000
    8       29.997269   0.000000
 
  0.4736842E+00  0.0000000E+00  0.0000000E+00  0.1749526E-02
    1        2.430617   1.000000
    2        4.036167   1.000000
    3       15.410051   0.000000
    4       17.563767   0.000000
    5       18.042509   0.000000
    6       19.802153   0.000000
    7       30.044216   0.000000
    8       30.710246   0.000000
 
  0.5263158E-01  0.5263158E-01  0.6938894E-17  0.3499052E-02
    1       -4.058550   1.000000
    2       18.997088   0.000000
    3       19.506994   0.000000
    4       20.506600   0.000000
    5       22.268085   0.000000
    6       23.363185   0.000000
    7       24.470869   0.000000
    8       24.754832   0.000000
 
  0.1052632E+00  0.5263158E-01  0.3469447E-17  0.6998105E-02
    1       -3.719680   1.000000
    2       17.160518   0.000000
    3       18.297438   0.000000
    4       19.802245   0.000000
    5       21.885777   0.000000
    6       23.328063   0.000000
    7       24.634627   0.000000
    8       25.698551   0.000000
 
  0.1578947E+00  0.5263158E-01  0.6938894E-17  0.6998105E-02
    1       -3.212465   1.000000
    2       14.978874   0.000000
    3       17.341287   0.000000
    4       19.066992   0.000000
    5       21.311286   0.000000
    6       22.713326   0.000000
    7       25.070769   0.000000
    8       26.780852   0.000000
 
  0.2105263E+00  0.5263158E-01  0.1734723E-16  0.6998105E-02
    1       -2.538131   1.000000
    2       12.770897   0.000000
    3       16.540930   0.000000
    4       18.363724   0.000000
    5       20.697772   0.000000
    6       22.109111   0.000000
    7       25.592695   0.000000
    8       27.581656   0.000000
 
  0.2631579E+00  0.5263158E-01  0.3469447E-17  0.6998105E-02
    1       -1.698340   1.000000
    2       10.629700   0.000000
    3       15.885573   0.000000
    4       17.749364   0.000000
    5       20.131769   0.000000
    6       21.577855   0.000000
    7       26.252853   0.000000
    8       28.432214   0.000000
 
  0.3157895E+00  0.5263158E-01  0.3122502E-16  0.6998105E-02
    1       -0.695340   1.000000
    2        8.594340   1.000000
    3       15.374921   0.000000
    4       17.253873   0.000000
    5       19.663359   0.000000
    6       21.140520   0.000000
    7       27.063641   0.000000
    8       29.335388   0.000000
 
  0.3684211E+00  0.5263158E-01  0.3469447E-17  0.6998105E-02
    1        0.467699   1.000000
    2        6.684745   1.000000
    3       15.009547   0.000000
    4       16.892814   0.000000
    5       19.316978   0.000000
    6       20.814648   0.000000
    7       28.008739   0.000000
    8       30.179540   0.000000
 
  0.4210526E+00  0.5263158E-01  0.3122502E-16  0.6998105E-02
    1        1.784815   1.000000
    2        4.917348   1.000000
    3       14.790087   0.000000
    4       16.673624   0.000000
    5       19.105325   0.000000
    6       20.614221   0.000000
    7       29.029683   0.000000
    8       30.592280   0.000000
 
  0.4736842E+00  0.5263158E-01  0.5898060E-16  0.3499052E-02
    1        3.076336   1.000000
    2        3.475349   1.000000
    3       14.716851   0.000000
    4       16.600303   0.000000
    5       19.034434   0.000000
    6       20.547134   0.000000
    7       29.850670   0.000000
    8       30.247576   0.000000
 
  0.1052632E+00  0.1052632E+00  0.1387779E-16  0.3499052E-02
    1       -3.296911   1.000000
    2       15.978244   0.000000
    3       16.501581   0.000000
    4       18.910332   0.000000
    5       21.988542   0.000000
    6       23.264622   0.000000
    7       24.861485   0.000000
    8       26.160821   0.000000
 
  0.1578947E+00  0.1052632E+00  0.6938894E-17  0.6998105E-02
    1       -2.706487   1.000000
    2       14.003925   0.000000
    3       15.406607   0.000000
    4       18.143781   0.000000
    5       21.706116   0.000000
    6       23.030065   0.000000
    7       25.209958   0.000000
    8       27.123673   0.000000
 
  0.2105263E+00  0.1052632E+00  0.1387779E-16  0.6998105E-02
    1       -1.949873   1.000000
    2       11.852042   0.000000
    3       14.641670   0.000000
    4       17.470264   0.000000
    5       21.206466   0.000000
    6       22.922562   0.000000
    7       25.432661   0.000000
    8       28.402705   0.000000
 
  0.2631579E+00  0.1052632E+00  0.1387779E-16  0.6998105E-02
    1       -1.028990   1.000000
    2        9.770275   0.999998
    3       14.036660   0.000000
    4       16.912172   0.000000
    5       20.709337   0.000000
    6       22.770851   0.000000
    7       25.899718   0.000000
    8       29.541667   0.000000
 
  0.3157895E+00  0.1052632E+00  0.4163336E-16  0.6998105E-02
    1        0.053548   1.000000
    2        7.800264   1.000000
    3       13.582541   0.000000
    4       16.484629   0.000000
    5       20.305529   0.000000
    6       22.577102   0.000000
    7       26.636023   0.000000
    8       30.366496   0.000000
 
  0.3684211E+00  0.1052632E+00  0.6938894E-17  0.6998105E-02
    1        1.293806   1.000000
    2        5.962765   1.000000
    3       13.279138   0.000000
    4       16.196105   0.000000
    5       20.026651   0.000000
    6       22.410896   0.000000
    7       27.579658   0.000000
    8       30.487887   0.000000
 
  0.4210526E+00  0.1052632E+00  0.3469447E-16  0.6998105E-02
    1        2.677571   1.000000
    2        4.279039   1.000000
    3       13.127244   0.000000
    4       16.050894   0.000000
    5       19.884719   0.000000
    6       22.318411   0.000000
    7       28.631221   0.000000
    8       29.758003   0.000000
 
  0.1578947E+00  0.1578947E+00  0.0000000E+00  0.3499052E-02
    1       -2.033776   1.000000
    2       13.007296   0.000000
    3       13.423091   0.000000
    4       17.409049   0.000000
    5       21.912224   0.000000
    6       22.894943   0.000000
    7       26.123718   0.000000
    8       27.370701   0.000000
 
  0.2105263E+00  0.1578947E+00  0.1387779E-16  0.6998105E-02
    1       -1.196011   1.000000
    2       11.071333   0.000000
    3       12.553360   0.000000
    4       16.791124   0.000000
    5       21.720637   0.000000
    6       23.087182   0.000000
    7       26.384695   0.000000
    8       28.499383   0.000000
 
  0.2631579E+00  0.1578947E+00 -0.2775558E-16  0.6998105E-02
    1       -0.195429   1.000000
    2        9.060205   1.000000
    3       12.002533   0.000000
    4       16.298046   0.000000
    5       21.349202   0.000000
    6       23.517854   0.000000
    7       26.430209   0.000000
    8       29.758017   0.000000
 
  0.3157895E+00  0.1578947E+00 -0.1387779E-16  0.6998105E-02
    1        0.964885   1.000000
    2        7.161483   1.000000
    3       11.612747   0.000000
    4       15.939820   0.000000
    5       21.033666   0.000000
    6       23.866143   0.000000
    7       26.742561   0.000000
    8       30.145956   0.000000
 
  0.3684211E+00  0.1578947E+00  0.0000000E+00  0.6998105E-02
    1        2.279023   1.000000
    2        5.400676   1.000000
    3       11.379150   0.000000
    4       15.722911   0.000000
    5       20.834430   0.000000
    6       24.033235   0.000000
    7       27.413276   0.000000
    8       29.520574   0.000000
 
  0.4210526E+00  0.1578947E+00  0.2775558E-16  0.3499052E-02
    1        3.572784   1.000000
    2        3.957369   1.000000
    3       11.301278   0.000000
    4       15.650225   0.000000
    5       20.766658   0.000000
    6       24.074033   0.000000
    7       28.079041   0.000000
    8       28.799106   0.000000
 
  0.2105263E+00  0.2105263E+00  0.1387779E-16  0.3499052E-02
    1       -0.278514   1.000000
    2       10.302487   0.000000
    3       10.641805   0.000000
    4       16.237746   0.000000
    5       22.156629   0.000000
    6       23.026050   0.000000
    7       27.710924   0.000000
    8       28.471955   0.000000
 
  0.2631579E+00  0.2105263E+00 -0.1387779E-16  0.6998105E-02
    1        0.800060   1.000000
    2        8.499474   1.000000
    3       10.019647   0.008529
    4       15.813516   0.000000
    5       22.104112   0.000000
    6       23.546983   0.000000
    7       27.794372   0.000000
    8       29.300280   0.000000
 
  0.3157895E+00  0.2105263E+00  0.4163336E-16  0.6998105E-02
    1        2.035763   1.000000
    2        6.680081   1.000000
    3        9.697095   1.000000
    4       15.526676   0.000000
    5       21.910859   0.000000
    6       24.331837   0.000000
    7       27.494196   0.000000
    8       29.471773   0.000000
 
  0.3684211E+00  0.2105263E+00  0.2775558E-16  0.6998105E-02
    1        3.415101   1.000000
    2        5.005121   1.000000
    3        9.537705   1.000000
    4       15.381927   0.000000
    5       21.795590   0.000000
    6       24.978830   0.000000
    7       27.184260   0.000000
    8       29.181182   0.000000
 
  0.2631579E+00  0.2631579E+00  0.0000000E+00  0.3499052E-02
    1        1.954324   1.000000
    2        7.966002   1.000000
    3        8.273706   1.000000
    4       15.460556   0.000000
    5       22.752895   0.000000
    6       23.641423   0.000000
    7       28.026629   0.000000
    8       29.618315   0.000000
 
  0.3157895E+00  0.2631579E+00  0.5551115E-16  0.6998105E-02
    1        3.261360   1.000000
    2        6.354674   1.000000
    3        7.897740   1.000000
    4       15.245933   0.000000
    5       22.868403   0.000000
    6       24.397110   0.000000
    7       26.994102   0.000000
    8       30.367722   0.000000
 
  0.3684211E+00  0.2631579E+00  0.5551115E-16  0.3499052E-02
    1        4.552864   1.000000
    2        4.920381   1.000000
    3        7.813015   1.000000
    4       15.173790   0.000000
    5       22.850192   0.000000
    6       25.088261   0.000000
    7       26.229284   0.000000
    8       30.538671   0.000000
 
  0.3157895E+00  0.3157895E+00  0.2775558E-16  0.3499052E-02
    1        4.623331   1.000000
    2        6.075799   1.000000
    3        6.361288   1.000000
    4       15.103800   0.000000
    5       23.587878   0.000000
    6       24.719801   0.000000
    7       25.820390   0.000000
    8       31.807117   0.000000
 
  0.5263158E-01  0.5263158E-01  0.5263158E-01  0.1166351E-02
    1       -3.804358   1.000000
    2       17.799776   0.000000
    3       18.807809   0.000000
    4       18.807809   0.000000
    5       23.124204   0.000000
    6       23.124204   0.000000
    7       25.422280   0.000000
    8       25.422280   0.000000
 
  0.1052632E+00  0.5263158E-01  0.5263158E-01  0.3499052E-02
    1       -3.381413   1.000000
    2       16.101853   0.000000
    3       17.308494   0.000000
    4       17.984705   0.000000
    5       22.815869   0.000000
    6       23.584611   0.000000
    7       25.327686   0.000000
    8       25.956487   0.000000
 
  0.1578947E+00  0.5263158E-01  0.5263158E-01  0.3499052E-02
    1       -2.790748   1.000000
    2       13.953485   0.000000
    3       16.344247   0.000000
    4       17.185750   0.000000
    5       22.412576   0.000000
    6       23.179208   0.000000
    7       26.094692   0.000000
    8       26.417364   0.000000
 
  0.2105263E+00  0.5263158E-01  0.5263158E-01  0.3499052E-02
    1       -2.033834   1.000000
    2       11.784002   0.000000
    3       15.593008   0.000000
    4       16.478451   0.000000
    5       21.965982   0.000000
    6       22.619354   0.000000
    7       26.961830   0.000000
    8       27.046300   0.000000
 
  0.2631579E+00  0.5263158E-01  0.5263158E-01  0.3499052E-02
    1       -1.112581   1.000000
    2        9.695806   1.000000
    3       14.999954   0.000000
    4       15.893402   0.000000
    5       21.543848   0.000000
    6       22.120263   0.000000
    7       27.652391   0.000000
    8       28.052650   0.000000
 
  0.3157895E+00  0.5263158E-01  0.5263158E-01  0.3499052E-02
    1       -0.029602   1.000000
    2        7.722939   1.000000
    3       14.556592   0.000000
    4       15.445783   0.000000
    5       21.196226   0.000000
    6       21.725147   0.000000
    7       28.474214   0.000000
    8       29.084796   0.000000
 
  0.3684211E+00  0.5263158E-01  0.5263158E-01  0.3499052E-02
    1        1.211185   1.000000
    2        5.883232   1.000000
    3       14.260862   0.000000
    4       15.144181   0.000000
    5       20.952566   0.000000
    6       21.453077   0.000000
    7       29.370202   0.000000
    8       30.074825   0.000000
 
  0.4210526E+00  0.5263158E-01  0.5263158E-01  0.3499052E-02
    1        2.595401   1.000000
    2        4.198569   1.000000
    3       14.113069   0.000000
    4       14.992282   0.000000
    5       20.827125   0.000000
    6       21.316624   0.000000
    7       30.145905   0.000000
    8       30.792198   0.000000
 
 -0.5263158E-01  0.5263158E-01  0.5263158E-01  0.8747631E-03
    1       -4.143336   1.000000
    2       19.805543   0.000000
    3       19.805543   0.000000
    4       20.624655   0.000000
    5       22.648125   0.000000
    6       23.522320   0.000000
    7       23.522320   0.000000
    8       24.356888   0.000000
 
  0.1052632E+00  0.1052632E+00  0.5263158E-01  0.3499052E-02
    1       -2.875022   1.000000
    2       14.962483   0.000000
    3       15.586543   0.000000
    4       16.821488   0.000000
    5       23.210352   0.000000
    6       24.073736   0.000000
    7       25.464777   0.000000
    8       26.404303   0.000000
 
  0.1578947E+00  0.1052632E+00  0.5263158E-01  0.6998105E-02
    1       -2.201782   1.000000
    2       13.041944   0.000000
    3       14.503258   0.000000
    4       16.017467   0.000000
    5       23.098815   0.000000
    6       24.041987   0.000000
    7       26.032434   0.000000
    8       27.185088   0.000000
 
  0.2105263E+00  0.1052632E+00  0.5263158E-01  0.6998105E-02
    1       -1.363345   1.000000
    2       10.934588   0.000000
    3       13.799119   0.000000
    4       15.356707   0.000000
    5       22.775568   0.000000
    6       23.795790   0.000000
    7       26.684500   0.000000
    8       28.229446   0.000000
 
  0.2631579E+00  0.1052632E+00  0.5263158E-01  0.6998105E-02
    1       -0.361923   1.000000
    2        8.909022   1.000000
    3       13.262981   0.000000
    4       14.836106   0.000000
    5       22.419883   0.000000
    6       23.533406   0.000000
    7       27.443003   0.000000
    8       29.290278   0.000000
 
  0.3157895E+00  0.1052632E+00  0.5263158E-01  0.6998105E-02
    1        0.799408   1.000000
    2        7.004973   1.000000
    3       12.880769   0.000000
    4       14.460880   0.000000
    5       22.130580   0.000000
    6       23.309140   0.000000
    7       28.339926   0.000000
    8       30.226101   0.000000
 
  0.3684211E+00  0.1052632E+00  0.5263158E-01  0.6998105E-02
    1        2.114666   1.000000
    2        5.240915   1.000000
    3       12.651346   0.000000
    4       14.234225   0.000000
    5       21.946579   0.000000
    6       23.161000   0.000000
    7       29.307046   0.000000
    8       30.716289   0.000000
 
  0.4210526E+00  0.1052632E+00  0.5263158E-01  0.3499052E-02
    1        3.407455   1.000000
    2        3.798066   1.000000
    3       12.574673   0.000000
    4       14.158703   0.000000
    5       21.884047   0.000000
    6       23.109677   0.000000
    7       30.034512   0.000000
    8       30.499201   0.000000
 
 -0.1052632E+00  0.1052632E+00  0.5263158E-01  0.3499052E-02
    1       -3.889045   1.000000
    2       18.193493   0.000000
    3       18.758631   0.000000
    4       20.227456   0.000000
    5       22.203138   0.000000
    6       23.189457   0.000000
    7       24.075763   0.000000
    8       24.730203   0.000000
 
  0.1578947E+00  0.1578947E+00  0.5263158E-01  0.3499052E-02
    1       -1.446980   1.000000
    2       12.109700   0.000000
    3       12.542319   0.000000
    4       15.260781   0.000000
    5       23.430165   0.000000
    6       24.433179   0.000000
    7       26.632528   0.000000
    8       27.766460   0.000000
 
  0.2105263E+00  0.1578947E+00  0.5263158E-01  0.6998105E-02
    1       -0.528320   1.000000
    2       10.225907   0.000000
    3       11.735433   0.000000
    4       14.665154   0.000000
    5       23.404645   0.000000
    6       24.639425   0.000000
    7       27.155907   0.000000
    8       28.811817   0.000000
 
  0.2631579E+00  0.1578947E+00  0.5263158E-01  0.6998105E-02
    1        0.551690   1.000000
    2        8.274598   1.000000
    3       11.257415   0.000000
    4       14.216102   0.000000
    5       23.183056   0.000000
    6       24.871388   0.000000
    7       27.588554   0.000000
    8       29.988598   0.000000
 
  0.3157895E+00  0.1578947E+00  0.5263158E-01  0.6998105E-02
    1        1.789101   1.000000
    2        6.444458   1.000000
    3       10.942854   0.000000
    4       13.914740   0.000000
    5       22.979417   0.000000
    6       24.986233   0.000000
    7       28.263074   0.000000
    8       30.536256   0.000000
 
  0.3684211E+00  0.1578947E+00  0.5263158E-01  0.6998105E-02
    1        3.170224   1.000000
    2        4.765089   1.000000
    3       10.786102   0.000000
    4       13.763502   0.000000
    5       22.867153   0.000000
    6       25.015271   0.000000
    7       29.095738   0.000000
    8       30.167199   0.000000
 
 -0.1578947E+00  0.1578947E+00  0.5263158E-01  0.3499052E-02
    1       -3.465910   1.000000
    2       16.087249   0.000000
    3       17.778013   0.000000
    4       19.803765   0.000000
    5       21.404842   0.000000
    6       22.473362   0.000000
    7       24.308346   0.000000
    8       26.385598   0.000000
 
 -0.1052632E+00  0.1578947E+00  0.5263158E-01  0.3499052E-02
    1       -3.550457   1.000000
    2       17.033638   0.000000
    3       17.338168   0.000000
    4       19.693526   0.000000
    5       22.029408   0.000000
    6       22.280852   0.000000
    7       24.622791   0.000000
    8       25.395367   0.000000
 
  0.2105263E+00  0.2105263E+00  0.5263158E-01  0.3499052E-02
    1        0.469019   1.000000
    2        9.529478   1.000000
    3        9.874134   0.958208
    4       14.140707   0.000000
    5       23.898764   0.000000
    6       24.907076   0.000000
    7       28.315575   0.000000
    8       29.034436   0.000000
 
  0.2631579E+00  0.2105263E+00  0.5263158E-01  0.6998105E-02
    1        1.625575   1.000000
    2        7.790753   1.000000
    3        9.326243   1.000000
    4       13.765027   0.000000
    5       23.992161   0.000000
    6       25.416429   0.000000
    7       28.596073   0.000000
    8       29.847544   0.000000
 
  0.3157895E+00  0.2105263E+00  0.5263158E-01  0.6998105E-02
    1        2.935533   1.000000
    2        6.043246   1.000000
    3        9.081169   1.000000
    4       13.538469   0.000000
    5       23.918000   0.000000
    6       26.029347   0.000000
    7       28.554191   0.000000
    8       30.155642   0.000000
 
  0.3684211E+00  0.2105263E+00  0.5263158E-01  0.3499052E-02
    1        4.228655   1.000000
    2        4.602467   1.000000
    3        9.000396   1.000000
    4       13.462907   0.000000
    5       23.880572   0.000000
    6       26.311649   0.000000
    7       28.541223   0.000000
    8       30.061854   0.000000
 
 -0.2105263E+00  0.2105263E+00  0.5263158E-01  0.3499052E-02
    1       -2.874988   1.000000
    2       13.880261   0.000000
    3       16.918719   0.000000
    4       19.250725   0.000000
    5       20.605568   0.000000
    6       21.988843   0.000000
    7       24.512090   0.000000
    8       28.170537   0.000000
 
 -0.1578947E+00  0.2105263E+00  0.5263158E-01  0.6998105E-02
    1       -3.043618   1.000000
    2       15.063376   0.000000
    3       16.286981   0.000000
    4       19.244147   0.000000
    5       21.369361   0.000000
    6       21.881823   0.000000
    7       24.782459   0.000000
    8       26.720245   0.000000
 
  0.2631579E+00  0.2631579E+00  0.5263158E-01  0.3499052E-02
    1        2.855674   1.000000
    2        7.333640   1.000000
    3        7.647546   1.000000
    4       13.463972   0.000000
    5       24.637612   0.000000
    6       25.747015   0.000000
    7       28.781488   0.000000
    8       30.314613   0.000000
 
  0.3157895E+00  0.2631579E+00  0.5263158E-01  0.6998105E-02
    1        4.227763   1.000000
    2        5.804570   1.000000
    3        7.348608   1.000000
    4       13.313207   0.000000
    5       24.840262   0.000000
    6       26.430737   0.000000
    7       27.948871   0.000000
    8       31.093804   0.000000
 
 -0.2631579E+00  0.2631579E+00  0.5263158E-01  0.3499052E-02
    1       -2.117772   1.000000
    2       11.702963   0.000000
    3       16.195598   0.000000
    4       18.677854   0.000000
    5       19.891123   0.000000
    6       21.569597   0.000000
    7       24.907442   0.000000
    8       28.974798   0.000000
 
 -0.2105263E+00  0.2631579E+00  0.5263158E-01  0.6998105E-02
    1       -2.369828   1.000000
    2       12.898157   0.000000
    3       15.471146   0.000000
    4       18.704796   0.000000
    5       20.640618   0.000000
    6       21.865268   0.000000
    7       24.673348   0.000000
    8       28.351811   0.000000
 
 -0.1578947E+00  0.2631579E+00  0.5263158E-01  0.3499052E-02
    1       -2.453911   1.000000
    2       14.017431   0.000000
    3       14.385546   0.000000
    4       18.865116   0.000000
    5       21.188680   0.000000
    6       21.355028   0.000000
    7       25.788516   0.000000
    8       26.919666   0.000000
 
  0.3157895E+00  0.3157895E+00  0.5263158E-01  0.1166351E-02
    1        5.379967   1.000000
    2        5.886942   1.000000
    3        5.886942   1.000000
    4       13.238057   0.000000
    5       25.303290   0.000000
    6       26.977980   0.000000
    7       26.977980   0.000000
    8       32.526262   0.000000
 
 -0.3157895E+00  0.3157895E+00  0.5263158E-01  0.3499052E-02
    1       -1.196161   1.000000
    2        9.614402   1.000000
    3       15.614276   0.000000
    4       18.170066   0.000000
    5       19.298874   0.000000
    6       21.183551   0.000000
    7       25.541021   0.000000
    8       29.800077   0.000000
 
 -0.2631579E+00  0.3157895E+00  0.5263158E-01  0.6998105E-02
    1       -1.530694   1.000000
    2       10.774004   0.000000
    3       14.802391   0.000000
    4       18.171091   0.000000
    5       20.001459   0.000000
    6       21.921791   0.000000
    7       24.742934   0.000000
    8       29.723749   0.000000
 
 -0.2105263E+00  0.3157895E+00  0.5263158E-01  0.6998105E-02
    1       -1.698178   1.000000
    2       12.048827   0.000000
    3       13.471019   0.000000
    4       18.411569   0.000000
    5       20.623604   0.000000
    6       21.543288   0.000000
    7       25.872262   0.000000
    8       28.159598   0.000000
 
 -0.3684211E+00  0.3684211E+00  0.5263158E-01  0.3499052E-02
    1       -0.112800   1.000000
    2        7.640826   1.000000
    3       15.176944   0.000000
    4       17.768829   0.000000
    5       18.846353   0.000000
    6       20.858190   0.000000
    7       26.375474   0.000000
    8       30.453465   0.000000
 
 -0.3157895E+00  0.3684211E+00  0.5263158E-01  0.6998105E-02
    1       -0.528564   1.000000
    2        8.746918   1.000000
    3       14.279862   0.000000
    4       17.719189   0.000000
    5       19.485041   0.000000
    6       21.892766   0.000000
    7       25.158159   0.000000
    8       30.411400   0.000000
 
 -0.2631579E+00  0.3684211E+00  0.5263158E-01  0.6998105E-02
    1       -0.778409   1.000000
    2        9.991278   0.056704
    3       12.851461   0.000000
    4       17.959253   0.000000
    5       20.071248   0.000000
    6       22.026407   0.000000
    7       25.668716   0.000000
    8       29.502537   0.000000
 
 -0.2105263E+00  0.3684211E+00  0.5263158E-01  0.3499052E-02
    1       -0.861776   1.000000
    2       11.212645   0.000000
    3       11.539987   0.000000
    4       18.042119   0.000000
    5       20.862937   0.000000
    6       21.184899   0.000000
    7       27.238897   0.000000
    8       27.991611   0.000000
 
 -0.4210526E+00  0.4210526E+00  0.5263158E-01  0.3499052E-02
    1        1.128382   1.000000
    2        5.801647   1.000000
    3       14.884831   0.000000
    4       17.493478   0.000000
    5       18.540882   0.000000
    6       20.625890   0.000000
    7       27.374810   0.000000
    8       30.448646   0.000000
 
 -0.3684211E+00  0.4210526E+00  0.5263158E-01  0.6998105E-02
    1        0.633576   1.000000
    2        6.842058   1.000000
    3       13.905561   0.000000
    4       17.383000   0.000000
    5       19.108395   0.000000
    6       21.793202   0.000000
    7       25.902587   0.000000
    8       30.187768   0.000000
 
 -0.3157895E+00  0.4210526E+00  0.5263158E-01  0.6998105E-02
    1        0.302740   1.000000
    2        8.031981   1.000000
    3       12.389768   0.000000
    4       17.585877   0.000000
    5       19.635766   0.000000
    6       22.566138   0.000000
    7       25.625003   0.000000
    8       29.758494   0.000000
 
 -0.2631579E+00  0.4210526E+00  0.5263158E-01  0.6998105E-02
    1        0.137063   1.000000
    2        9.355991   1.000000
    3       10.849159   0.000000
    4       17.664541   0.000000
    5       20.531808   0.000000
    6       21.732289   0.000000
    7       27.170882   0.000000
    8       28.827126   0.000000
 
 -0.4736842E+00  0.4736842E+00  0.5263158E-01  0.3499052E-02
    1        2.512916   1.000000
    2        4.116700   1.000000
    3       14.738712   0.000000
    4       17.353870   0.000000
    5       18.387753   0.000000
    6       20.505504   0.000000
    7       28.472527   0.000000
    8       29.619049   0.000000
 
 -0.4210526E+00  0.4736842E+00  0.5263158E-01  0.6998105E-02
    1        1.949593   1.000000
    2        5.077599   1.000000
    3       13.680325   0.000000
    4       17.177143   0.000000
    5       18.879258   0.000000
    6       21.700599   0.000000
    7       26.879227   0.000000
    8       29.227906   0.000000
 
 -0.3684211E+00  0.4736842E+00  0.5263158E-01  0.6998105E-02
    1        1.541387   1.000000
    2        6.200519   1.000000
    3       12.081429   0.000000
    4       17.325648   0.000000
    5       19.337710   0.000000
    6       22.979831   0.000000
    7       25.920430   0.000000
    8       28.957684   0.000000
 
 -0.3157895E+00  0.4736842E+00  0.5263158E-01  0.6998105E-02
    1        1.295319   1.000000
    2        7.472838   1.000000
    3       10.450948   0.000000
    4       17.362186   0.000000
    5       20.192745   0.000000
    6       22.560941   0.000000
    7       26.687936   0.000000
    8       28.882202   0.000000
 