       N       E                     dE             d eps       ncg     rms          rms(c)
DAV:   1    -0.325268842040E+01   -0.32527E+01   -0.14761E+03  3912   0.278E+02
DAV:   2    -0.489531649085E+01   -0.16426E+01   -0.15534E+01  5360   0.239E+01
DAV:   3    -0.490312054138E+01   -0.78041E-02   -0.77983E-02  3872   0.163E+00
DAV:   4    -0.490312527440E+01   -0.47330E-05   -0.47328E-05  5672   0.426E-02
DAV:   5    -0.490312527424E+01    0.16308E-09   -0.13451E-08  3928   0.392E-04    0.286E+00
DAV:   6    -0.489155190540E+01    0.11573E-01   -0.36412E-03  3648   0.267E-01    0.159E+00
DAV:   7    -0.488493555454E+01    0.66164E-02   -0.72823E-03  3864   0.378E-01    0.137E-01
DAV:   8    -0.488491404325E+01    0.21511E-04   -0.32321E-05  5064   0.429E-02    0.100E-02
DAV:   9    -0.488491456015E+01   -0.51690E-06   -0.41287E-07  3976   0.359E-03
   1 F= -.48849146E+01 E0= -.48846374E+01  d E =-.488491E+01
       N       E                     dE             d eps       ncg     rms          rms(c)
DAV:   1    -0.490470643410E+01   -0.19792E-01   -0.48171E-01  3584   0.276E+00    0.651E-01
DAV:   2    -0.489946746913E+01    0.52390E-02   -0.26105E-03  3984   0.371E-01    0.371E-01
DAV:   3    -0.489639248028E+01    0.30750E-02   -0.34096E-03  3888   0.247E-01    0.113E-01
DAV:   4    -0.489638923874E+01    0.32415E-05   -0.60189E-06  4464   0.214E-02    0.943E-02
DAV:   5    -0.489637721737E+01    0.12021E-04   -0.11862E-06  4432   0.733E-03    0.155E-02
DAV:   6    -0.489637762236E+01   -0.40498E-06   -0.22063E-08  1904   0.119E-03
   2 F= -.48963776E+01 E0= -.48960193E+01  d E =-.114631E-01
       N       E                     dE             d eps       ncg     rms          rms(c)
DAV:   1    -0.489780220258E+01   -0.14250E-02   -0.25551E-02  3576   0.645E-01    0.147E-01
DAV:   2    -0.489752525509E+01    0.27695E-03   -0.13447E-04  4024   0.847E-02    0.836E-02
DAV:   3    -0.489736517317E+01    0.16008E-03   -0.17937E-04  3840   0.568E-02    0.278E-02
DAV:   4    -0.489736524127E+01   -0.68096E-07   -0.30945E-07  4312   0.489E-03    0.238E-02
DAV:   5    -0.489736596280E+01   -0.72153E-06   -0.65911E-08  1984   0.180E-03    0.437E-03
DAV:   6    -0.489736582018E+01    0.14262E-06   -0.25773E-09  1784   0.425E-04
   3 F= -.48973658E+01 E0= -.48970311E+01  d E =-.124513E-01
