 vasp.6.2.0 18Jan21 (build Aug 12 2022 13:00:08) complex                        
  
 executed on             LinuxIFC date 2024.11.03  21:53:52
 running on    4 total cores
 distrk:  each k-point on    4 cores,    1 groups
 distr:  one band on NCORE=   1 cores,    4 groups


--------------------------------------------------------------------------------------------------------


 INCAR:
   ISTART = 0            (Read existing wavefunction, if there)
   ISPIN = 1            (Non-Spin polarised DFT)
   LREAL = .FALSE.       (Projection operators: automatic)
   LWAVE = .FALSE.        (Write WAVECAR or not)
   LCHARG = .FALSE.        (Write CHGCAR or not)
   ADDGRID = .TRUE.        (Increase grid, helps GGA convergence)
   LASPH = .TRUE.        (Give more accurate total energies and band structure calculations)
   PREC = Accurate      (Accurate strictly avoids any aliasing or wrap around errors)
   ENCUT = 350          (Cut-off energy for plane wave basis set, in eV)
   ISMEAR = 0            (Gaussian smearing, metals:1)
   SIGMA = 0.05         (Smearing value in eV, metals:0.2)
   NELM = 90           (Max electronic SCF steps)
   NELMIN = 6            (Min electronic SCF steps)
   EDIFF = 1E-06        (SCF energy convergence, in eV)
   NSW = 100          (Max ionic steps)
   IBRION = 2            (Algorithm: 0-MD, 1-Quasi-New, 2-CG)
   ISIF = 3            (Stress/relaxation: 2-Ions, 3-Shape/Ions/V, 4-Shape/Ions)
   EDIFFG = -2E-03        (Ionic convergence, eV/AA)
   ISYM = 2              (Symmetry: 0\=none, 2\=GGA, 3\=hybrids)

 POTCAR:    PAW_PBE Si 05Jan2001                  
 POTCAR:    PAW_PBE Si 05Jan2001                  
   VRHFIN =Si: s2p2                                                                                 
   LEXCH  = PE                                                                                      
   EATOM  =   103.0669 eV,    7.5752 Ry                                                             
                                                                                                    
   TITEL  = PAW_PBE Si 05Jan2001                                                                    
   LULTRA =        F    use ultrasoft PP ?                                                          
   IUNSCR =        1    unscreen: 0-lin 1-nonlin 2-no                                               
   RPACOR =    1.500    partial core radius                                                         
   POMASS =   28.085; ZVAL   =    4.000    mass and valenz                                          
   RCORE  =    1.900    outmost cutoff radius                                                       
   RWIGS  =    2.480; RWIGS  =    1.312    wigner-seitz radius (au A)                               
   ENMAX  =  245.345; ENMIN  =  184.009 eV                                                          
   ICORE  =        2    local potential                                                             
   LCOR   =        T    correct aug charges                                                         
   LPAW   =        T    paw PP                                                                      
   EAUG   =  322.069                                                                                
   DEXC   =    0.000                                                                                
   RMAX   =    1.950    core radius for proj-oper                                                   
   RAUG   =    1.300    factor for augmentation sphere                                              
   RDEP   =    1.993    radius for radial grids                                                     
   RDEPT  =    1.837    core radius for aug-charge                                                  
                                                                                                    
   Atomic configuration                                                                             
    6 entries                                                                                       
     n  l   j            E        occ.                                                              
     1  0  0.50     -1785.8828   2.0000                                                             
     2  0  0.50      -139.4969   2.0000                                                             
     2  1  1.50       -95.5546   6.0000                                                             
     3  0  0.50       -10.8127   2.0000                                                             
     3  1  0.50        -4.0811   2.0000                                                             
     3  2  1.50        -4.0817   0.0000                                                             
   Description                                                                                      
     l       E           TYP  RCUT    TYP  RCUT                                                     
     0    -10.8127223     23  1.900                                                                 
     0     -7.6451159     23  1.900                                                                 
     1     -4.0811372     23  1.900                                                                 
     1      2.4879257     23  1.900                                                                 
     2     -4.0817478      7  1.900                                                                 
  local pseudopotential read in
  partial core-charges read in
  partial kinetic energy density read in
  atomic valenz-charges read in
  non local Contribution for L=           0  read in
    real space projection operators read in
  non local Contribution for L=           0  read in
    real space projection operators read in
  non local Contribution for L=           1  read in
    real space projection operators read in
  non local Contribution for L=           1  read in
    real space projection operators read in
    PAW grid and wavefunctions read in
 
   number of l-projection  operators is LMAX  =           4
   number of lm-projection operators is LMMAX =           8
 
  PAW_PBE Si 05Jan2001                  :
 energy of atom  1       EATOM= -103.0669
 kinetic energy error for atom=    0.0013 (will be added to EATOM!!)
 
 
 POSCAR: Si1
  positions in direct lattice
  No initial velocities read in
 exchange correlation table for  LEXCH =        8
   RHO(1)=    0.500       N(1)  =     2000
   RHO(2)=  100.500       N(2)  =     4000
 


--------------------------------------------------------------------------------------------------------


 ion  position               nearest neighbor table
   1  0.000  0.000  0.000-
 
  LATTYP: Found a body centered cubic cell.
 ALAT       =     3.0266512600
  
  Lattice vectors:
  
 A1 = (   1.5133256300,   1.5133256300,   1.5133256300)
 A2 = (   1.5133256300,  -1.5133256300,  -1.5133256300)
 A3 = (  -1.5133256300,   1.5133256300,  -1.5133256300)


Analysis of symmetry for initial positions (statically):
=====================================================================
 Subroutine PRICEL returns:
 Original cell was already a primitive cell.
 

 Routine SETGRP: Setting up the symmetry group for a 
 body centered cubic supercell.


 Subroutine GETGRP returns: Found 48 space group operations
 (whereof 48 operations were pure point group operations)
 out of a pool of 48 trial point group operations.


The static configuration has the point symmetry O_h .


Analysis of symmetry for dynamics (positions and initial velocities):
=====================================================================
 Subroutine PRICEL returns:
 Original cell was already a primitive cell.
 

 Routine SETGRP: Setting up the symmetry group for a 
 body centered cubic supercell.


 Subroutine GETGRP returns: Found 48 space group operations
 (whereof 48 operations were pure point group operations)
 out of a pool of 48 trial point group operations.


The dynamic configuration has the point symmetry O_h .


 Subroutine INISYM returns: Found 48 space group operations
 (whereof 48 operations are pure point group operations),
 and found     1 'primitive' translations


----------------------------------------------------------------------------------------

                                     Primitive cell                                     

  volume of cell :      13.8630

  direct lattice vectors                    reciprocal lattice vectors
     1.513325630  1.513325630  1.513325630     0.330398158  0.330398158  0.000000000
     1.513325630 -1.513325630 -1.513325630     0.330398158  0.000000000 -0.330398158
    -1.513325630  1.513325630 -1.513325630     0.000000000  0.330398158 -0.330398158

  length of vectors
     2.621156880  2.621156880  2.621156880     0.467253555  0.467253555  0.467253555

  position of ions in fractional coordinates (direct lattice)
     0.000000000  0.000000000  0.000000000

  ion indices of the primitive-cell ions
   primitive index   ion index
                 1           1

----------------------------------------------------------------------------------------

 
 
 KPOINTS: Automatic                               

Automatic generation of k-mesh.
 Grid dimensions read from file:
 generate k-points for:   19   19   19

 Generating k-lattice:

  Cartesian coordinates                     Fractional coordinates (reciprocal lattice)
     0.017389377  0.017389377  0.000000000     0.052631579  0.000000000  0.000000000
     0.017389377  0.000000000 -0.017389377     0.000000000  0.052631579  0.000000000
     0.000000000  0.017389377 -0.017389377     0.000000000  0.000000000  0.052631579

  Length of vectors
     0.024592292  0.024592292  0.024592292

  Shift w.r.t. Gamma in fractional coordinates (k-lattice)
     0.000000000  0.000000000  0.000000000

 
 Subroutine IBZKPT returns following result:
 ===========================================
 
 Found    220 irreducible k-points:
 
 Following reciprocal coordinates:
            Coordinates               Weight
  0.000000  0.000000  0.000000      1.000000
  0.052632  0.000000  0.000000     12.000000
  0.105263  0.000000  0.000000     12.000000
  0.157895  0.000000  0.000000     12.000000
  0.210526  0.000000  0.000000     12.000000
  0.263158  0.000000  0.000000     12.000000
  0.315789  0.000000  0.000000     12.000000
  0.368421  0.000000  0.000000     12.000000
  0.421053  0.000000  0.000000     12.000000
  0.473684  0.000000  0.000000     12.000000
  0.052632  0.052632  0.000000     24.000000
  0.105263  0.052632  0.000000     48.000000
  0.157895  0.052632  0.000000     48.000000
  0.210526  0.052632  0.000000     48.000000
  0.263158  0.052632  0.000000     48.000000
  0.315789  0.052632  0.000000     48.000000
  0.368421  0.052632  0.000000     48.000000
  0.421053  0.052632  0.000000     48.000000
  0.473684  0.052632  0.000000     24.000000
  0.105263  0.105263  0.000000     24.000000
  0.157895  0.105263  0.000000     48.000000
  0.210526  0.105263  0.000000     48.000000
  0.263158  0.105263  0.000000     48.000000
  0.315789  0.105263  0.000000     48.000000
  0.368421  0.105263  0.000000     48.000000
  0.421053  0.105263  0.000000     48.000000
  0.157895  0.157895  0.000000     24.000000
  0.210526  0.157895  0.000000     48.000000
  0.263158  0.157895 -0.000000     48.000000
  0.315789  0.157895 -0.000000     48.000000
  0.368421  0.157895  0.000000     48.000000
  0.421053  0.157895  0.000000     24.000000
  0.210526  0.210526  0.000000     24.000000
  0.263158  0.210526 -0.000000     48.000000
  0.315789  0.210526  0.000000     48.000000
  0.368421  0.210526  0.000000     48.000000
  0.263158  0.263158  0.000000     24.000000
  0.315789  0.263158  0.000000     48.000000
  0.368421  0.263158  0.000000     24.000000
  0.315789  0.315789  0.000000     24.000000
  0.052632  0.052632  0.052632      8.000000
  0.105263  0.052632  0.052632     24.000000
  0.157895  0.052632  0.052632     24.000000
  0.210526  0.052632  0.052632     24.000000
  0.263158  0.052632  0.052632     24.000000
  0.315789  0.052632  0.052632     24.000000
  0.368421  0.052632  0.052632     24.000000
  0.421053  0.052632  0.052632     24.000000
 -0.052632  0.052632  0.052632      6.000000
  0.105263  0.105263  0.052632     24.000000
  0.157895  0.105263  0.052632     48.000000
  0.210526  0.105263  0.052632     48.000000
  0.263158  0.105263  0.052632     48.000000
  0.315789  0.105263  0.052632     48.000000
  0.368421  0.105263  0.052632     48.000000
  0.421053  0.105263  0.052632     24.000000
 -0.105263  0.105263  0.052632     24.000000
  0.157895  0.157895  0.052632     24.000000
  0.210526  0.157895  0.052632     48.000000
  0.263158  0.157895  0.052632     48.000000
  0.315789  0.157895  0.052632     48.000000
  0.368421  0.157895  0.052632     48.000000
 -0.157895  0.157895  0.052632     24.000000
 -0.105263  0.157895  0.052632     24.000000
  0.210526  0.210526  0.052632     24.000000
  0.263158  0.210526  0.052632     48.000000
  0.315789  0.210526  0.052632     48.000000
  0.368421  0.210526  0.052632     24.000000
 -0.210526  0.210526  0.052632     24.000000
 -0.157895  0.210526  0.052632     48.000000
  0.263158  0.263158  0.052632     24.000000
  0.315789  0.263158  0.052632     48.000000
 -0.263158  0.263158  0.052632     24.000000
 -0.210526  0.263158  0.052632     48.000000
 -0.157895  0.263158  0.052632     24.000000
  0.315789  0.315789  0.052632      8.000000
 -0.315789  0.315789  0.052632     24.000000
 -0.263158  0.315789  0.052632     48.000000
 -0.210526  0.315789  0.052632     48.000000
 -0.368421  0.368421  0.052632     24.000000
 -0.315789  0.368421  0.052632     48.000000
 -0.263158  0.368421  0.052632     48.000000
 -0.210526  0.368421  0.052632     24.000000
 -0.421053  0.421053  0.052632     24.000000
 -0.368421  0.421053  0.052632     48.000000
 -0.315789  0.421053  0.052632     48.000000
 -0.263158  0.421053  0.052632     48.000000
 -0.473684  0.473684  0.052632     24.000000
 -0.421053  0.473684  0.052632     48.000000
 -0.368421  0.473684  0.052632     48.000000
 -0.315789  0.473684  0.052632     48.000000
 -0.263158  0.473684  0.052632     24.000000
 -0.473684 -0.473684  0.052632     24.000000
 -0.421053 -0.473684  0.052632     48.000000
 -0.368421 -0.473684  0.052632     48.000000
 -0.315789 -0.473684  0.052632     48.000000
 -0.421053 -0.421053  0.052632     24.000000
 -0.368421 -0.421053  0.052632     48.000000
 -0.315789 -0.421053  0.052632     24.000000
 -0.368421 -0.368421  0.052632     24.000000
  0.105263  0.105263  0.105263      8.000000
  0.157895  0.105263  0.105263     24.000000
  0.210526  0.105263  0.105263     24.000000
  0.263158  0.105263  0.105263     24.000000
  0.315789  0.105263  0.105263     24.000000
  0.368421  0.105263  0.105263     24.000000
 -0.105263  0.105263  0.105263      6.000000
  0.157895  0.157895  0.105263     24.000000
  0.210526  0.157895  0.105263     48.000000
  0.263158  0.157895  0.105263     48.000000
  0.315789  0.157895  0.105263     48.000000
  0.368421  0.157895  0.105263     24.000000
 -0.157895  0.157895  0.105263     24.000000
  0.210526  0.210526  0.105263     24.000000
  0.263158  0.210526  0.105263     48.000000
  0.315789  0.210526  0.105263     48.000000
 -0.210526  0.210526  0.105263     24.000000
 -0.157895  0.210526  0.105263     24.000000
  0.263158  0.263158  0.105263     24.000000
  0.315789  0.263158  0.105263     24.000000
 -0.263158  0.263158  0.105263     24.000000
 -0.210526  0.263158  0.105263     48.000000
 -0.315789  0.315789  0.105263     24.000000
 -0.263158  0.315789  0.105263     48.000000
 -0.210526  0.315789  0.105263     24.000000
 -0.368421  0.368421  0.105263     24.000000
 -0.315789  0.368421  0.105263     48.000000
 -0.263158  0.368421  0.105263     48.000000
 -0.421053  0.421053  0.105263     24.000000
 -0.368421  0.421053  0.105263     48.000000
 -0.315789  0.421053  0.105263     48.000000
 -0.263158  0.421053  0.105263     24.000000
 -0.473684  0.473684  0.105263     24.000000
 -0.421053  0.473684  0.105263     48.000000
 -0.368421  0.473684  0.105263     48.000000
 -0.315789  0.473684  0.105263     48.000000
 -0.473684 -0.473684  0.105263     24.000000
 -0.421053 -0.473684  0.105263     48.000000
 -0.368421 -0.473684  0.105263     48.000000
 -0.315789 -0.473684  0.105263     24.000000
 -0.421053 -0.421053  0.105263     24.000000
 -0.368421 -0.421053  0.105263     48.000000
 -0.368421 -0.368421  0.105263      8.000000
  0.157895  0.157895  0.157895      8.000000
  0.210526  0.157895  0.157895     24.000000
  0.263158  0.157895  0.157895     24.000000
  0.315789  0.157895  0.157895     24.000000
 -0.157895  0.157895  0.157895      6.000000
  0.210526  0.210526  0.157895     24.000000
  0.263158  0.210526  0.157895     48.000000
  0.315789  0.210526  0.157895     24.000000
 -0.210526  0.210526  0.157895     24.000000
  0.263158  0.263158  0.157895     24.000000
 -0.263158  0.263158  0.157895     24.000000
 -0.210526  0.263158  0.157895     24.000000
 -0.315789  0.315789  0.157895     24.000000
 -0.263158  0.315789  0.157895     48.000000
 -0.368421  0.368421  0.157895     24.000000
 -0.315789  0.368421  0.157895     48.000000
 -0.263158  0.368421  0.157895     24.000000
 -0.421053  0.421053  0.157895     24.000000
 -0.368421  0.421053  0.157895     48.000000
 -0.315789  0.421053  0.157895     48.000000
 -0.473684  0.473684  0.157895     24.000000
 -0.421053  0.473684  0.157895     48.000000
 -0.368421  0.473684  0.157895     48.000000
 -0.315789  0.473684  0.157895     24.000000
 -0.473684 -0.473684  0.157895     24.000000
 -0.421053 -0.473684  0.157895     48.000000
 -0.368421 -0.473684  0.157895     48.000000
 -0.421053 -0.421053  0.157895     24.000000
 -0.368421 -0.421053  0.157895     24.000000
  0.210526  0.210526  0.210526      8.000000
  0.263158  0.210526  0.210526     24.000000
 -0.210526  0.210526  0.210526      6.000000
  0.263158  0.263158  0.210526      8.000000
 -0.263158  0.263158  0.210526     24.000000
 -0.315789  0.315789  0.210526     24.000000
 -0.263158  0.315789  0.210526     24.000000
 -0.368421  0.368421  0.210526     24.000000
 -0.315789  0.368421  0.210526     48.000000
 -0.421053  0.421053  0.210526     24.000000
 -0.368421  0.421053  0.210526     48.000000
 -0.315789  0.421053  0.210526     24.000000
 -0.473684  0.473684  0.210526     24.000000
 -0.421053  0.473684  0.210526     48.000000
 -0.368421  0.473684  0.210526     48.000000
 -0.473684 -0.473684  0.210526     24.000000
 -0.421053 -0.473684  0.210526     48.000000
 -0.368421 -0.473684  0.210526     24.000000
 -0.421053 -0.421053  0.210526     24.000000
 -0.263158  0.263158  0.263158      6.000000
 -0.315789  0.315789  0.263158     24.000000
 -0.368421  0.368421  0.263158     24.000000
 -0.315789  0.368421  0.263158     24.000000
 -0.421053  0.421053  0.263158     24.000000
 -0.368421  0.421053  0.263158     48.000000
 -0.473684  0.473684  0.263158     24.000000
 -0.421053  0.473684  0.263158     48.000000
 -0.368421  0.473684  0.263158     24.000000
 -0.473684 -0.473684  0.263158     24.000000
 -0.421053 -0.473684  0.263158     48.000000
 -0.421053 -0.421053  0.263158      8.000000
 -0.315789  0.315789  0.315789      6.000000
 -0.368421  0.368421  0.315789     24.000000
 -0.421053  0.421053  0.315789     24.000000
 -0.368421  0.421053  0.315789     24.000000
 -0.473684  0.473684  0.315789     24.000000
 -0.421053  0.473684  0.315789     48.000000
 -0.473684 -0.473684  0.315789     24.000000
 -0.421053 -0.473684  0.315789     24.000000
 -0.368421  0.368421  0.368421      6.000000
 -0.421053  0.421053  0.368421     24.000000
 -0.473684  0.473684  0.368421     24.000000
 -0.421053  0.473684  0.368421     24.000000
 -0.473684 -0.473684  0.368421     24.000000
 -0.421053  0.421053  0.421053      6.000000
 -0.473684  0.473684  0.421053     24.000000
 -0.473684 -0.473684  0.421053      8.000000
 -0.473684  0.473684  0.473684      6.000000
 
 Following cartesian coordinates:
            Coordinates               Weight
  0.000000  0.000000  0.000000      1.000000
  0.017389  0.017389  0.000000     12.000000
  0.034779  0.034779  0.000000     12.000000
  0.052168  0.052168  0.000000     12.000000
  0.069558  0.069558  0.000000     12.000000
  0.086947  0.086947  0.000000     12.000000
  0.104336  0.104336  0.000000     12.000000
  0.121726  0.121726  0.000000     12.000000
  0.139115  0.139115  0.000000     12.000000
  0.156504  0.156504  0.000000     12.000000
  0.034779  0.017389 -0.017389     24.000000
  0.052168  0.034779 -0.017389     48.000000
  0.069558  0.052168 -0.017389     48.000000
  0.086947  0.069558 -0.017389     48.000000
  0.104336  0.086947 -0.017389     48.000000
  0.121726  0.104336 -0.017389     48.000000
  0.139115  0.121726 -0.017389     48.000000
  0.156504  0.139115 -0.017389     48.000000
  0.173894  0.156504 -0.017389     24.000000
  0.069558  0.034779 -0.034779     24.000000
  0.086947  0.052168 -0.034779     48.000000
  0.104336  0.069558 -0.034779     48.000000
  0.121726  0.086947 -0.034779     48.000000
  0.139115  0.104336 -0.034779     48.000000
  0.156504  0.121726 -0.034779     48.000000
  0.173894  0.139115 -0.034779     48.000000
  0.104336  0.052168 -0.052168     24.000000
  0.121726  0.069558 -0.052168     48.000000
  0.139115  0.086947 -0.052168     48.000000
  0.156504  0.104336 -0.052168     48.000000
  0.173894  0.121726 -0.052168     48.000000
  0.191283  0.139115 -0.052168     24.000000
  0.139115  0.069558 -0.069558     24.000000
  0.156504  0.086947 -0.069558     48.000000
  0.173894  0.104336 -0.069558     48.000000
  0.191283  0.121726 -0.069558     48.000000
  0.173894  0.086947 -0.086947     24.000000
  0.191283  0.104336 -0.086947     48.000000
  0.208673  0.121726 -0.086947     24.000000
  0.208673  0.104336 -0.104336     24.000000
  0.034779  0.034779 -0.034779      8.000000
  0.052168  0.052168 -0.034779     24.000000
  0.069558  0.069558 -0.034779     24.000000
  0.086947  0.086947 -0.034779     24.000000
  0.104336  0.104336 -0.034779     24.000000
  0.121726  0.121726 -0.034779     24.000000
  0.139115  0.139115 -0.034779     24.000000
  0.156504  0.156504 -0.034779     24.000000
  0.000000  0.000000 -0.034779      6.000000
  0.069558  0.052168 -0.052168     24.000000
  0.086947  0.069558 -0.052168     48.000000
  0.104336  0.086947 -0.052168     48.000000
  0.121726  0.104336 -0.052168     48.000000
  0.139115  0.121726 -0.052168     48.000000
  0.156504  0.139115 -0.052168     48.000000
  0.173894  0.156504 -0.052168     24.000000
  0.000000 -0.017389 -0.052168     24.000000
  0.104336  0.069558 -0.069558     24.000000
  0.121726  0.086947 -0.069558     48.000000
  0.139115  0.104336 -0.069558     48.000000
  0.156504  0.121726 -0.069558     48.000000
  0.173894  0.139115 -0.069558     48.000000
  0.000000 -0.034779 -0.069558     24.000000
  0.017389 -0.017389 -0.069558     24.000000
  0.139115  0.086947 -0.086947     24.000000
  0.156504  0.104336 -0.086947     48.000000
  0.173894  0.121726 -0.086947     48.000000
  0.191283  0.139115 -0.086947     24.000000
  0.000000 -0.052168 -0.086947     24.000000
  0.017389 -0.034779 -0.086947     48.000000
  0.173894  0.104336 -0.104336     24.000000
  0.191283  0.121726 -0.104336     48.000000
  0.000000 -0.069558 -0.104336     24.000000
  0.017389 -0.052168 -0.104336     48.000000
  0.034779 -0.034779 -0.104336     24.000000
  0.208673  0.121726 -0.121726      8.000000
  0.000000 -0.086947 -0.121726     24.000000
  0.017389 -0.069558 -0.121726     48.000000
  0.034779 -0.052168 -0.121726     48.000000
  0.000000 -0.104336 -0.139115     24.000000
  0.017389 -0.086947 -0.139115     48.000000
  0.034779 -0.069558 -0.139115     48.000000
  0.052168 -0.052168 -0.139115     24.000000
  0.000000 -0.121726 -0.156504     24.000000
  0.017389 -0.104336 -0.156504     48.000000
  0.034779 -0.086947 -0.156504     48.000000
  0.052168 -0.069558 -0.156504     48.000000
  0.000000 -0.139115 -0.173894     24.000000
  0.017389 -0.121726 -0.173894     48.000000
  0.034779 -0.104336 -0.173894     48.000000
  0.052168 -0.086947 -0.173894     48.000000
  0.069558 -0.069558 -0.173894     24.000000
 -0.313009 -0.139115  0.139115     24.000000
 -0.295619 -0.121726  0.139115     48.000000
 -0.278230 -0.104336  0.139115     48.000000
 -0.260841 -0.086947  0.139115     48.000000
 -0.278230 -0.121726  0.121726     24.000000
 -0.260841 -0.104336  0.121726     48.000000
 -0.243451 -0.086947  0.121726     24.000000
 -0.243451 -0.104336  0.104336     24.000000
  0.069558  0.069558 -0.069558      8.000000
  0.086947  0.086947 -0.069558     24.000000
  0.104336  0.104336 -0.069558     24.000000
  0.121726  0.121726 -0.069558     24.000000
  0.139115  0.139115 -0.069558     24.000000
  0.156504  0.156504 -0.069558     24.000000
  0.000000  0.000000 -0.069558      6.000000
  0.104336  0.086947 -0.086947     24.000000
  0.121726  0.104336 -0.086947     48.000000
  0.139115  0.121726 -0.086947     48.000000
  0.156504  0.139115 -0.086947     48.000000
  0.173894  0.156504 -0.086947     24.000000
  0.000000 -0.017389 -0.086947     24.000000
  0.139115  0.104336 -0.104336     24.000000
  0.156504  0.121726 -0.104336     48.000000
  0.173894  0.139115 -0.104336     48.000000
  0.000000 -0.034779 -0.104336     24.000000
  0.017389 -0.017389 -0.104336     24.000000
  0.173894  0.121726 -0.121726     24.000000
  0.191283  0.139115 -0.121726     24.000000
  0.000000 -0.052168 -0.121726     24.000000
  0.017389 -0.034779 -0.121726     48.000000
  0.000000 -0.069558 -0.139115     24.000000
  0.017389 -0.052168 -0.139115     48.000000
  0.034779 -0.034779 -0.139115     24.000000
  0.000000 -0.086947 -0.156504     24.000000
  0.017389 -0.069558 -0.156504     48.000000
  0.034779 -0.052168 -0.156504     48.000000
  0.000000 -0.104336 -0.173894     24.000000
  0.017389 -0.086947 -0.173894     48.000000
  0.034779 -0.069558 -0.173894     48.000000
  0.052168 -0.052168 -0.173894     24.000000
  0.000000 -0.121726 -0.191283     24.000000
  0.017389 -0.104336 -0.191283     48.000000
  0.034779 -0.086947 -0.191283     48.000000
  0.052168 -0.069558 -0.191283     48.000000
 -0.313009 -0.121726  0.121726     24.000000
 -0.295619 -0.104336  0.121726     48.000000
 -0.278230 -0.086947  0.121726     48.000000
 -0.260841 -0.069558  0.121726     24.000000
 -0.278230 -0.104336  0.104336     24.000000
 -0.260841 -0.086947  0.104336     48.000000
 -0.243451 -0.086947  0.086947      8.000000
  0.104336  0.104336 -0.104336      8.000000
  0.121726  0.121726 -0.104336     24.000000
  0.139115  0.139115 -0.104336     24.000000
  0.156504  0.156504 -0.104336     24.000000
  0.000000  0.000000 -0.104336      6.000000
  0.139115  0.121726 -0.121726     24.000000
  0.156504  0.139115 -0.121726     48.000000
  0.173894  0.156504 -0.121726     24.000000
  0.000000 -0.017389 -0.121726     24.000000
  0.173894  0.139115 -0.139115     24.000000
  0.000000 -0.034779 -0.139115     24.000000
  0.017389 -0.017389 -0.139115     24.000000
  0.000000 -0.052168 -0.156504     24.000000
  0.017389 -0.034779 -0.156504     48.000000
  0.000000 -0.069558 -0.173894     24.000000
  0.017389 -0.052168 -0.173894     48.000000
  0.034779 -0.034779 -0.173894     24.000000
  0.000000 -0.086947 -0.191283     24.000000
  0.017389 -0.069558 -0.191283     48.000000
  0.034779 -0.052168 -0.191283     48.000000
  0.000000 -0.104336 -0.208673     24.000000
  0.017389 -0.086947 -0.208673     48.000000
  0.034779 -0.069558 -0.208673     48.000000
  0.052168 -0.052168 -0.208673     24.000000
 -0.313009 -0.104336  0.104336     24.000000
 -0.295619 -0.086947  0.104336     48.000000
 -0.278230 -0.069558  0.104336     48.000000
 -0.278230 -0.086947  0.086947     24.000000
 -0.260841 -0.069558  0.086947     24.000000
  0.139115  0.139115 -0.139115      8.000000
  0.156504  0.156504 -0.139115     24.000000
  0.000000  0.000000 -0.139115      6.000000
  0.173894  0.156504 -0.156504      8.000000
  0.000000 -0.017389 -0.156504     24.000000
  0.000000 -0.034779 -0.173894     24.000000
  0.017389 -0.017389 -0.173894     24.000000
  0.000000 -0.052168 -0.191283     24.000000
  0.017389 -0.034779 -0.191283     48.000000
  0.000000 -0.069558 -0.208673     24.000000
  0.017389 -0.052168 -0.208673     48.000000
  0.034779 -0.034779 -0.208673     24.000000
  0.000000 -0.086947 -0.226062     24.000000
  0.017389 -0.069558 -0.226062     48.000000
  0.034779 -0.052168 -0.226062     48.000000
 -0.313009 -0.086947  0.086947     24.000000
 -0.295619 -0.069558  0.086947     48.000000
 -0.278230 -0.052168  0.086947     24.000000
 -0.278230 -0.069558  0.069558     24.000000
  0.000000  0.000000 -0.173894      6.000000
  0.000000 -0.017389 -0.191283     24.000000
  0.000000 -0.034779 -0.208673     24.000000
  0.017389 -0.017389 -0.208673     24.000000
  0.000000 -0.052168 -0.226062     24.000000
  0.017389 -0.034779 -0.226062     48.000000
  0.000000 -0.069558 -0.243451     24.000000
  0.017389 -0.052168 -0.243451     48.000000
  0.034779 -0.034779 -0.243451     24.000000
 -0.313009 -0.069558  0.069558     24.000000
 -0.295619 -0.052168  0.069558     48.000000
 -0.278230 -0.052168  0.052168      8.000000
  0.000000  0.000000 -0.208673      6.000000
  0.000000 -0.017389 -0.226062     24.000000
  0.000000 -0.034779 -0.243451     24.000000
  0.017389 -0.017389 -0.243451     24.000000
  0.000000 -0.052168 -0.260841     24.000000
  0.017389 -0.034779 -0.260841     48.000000
 -0.313009 -0.052168  0.052168     24.000000
 -0.295619 -0.034779  0.052168     24.000000
  0.000000  0.000000 -0.243451      6.000000
  0.000000 -0.017389 -0.260841     24.000000
  0.000000 -0.034779 -0.278230     24.000000
  0.017389 -0.017389 -0.278230     24.000000
 -0.313009 -0.034779  0.034779     24.000000
  0.000000  0.000000 -0.278230      6.000000
  0.000000 -0.017389 -0.295619     24.000000
 -0.313009 -0.017389  0.017389      8.000000
  0.000000  0.000000 -0.313009      6.000000
 


--------------------------------------------------------------------------------------------------------




 Dimension of arrays:
   k-points           NKPTS =    220   k-points in BZ     NKDIM =    220   number of bands    NBANDS=      8
   number of dos      NEDOS =    301   number of ions     NIONS =      1
   non local maximal  LDIM  =      4   non local SUM 2l+1 LMDIM =      8
   total plane-waves  NPLWV =   4096
   max r-space proj   IRMAX =      1   max aug-charges    IRDMAX=  79220
   dimension x,y,z NGX =    16 NGY =   16 NGZ =   16
   dimension x,y,z NGXF=    32 NGYF=   32 NGZF=   32
   support grid    NGXF=    64 NGYF=   64 NGZF=   64
   ions per type =               1
   NGX,Y,Z   is equivalent  to a cutoff of  10.15, 10.15, 10.15 a.u.
   NGXF,Y,Z  is equivalent  to a cutoff of  20.30, 20.30, 20.30 a.u.

 SYSTEM =  unknown system                          
 POSCAR =  Si1                                     

 Startparameter for this run:
   NWRITE =      2    write-flag & timer
   PREC   = accura    normal or accurate (medium, high low for compatibility)
   ISTART =      0    job   : 0-new  1-cont  2-samecut
   ICHARG =      2    charge: 1-file 2-atom 10-const
   ISPIN  =      1    spin polarized calculation?
   LNONCOLLINEAR =      F non collinear calculations
   LSORBIT =      F    spin-orbit coupling
   INIWAV =      1    electr: 0-lowe 1-rand  2-diag
   LASPH  =      T    aspherical Exc in radial PAW
   METAGGA=      F    non-selfconsistent MetaGGA calc.

 Electronic Relaxation 1
   ENCUT  =  350.0 eV  25.72 Ry    5.07 a.u.   4.00  4.00  4.00*2*pi/ulx,y,z
   ENINI  =  350.0     initial cutoff
   ENAUG  =  322.1 eV  augmentation charge cutoff
   NELM   =     90;   NELMIN=  6; NELMDL= -5     # of ELM steps 
   EDIFF  = 0.1E-05   stopping-criterion for ELM
   LREAL  =      F    real-space projection
   NLSPLINE    = F    spline interpolate recip. space projectors
   LCOMPAT=      F    compatible to vasp.4.4
   GGA_COMPAT  = T    GGA compatible to vasp.4.4-vasp.4.6
   LMAXPAW     = -100 max onsite density
   LMAXMIX     =    2 max onsite mixed and CHGCAR
   VOSKOWN=      0    Vosko Wilk Nusair interpolation
   ROPT   =    0.00000
 Ionic relaxation
   EDIFFG = -.2E-02   stopping-criterion for IOM
   NSW    =    100    number of steps for IOM
   NBLOCK =      1;   KBLOCK =    100    inner block; outer block 
   IBRION =      2    ionic relax: 0-MD 1-quasi-New 2-CG
   NFREE  =      1    steps in history (QN), initial steepest desc. (CG)
   ISIF   =      3    stress and relaxation
   IWAVPR =     11    prediction:  0-non 1-charg 2-wave 3-comb
   ISYM   =      2    0-nonsym 1-usesym 2-fastsym
   LCORR  =      T    Harris-Foulkes like correction to forces

   POTIM  = 0.5000    time-step for ionic-motion
   TEIN   =    0.0    initial temperature
   TEBEG  =    0.0;   TEEND  =   0.0 temperature during run
   SMASS  =  -3.00    Nose mass-parameter (am)
   estimated Nose-frequenzy (Omega)   =  0.10E-29 period in steps = 0.13E+47 mass=  -0.157E-27a.u.
   SCALEE = 1.0000    scale energy and forces
   NPACO  =    256;   APACO  = 16.0  distance and # of slots for P.C.
   PSTRESS=    0.0 pullay stress

  Mass of Ions in am
   POMASS =  28.09
  Ionic Valenz
   ZVAL   =   4.00
  Atomic Wigner-Seitz radii
   RWIGS  =  -1.00
  virtual crystal weights 
   VCA    =   1.00
   NELECT =       4.0000    total number of electrons
   NUPDOWN=      -1.0000    fix difference up-down

 DOS related values:
   EMIN   =  10.00;   EMAX   =-10.00  energy-range for DOS
   EFERMI =   0.00
   ISMEAR =     0;   SIGMA  =   0.05  broadening in eV -4-tet -1-fermi 0-gaus

 Electronic relaxation 2 (details)
   IALGO  =     38    algorithm
   LDIAG  =      T    sub-space diagonalisation (order eigenvalues)
   LSUBROT=      F    optimize rotation matrix (better conditioning)
   TURBO    =      0    0=normal 1=particle mesh
   IRESTART =      0    0=no restart 2=restart with 2 vectors
   NREBOOT  =      0    no. of reboots
   NMIN     =      0    reboot dimension
   EREF     =   0.00    reference energy to select bands
   IMIX   =      4    mixing-type and parameters
     AMIX     =   0.40;   BMIX     =  1.00
     AMIX_MAG =   1.60;   BMIX_MAG =  1.00
     AMIN     =   0.10
     WC   =   100.;   INIMIX=   1;  MIXPRE=   1;  MAXMIX= -45

 Intra band minimization:
   WEIMIN = 0.0010     energy-eigenvalue tresh-hold
   EBREAK =  0.31E-07  absolut break condition
   DEPER  =   0.30     relativ break condition  

   TIME   =   0.40     timestep for ELM

  volume/ion in A,a.u.               =      13.86        93.55
  Fermi-wavevector in a.u.,A,eV,Ry     =   1.081789  2.044284 15.922447  1.170267
  Thomas-Fermi vector in A             =   2.217814
 
 Write flags
   LWAVE        =      F    write WAVECAR
   LDOWNSAMPLE  =      F    k-point downsampling of WAVECAR
   LCHARG       =      F    write CHGCAR
   LVTOT        =      F    write LOCPOT, total local potential
   LVHAR        =      F    write LOCPOT, Hartree potential only
   LELF         =      F    write electronic localiz. function (ELF)
   LORBIT       =      0    0 simple, 1 ext, 2 COOP (PROOUT), +10 PAW based schemes


 Dipole corrections
   LMONO  =      F    monopole corrections only (constant potential shift)
   LDIPOL =      F    correct potential (dipole corrections)
   IDIPOL =      0    1-x, 2-y, 3-z, 4-all directions 
   EPSILON=  1.0000000 bulk dielectric constant

 Exchange correlation treatment:
   GGA     =    --    GGA type
   LEXCH   =     8    internal setting for exchange type
   VOSKOWN=      0    Vosko Wilk Nusair interpolation
   LHFCALC =     F    Hartree Fock is set to
   LHFONE  =     F    Hartree Fock one center treatment
   AEXX    =    0.0000 exact exchange contribution

 Linear response parameters
   LEPSILON=     F    determine dielectric tensor
   LRPA    =     F    only Hartree local field effects (RPA)
   LNABLA  =     F    use nabla operator in PAW spheres
   LVEL    =     F    velocity operator in full k-point grid
   LINTERFAST=   F  fast interpolation
   KINTER  =     0    interpolate to denser k-point grid
   CSHIFT  =0.1000    complex shift for real part using Kramers Kronig
   OMEGAMAX=  -1.0    maximum frequency
   DEG_THRESHOLD= 0.2000000E-02 threshold for treating states as degnerate
   RTIME   =   -0.100 relaxation time in fs
  (WPLASMAI=    0.000 imaginary part of plasma frequency in eV, 0.658/RTIME)
   DFIELD  = 0.0000000 0.0000000 0.0000000 field for delta impulse in time
 
 Orbital magnetization related:
   ORBITALMAG=     F  switch on orbital magnetization
   LCHIMAG   =     F  perturbation theory with respect to B field
   DQ        =  0.001000  dq finite difference perturbation B field
   LLRAUG    =     F  two centre corrections for induced B field



--------------------------------------------------------------------------------------------------------


 conjugate gradient relaxation of ions
 charge density and potential will be updated during run
 non-spin polarized calculation
 Variant of blocked Davidson
 Davidson routine will perform the subspace rotation
 perform sub-space diagonalisation
    after iterative eigenvector-optimisation
 modified Broyden-mixing scheme, WC =      100.0
 initial mixing is a Kerker type mixing with AMIX =  0.4000 and BMIX =      1.0000
 Hartree-type preconditioning will be used
 using additional bands            6
 reciprocal scheme for non local part
 use partial core corrections
 calculate Harris-corrections to forces 
   (improved forces if not selfconsistent)
 use gradient corrections 
 use of overlap-Matrix (Vanderbilt PP)
 Gauss-broadening in eV      SIGMA  =   0.05


--------------------------------------------------------------------------------------------------------


  energy-cutoff  :      350.00
  volume of cell :       13.86
      direct lattice vectors                 reciprocal lattice vectors
     1.513325630  1.513325630  1.513325630     0.330398158  0.330398158  0.000000000
     1.513325630 -1.513325630 -1.513325630     0.330398158  0.000000000 -0.330398158
    -1.513325630  1.513325630 -1.513325630     0.000000000  0.330398158 -0.330398158

  length of vectors
     2.621156880  2.621156880  2.621156880     0.467253555  0.467253555  0.467253555


 
 k-points in units of 2pi/SCALE and weight: Automatic                               
   0.00000000  0.00000000  0.00000000       0.000
   0.01738938  0.01738938  0.00000000       0.002
   0.03477875  0.03477875  0.00000000       0.002
   0.05216813  0.05216813  0.00000000       0.002
   0.06955751  0.06955751  0.00000000       0.002
   0.08694688  0.08694688  0.00000000       0.002
   0.10433626  0.10433626  0.00000000       0.002
   0.12172564  0.12172564  0.00000000       0.002
   0.13911501  0.13911501  0.00000000       0.002
   0.15650439  0.15650439  0.00000000       0.002
   0.03477875  0.01738938 -0.01738938       0.003
   0.05216813  0.03477875 -0.01738938       0.007
   0.06955751  0.05216813 -0.01738938       0.007
   0.08694688  0.06955751 -0.01738938       0.007
   0.10433626  0.08694688 -0.01738938       0.007
   0.12172564  0.10433626 -0.01738938       0.007
   0.13911501  0.12172564 -0.01738938       0.007
   0.15650439  0.13911501 -0.01738938       0.007
   0.17389377  0.15650439 -0.01738938       0.003
   0.06955751  0.03477875 -0.03477875       0.003
   0.08694688  0.05216813 -0.03477875       0.007
   0.10433626  0.06955751 -0.03477875       0.007
   0.12172564  0.08694688 -0.03477875       0.007
   0.13911501  0.10433626 -0.03477875       0.007
   0.15650439  0.12172564 -0.03477875       0.007
   0.17389377  0.13911501 -0.03477875       0.007
   0.10433626  0.05216813 -0.05216813       0.003
   0.12172564  0.06955751 -0.05216813       0.007
   0.13911501  0.08694688 -0.05216813       0.007
   0.15650439  0.10433626 -0.05216813       0.007
   0.17389377  0.12172564 -0.05216813       0.007
   0.19128314  0.13911501 -0.05216813       0.003
   0.13911501  0.06955751 -0.06955751       0.003
   0.15650439  0.08694688 -0.06955751       0.007
   0.17389377  0.10433626 -0.06955751       0.007
   0.19128314  0.12172564 -0.06955751       0.007
   0.17389377  0.08694688 -0.08694688       0.003
   0.19128314  0.10433626 -0.08694688       0.007
   0.20867252  0.12172564 -0.08694688       0.003
   0.20867252  0.10433626 -0.10433626       0.003
   0.03477875  0.03477875 -0.03477875       0.001
   0.05216813  0.05216813 -0.03477875       0.003
   0.06955751  0.06955751 -0.03477875       0.003
   0.08694688  0.08694688 -0.03477875       0.003
   0.10433626  0.10433626 -0.03477875       0.003
   0.12172564  0.12172564 -0.03477875       0.003
   0.13911501  0.13911501 -0.03477875       0.003
   0.15650439  0.15650439 -0.03477875       0.003
   0.00000000  0.00000000 -0.03477875       0.001
   0.06955751  0.05216813 -0.05216813       0.003
   0.08694688  0.06955751 -0.05216813       0.007
   0.10433626  0.08694688 -0.05216813       0.007
   0.12172564  0.10433626 -0.05216813       0.007
   0.13911501  0.12172564 -0.05216813       0.007
   0.15650439  0.13911501 -0.05216813       0.007
   0.17389377  0.15650439 -0.05216813       0.003
   0.00000000 -0.01738938 -0.05216813       0.003
   0.10433626  0.06955751 -0.06955751       0.003
   0.12172564  0.08694688 -0.06955751       0.007
   0.13911501  0.10433626 -0.06955751       0.007
   0.15650439  0.12172564 -0.06955751       0.007
   0.17389377  0.13911501 -0.06955751       0.007
   0.00000000 -0.03477875 -0.06955751       0.003
   0.01738938 -0.01738938 -0.06955751       0.003
   0.13911501  0.08694688 -0.08694688       0.003
   0.15650439  0.10433626 -0.08694688       0.007
   0.17389377  0.12172564 -0.08694688       0.007
   0.19128314  0.13911501 -0.08694688       0.003
   0.00000000 -0.05216813 -0.08694688       0.003
   0.01738938 -0.03477875 -0.08694688       0.007
   0.17389377  0.10433626 -0.10433626       0.003
   0.19128314  0.12172564 -0.10433626       0.007
   0.00000000 -0.06955751 -0.10433626       0.003
   0.01738938 -0.05216813 -0.10433626       0.007
   0.03477875 -0.03477875 -0.10433626       0.003
   0.20867252  0.12172564 -0.12172564       0.001
   0.00000000 -0.08694688 -0.12172564       0.003
   0.01738938 -0.06955751 -0.12172564       0.007
   0.03477875 -0.05216813 -0.12172564       0.007
   0.00000000 -0.10433626 -0.13911501       0.003
   0.01738938 -0.08694688 -0.13911501       0.007
   0.03477875 -0.06955751 -0.13911501       0.007
   0.05216813 -0.05216813 -0.13911501       0.003
   0.00000000 -0.12172564 -0.15650439       0.003
   0.01738938 -0.10433626 -0.15650439       0.007
   0.03477875 -0.08694688 -0.15650439       0.007
   0.05216813 -0.06955751 -0.15650439       0.007
   0.00000000 -0.13911501 -0.17389377       0.003
   0.01738938 -0.12172564 -0.17389377       0.007
   0.03477875 -0.10433626 -0.17389377       0.007
   0.05216813 -0.08694688 -0.17389377       0.007
   0.06955751 -0.06955751 -0.17389377       0.003
  -0.31300878 -0.13911501  0.13911501       0.003
  -0.29561940 -0.12172564  0.13911501       0.007
  -0.27823003 -0.10433626  0.13911501       0.007
  -0.26084065 -0.08694688  0.13911501       0.007
  -0.27823003 -0.12172564  0.12172564       0.003
  -0.26084065 -0.10433626  0.12172564       0.007
  -0.24345127 -0.08694688  0.12172564       0.003
  -0.24345127 -0.10433626  0.10433626       0.003
   0.06955751  0.06955751 -0.06955751       0.001
   0.08694688  0.08694688 -0.06955751       0.003
   0.10433626  0.10433626 -0.06955751       0.003
   0.12172564  0.12172564 -0.06955751       0.003
   0.13911501  0.13911501 -0.06955751       0.003
   0.15650439  0.15650439 -0.06955751       0.003
   0.00000000  0.00000000 -0.06955751       0.001
   0.10433626  0.08694688 -0.08694688       0.003
   0.12172564  0.10433626 -0.08694688       0.007
   0.13911501  0.12172564 -0.08694688       0.007
   0.15650439  0.13911501 -0.08694688       0.007
   0.17389377  0.15650439 -0.08694688       0.003
   0.00000000 -0.01738938 -0.08694688       0.003
   0.13911501  0.10433626 -0.10433626       0.003
   0.15650439  0.12172564 -0.10433626       0.007
   0.17389377  0.13911501 -0.10433626       0.007
   0.00000000 -0.03477875 -0.10433626       0.003
   0.01738938 -0.01738938 -0.10433626       0.003
   0.17389377  0.12172564 -0.12172564       0.003
   0.19128314  0.13911501 -0.12172564       0.003
   0.00000000 -0.05216813 -0.12172564       0.003
   0.01738938 -0.03477875 -0.12172564       0.007
   0.00000000 -0.06955751 -0.13911501       0.003
   0.01738938 -0.05216813 -0.13911501       0.007
   0.03477875 -0.03477875 -0.13911501       0.003
   0.00000000 -0.08694688 -0.15650439       0.003
   0.01738938 -0.06955751 -0.15650439       0.007
   0.03477875 -0.05216813 -0.15650439       0.007
   0.00000000 -0.10433626 -0.17389377       0.003
   0.01738938 -0.08694688 -0.17389377       0.007
   0.03477875 -0.06955751 -0.17389377       0.007
   0.05216813 -0.05216813 -0.17389377       0.003
   0.00000000 -0.12172564 -0.19128314       0.003
   0.01738938 -0.10433626 -0.19128314       0.007
   0.03477875 -0.08694688 -0.19128314       0.007
   0.05216813 -0.06955751 -0.19128314       0.007
  -0.31300878 -0.12172564  0.12172564       0.003
  -0.29561940 -0.10433626  0.12172564       0.007
  -0.27823003 -0.08694688  0.12172564       0.007
  -0.26084065 -0.06955751  0.12172564       0.003
  -0.27823003 -0.10433626  0.10433626       0.003
  -0.26084065 -0.08694688  0.10433626       0.007
  -0.24345127 -0.08694688  0.08694688       0.001
   0.10433626  0.10433626 -0.10433626       0.001
   0.12172564  0.12172564 -0.10433626       0.003
   0.13911501  0.13911501 -0.10433626       0.003
   0.15650439  0.15650439 -0.10433626       0.003
   0.00000000  0.00000000 -0.10433626       0.001
   0.13911501  0.12172564 -0.12172564       0.003
   0.15650439  0.13911501 -0.12172564       0.007
   0.17389377  0.15650439 -0.12172564       0.003
   0.00000000 -0.01738938 -0.12172564       0.003
   0.17389377  0.13911501 -0.13911501       0.003
   0.00000000 -0.03477875 -0.13911501       0.003
   0.01738938 -0.01738938 -0.13911501       0.003
   0.00000000 -0.05216813 -0.15650439       0.003
   0.01738938 -0.03477875 -0.15650439       0.007
   0.00000000 -0.06955751 -0.17389377       0.003
   0.01738938 -0.05216813 -0.17389377       0.007
   0.03477875 -0.03477875 -0.17389377       0.003
   0.00000000 -0.08694688 -0.19128314       0.003
   0.01738938 -0.06955751 -0.19128314       0.007
   0.03477875 -0.05216813 -0.19128314       0.007
   0.00000000 -0.10433626 -0.20867252       0.003
   0.01738938 -0.08694688 -0.20867252       0.007
   0.03477875 -0.06955751 -0.20867252       0.007
   0.05216813 -0.05216813 -0.20867252       0.003
  -0.31300878 -0.10433626  0.10433626       0.003
  -0.29561940 -0.08694688  0.10433626       0.007
  -0.27823003 -0.06955751  0.10433626       0.007
  -0.27823003 -0.08694688  0.08694688       0.003
  -0.26084065 -0.06955751  0.08694688       0.003
   0.13911501  0.13911501 -0.13911501       0.001
   0.15650439  0.15650439 -0.13911501       0.003
   0.00000000  0.00000000 -0.13911501       0.001
   0.17389377  0.15650439 -0.15650439       0.001
   0.00000000 -0.01738938 -0.15650439       0.003
   0.00000000 -0.03477875 -0.17389377       0.003
   0.01738938 -0.01738938 -0.17389377       0.003
   0.00000000 -0.05216813 -0.19128314       0.003
   0.01738938 -0.03477875 -0.19128314       0.007
   0.00000000 -0.06955751 -0.20867252       0.003
   0.01738938 -0.05216813 -0.20867252       0.007
   0.03477875 -0.03477875 -0.20867252       0.003
   0.00000000 -0.08694688 -0.22606190       0.003
   0.01738938 -0.06955751 -0.22606190       0.007
   0.03477875 -0.05216813 -0.22606190       0.007
  -0.31300878 -0.08694688  0.08694688       0.003
  -0.29561940 -0.06955751  0.08694688       0.007
  -0.27823003 -0.05216813  0.08694688       0.003
  -0.27823003 -0.06955751  0.06955751       0.003
   0.00000000  0.00000000 -0.17389377       0.001
   0.00000000 -0.01738938 -0.19128314       0.003
   0.00000000 -0.03477875 -0.20867252       0.003
   0.01738938 -0.01738938 -0.20867252       0.003
   0.00000000 -0.05216813 -0.22606190       0.003
   0.01738938 -0.03477875 -0.22606190       0.007
   0.00000000 -0.06955751 -0.24345127       0.003
   0.01738938 -0.05216813 -0.24345127       0.007
   0.03477875 -0.03477875 -0.24345127       0.003
  -0.31300878 -0.06955751  0.06955751       0.003
  -0.29561940 -0.05216813  0.06955751       0.007
  -0.27823003 -0.05216813  0.05216813       0.001
   0.00000000  0.00000000 -0.20867252       0.001
   0.00000000 -0.01738938 -0.22606190       0.003
   0.00000000 -0.03477875 -0.24345127       0.003
   0.01738938 -0.01738938 -0.24345127       0.003
   0.00000000 -0.05216813 -0.26084065       0.003
   0.01738938 -0.03477875 -0.26084065       0.007
  -0.31300878 -0.05216813  0.05216813       0.003
  -0.29561940 -0.03477875  0.05216813       0.003
   0.00000000  0.00000000 -0.24345127       0.001
   0.00000000 -0.01738938 -0.26084065       0.003
   0.00000000 -0.03477875 -0.27823003       0.003
   0.01738938 -0.01738938 -0.27823003       0.003
  -0.31300878 -0.03477875  0.03477875       0.003
   0.00000000  0.00000000 -0.27823003       0.001
   0.00000000 -0.01738938 -0.29561940       0.003
  -0.31300878 -0.01738938  0.01738938       0.001
   0.00000000  0.00000000 -0.31300878       0.001
 
 k-points in reciprocal lattice and weights: Automatic                               
   0.00000000  0.00000000  0.00000000       0.000
   0.05263158  0.00000000  0.00000000       0.002
   0.10526316  0.00000000  0.00000000       0.002
   0.15789474  0.00000000  0.00000000       0.002
   0.21052632  0.00000000  0.00000000       0.002
   0.26315789  0.00000000  0.00000000       0.002
   0.31578947  0.00000000  0.00000000       0.002
   0.36842105  0.00000000  0.00000000       0.002
   0.42105263  0.00000000  0.00000000       0.002
   0.47368421  0.00000000  0.00000000       0.002
   0.05263158  0.05263158  0.00000000       0.003
   0.10526316  0.05263158  0.00000000       0.007
   0.15789474  0.05263158  0.00000000       0.007
   0.21052632  0.05263158  0.00000000       0.007
   0.26315789  0.05263158  0.00000000       0.007
   0.31578947  0.05263158  0.00000000       0.007
   0.36842105  0.05263158  0.00000000       0.007
   0.42105263  0.05263158  0.00000000       0.007
   0.47368421  0.05263158  0.00000000       0.003
   0.10526316  0.10526316  0.00000000       0.003
   0.15789474  0.10526316  0.00000000       0.007
   0.21052632  0.10526316  0.00000000       0.007
   0.26315789  0.10526316  0.00000000       0.007
   0.31578947  0.10526316  0.00000000       0.007
   0.36842105  0.10526316  0.00000000       0.007
   0.42105263  0.10526316  0.00000000       0.007
   0.15789474  0.15789474  0.00000000       0.003
   0.21052632  0.15789474  0.00000000       0.007
   0.26315789  0.15789474 -0.00000000       0.007
   0.31578947  0.15789474 -0.00000000       0.007
   0.36842105  0.15789474  0.00000000       0.007
   0.42105263  0.15789474  0.00000000       0.003
   0.21052632  0.21052632  0.00000000       0.003
   0.26315789  0.21052632 -0.00000000       0.007
   0.31578947  0.21052632  0.00000000       0.007
   0.36842105  0.21052632  0.00000000       0.007
   0.26315789  0.26315789  0.00000000       0.003
   0.31578947  0.26315789  0.00000000       0.007
   0.36842105  0.26315789  0.00000000       0.003
   0.31578947  0.31578947  0.00000000       0.003
   0.05263158  0.05263158  0.05263158       0.001
   0.10526316  0.05263158  0.05263158       0.003
   0.15789474  0.05263158  0.05263158       0.003
   0.21052632  0.05263158  0.05263158       0.003
   0.26315789  0.05263158  0.05263158       0.003
   0.31578947  0.05263158  0.05263158       0.003
   0.36842105  0.05263158  0.05263158       0.003
   0.42105263  0.05263158  0.05263158       0.003
  -0.05263158  0.05263158  0.05263158       0.001
   0.10526316  0.10526316  0.05263158       0.003
   0.15789474  0.10526316  0.05263158       0.007
   0.21052632  0.10526316  0.05263158       0.007
   0.26315789  0.10526316  0.05263158       0.007
   0.31578947  0.10526316  0.05263158       0.007
   0.36842105  0.10526316  0.05263158       0.007
   0.42105263  0.10526316  0.05263158       0.003
  -0.10526316  0.10526316  0.05263158       0.003
   0.15789474  0.15789474  0.05263158       0.003
   0.21052632  0.15789474  0.05263158       0.007
   0.26315789  0.15789474  0.05263158       0.007
   0.31578947  0.15789474  0.05263158       0.007
   0.36842105  0.15789474  0.05263158       0.007
  -0.15789474  0.15789474  0.05263158       0.003
  -0.10526316  0.15789474  0.05263158       0.003
   0.21052632  0.21052632  0.05263158       0.003
   0.26315789  0.21052632  0.05263158       0.007
   0.31578947  0.21052632  0.05263158       0.007
   0.36842105  0.21052632  0.05263158       0.003
  -0.21052632  0.21052632  0.05263158       0.003
  -0.15789474  0.21052632  0.05263158       0.007
   0.26315789  0.26315789  0.05263158       0.003
   0.31578947  0.26315789  0.05263158       0.007
  -0.26315789  0.26315789  0.05263158       0.003
  -0.21052632  0.26315789  0.05263158       0.007
  -0.15789474  0.26315789  0.05263158       0.003
   0.31578947  0.31578947  0.05263158       0.001
  -0.31578947  0.31578947  0.05263158       0.003
  -0.26315789  0.31578947  0.05263158       0.007
  -0.21052632  0.31578947  0.05263158       0.007
  -0.36842105  0.36842105  0.05263158       0.003
  -0.31578947  0.36842105  0.05263158       0.007
  -0.26315789  0.36842105  0.05263158       0.007
  -0.21052632  0.36842105  0.05263158       0.003
  -0.42105263  0.42105263  0.05263158       0.003
  -0.36842105  0.42105263  0.05263158       0.007
  -0.31578947  0.42105263  0.05263158       0.007
  -0.26315789  0.42105263  0.05263158       0.007
  -0.47368421  0.47368421  0.05263158       0.003
  -0.42105263  0.47368421  0.05263158       0.007
  -0.36842105  0.47368421  0.05263158       0.007
  -0.31578947  0.47368421  0.05263158       0.007
  -0.26315789  0.47368421  0.05263158       0.003
  -0.47368421 -0.47368421  0.05263158       0.003
  -0.42105263 -0.47368421  0.05263158       0.007
  -0.36842105 -0.47368421  0.05263158       0.007
  -0.31578947 -0.47368421  0.05263158       0.007
  -0.42105263 -0.42105263  0.05263158       0.003
  -0.36842105 -0.42105263  0.05263158       0.007
  -0.31578947 -0.42105263  0.05263158       0.003
  -0.36842105 -0.36842105  0.05263158       0.003
   0.10526316  0.10526316  0.10526316       0.001
   0.15789474  0.10526316  0.10526316       0.003
   0.21052632  0.10526316  0.10526316       0.003
   0.26315789  0.10526316  0.10526316       0.003
   0.31578947  0.10526316  0.10526316       0.003
   0.36842105  0.10526316  0.10526316       0.003
  -0.10526316  0.10526316  0.10526316       0.001
   0.15789474  0.15789474  0.10526316       0.003
   0.21052632  0.15789474  0.10526316       0.007
   0.26315789  0.15789474  0.10526316       0.007
   0.31578947  0.15789474  0.10526316       0.007
   0.36842105  0.15789474  0.10526316       0.003
  -0.15789474  0.15789474  0.10526316       0.003
   0.21052632  0.21052632  0.10526316       0.003
   0.26315789  0.21052632  0.10526316       0.007
   0.31578947  0.21052632  0.10526316       0.007
  -0.21052632  0.21052632  0.10526316       0.003
  -0.15789474  0.21052632  0.10526316       0.003
   0.26315789  0.26315789  0.10526316       0.003
   0.31578947  0.26315789  0.10526316       0.003
  -0.26315789  0.26315789  0.10526316       0.003
  -0.21052632  0.26315789  0.10526316       0.007
  -0.31578947  0.31578947  0.10526316       0.003
  -0.26315789  0.31578947  0.10526316       0.007
  -0.21052632  0.31578947  0.10526316       0.003
  -0.36842105  0.36842105  0.10526316       0.003
  -0.31578947  0.36842105  0.10526316       0.007
  -0.26315789  0.36842105  0.10526316       0.007
  -0.42105263  0.42105263  0.10526316       0.003
  -0.36842105  0.42105263  0.10526316       0.007
  -0.31578947  0.42105263  0.10526316       0.007
  -0.26315789  0.42105263  0.10526316       0.003
  -0.47368421  0.47368421  0.10526316       0.003
  -0.42105263  0.47368421  0.10526316       0.007
  -0.36842105  0.47368421  0.10526316       0.007
  -0.31578947  0.47368421  0.10526316       0.007
  -0.47368421 -0.47368421  0.10526316       0.003
  -0.42105263 -0.47368421  0.10526316       0.007
  -0.36842105 -0.47368421  0.10526316       0.007
  -0.31578947 -0.47368421  0.10526316       0.003
  -0.42105263 -0.42105263  0.10526316       0.003
  -0.36842105 -0.42105263  0.10526316       0.007
  -0.36842105 -0.36842105  0.10526316       0.001
   0.15789474  0.15789474  0.15789474       0.001
   0.21052632  0.15789474  0.15789474       0.003
   0.26315789  0.15789474  0.15789474       0.003
   0.31578947  0.15789474  0.15789474       0.003
  -0.15789474  0.15789474  0.15789474       0.001
   0.21052632  0.21052632  0.15789474       0.003
   0.26315789  0.21052632  0.15789474       0.007
   0.31578947  0.21052632  0.15789474       0.003
  -0.21052632  0.21052632  0.15789474       0.003
   0.26315789  0.26315789  0.15789474       0.003
  -0.26315789  0.26315789  0.15789474       0.003
  -0.21052632  0.26315789  0.15789474       0.003
  -0.31578947  0.31578947  0.15789474       0.003
  -0.26315789  0.31578947  0.15789474       0.007
  -0.36842105  0.36842105  0.15789474       0.003
  -0.31578947  0.36842105  0.15789474       0.007
  -0.26315789  0.36842105  0.15789474       0.003
  -0.42105263  0.42105263  0.15789474       0.003
  -0.36842105  0.42105263  0.15789474       0.007
  -0.31578947  0.42105263  0.15789474       0.007
  -0.47368421  0.47368421  0.15789474       0.003
  -0.42105263  0.47368421  0.15789474       0.007
  -0.36842105  0.47368421  0.15789474       0.007
  -0.31578947  0.47368421  0.15789474       0.003
  -0.47368421 -0.47368421  0.15789474       0.003
  -0.42105263 -0.47368421  0.15789474       0.007
  -0.36842105 -0.47368421  0.15789474       0.007
  -0.42105263 -0.42105263  0.15789474       0.003
  -0.36842105 -0.42105263  0.15789474       0.003
   0.21052632  0.21052632  0.21052632       0.001
   0.26315789  0.21052632  0.21052632       0.003
  -0.21052632  0.21052632  0.21052632       0.001
   0.26315789  0.26315789  0.21052632       0.001
  -0.26315789  0.26315789  0.21052632       0.003
  -0.31578947  0.31578947  0.21052632       0.003
  -0.26315789  0.31578947  0.21052632       0.003
  -0.36842105  0.36842105  0.21052632       0.003
  -0.31578947  0.36842105  0.21052632       0.007
  -0.42105263  0.42105263  0.21052632       0.003
  -0.36842105  0.42105263  0.21052632       0.007
  -0.31578947  0.42105263  0.21052632       0.003
  -0.47368421  0.47368421  0.21052632       0.003
  -0.42105263  0.47368421  0.21052632       0.007
  -0.36842105  0.47368421  0.21052632       0.007
  -0.47368421 -0.47368421  0.21052632       0.003
  -0.42105263 -0.47368421  0.21052632       0.007
  -0.36842105 -0.47368421  0.21052632       0.003
  -0.42105263 -0.42105263  0.21052632       0.003
  -0.26315789  0.26315789  0.26315789       0.001
  -0.31578947  0.31578947  0.26315789       0.003
  -0.36842105  0.36842105  0.26315789       0.003
  -0.31578947  0.36842105  0.26315789       0.003
  -0.42105263  0.42105263  0.26315789       0.003
  -0.36842105  0.42105263  0.26315789       0.007
  -0.47368421  0.47368421  0.26315789       0.003
  -0.42105263  0.47368421  0.26315789       0.007
  -0.36842105  0.47368421  0.26315789       0.003
  -0.47368421 -0.47368421  0.26315789       0.003
  -0.42105263 -0.47368421  0.26315789       0.007
  -0.42105263 -0.42105263  0.26315789       0.001
  -0.31578947  0.31578947  0.31578947       0.001
  -0.36842105  0.36842105  0.31578947       0.003
  -0.42105263  0.42105263  0.31578947       0.003
  -0.36842105  0.42105263  0.31578947       0.003
  -0.47368421  0.47368421  0.31578947       0.003
  -0.42105263  0.47368421  0.31578947       0.007
  -0.47368421 -0.47368421  0.31578947       0.003
  -0.42105263 -0.47368421  0.31578947       0.003
  -0.36842105  0.36842105  0.36842105       0.001
  -0.42105263  0.42105263  0.36842105       0.003
  -0.47368421  0.47368421  0.36842105       0.003
  -0.42105263  0.47368421  0.36842105       0.003
  -0.47368421 -0.47368421  0.36842105       0.003
  -0.42105263  0.42105263  0.42105263       0.001
  -0.47368421  0.47368421  0.42105263       0.003
  -0.47368421 -0.47368421  0.42105263       0.001
  -0.47368421  0.47368421  0.47368421       0.001
 
 position of ions in fractional coordinates (direct lattice) 
   0.00000000  0.00000000  0.00000000
 
 position of ions in cartesian coordinates  (Angst):
   0.00000000  0.00000000  0.00000000
 


--------------------------------------------------------------------------------------------------------


 k-point   1 :   0.0000 0.0000 0.0000  plane waves:     201
 k-point   2 :   0.0526 0.0000 0.0000  plane waves:     201
 k-point   3 :   0.1053 0.0000 0.0000  plane waves:     207
 k-point   4 :   0.1579 0.0000 0.0000  plane waves:     205
 k-point   5 :   0.2105 0.0000 0.0000  plane waves:     201
 k-point   6 :   0.2632 0.0000 0.0000  plane waves:     205
 k-point   7 :   0.3158 0.0000 0.0000  plane waves:     194
 k-point   8 :   0.3684 0.0000 0.0000  plane waves:     198
 k-point   9 :   0.4211 0.0000 0.0000  plane waves:     202
 k-point  10 :   0.4737 0.0000 0.0000  plane waves:     202
 k-point  11 :   0.0526 0.0526 0.0000  plane waves:     206
 k-point  12 :   0.1053 0.0526 0.0000  plane waves:     205
 k-point  13 :   0.1579 0.0526 0.0000  plane waves:     202
 k-point  14 :   0.2105 0.0526 0.0000  plane waves:     201
 k-point  15 :   0.2632 0.0526 0.0000  plane waves:     201
 k-point  16 :   0.3158 0.0526 0.0000  plane waves:     200
 k-point  17 :   0.3684 0.0526 0.0000  plane waves:     200
 k-point  18 :   0.4211 0.0526 0.0000  plane waves:     201
 k-point  19 :   0.4737 0.0526 0.0000  plane waves:     199
 k-point  20 :   0.1053 0.1053 0.0000  plane waves:     202
 k-point  21 :   0.1579 0.1053 0.0000  plane waves:     202
 k-point  22 :   0.2105 0.1053 0.0000  plane waves:     204
 k-point  23 :   0.2632 0.1053 0.0000  plane waves:     202
 k-point  24 :   0.3158 0.1053 0.0000  plane waves:     202
 k-point  25 :   0.3684 0.1053 0.0000  plane waves:     201
 k-point  26 :   0.4211 0.1053 0.0000  plane waves:     201
 k-point  27 :   0.1579 0.1579 0.0000  plane waves:     205
 k-point  28 :   0.2105 0.1579 0.0000  plane waves:     203
 k-point  29 :   0.2632 0.1579-0.0000  plane waves:     201
 k-point  30 :   0.3158 0.1579-0.0000  plane waves:     206
 k-point  31 :   0.3684 0.1579 0.0000  plane waves:     204
 k-point  32 :   0.4211 0.1579 0.0000  plane waves:     205
 k-point  33 :   0.2105 0.2105 0.0000  plane waves:     204
 k-point  34 :   0.2632 0.2105-0.0000  plane waves:     206
 k-point  35 :   0.3158 0.2105 0.0000  plane waves:     205
 k-point  36 :   0.3684 0.2105 0.0000  plane waves:     207
 k-point  37 :   0.2632 0.2632 0.0000  plane waves:     206
 k-point  38 :   0.3158 0.2632 0.0000  plane waves:     207
 k-point  39 :   0.3684 0.2632 0.0000  plane waves:     209
 k-point  40 :   0.3158 0.3158 0.0000  plane waves:     209
 k-point  41 :   0.0526 0.0526 0.0526  plane waves:     207
 k-point  42 :   0.1053 0.0526 0.0526  plane waves:     203
 k-point  43 :   0.1579 0.0526 0.0526  plane waves:     203
 k-point  44 :   0.2105 0.0526 0.0526  plane waves:     204
 k-point  45 :   0.2632 0.0526 0.0526  plane waves:     201
 k-point  46 :   0.3158 0.0526 0.0526  plane waves:     201
 k-point  47 :   0.3684 0.0526 0.0526  plane waves:     203
 k-point  48 :   0.4211 0.0526 0.0526  plane waves:     201
 k-point  49 :  -0.0526 0.0526 0.0526  plane waves:     201
 k-point  50 :   0.1053 0.1053 0.0526  plane waves:     206
 k-point  51 :   0.1579 0.1053 0.0526  plane waves:     205
 k-point  52 :   0.2105 0.1053 0.0526  plane waves:     203
 k-point  53 :   0.2632 0.1053 0.0526  plane waves:     203
 k-point  54 :   0.3158 0.1053 0.0526  plane waves:     202
 k-point  55 :   0.3684 0.1053 0.0526  plane waves:     203
 k-point  56 :   0.4211 0.1053 0.0526  plane waves:     202
 k-point  57 :  -0.1053 0.1053 0.0526  plane waves:     208
 k-point  58 :   0.1579 0.1579 0.0526  plane waves:     203
 k-point  59 :   0.2105 0.1579 0.0526  plane waves:     203
 k-point  60 :   0.2632 0.1579 0.0526  plane waves:     202
 k-point  61 :   0.3158 0.1579 0.0526  plane waves:     206
 k-point  62 :   0.3684 0.1579 0.0526  plane waves:     207
 k-point  63 :  -0.1579 0.1579 0.0526  plane waves:     204
 k-point  64 :  -0.1053 0.1579 0.0526  plane waves:     208
 k-point  65 :   0.2105 0.2105 0.0526  plane waves:     202
 k-point  66 :   0.2632 0.2105 0.0526  plane waves:     206
 k-point  67 :   0.3158 0.2105 0.0526  plane waves:     207
 k-point  68 :   0.3684 0.2105 0.0526  plane waves:     208
 k-point  69 :  -0.2105 0.2105 0.0526  plane waves:     202
 k-point  70 :  -0.1579 0.2105 0.0526  plane waves:     204
 k-point  71 :   0.2632 0.2632 0.0526  plane waves:     207
 k-point  72 :   0.3158 0.2632 0.0526  plane waves:     209
 k-point  73 :  -0.2632 0.2632 0.0526  plane waves:     204
 k-point  74 :  -0.2105 0.2632 0.0526  plane waves:     205
 k-point  75 :  -0.1579 0.2632 0.0526  plane waves:     205
 k-point  76 :   0.3158 0.3158 0.0526  plane waves:     210
 k-point  77 :  -0.3158 0.3158 0.0526  plane waves:     201
 k-point  78 :  -0.2632 0.3158 0.0526  plane waves:     202
 k-point  79 :  -0.2105 0.3158 0.0526  plane waves:     205
 k-point  80 :  -0.3684 0.3684 0.0526  plane waves:     201
 k-point  81 :  -0.3158 0.3684 0.0526  plane waves:     203
 k-point  82 :  -0.2632 0.3684 0.0526  plane waves:     203
 k-point  83 :  -0.2105 0.3684 0.0526  plane waves:     204
 k-point  84 :  -0.4211 0.4211 0.0526  plane waves:     201
 k-point  85 :  -0.3684 0.4211 0.0526  plane waves:     202
 k-point  86 :  -0.3158 0.4211 0.0526  plane waves:     203
 k-point  87 :  -0.2632 0.4211 0.0526  plane waves:     205
 k-point  88 :  -0.4737 0.4737 0.0526  plane waves:     202
 k-point  89 :  -0.4211 0.4737 0.0526  plane waves:     205
 k-point  90 :  -0.3684 0.4737 0.0526  plane waves:     205
 k-point  91 :  -0.3158 0.4737 0.0526  plane waves:     207
 k-point  92 :  -0.2632 0.4737 0.0526  plane waves:     209
 k-point  93 :  -0.4737-0.4737 0.0526  plane waves:     202
 k-point  94 :  -0.4211-0.4737 0.0526  plane waves:     204
 k-point  95 :  -0.3684-0.4737 0.0526  plane waves:     208
 k-point  96 :  -0.3158-0.4737 0.0526  plane waves:     211
 k-point  97 :  -0.4211-0.4211 0.0526  plane waves:     206
 k-point  98 :  -0.3684-0.4211 0.0526  plane waves:     207
 k-point  99 :  -0.3158-0.4211 0.0526  plane waves:     207
 k-point 100 :  -0.3684-0.3684 0.0526  plane waves:     209
 k-point 101 :   0.1053 0.1053 0.1053  plane waves:     210
 k-point 102 :   0.1579 0.1053 0.1053  plane waves:     203
 k-point 103 :   0.2105 0.1053 0.1053  plane waves:     199
 k-point 104 :   0.2632 0.1053 0.1053  plane waves:     198
 k-point 105 :   0.3158 0.1053 0.1053  plane waves:     200
 k-point 106 :   0.3684 0.1053 0.1053  plane waves:     204
 k-point 107 :  -0.1053 0.1053 0.1053  plane waves:     209
 k-point 108 :   0.1579 0.1579 0.1053  plane waves:     200
 k-point 109 :   0.2105 0.1579 0.1053  plane waves:     201
 k-point 110 :   0.2632 0.1579 0.1053  plane waves:     202
 k-point 111 :   0.3158 0.1579 0.1053  plane waves:     207
 k-point 112 :   0.3684 0.1579 0.1053  plane waves:     208
 k-point 113 :  -0.1579 0.1579 0.1053  plane waves:     206
 k-point 114 :   0.2105 0.2105 0.1053  plane waves:     204
 k-point 115 :   0.2632 0.2105 0.1053  plane waves:     207
 k-point 116 :   0.3158 0.2105 0.1053  plane waves:     208
 k-point 117 :  -0.2105 0.2105 0.1053  plane waves:     206
 k-point 118 :  -0.1579 0.2105 0.1053  plane waves:     207
 k-point 119 :   0.2632 0.2632 0.1053  plane waves:     208
 k-point 120 :   0.3158 0.2632 0.1053  plane waves:     208
 k-point 121 :  -0.2632 0.2632 0.1053  plane waves:     201
 k-point 122 :  -0.2105 0.2632 0.1053  plane waves:     207
 k-point 123 :  -0.3158 0.3158 0.1053  plane waves:     203
 k-point 124 :  -0.2632 0.3158 0.1053  plane waves:     204
 k-point 125 :  -0.2105 0.3158 0.1053  plane waves:     204
 k-point 126 :  -0.3684 0.3684 0.1053  plane waves:     200
 k-point 127 :  -0.3158 0.3684 0.1053  plane waves:     203
 k-point 128 :  -0.2632 0.3684 0.1053  plane waves:     206
 k-point 129 :  -0.4211 0.4211 0.1053  plane waves:     204
 k-point 130 :  -0.3684 0.4211 0.1053  plane waves:     207
 k-point 131 :  -0.3158 0.4211 0.1053  plane waves:     209
 k-point 132 :  -0.2632 0.4211 0.1053  plane waves:     207
 k-point 133 :  -0.4737 0.4737 0.1053  plane waves:     208
 k-point 134 :  -0.4211 0.4737 0.1053  plane waves:     209
 k-point 135 :  -0.3684 0.4737 0.1053  plane waves:     210
 k-point 136 :  -0.3158 0.4737 0.1053  plane waves:     212
 k-point 137 :  -0.4737-0.4737 0.1053  plane waves:     208
 k-point 138 :  -0.4211-0.4737 0.1053  plane waves:     209
 k-point 139 :  -0.3684-0.4737 0.1053  plane waves:     209
 k-point 140 :  -0.3158-0.4737 0.1053  plane waves:     209
 k-point 141 :  -0.4211-0.4211 0.1053  plane waves:     208
 k-point 142 :  -0.3684-0.4211 0.1053  plane waves:     209
 k-point 143 :  -0.3684-0.3684 0.1053  plane waves:     206
 k-point 144 :   0.1579 0.1579 0.1579  plane waves:     204
 k-point 145 :   0.2105 0.1579 0.1579  plane waves:     204
 k-point 146 :   0.2632 0.1579 0.1579  plane waves:     204
 k-point 147 :   0.3158 0.1579 0.1579  plane waves:     208
 k-point 148 :  -0.1579 0.1579 0.1579  plane waves:     205
 k-point 149 :   0.2105 0.2105 0.1579  plane waves:     204
 k-point 150 :   0.2632 0.2105 0.1579  plane waves:     203
 k-point 151 :   0.3158 0.2105 0.1579  plane waves:     206
 k-point 152 :  -0.2105 0.2105 0.1579  plane waves:     208
 k-point 153 :   0.2632 0.2632 0.1579  plane waves:     206
 k-point 154 :  -0.2632 0.2632 0.1579  plane waves:     205
 k-point 155 :  -0.2105 0.2632 0.1579  plane waves:     205
 k-point 156 :  -0.3158 0.3158 0.1579  plane waves:     206
 k-point 157 :  -0.2632 0.3158 0.1579  plane waves:     206
 k-point 158 :  -0.3684 0.3684 0.1579  plane waves:     206
 k-point 159 :  -0.3158 0.3684 0.1579  plane waves:     208
 k-point 160 :  -0.2632 0.3684 0.1579  plane waves:     208
 k-point 161 :  -0.4211 0.4211 0.1579  plane waves:     209
 k-point 162 :  -0.3684 0.4211 0.1579  plane waves:     209
 k-point 163 :  -0.3158 0.4211 0.1579  plane waves:     210
 k-point 164 :  -0.4737 0.4737 0.1579  plane waves:     208
 k-point 165 :  -0.4211 0.4737 0.1579  plane waves:     210
 k-point 166 :  -0.3684 0.4737 0.1579  plane waves:     210
 k-point 167 :  -0.3158 0.4737 0.1579  plane waves:     213
 k-point 168 :  -0.4737-0.4737 0.1579  plane waves:     208
 k-point 169 :  -0.4211-0.4737 0.1579  plane waves:     211
 k-point 170 :  -0.3684-0.4737 0.1579  plane waves:     208
 k-point 171 :  -0.4211-0.4211 0.1579  plane waves:     208
 k-point 172 :  -0.3684-0.4211 0.1579  plane waves:     207
 k-point 173 :   0.2105 0.2105 0.2105  plane waves:     204
 k-point 174 :   0.2632 0.2105 0.2105  plane waves:     212
 k-point 175 :  -0.2105 0.2105 0.2105  plane waves:     205
 k-point 176 :   0.2632 0.2632 0.2105  plane waves:     216
 k-point 177 :  -0.2632 0.2632 0.2105  plane waves:     204
 k-point 178 :  -0.3158 0.3158 0.2105  plane waves:     206
 k-point 179 :  -0.2632 0.3158 0.2105  plane waves:     207
 k-point 180 :  -0.3684 0.3684 0.2105  plane waves:     208
 k-point 181 :  -0.3158 0.3684 0.2105  plane waves:     210
 k-point 182 :  -0.4211 0.4211 0.2105  plane waves:     212
 k-point 183 :  -0.3684 0.4211 0.2105  plane waves:     209
 k-point 184 :  -0.3158 0.4211 0.2105  plane waves:     208
 k-point 185 :  -0.4737 0.4737 0.2105  plane waves:     208
 k-point 186 :  -0.4211 0.4737 0.2105  plane waves:     208
 k-point 187 :  -0.3684 0.4737 0.2105  plane waves:     208
 k-point 188 :  -0.4737-0.4737 0.2105  plane waves:     210
 k-point 189 :  -0.4211-0.4737 0.2105  plane waves:     208
 k-point 190 :  -0.3684-0.4737 0.2105  plane waves:     211
 k-point 191 :  -0.4211-0.4211 0.2105  plane waves:     210
 k-point 192 :  -0.2632 0.2632 0.2632  plane waves:     205
 k-point 193 :  -0.3158 0.3158 0.2632  plane waves:     205
 k-point 194 :  -0.3684 0.3684 0.2632  plane waves:     210
 k-point 195 :  -0.3158 0.3684 0.2632  plane waves:     210
 k-point 196 :  -0.4211 0.4211 0.2632  plane waves:     212
 k-point 197 :  -0.3684 0.4211 0.2632  plane waves:     210
 k-point 198 :  -0.4737 0.4737 0.2632  plane waves:     210
 k-point 199 :  -0.4211 0.4737 0.2632  plane waves:     211
 k-point 200 :  -0.3684 0.4737 0.2632  plane waves:     214
 k-point 201 :  -0.4737-0.4737 0.2632  plane waves:     212
 k-point 202 :  -0.4211-0.4737 0.2632  plane waves:     213
 k-point 203 :  -0.4211-0.4211 0.2632  plane waves:     212
 k-point 204 :  -0.3158 0.3158 0.3158  plane waves:     204
 k-point 205 :  -0.3684 0.3684 0.3158  plane waves:     214
 k-point 206 :  -0.4211 0.4211 0.3158  plane waves:     216
 k-point 207 :  -0.3684 0.4211 0.3158  plane waves:     214
 k-point 208 :  -0.4737 0.4737 0.3158  plane waves:     214
 k-point 209 :  -0.4211 0.4737 0.3158  plane waves:     216
 k-point 210 :  -0.4737-0.4737 0.3158  plane waves:     214
 k-point 211 :  -0.4211-0.4737 0.3158  plane waves:     216
 k-point 212 :  -0.3684 0.3684 0.3684  plane waves:     212
 k-point 213 :  -0.4211 0.4211 0.3684  plane waves:     216
 k-point 214 :  -0.4737 0.4737 0.3684  plane waves:     216
 k-point 215 :  -0.4211 0.4737 0.3684  plane waves:     216
 k-point 216 :  -0.4737-0.4737 0.3684  plane waves:     216
 k-point 217 :  -0.4211 0.4211 0.4211  plane waves:     212
 k-point 218 :  -0.4737 0.4737 0.4211  plane waves:     218
 k-point 219 :  -0.4737-0.4737 0.4211  plane waves:     218
 k-point 220 :  -0.4737 0.4737 0.4737  plane waves:     228

 maximum and minimum number of plane-waves per node :       228      194

 maximum number of plane-waves:       228
 maximum index in each direction: 
   IXMAX=    4   IYMAX=    4   IZMAX=    3
   IXMIN=   -4   IYMIN=   -4   IZMIN=   -4


 serial   3D FFT for wavefunctions
 parallel 3D FFT for charge:
    minimum data exchange during FFTs selected (reduces bandwidth)


 total amount of memory used by VASP MPI-rank0    36700. kBytes
=======================================================================

   base      :      30000. kBytes
   nonl-proj :       3213. kBytes
   fftplans  :       1246. kBytes
   grid      :        577. kBytes
   one-center:          3. kBytes
   wavefun   :       1661. kBytes
 
     INWAV:  cpu time    0.0000: real time    0.0007
 Broyden mixing: mesh for mixing (old mesh)
   NGX =  7   NGY =  7   NGZ =  7
  (NGX  = 32   NGY  = 32   NGZ  = 32)
  gives a total of    343 points

 initial charge density was supplied:
 charge density of overlapping atoms calculated
 number of electron       4.0000000 magnetization 
 keeping initial charge density in first step


--------------------------------------------------------------------------------------------------------


 Maximum index for augmentation-charges        19203 (set IRDMAX)


--------------------------------------------------------------------------------------------------------


 First call to EWALD:  gamma=   0.738
 Maximum number of real-space cells 3x 3x 3
 Maximum number of reciprocal cells 3x 3x 3

    FEWALD:  cpu time    0.0030: real time    0.0034


--------------------------------------- Iteration      1(   1)  ---------------------------------------


    POTLOK:  cpu time    0.0100: real time    0.0130
    SETDIJ:  cpu time    0.1640: real time    0.1649
     EDDAV:  cpu time    0.6489: real time    0.6488
       DOS:  cpu time    0.0020: real time    0.0030
    --------------------------------------------
      LOOP:  cpu time    0.8259: real time    0.8300

 eigenvalue-minimisations  :  3912
 total energy-change (2. order) :-0.3252688E+01  (-0.1476121E+03)
 number of electron       4.0000000 magnetization 
 augmentation part        4.0000000 magnetization 

 Free energy of the ion-electron system (eV)
  ---------------------------------------------------
  alpha Z        PSCENC =         2.42827211
  Ewald energy   TEWEN  =      -138.51397499
  -Hartree energ DENC   =        -0.48179554
  -exchange      EXHF   =         0.00000000
  -V(xc)+E(xc)   XCENC  =        -8.69332224
  PAW double counting   =        88.12379961      -70.53051779
  entropy T*S    EENTRO =        -0.00053167
  eigenvalues    EBANDS =        21.34975502
  atomic energy  EATOM  =       103.06562707
  Solvation  Ediel_sol  =         0.00000000
  ---------------------------------------------------
  free energy    TOTEN  =        -3.25268842 eV

  energy without entropy =       -3.25215675  energy(sigma->0) =       -3.25242259


--------------------------------------------------------------------------------------------------------




--------------------------------------- Iteration      1(   2)  ---------------------------------------


     EDDAV:  cpu time    0.9239: real time    0.9342
       DOS:  cpu time    0.0020: real time    0.0031
    --------------------------------------------
      LOOP:  cpu time    0.9259: real time    0.9372

 eigenvalue-minimisations  :  5360
 total energy-change (2. order) :-0.1642628E+01  (-0.1553422E+01)
 number of electron       4.0000000 magnetization 
 augmentation part        4.0000000 magnetization 

 Free energy of the ion-electron system (eV)
  ---------------------------------------------------
  alpha Z        PSCENC =         2.42827211
  Ewald energy   TEWEN  =      -138.51397499
  -Hartree energ DENC   =        -0.48179554
  -exchange      EXHF   =         0.00000000
  -V(xc)+E(xc)   XCENC  =        -8.69332224
  PAW double counting   =        88.12379961      -70.53051779
  entropy T*S    EENTRO =        -0.00045044
  eigenvalues    EBANDS =        19.70704572
  atomic energy  EATOM  =       103.06562707
  Solvation  Ediel_sol  =         0.00000000
  ---------------------------------------------------
  free energy    TOTEN  =        -4.89531649 eV

  energy without entropy =       -4.89486605  energy(sigma->0) =       -4.89509127


--------------------------------------------------------------------------------------------------------




--------------------------------------- Iteration      1(   3)  ---------------------------------------


     EDDAV:  cpu time    0.6439: real time    0.6518
       DOS:  cpu time    0.0020: real time    0.0030
    --------------------------------------------
      LOOP:  cpu time    0.6459: real time    0.6549

 eigenvalue-minimisations  :  3872
 total energy-change (2. order) :-0.7804051E-02  (-0.7798332E-02)
 number of electron       4.0000000 magnetization 
 augmentation part        4.0000000 magnetization 

 Free energy of the ion-electron system (eV)
  ---------------------------------------------------
  alpha Z        PSCENC =         2.42827211
  Ewald energy   TEWEN  =      -138.51397499
  -Hartree energ DENC   =        -0.48179554
  -exchange      EXHF   =         0.00000000
  -V(xc)+E(xc)   XCENC  =        -8.69332224
  PAW double counting   =        88.12379961      -70.53051779
  entropy T*S    EENTRO =        -0.00048960
  eigenvalues    EBANDS =        19.69928083
  atomic energy  EATOM  =       103.06562707
  Solvation  Ediel_sol  =         0.00000000
  ---------------------------------------------------
  free energy    TOTEN  =        -4.90312054 eV

  energy without entropy =       -4.90263094  energy(sigma->0) =       -4.90287574


--------------------------------------------------------------------------------------------------------




--------------------------------------- Iteration      1(   4)  ---------------------------------------


     EDDAV:  cpu time    0.9938: real time    1.0031
       DOS:  cpu time    0.0030: real time    0.0029
    --------------------------------------------
[...]
      1       3.7399      2.00000
      2       5.3174      2.00000
      3      11.7347      0.00000
      4      14.2807      0.00000
      5      20.0841      0.00000
      6      22.0295      0.00000
      7      23.6831      0.00000
      8      27.3086      0.00000

 k-point   186 :      -0.4211    0.4737    0.2105
  band No.  band energies     occupation 
      1       3.4232      2.00000
      2       6.5033      2.00000
      3      10.7416      0.00000
      4      14.6226      0.00000
      5      18.6594      0.00000
      6      21.5826      0.00000
      7      24.3564      0.00000
      8      28.5191      0.00000

 k-point   187 :      -0.3684    0.4737    0.2105
  band No.  band energies     occupation 
      1       3.2623      2.00000
      2       7.8278      2.00000
      3       9.2908      2.00000
      4      15.6188      0.00000
      5      17.2877      0.00000
      6      21.3921      0.00000
      7      24.5144      0.00000
      8      30.2661      0.00000

 k-point   188 :      -0.4737   -0.4737    0.2105
  band No.  band energies     occupation 
      1       4.7227      2.00000
      2       5.0615      2.00000
      3      10.6642      0.00000
      4      14.5496      0.00000
      5      19.4658      0.00000
      6      20.6620      0.00000
      7      24.2737      0.00000
      8      28.4942      0.00000

 k-point   189 :      -0.4211   -0.4737    0.2105
  band No.  band energies     occupation 
      1       4.6302      2.00000
      2       6.1879      2.00000
      3       9.1300      2.00000
      4      15.5211      0.00000
      5      18.3538      0.00000
      6      20.0269      0.00000
      7      24.3662      0.00000
      8      30.3696      0.00000

 k-point   190 :      -0.3684   -0.4737    0.2105
  band No.  band energies     occupation 
      1       4.5551      2.00000
      2       7.4746      2.00000
      3       7.7282      2.00000
      4      16.3620      0.00000
      5      17.4129      0.00000
      6      19.8849      0.00000
      7      24.3616      0.00000
      8      31.7786      0.00000

 k-point   191 :      -0.4211   -0.4211    0.2105
  band No.  band energies     occupation 
      1       5.8408      2.00000
      2       6.1660      2.00000
      3       7.5383      2.00000
      4      16.5286      0.00000
      5      18.1295      0.00000
      6      18.7903      0.00000
      7      24.3037      0.00000
      8      32.2802      0.00000

 k-point   192 :      -0.2632    0.2632    0.2632
  band No.  band energies     occupation 
      1      -0.1116      2.00000
      2      12.4907      0.00000
      3      12.4907      0.00000
      4      14.5144      0.00000
      5      15.7528      0.00000
      6      26.1686      0.00000
      7      26.5746      0.00000
      8      27.9389      0.00000

 k-point   193 :      -0.3158    0.3158    0.2632
  band No.  band energies     occupation 
      1       0.8006      2.00000
      2      11.1943      0.00000
      3      11.8874      0.00000
      4      14.2062      0.00000
      5      15.4652      0.00000
      6      24.5342      0.00000
      7      26.5549      0.00000
      8      28.5222      0.00000

 k-point   194 :      -0.3684    0.3684    0.2632
  band No.  band energies     occupation 
      1       1.8724      2.00000
      2       9.4308      2.00000
      3      11.4332      0.00000
      4      13.9065      0.00000
      5      16.0587      0.00000
      6      22.8734      0.00000
      7      26.1974      0.00000
      8      28.7663      0.00000

 k-point   195 :      -0.3158    0.3684    0.2632
  band No.  band energies     occupation 
      1       1.7903      2.00000
      2      10.5879      0.00000
      3      10.7289      0.00000
      4      14.1443      0.00000
      5      15.0932      0.00000
      6      22.8166      0.00000
      7      26.8010      0.00000
      8      29.5347      0.00000

 k-point   196 :      -0.4211    0.4211    0.2632
  band No.  band energies     occupation 
      1       3.0993      2.00000
      2       7.6741      2.00000
      3      11.1300      0.00000
      4      13.6296      0.00000
      5      17.0501      0.00000
      6      21.2866      0.00000
      7      25.9304      0.00000
      8      28.8130      0.00000

 k-point   197 :      -0.3684    0.4211    0.2632
  band No.  band energies     occupation 
      1       2.9368      2.00000
      2       8.9570      2.00000
      3      10.2806      0.00000
      4      14.0804      0.00000
      5      15.6209      0.00000
      6      21.1367      0.00000
      7      26.6016      0.00000
      8      30.0276      0.00000

 k-point   198 :      -0.4737    0.4737    0.2632
  band No.  band energies     occupation 
      1       4.4689      2.00000
      2       6.0288      2.00000
      3      10.9781      0.00000
      4      13.4817      0.00000
      5      18.1745      0.00000
      6      19.8791      0.00000
      7      25.7911      0.00000
      8      28.8056      0.00000

 k-point   199 :      -0.4211    0.4737    0.2632
  band No.  band energies     occupation 
      1       4.2335      2.00000
      2       7.2767      2.00000
      3      10.0469      0.00160
      4      13.9050      0.00000
      5      16.6704      0.00000
      6      19.5738      0.00000
      7      26.4300      0.00000
      8      30.1521      0.00000

 k-point   200 :      -0.3684    0.4737    0.2632
  band No.  band energies     occupation 
      1       4.1538      2.00000
      2       8.5404      2.00000
      3       8.7601      2.00000
      4      14.7327      0.00000
      5      15.5961      0.00000
      6      19.4830      0.00000
      7      26.5374      0.00000
      8      31.4461      0.00000

 k-point   201 :      -0.4737   -0.4737    0.2632
  band No.  band energies     occupation 
      1       5.5318      2.00000
      2       5.8451      2.00000
      3       9.9690      0.34006
      4      13.8371      0.00000
      5      17.6141      0.00000
      6      18.4712      0.00000
      7      26.3683      0.00000
      8      30.1762      0.00000

 k-point   202 :      -0.4211   -0.4737    0.2632
  band No.  band energies     occupation 
      1       5.5097      2.00000
      2       7.0391      2.00000
      3       8.5040      2.00000
      4      14.8575      0.00000
      5      16.4773      0.00000
      6      17.9994      0.00000
      7      26.4562      0.00000
      8      31.9856      0.00000

 k-point   203 :      -0.4211   -0.4211    0.2632
  band No.  band energies     occupation 
      1       6.6829      2.00000
      2       7.0898      2.00000
      3       7.0898      2.00000
      4      15.5503      0.00000
      5      16.7664      0.00000
      6      16.7664      0.00000
      7      26.4373      0.00000
      8      33.5298      0.00000

 k-point   204 :      -0.3158    0.3158    0.3158
  band No.  band energies     occupation 
      1       1.7081      2.00000
      2      11.2823      0.00000
      3      11.2823      0.00000
      4      13.3288      0.00000
      5      14.3852      0.00000
      6      22.7666      0.00000
      7      28.3332      0.00000
      8      29.4700      0.00000

 k-point   205 :      -0.3684    0.3684    0.3158
  band No.  band energies     occupation 
      1       2.7736      2.00000
      2      10.1148      0.00000
      3      10.8266      0.00000
      4      13.1409      0.00000
      5      14.2962      0.00000
      6      20.9968      0.00000
      7      28.3847      0.00000
      8      30.0905      0.00000

 k-point   206 :      -0.4211    0.4211    0.3158
  band No.  band energies     occupation 
      1       3.9923      2.00000
      2       8.4873      2.00000
      3      10.5226      0.00000
      4      12.9575      0.00000
      5      15.1011      0.00000
      6      19.3274      0.00000
      7      28.1521      0.00000
      8      30.3870      0.00000

 k-point   207 :      -0.3684    0.4211    0.3158
  band No.  band energies     occupation 
      1       3.9116      2.00000
      2       9.6632      2.00000
      3       9.7986      1.99989
      4      13.2411      0.00000
      5      14.0853      0.00000
      6      19.2474      0.00000
      7      28.7136      0.00000
      8      31.2460      0.00000

 k-point   208 :      -0.4737    0.4737    0.3158
  band No.  band energies     occupation 
      1       5.3509      2.00000
      2       6.8844      2.00000
      3      10.3706      0.00000
      4      12.8248      0.00000
      5      16.2393      0.00000
      6      17.8333      0.00000
      7      28.0218      0.00000
      8      30.4933      0.00000

 k-point   209 :      -0.4211    0.4737    0.3158
  band No.  band energies     occupation 
      1       5.1962      2.00000
      2       8.1701      2.00000
      3       9.5057      2.00000
      4      13.2991      0.00000
      5      14.8090      0.00000
      6      17.6317      0.00000
      7      28.6334      0.00000
      8      31.7742      0.00000

 k-point   210 :      -0.4737   -0.4737    0.3158
  band No.  band energies     occupation 
      1       6.4862      2.00000
      2       6.7703      2.00000
      3       9.4269      2.00000
      4      13.2568      0.00000
      5      15.7840      0.00000
      6      16.4419      0.00000
      7      28.5906      0.00000
      8      31.8893      0.00000

 k-point   211 :      -0.4211   -0.4737    0.3158
  band No.  band energies     occupation 
      1       6.5292      2.00000
      2       7.9216      2.00000
      3       8.1268      2.00000
      4      14.0810      0.00000
      5      14.9377      0.00000
      6      16.1211      0.00000
      7      28.6624      0.00000
      8      33.2066      0.00000

 k-point   212 :      -0.3684    0.3684    0.3684
  band No.  band energies     occupation 
      1       3.8307      2.00000
      2      10.3707      0.00000
      3      10.3707      0.00000
      4      12.4075      0.00000
      5      13.3558      0.00000
      6      19.1697      0.00000
      7      30.3423      0.00000
      8      31.1786      0.00000

 k-point   213 :      -0.4211    0.4211    0.3684
  band No.  band energies     occupation 
      1       5.0370      2.00000
      2       9.3402      2.00000
      3      10.0662      0.00021
      4      12.3535      0.00000
      5      13.4595      0.00000
      6      17.4608      0.00000
      7      30.4372      0.00000
      8      31.8507      0.00000

 k-point   214 :      -0.4737    0.4737    0.3684
  band No.  band energies     occupation 
      1       6.3764      2.00000
      2       7.8610      2.00000
      3       9.9139      1.45469
      4      12.3020      0.00000
      5      14.4322      0.00000
      6      15.9335      0.00000
      7      30.3259      0.00000
      8      32.1383      0.00000

 k-point   215 :      -0.4211    0.4737    0.3684
  band No.  band energies     occupation 
      1       6.3010      2.00000
      2       9.0442      2.00000
      3       9.1762      2.00000
      4      12.6064      0.00000
      5      13.4125      0.00000
      6      15.8284      0.00000
      7      30.8284      0.00000
      8      33.0159      0.00000

 k-point   216 :      -0.4737   -0.4737    0.3684
  band No.  band energies     occupation 
      1       7.5648      2.00000
      2       7.8100      2.00000
      3       9.0407      2.00000
      4      12.7617      0.00000
      5      14.1310      0.00000
      6      14.6091      0.00000
      7      30.8365      0.00000
      8      33.4155      0.00000

 k-point   217 :      -0.4211    0.4211    0.4211
  band No.  band energies     occupation 
      1       6.2229      2.00000
      2       9.7616      2.00000
      3       9.7616      2.00000
      4      11.7656      0.00000
      5      12.6694      0.00000
      6      15.7380      0.00000
      7      32.4785      0.00000
      8      32.9537      0.00000

 k-point   218 :      -0.4737    0.4737    0.4211
  band No.  band energies     occupation 
      1       7.5225      2.00000
      2       8.8758      2.00000
      3       9.6091      2.00000
      4      11.8350      0.00000
      5      12.9448      0.00000
      6      14.2244      0.00000
      7      32.5702      0.00000
      8      33.5179      0.00000

 k-point   219 :      -0.4737   -0.4737    0.4211
  band No.  band energies     occupation 
      1       8.6472      2.00000
      2       8.8645      2.00000
      3       8.8645      2.00000
      4      12.0297      0.00000
      5      13.0761      0.00000
      6      13.0761      0.00000
      7      32.9035      0.00000
      8      34.4026      0.00000

 k-point   220 :      -0.4737    0.4737    0.4737
  band No.  band energies     occupation 
      1       8.7074      2.00000
      2       9.4563      2.00000
      3       9.4563      2.00000
      4      11.3081      0.00000
      5      12.3212      0.00000
      6      12.8503      0.00000
      7      34.2379      0.00000
      8      34.3327      0.00000


--------------------------------------------------------------------------------------------------------


 soft charge-density along one line, spin component           1
         0         1         2         3         4         5         6         7         8         9
 total charge-density along one line
 
 pseudopotential strength for first ion, spin component:           1
 17.984  25.090   0.000   0.000   0.000   0.000   0.000   0.000
 25.090  35.006   0.000   0.000   0.000   0.000   0.000   0.000
  0.000   0.000   4.100  -0.000   0.000   7.637  -0.000   0.000
  0.000   0.000  -0.000   4.100  -0.000  -0.000   7.637  -0.000
  0.000   0.000   0.000  -0.000   4.100   0.000  -0.000   7.637
  0.000   0.000   7.637  -0.000   0.000  14.238  -0.000   0.000
  0.000   0.000  -0.000   7.637  -0.000  -0.000  14.238  -0.000
  0.000   0.000   0.000  -0.000   7.637   0.000  -0.000  14.238
 total augmentation occupancy for first ion, spin component:           1
  4.770  -1.929   0.000   0.000   0.000   0.000   0.000   0.000
 -1.929   1.206   0.000   0.000   0.000   0.000   0.000   0.000
  0.000   0.000   2.316  -0.000   0.000  -0.542   0.000   0.000
  0.000   0.000  -0.000   2.316   0.000  -0.000  -0.542  -0.000
  0.000   0.000  -0.000   0.000   2.316  -0.000   0.000  -0.542
  0.000   0.000  -0.542   0.000  -0.000   0.141   0.000   0.000
  0.000   0.000   0.000  -0.542  -0.000   0.000   0.141  -0.000
  0.000   0.000   0.000   0.000  -0.542   0.000   0.000   0.141


------------------------ aborting loop because EDIFF is reached ----------------------------------------


    CHARGE:  cpu time    0.0230: real time    0.0238
    FORLOC:  cpu time    0.0000: real time    0.0005
    FORNL :  cpu time    0.0440: real time    0.0443
    STRESS:  cpu time    0.5059: real time    0.5056
    FORCOR:  cpu time    0.0080: real time    0.0095
    FORHAR:  cpu time    0.0020: real time    0.0020
    MIXING:  cpu time    0.0000: real time    0.0005
    OFIELD:  cpu time    0.0000: real time    0.0002

  FORCE on cell =-STRESS in cart. coord.  units (eV):
  Direction    XX          YY          ZZ          XY          YZ          ZX
  --------------------------------------------------------------------------------------
  Alpha Z     2.30298     2.30298     2.30298
  Ewald     -45.36318   -45.36318   -45.36318     0.00000     0.00000    -0.00000
  Hartree     0.14325     0.14325     0.14325    -0.00000     0.00000     0.00000
  E(xc)     -12.67264   -12.67264   -12.67264     0.00000    -0.00000    -0.00000
  Local      -5.10453    -5.10453    -5.10453    -0.00001     0.00001     0.00001
  n-local    38.91641    38.37196    38.19766    -1.07743    -1.20880     0.44740
  augment    -6.27408    -6.27408    -6.27408     0.00001    -0.00001    -0.00001
  Kinetic    23.85848    34.23175    27.33250    11.83152    13.46984    -5.35238
  Fock        0.00000     0.00000     0.00000     0.00000     0.00000     0.00000
  -------------------------------------------------------------------------------------
  Total       0.00138     0.00138     0.00138     0.00000     0.00000     0.00000
  in kB       0.15124     0.15124     0.15124     0.00000     0.00000     0.00000
  external pressure =        0.15 kB  Pullay stress =        0.00 kB


 VOLUME and BASIS-vectors are now :
 -----------------------------------------------------------------------------
  energy-cutoff  :      350.00
  volume of cell :       14.62
      direct lattice vectors                 reciprocal lattice vectors
     1.540285398  1.540285398  1.540285398     0.324615166  0.324615166  0.000000000
     1.540285398 -1.540285398 -1.540285398     0.324615166  0.000000000 -0.324615166
    -1.540285398  1.540285398 -1.540285398     0.000000000  0.324615166 -0.324615166

  length of vectors
     2.667852568  2.667852568  2.667852568     0.459075170  0.459075170  0.459075170


 FORCES acting on ions
    electron-ion (+dipol)            ewald-force                    non-local-force                 convergence-correction
 -----------------------------------------------------------------------------------------------
   0.208E-15 0.354E-15 0.555E-15   0.217E-15 0.120E-15 -.105E-15   0.307E-25 -.485E-26 -.339E-25   0.489E-16 0.375E-16 -.132E-16
 -----------------------------------------------------------------------------------------------
   0.208E-15 0.354E-15 0.555E-15   0.217E-15 0.120E-15 -.105E-15   0.307E-25 -.485E-26 -.339E-25   0.489E-16 0.375E-16 -.132E-16
 
 
 POSITION                                       TOTAL-FORCE (eV/Angst)
 -----------------------------------------------------------------------------------
      0.00000     -0.00000      0.00000         0.000000      0.000000      0.000000
 -----------------------------------------------------------------------------------
    total drift:                                0.000000      0.000000      0.000000


--------------------------------------------------------------------------------------------------------



  FREE ENERGIE OF THE ION-ELECTRON SYSTEM (eV)
  ---------------------------------------------------
  free  energy   TOTEN  =        -4.89736582 eV

  energy  without entropy=       -4.89669631  energy(sigma->0) =       -4.89703106
 
 d Force = 0.0000000E+00[ 0.000E+00, 0.000E+00]  d Energy = 0.9881978E-03-0.988E-03
 d Force = 0.0000000E+00[ 0.000E+00, 0.000E+00]  d Ewald  = 0.6976418E+00-0.698E+00


--------------------------------------------------------------------------------------------------------


    POTLOK:  cpu time    0.1740: real time    0.1803


--------------------------------------------------------------------------------------------------------




--------------------------------------------------------------------------------------------------------


  
 reached required accuracy - stopping structural energy minimisation
     LOOP+:  cpu time    5.5322: real time    5.7916
    4ORBIT:  cpu time    0.0000: real time    0.0000

 total amount of memory used by VASP MPI-rank0    36700. kBytes
=======================================================================

   base      :      30000. kBytes
   nonl-proj :       3213. kBytes
   fftplans  :       1246. kBytes
   grid      :        577. kBytes
   one-center:          3. kBytes
   wavefun   :       1661. kBytes
 
  
  
 General timing and accounting informations for this job:
 ========================================================
  
                  Total CPU time used (sec):       21.369
                            User time (sec):       20.722
                          System time (sec):        0.647
                         Elapsed time (sec):       23.135
  
                   Maximum memory used (kb):       57032.
                   Average memory used (kb):          N/A
  
                          Minor page faults:        10433
                          Major page faults:            1
                 Voluntary context switches:        34115
