<?xml version="1.0" encoding="ISO-8859-1"?>
<modeling>
 <generator>
  <i name="program" type="string">vasp </i>
  <i name="version" type="string">6.2.0  </i>
  <i name="subversion" type="string">18Jan21 (build Aug 12 2022 13:00:08) complex                          parallel </i>
  <i name="platform" type="string">LinuxIFC </i>
  <i name="date" type="string">2024 11 03 </i>
  <i name="time" type="string">21:53:52 </i>
 </generator>
 <incar>
  <i type="int" name="ISTART">     0</i>
  <i type="string" name="PREC">Accurate      (Accurate strictly avoids</i>
  <i type="logical" name="ADDGRID"> T  </i>
  <i type="int" name="ISPIN">     1</i>
  <i type="int" name="NELM">    90</i>
  <i type="int" name="NELMIN">     6</i>
  <i type="int" name="IBRION">     2</i>
  <i name="EDIFF">      0.00000100</i>
  <i name="EDIFFG">     -0.00200000</i>
  <i type="int" name="NSW">   100</i>
  <i type="int" name="ISIF">     3</i>
  <i type="int" name="ISYM">     2</i>
  <i name="ENCUT">    350.00000000</i>
  <i type="logical" name="LREAL"> F  </i>
  <i type="int" name="ISMEAR">     0</i>
  <i name="SIGMA">      0.05000000</i>
  <i type="logical" name="LWAVE"> F  </i>
  <i type="logical" name="LCHARG"> F  </i>
  <i type="logical" name="LASPH"> T  </i>
 </incar>
 <primitive_cell>
  <structure name="primitive_cell" >
   <crystal>
    <varray name="basis" >
     <v>       1.51332563       1.51332563       1.51332563 </v>
     <v>       1.51332563      -1.51332563      -1.51332563 </v>
     <v>      -1.51332563       1.51332563      -1.51332563 </v>
    </varray>
    <i name="volume">     13.86299778 </i>
    <varray name="rec_basis" >
     <v>       0.33039816       0.33039816       0.00000000 </v>
     <v>       0.33039816       0.00000000      -0.33039816 </v>
     <v>       0.00000000       0.33039816      -0.33039816 </v>
    </varray>
   </crystal>
   <varray name="positions" >
    <v>       0.00000000       0.00000000       0.00000000 </v>
   </varray>
  </structure>
  <varray name="primitive_index" >
   <v type="int" >        1 </v>
  </varray>
 </primitive_cell>
 <kpoints>
  <generation param="Monkhorst-Pack">
   <v type="int" name="divisions">      19       19       19 </v>
   <v name="usershift">      0.00000000       0.00000000       0.00000000 </v>
   <v name="genvec1">      0.05263158       0.00000000       0.00000000 </v>
   <v name="genvec2">      0.00000000       0.05263158       0.00000000 </v>
   <v name="genvec3">      0.00000000       0.00000000       0.05263158 </v>
   <v name="shift">      0.00000000       0.00000000       0.00000000 </v>
  </generation>
  <varray name="kpointlist" >
   <v>       0.00000000       0.00000000       0.00000000 </v>
   <v>       0.05263158       0.00000000       0.00000000 </v>
   <v>       0.10526316       0.00000000       0.00000000 </v>
   <v>       0.15789474       0.00000000       0.00000000 </v>
   <v>       0.21052632       0.00000000       0.00000000 </v>
   <v>       0.26315789       0.00000000       0.00000000 </v>
   <v>       0.31578947       0.00000000       0.00000000 </v>
   <v>       0.36842105       0.00000000       0.00000000 </v>
   <v>       0.42105263       0.00000000       0.00000000 </v>
   <v>       0.47368421       0.00000000       0.00000000 </v>
   <v>       0.05263158       0.05263158       0.00000000 </v>
   <v>       0.10526316       0.05263158       0.00000000 </v>
   <v>       0.15789474       0.05263158       0.00000000 </v>
   <v>       0.21052632       0.05263158       0.00000000 </v>
   <v>       0.26315789       0.05263158       0.00000000 </v>
   <v>       0.31578947       0.05263158       0.00000000 </v>
   <v>       0.36842105       0.05263158       0.00000000 </v>
   <v>       0.42105263       0.05263158       0.00000000 </v>
   <v>       0.47368421       0.05263158       0.00000000 </v>
   <v>       0.10526316       0.10526316       0.00000000 </v>
   <v>       0.15789474       0.10526316       0.00000000 </v>
   <v>       0.21052632       0.10526316       0.00000000 </v>
   <v>       0.26315789       0.10526316       0.00000000 </v>
   <v>       0.31578947       0.10526316       0.00000000 </v>
   <v>       0.36842105       0.10526316       0.00000000 </v>
   <v>       0.42105263       0.10526316       0.00000000 </v>
   <v>       0.15789474       0.15789474       0.00000000 </v>
   <v>       0.21052632       0.15789474       0.00000000 </v>
   <v>       0.26315789       0.15789474      -0.00000000 </v>
   <v>       0.31578947       0.15789474      -0.00000000 </v>
   <v>       0.36842105       0.15789474       0.00000000 </v>
   <v>       0.42105263       0.15789474       0.00000000 </v>
   <v>       0.21052632       0.21052632       0.00000000 </v>
   <v>       0.26315789       0.21052632      -0.00000000 </v>
   <v>       0.31578947       0.21052632       0.00000000 </v>
   <v>       0.36842105       0.21052632       0.00000000 </v>
   <v>       0.26315789       0.26315789       0.00000000 </v>
   <v>       0.31578947       0.26315789       0.00000000 </v>
   <v>       0.36842105       0.26315789       0.00000000 </v>
   <v>       0.31578947       0.31578947       0.00000000 </v>
   <v>       0.05263158       0.05263158       0.05263158 </v>
   <v>       0.10526316       0.05263158       0.05263158 </v>
   <v>       0.15789474       0.05263158       0.05263158 </v>
   <v>       0.21052632       0.05263158       0.05263158 </v>
   <v>       0.26315789       0.05263158       0.05263158 </v>
   <v>       0.31578947       0.05263158       0.05263158 </v>
   <v>       0.36842105       0.05263158       0.05263158 </v>
   <v>       0.42105263       0.05263158       0.05263158 </v>
   <v>      -0.05263158       0.05263158       0.05263158 </v>
   <v>       0.10526316       0.10526316       0.05263158 </v>
   <v>       0.15789474       0.10526316       0.05263158 </v>
   <v>       0.21052632       0.10526316       0.05263158 </v>
   <v>       0.26315789       0.10526316       0.05263158 </v>
   <v>       0.31578947       0.10526316       0.05263158 </v>
   <v>       0.36842105       0.10526316       0.05263158 </v>
   <v>       0.42105263       0.10526316       0.05263158 </v>
   <v>      -0.10526316       0.10526316       0.05263158 </v>
   <v>       0.15789474       0.15789474       0.05263158 </v>
   <v>       0.21052632       0.15789474       0.05263158 </v>
   <v>       0.26315789       0.15789474       0.05263158 </v>
   <v>       0.31578947       0.15789474       0.05263158 </v>
   <v>       0.36842105       0.15789474       0.05263158 </v>
   <v>      -0.15789474       0.15789474       0.05263158 </v>
   <v>      -0.10526316       0.15789474       0.05263158 </v>
   <v>       0.21052632       0.21052632       0.05263158 </v>
   <v>       0.26315789       0.21052632       0.05263158 </v>
   <v>       0.31578947       0.21052632       0.05263158 </v>
   <v>       0.36842105       0.21052632       0.05263158 </v>
   <v>      -0.21052632       0.21052632       0.05263158 </v>
   <v>      -0.15789474       0.21052632       0.05263158 </v>
   <v>       0.26315789       0.26315789       0.05263158 </v>
   <v>       0.31578947       0.26315789       0.05263158 </v>
   <v>      -0.26315789       0.26315789       0.05263158 </v>
   <v>      -0.21052632       0.26315789       0.05263158 </v>
   <v>      -0.15789474       0.26315789       0.05263158 </v>
   <v>       0.31578947       0.31578947       0.05263158 </v>
   <v>      -0.31578947       0.31578947       0.05263158 </v>
   <v>      -0.26315789       0.31578947       0.05263158 </v>
   <v>      -0.21052632       0.31578947       0.05263158 </v>
   <v>      -0.36842105       0.36842105       0.05263158 </v>
   <v>      -0.31578947       0.36842105       0.05263158 </v>
   <v>      -0.26315789       0.36842105       0.05263158 </v>
   <v>      -0.21052632       0.36842105       0.05263158 </v>
   <v>      -0.42105263       0.42105263       0.05263158 </v>
   <v>      -0.36842105       0.42105263       0.05263158 </v>
   <v>      -0.31578947       0.42105263       0.05263158 </v>
   <v>      -0.26315789       0.42105263       0.05263158 </v>
   <v>      -0.47368421       0.47368421       0.05263158 </v>
   <v>      -0.42105263       0.47368421       0.05263158 </v>
   <v>      -0.36842105       0.47368421       0.05263158 </v>
   <v>      -0.31578947       0.47368421       0.05263158 </v>
   <v>      -0.26315789       0.47368421       0.05263158 </v>
   <v>      -0.47368421      -0.47368421       0.05263158 </v>
   <v>      -0.42105263      -0.47368421       0.05263158 </v>
   <v>      -0.36842105      -0.47368421       0.05263158 </v>
   <v>      -0.31578947      -0.47368421       0.05263158 </v>
   <v>      -0.42105263      -0.42105263       0.05263158 </v>
   <v>      -0.36842105      -0.42105263       0.05263158 </v>
   <v>      -0.31578947      -0.42105263       0.05263158 </v>
   <v>      -0.36842105      -0.36842105       0.05263158 </v>
   <v>       0.10526316       0.10526316       0.10526316 </v>
   <v>       0.15789474       0.10526316       0.10526316 </v>
   <v>       0.21052632       0.10526316       0.10526316 </v>
   <v>       0.26315789       0.10526316       0.10526316 </v>
   <v>       0.31578947       0.10526316       0.10526316 </v>
   <v>       0.36842105       0.10526316       0.10526316 </v>
   <v>      -0.10526316       0.10526316       0.10526316 </v>
   <v>       0.15789474       0.15789474       0.10526316 </v>
   <v>       0.21052632       0.15789474       0.10526316 </v>
   <v>       0.26315789       0.15789474       0.10526316 </v>
   <v>       0.31578947       0.15789474       0.10526316 </v>
   <v>       0.36842105       0.15789474       0.10526316 </v>
   <v>      -0.15789474       0.15789474       0.10526316 </v>
   <v>       0.21052632       0.21052632       0.10526316 </v>
   <v>       0.26315789       0.21052632       0.10526316 </v>
   <v>       0.31578947       0.21052632       0.10526316 </v>
   <v>      -0.21052632       0.21052632       0.10526316 </v>
   <v>      -0.15789474       0.21052632       0.10526316 </v>
   <v>       0.26315789       0.26315789       0.10526316 </v>
   <v>       0.31578947       0.26315789       0.10526316 </v>
   <v>      -0.26315789       0.26315789       0.10526316 </v>
   <v>      -0.21052632       0.26315789       0.10526316 </v>
   <v>      -0.31578947       0.31578947       0.10526316 </v>
   <v>      -0.26315789       0.31578947       0.10526316 </v>
   <v>      -0.21052632       0.31578947       0.10526316 </v>
   <v>      -0.36842105       0.36842105       0.10526316 </v>
   <v>      -0.31578947       0.36842105       0.10526316 </v>
   <v>      -0.26315789       0.36842105       0.10526316 </v>
   <v>      -0.42105263       0.42105263       0.10526316 </v>
   <v>      -0.36842105       0.42105263       0.10526316 </v>
   <v>      -0.31578947       0.42105263       0.10526316 </v>
   <v>      -0.26315789       0.42105263       0.10526316 </v>
   <v>      -0.47368421       0.47368421       0.10526316 </v>
   <v>      -0.42105263       0.47368421       0.10526316 </v>
   <v>      -0.36842105       0.47368421       0.10526316 </v>
   <v>      -0.31578947       0.47368421       0.10526316 </v>
   <v>      -0.47368421      -0.47368421       0.10526316 </v>
   <v>      -0.42105263      -0.47368421       0.10526316 </v>
   <v>      -0.36842105      -0.47368421       0.10526316 </v>
   <v>      -0.31578947      -0.47368421       0.10526316 </v>
   <v>      -0.42105263      -0.42105263       0.10526316 </v>
   <v>      -0.36842105      -0.42105263       0.10526316 </v>
   <v>      -0.36842105      -0.36842105       0.10526316 </v>
   <v>       0.15789474       0.15789474       0.15789474 </v>
   <v>       0.21052632       0.15789474       0.15789474 </v>
   <v>       0.26315789       0.15789474       0.15789474 </v>
   <v>       0.31578947       0.15789474       0.15789474 </v>
   <v>      -0.15789474       0.15789474       0.15789474 </v>
   <v>       0.21052632       0.21052632       0.15789474 </v>
   <v>       0.26315789       0.21052632       0.15789474 </v>
   <v>       0.31578947       0.21052632       0.15789474 </v>
   <v>      -0.21052632       0.21052632       0.15789474 </v>
   <v>       0.26315789       0.26315789       0.15789474 </v>
   <v>      -0.26315789       0.26315789       0.15789474 </v>
   <v>      -0.21052632       0.26315789       0.15789474 </v>
   <v>      -0.31578947       0.31578947       0.15789474 </v>
   <v>      -0.26315789       0.31578947       0.15789474 </v>
   <v>      -0.36842105       0.36842105       0.15789474 </v>
   <v>      -0.31578947       0.36842105       0.15789474 </v>
   <v>      -0.26315789       0.36842105       0.15789474 </v>
   <v>      -0.42105263       0.42105263       0.15789474 </v>
   <v>      -0.36842105       0.42105263       0.15789474 </v>
   <v>      -0.31578947       0.42105263       0.15789474 </v>
   <v>      -0.47368421       0.47368421       0.15789474 </v>
   <v>      -0.42105263       0.47368421       0.15789474 </v>
   <v>      -0.36842105       0.47368421       0.15789474 </v>
   <v>      -0.31578947       0.47368421       0.15789474 </v>
   <v>      -0.47368421      -0.47368421       0.15789474 </v>
   <v>      -0.42105263      -0.47368421       0.15789474 </v>
   <v>      -0.36842105      -0.47368421       0.15789474 </v>
   <v>      -0.42105263      -0.42105263       0.15789474 </v>
   <v>      -0.36842105      -0.42105263       0.15789474 </v>
   <v>       0.21052632       0.21052632       0.21052632 </v>
   <v>       0.26315789       0.21052632       0.21052632 </v>
   <v>      -0.21052632       0.21052632       0.21052632 </v>
   <v>       0.26315789       0.26315789       0.21052632 </v>
   <v>      -0.26315789       0.26315789       0.21052632 </v>
   <v>      -0.31578947       0.31578947       0.21052632 </v>
   <v>      -0.26315789       0.31578947       0.21052632 </v>
   <v>      -0.36842105       0.36842105       0.21052632 </v>
   <v>      -0.31578947       0.36842105       0.21052632 </v>
   <v>      -0.42105263       0.42105263       0.21052632 </v>
   <v>      -0.36842105       0.42105263       0.21052632 </v>
   <v>      -0.31578947       0.42105263       0.21052632 </v>
   <v>      -0.47368421       0.47368421       0.21052632 </v>
   <v>      -0.42105263       0.47368421       0.21052632 </v>
   <v>      -0.36842105       0.47368421       0.21052632 </v>
   <v>      -0.47368421      -0.47368421       0.21052632 </v>
   <v>      -0.42105263      -0.47368421       0.21052632 </v>
   <v>      -0.36842105      -0.47368421       0.21052632 </v>
   <v>      -0.42105263      -0.42105263       0.21052632 </v>
   <v>      -0.26315789       0.26315789       0.26315789 </v>
   <v>      -0.31578947       0.31578947       0.26315789 </v>
   <v>      -0.36842105       0.36842105       0.26315789 </v>
   <v>      -0.31578947       0.36842105       0.26315789 </v>
   <v>      -0.42105263       0.42105263       0.26315789 </v>
   <v>      -0.36842105       0.42105263       0.26315789 </v>
   <v>      -0.47368421       0.47368421       0.26315789 </v>
   <v>      -0.42105263       0.47368421       0.26315789 </v>
   <v>      -0.36842105       0.47368421       0.26315789 </v>
   <v>      -0.47368421      -0.47368421       0.26315789 </v>
   <v>      -0.42105263      -0.47368421       0.26315789 </v>
   <v>      -0.42105263      -0.42105263       0.26315789 </v>
   <v>      -0.31578947       0.31578947       0.31578947 </v>
   <v>      -0.36842105       0.36842105       0.31578947 </v>
   <v>      -0.42105263       0.42105263       0.31578947 </v>
   <v>      -0.36842105       0.42105263       0.31578947 </v>
   <v>      -0.47368421       0.47368421       0.31578947 </v>
   <v>      -0.42105263       0.47368421       0.31578947 </v>
   <v>      -0.47368421      -0.47368421       0.31578947 </v>
   <v>      -0.42105263      -0.47368421       0.31578947 </v>
   <v>      -0.36842105       0.36842105       0.36842105 </v>
   <v>      -0.42105263       0.42105263       0.36842105 </v>
   <v>      -0.47368421       0.47368421       0.36842105 </v>
   <v>      -0.42105263       0.47368421       0.36842105 </v>
   <v>      -0.47368421      -0.47368421       0.36842105 </v>
   <v>      -0.42105263       0.42105263       0.42105263 </v>
   <v>      -0.47368421       0.47368421       0.42105263 </v>
   <v>      -0.47368421      -0.47368421       0.42105263 </v>
   <v>      -0.47368421       0.47368421       0.47368421 </v>
  </varray>
  <varray name="weights" >
   <v>       0.00014579 </v>
   <v>       0.00174953 </v>
   <v>       0.00174953 </v>
   <v>       0.00174953 </v>
   <v>       0.00174953 </v>
   <v>       0.00174953 </v>
   <v>       0.00174953 </v>
   <v>       0.00174953 </v>
   <v>       0.00174953 </v>
   <v>       0.00174953 </v>
   <v>       0.00349905 </v>
   <v>       0.00699810 </v>
   <v>       0.00699810 </v>
   <v>       0.00699810 </v>
   <v>       0.00699810 </v>
   <v>       0.00699810 </v>
   <v>       0.00699810 </v>
   <v>       0.00699810 </v>
   <v>       0.00349905 </v>
   <v>       0.00349905 </v>
   <v>       0.00699810 </v>
   <v>       0.00699810 </v>
   <v>       0.00699810 </v>
   <v>       0.00699810 </v>
   <v>       0.00699810 </v>
   <v>       0.00699810 </v>
   <v>       0.00349905 </v>
   <v>       0.00699810 </v>
   <v>       0.00699810 </v>
   <v>       0.00699810 </v>
   <v>       0.00699810 </v>
   <v>       0.00349905 </v>
   <v>       0.00349905 </v>
   <v>       0.00699810 </v>
   <v>       0.00699810 </v>
   <v>       0.00699810 </v>
   <v>       0.00349905 </v>
   <v>       0.00699810 </v>
   <v>       0.00349905 </v>
   <v>       0.00349905 </v>
   <v>       0.00116635 </v>
   <v>       0.00349905 </v>
   <v>       0.00349905 </v>
   <v>       0.00349905 </v>
   <v>       0.00349905 </v>
   <v>       0.00349905 </v>
   <v>       0.00349905 </v>
   <v>       0.00349905 </v>
   <v>       0.00087476 </v>
   <v>       0.00349905 </v>
   <v>       0.00699810 </v>
   <v>       0.00699810 </v>
   <v>       0.00699810 </v>
   <v>       0.00699810 </v>
   <v>       0.00699810 </v>
   <v>       0.00349905 </v>
   <v>       0.00349905 </v>
   <v>       0.00349905 </v>
   <v>       0.00699810 </v>
   <v>       0.00699810 </v>
   <v>       0.00699810 </v>
   <v>       0.00699810 </v>
   <v>       0.00349905 </v>
   <v>       0.00349905 </v>
   <v>       0.00349905 </v>
   <v>       0.00699810 </v>
   <v>       0.00699810 </v>
   <v>       0.00349905 </v>
   <v>       0.00349905 </v>
   <v>       0.00699810 </v>
   <v>       0.00349905 </v>
   <v>       0.00699810 </v>
   <v>       0.00349905 </v>
   <v>       0.00699810 </v>
   <v>       0.00349905 </v>
   <v>       0.00116635 </v>
   <v>       0.00349905 </v>
   <v>       0.00699810 </v>
   <v>       0.00699810 </v>
   <v>       0.00349905 </v>
   <v>       0.00699810 </v>
   <v>       0.00699810 </v>
   <v>       0.00349905 </v>
   <v>       0.00349905 </v>
   <v>       0.00699810 </v>
   <v>       0.00699810 </v>
   <v>       0.00699810 </v>
   <v>       0.00349905 </v>
   <v>       0.00699810 </v>
   <v>       0.00699810 </v>
   <v>       0.00699810 </v>
   <v>       0.00349905 </v>
   <v>       0.00349905 </v>
   <v>       0.00699810 </v>
   <v>       0.00699810 </v>
   <v>       0.00699810 </v>
   <v>       0.00349905 </v>
   <v>       0.00699810 </v>
   <v>       0.00349905 </v>
   <v>       0.00349905 </v>
   <v>       0.00116635 </v>
   <v>       0.00349905 </v>
   <v>       0.00349905 </v>
   <v>       0.00349905 </v>
   <v>       0.00349905 </v>
   <v>       0.00349905 </v>
   <v>       0.00087476 </v>
   <v>       0.00349905 </v>
   <v>       0.00699810 </v>
   <v>       0.00699810 </v>
   <v>       0.00699810 </v>
   <v>       0.00349905 </v>
   <v>       0.00349905 </v>
   <v>       0.00349905 </v>
   <v>       0.00699810 </v>
   <v>       0.00699810 </v>
   <v>       0.00349905 </v>
   <v>       0.00349905 </v>
   <v>       0.00349905 </v>
   <v>       0.00349905 </v>
   <v>       0.00349905 </v>
   <v>       0.00699810 </v>
   <v>       0.00349905 </v>
   <v>       0.00699810 </v>
   <v>       0.00349905 </v>
   <v>       0.00349905 </v>
   <v>       0.00699810 </v>
   <v>       0.00699810 </v>
   <v>       0.00349905 </v>
   <v>       0.00699810 </v>
   <v>       0.00699810 </v>
   <v>       0.00349905 </v>
   <v>       0.00349905 </v>
   <v>       0.00699810 </v>
   <v>       0.00699810 </v>
   <v>       0.00699810 </v>
   <v>       0.00349905 </v>
   <v>       0.00699810 </v>
   <v>       0.00699810 </v>
   <v>       0.00349905 </v>
   <v>       0.00349905 </v>
   <v>       0.00699810 </v>
   <v>       0.00116635 </v>
   <v>       0.00116635 </v>
   <v>       0.00349905 </v>
   <v>       0.00349905 </v>
   <v>       0.00349905 </v>
   <v>       0.00087476 </v>
   <v>       0.00349905 </v>
   <v>       0.00699810 </v>
   <v>       0.00349905 </v>
   <v>       0.00349905 </v>
   <v>       0.00349905 </v>
   <v>       0.00349905 </v>
   <v>       0.00349905 </v>
   <v>       0.00349905 </v>
   <v>       0.00699810 </v>
   <v>       0.00349905 </v>
   <v>       0.00699810 </v>
   <v>       0.00349905 </v>
   <v>       0.00349905 </v>
   <v>       0.00699810 </v>
   <v>       0.00699810 </v>
   <v>       0.00349905 </v>
   <v>       0.00699810 </v>
   <v>       0.00699810 </v>
   <v>       0.00349905 </v>
   <v>       0.00349905 </v>
   <v>       0.00699810 </v>
   <v>       0.00699810 </v>
   <v>       0.00349905 </v>
   <v>       0.00349905 </v>
   <v>       0.00116635 </v>
   <v>       0.00349905 </v>
   <v>       0.00087476 </v>
   <v>       0.00116635 </v>
   <v>       0.00349905 </v>
   <v>       0.00349905 </v>
   <v>       0.00349905 </v>
   <v>       0.00349905 </v>
   <v>       0.00699810 </v>
   <v>       0.00349905 </v>
   <v>       0.00699810 </v>
   <v>       0.00349905 </v>
   <v>       0.00349905 </v>
   <v>       0.00699810 </v>
   <v>       0.00699810 </v>
   <v>       0.00349905 </v>
   <v>       0.00699810 </v>
   <v>       0.00349905 </v>
   <v>       0.00349905 </v>
   <v>       0.00087476 </v>
   <v>       0.00349905 </v>
   <v>       0.00349905 </v>
   <v>       0.00349905 </v>
   <v>       0.00349905 </v>
   <v>       0.00699810 </v>
   <v>       0.00349905 </v>
   <v>       0.00699810 </v>
   <v>       0.00349905 </v>
   <v>       0.00349905 </v>
   <v>       0.00699810 </v>
   <v>       0.00116635 </v>
   <v>       0.00087476 </v>
   <v>       0.00349905 </v>
   <v>       0.00349905 </v>
   <v>       0.00349905 </v>
   <v>       0.00349905 </v>
   <v>       0.00699810 </v>
   <v>       0.00349905 </v>
   <v>       0.00349905 </v>
   <v>       0.00087476 </v>
   <v>       0.00349905 </v>
   <v>       0.00349905 </v>
   <v>       0.00349905 </v>
   <v>       0.00349905 </v>
   <v>       0.00087476 </v>
   <v>       0.00349905 </v>
   <v>       0.00116635 </v>
   <v>       0.00087476 </v>
  </varray>
 </kpoints>
 <parameters>
  <separator name="general" >
   <i type="string" name="SYSTEM">unknown system</i>
   <i type="logical" name="LCOMPAT"> F  </i>
  </separator>
  <separator name="electronic" >
   <i type="string" name="PREC">accura</i>
   <i name="ENMAX">    350.00000000</i>
   <i name="ENAUG">    322.06900000</i>
   <i name="EDIFF">      0.00000100</i>
   <i type="int" name="IALGO">    38</i>
   <i type="int" name="IWAVPR">    11</i>
   <i type="int" name="NBANDS">     8</i>
   <i type="int" name="NBANDSLOW">    -1</i>
   <i type="int" name="NBANDSHIGH">    -1</i>
   <i name="NELECT">      4.00000000</i>
   <i type="int" name="TURBO">     0</i>
   <i type="int" name="IRESTART">     0</i>
   <i type="int" name="NREBOOT">     0</i>
   <i type="int" name="NMIN">     0</i>
   <i name="EREF">      0.00000000</i>
   <separator name="electronic smearing" >
    <i type="int" name="ISMEAR">     0</i>
    <i name="SIGMA">      0.05000000</i>
    <i name="KSPACING">      0.50000000</i>
    <i type="logical" name="KGAMMA"> T  </i>
    <i type="logical" name="KBLOWUP"> T  </i>
   </separator>
   <separator name="electronic projectors" >
    <i type="logical" name="LREAL"> F  </i>
    <v name="ROPT">      0.00000000</v>
    <i type="int" name="LMAXPAW">  -100</i>
    <i type="int" name="LMAXMIX">     2</i>
    <i type="logical" name="NLSPLINE"> F  </i>
   </separator>
   <separator name="electronic startup" >
    <i type="int" name="ISTART">     0</i>
    <i type="int" name="ICHARG">     2</i>
    <i type="int" name="INIWAV">     1</i>
   </separator>
   <separator name="electronic spin" >
    <i type="int" name="ISPIN">     1</i>
    <i type="logical" name="LNONCOLLINEAR"> F  </i>
    <v name="MAGMOM">      1.00000000</v>
    <i name="NUPDOWN">     -1.00000000</i>
    <i type="logical" name="LSORBIT"> F  </i>
    <v name="SAXIS">      0.00000000      0.00000000      1.00000000</v>
    <i type="logical" name="LSPIRAL"> F  </i>
    <v name="QSPIRAL">      0.00000000      0.00000000      0.00000000</v>
    <i type="logical" name="LZEROZ"> F  </i>
   </separator>
   <separator name="electronic exchange-correlation" >
    <i type="logical" name="LASPH"> T  </i>
    <i type="logical" name="LMETAGGA"> F  </i>
   </separator>
   <separator name="electronic convergence" >
    <i type="int" name="NELM">    90</i>
    <i type="int" name="NELMDL">    -5</i>
    <i type="int" name="NELMIN">     6</i>
    <i name="ENINI">    350.00000000</i>
    <separator name="electronic convergence detail" >
     <i type="logical" name="LDIAG"> T  </i>
     <i type="logical" name="LSUBROT"> F  </i>
     <i name="WEIMIN">      0.00100000</i>
     <i name="EBREAK">      0.00000003</i>
     <i name="DEPER">      0.30000000</i>
     <i type="int" name="NRMM">     4</i>
     <i name="TIME">      0.40000000</i>
    </separator>
   </separator>
   <separator name="electronic mixer" >
    <i name="AMIX">      0.40000000</i>
    <i name="BMIX">      1.00000000</i>
    <i name="AMIN">      0.10000000</i>
    <i name="AMIX_MAG">      1.60000000</i>
    <i name="BMIX_MAG">      1.00000000</i>
    <separator name="electronic mixer details" >
     <i type="int" name="IMIX">     4</i>
     <i type="logical" name="MIXFIRST"> F  </i>
     <i type="int" name="MAXMIX">   -45</i>
     <i name="WC">    100.00000000</i>
     <i type="int" name="INIMIX">     1</i>
     <i type="int" name="MIXPRE">     1</i>
     <i type="int" name="MREMOVE">     5</i>
    </separator>
   </separator>
   <separator name="electronic dipolcorrection" >
    <i type="logical" name="LDIPOL"> F  </i>
    <i type="logical" name="LMONO"> F  </i>
    <i type="int" name="IDIPOL">     0</i>
    <i name="EPSILON">      1.00000000</i>
    <v name="DIPOL">   -100.00000000   -100.00000000   -100.00000000</v>
    <i name="EFIELD">      0.00000000</i>
   </separator>
  </separator>
  <separator name="grids" >
   <i type="int" name="NGX">    16</i>
   <i type="int" name="NGY">    16</i>
   <i type="int" name="NGZ">    16</i>
   <i type="int" name="NGXF">    32</i>
   <i type="int" name="NGYF">    32</i>
   <i type="int" name="NGZF">    32</i>
   <i type="logical" name="ADDGRID"> T  </i>
  </separator>
  <separator name="ionic" >
   <i type="int" name="NSW">   100</i>
   <i type="int" name="IBRION">     2</i>
   <i type="int" name="MDALGO">     0</i>
   <i type="int" name="ISIF">     3</i>
   <i name="PSTRESS">      0.00000000</i>
   <i name="EDIFFG">     -0.00200000</i>
   <i type="int" name="NFREE">     1</i>
   <i name="POTIM">      0.50000000</i>
   <i name="SMASS">     -3.00000000</i>
   <i name="SCALEE">      1.00000000</i>
  </separator>
  <separator name="ionic md" >
   <i name="TEBEG">      0.00010000</i>
   <i name="TEEND">      0.00010000</i>
   <i type="int" name="NBLOCK">     1</i>
   <i type="int" name="KBLOCK">   100</i>
   <i type="int" name="NPACO">   256</i>
   <i name="APACO">     16.00000000</i>
  </separator>
  <separator name="symmetry" >
   <i type="int" name="ISYM">     2</i>
   <i name="SYMPREC">      0.00001000</i>
  </separator>
  <separator name="dos" >
   <i type="int" name="LORBIT">     0</i>
   <v name="RWIGS">     -1.00000000</v>
   <i type="int" name="NEDOS">   301</i>
   <i name="EMIN">     10.00000000</i>
   <i name="EMAX">    -10.00000000</i>
   <i name="EFERMI">      0.00000000</i>
  </separator>
  <separator name="writing" >
   <i type="int" name="NWRITE">     2</i>
   <i type="logical" name="LWAVE"> F  </i>
   <i type="logical" name="LDOWNSAMPLE"> F  </i>
   <i type="logical" name="LCHARG"> F  </i>
   <i type="logical" name="LPARD"> F  </i>
   <i type="logical" name="LVTOT"> F  </i>
   <i type="logical" name="LVHAR"> F  </i>
   <i type="logical" name="LELF"> F  </i>
   <i type="logical" name="LOPTICS"> F  </i>
   <v name="STM">      0.00000000      0.00000000      0.00000000      0.00000000      0.00000000      0.00000000      0.00000000</v>
  </separator>
  <separator name="performance" >
   <i type="int" name="NPAR">     4</i>
   <i type="int" name="NSIM">     4</i>
   <i type="int" name="NBLK">    -1</i>
   <i type="logical" name="LPLANE"> T  </i>
   <i type="logical" name="LSCALAPACK"> T  </i>
   <i type="logical" name="LSCAAWARE"> F  </i>
   <i type="logical" name="LSCALU"> F  </i>
   <i type="logical" name="LASYNC"> F  </i>
   <i type="logical" name="LORBITALREAL"> F  </i>
  </separator>
  <separator name="miscellaneous" >
   <i type="int" name="IDIOT">     3</i>
   <i type="int" name="PHON_NSTRUCT">    -1</i>
   <i type="logical" name="LMUSIC"> F  </i>
   <v name="POMASS">     28.08500000</v>
   <v name="DARWINR">      0.00000000</v>
   <v name="DARWINV">      1.00000000</v>
   <i type="logical" name="LCORR"> T  </i>
  </separator>
  <i type="logical" name="GGA_COMPAT"> T  </i>
  <i type="logical" name="LBERRY"> F  </i>
  <i type="int" name="ICORELEVEL">     0</i>
  <i type="logical" name="LDAU"> F  </i>
  <i type="int" name="I_CONSTRAINED_M">     0</i>
  <separator name="electronic exchange-correlation" >
   <i type="string" name="GGA">--</i>
   <i type="int" name="VOSKOWN">     0</i>
   <i type="logical" name="LHFCALC"> F  </i>
   <i type="string" name="PRECFOCK"></i>
   <i type="logical" name="LSYMGRAD"> F  </i>
   <i type="logical" name="LHFONE"> F  </i>
   <i type="logical" name="LRHFCALC"> F  </i>
   <i type="logical" name="LTHOMAS"> F  </i>
   <i type="logical" name="LMODELHF"> F  </i>
   <i type="logical" name="LFOCKACE"> F  </i>
   <i name="ENCUT4O">     -1.00000000</i>
   <i type="int" name="EXXOEP">     0</i>
   <i type="int" name="FOURORBIT">     0</i>
   <i name="AEXX">      0.00000000</i>
   <i name="HFALPHA">      0.00000000</i>
   <i name="MCALPHA">      0.00000000</i>
   <i name="ALDAX">      1.00000000</i>
   <i name="AGGAX">      1.00000000</i>
   <i name="ALDAC">      1.00000000</i>
   <i name="AGGAC">      1.00000000</i>
   <i type="int" name="NKREDX">     1</i>
   <i type="int" name="NKREDY">     1</i>
   <i type="int" name="NKREDZ">     1</i>
   <i type="logical" name="SHIFTRED"> F  </i>
   <i type="logical" name="ODDONLY"> F  </i>
   <i type="logical" name="EVENONLY"> F  </i>
   <i type="int" name="LMAXFOCK">     0</i>
   <i type="int" name="NMAXFOCKAE">     0</i>
   <i type="logical" name="LFOCKAEDFT"> F  </i>
   <i name="HFSCREEN">      0.00000000</i>
   <i name="HFSCREENC">      0.00000000</i>
   <i type="int" name="NBANDSGWLOW">     0</i>
  </separator>
  <separator name="vdW DFT" >
   <i type="logical" name="LUSE_VDW"> F  </i>
   <i name="Zab_VDW">     -0.84910000</i>
   <i name="PARAM1">      0.12340000</i>
   <i name="PARAM2">      1.00000000</i>
   <i name="PARAM3">      0.00000000</i>
  </separator>
  <separator name="model GW" >
   <i type="int" name="MODEL_GW">     0</i>
   <i name="MODEL_EPS0">      8.31779867</i>
   <i name="MODEL_ALPHA">      1.00000000</i>
  </separator>
  <separator name="linear response parameters" >
   <i type="logical" name="LEPSILON"> F  </i>
   <i type="logical" name="LRPA"> F  </i>
   <i type="logical" name="LNABLA"> F  </i>
   <i type="logical" name="LVEL"> F  </i>
   <i type="int" name="KINTER">     0</i>
   <i name="CSHIFT">      0.10000000</i>
   <i name="OMEGAMAX">     -1.00000000</i>
   <i name="DEG_THRESHOLD">      0.00200000</i>
   <i name="RTIME">     -0.10000000</i>
   <i name="WPLASMAI">      0.00000000</i>
   <v name="DFIELD">      0.00000000      0.00000000      0.00000000</v>
   <v name="WPLASMA">      0.00000000      0.00000000      0.00000000      0.00000000      0.00000000      0.00000000      0.00000000      0.00000000      0.00000000</v>
  </separator>
  <separator name="orbital magnetization" >
   <i type="logical" name="NUCIND"> F  </i>
   <v name="MAGPOS">      0.00000000      0.00000000      0.00000000</v>
   <i type="logical" name="LNICSALL"> T  </i>
   <i type="logical" name="ORBITALMAG"> F  </i>
   <i type="logical" name="LMAGBLOCH"> F  </i>
   <i type="logical" name="LCHIMAG"> F  </i>
   <i type="logical" name="LGAUGE"> T  </i>
   <i type="int" name="MAGATOM">     0</i>
   <v name="MAGDIPOL">      0.00000000      0.00000000      0.00000000</v>
   <v name="AVECCONST">      0.00000000      0.00000000      0.00000000</v>
  </separator>
  <separator name="response functions" >
   <i type="logical" name="LFINITE_TEMPERATURE"> F  </i>
   <i type="logical" name="LADDER"> F  </i>
   <i type="logical" name="LRPAFORCE"> F  </i>
   <i type="logical" name="LFXC"> F  </i>
   <i type="logical" name="LHARTREE"> T  </i>
   <i type="int" name="IBSE">     0</i>
   <v type="int" name="KPOINT">    -1     0     0     0</v>
   <i type="logical" name="LTCTC"> F  </i>
   <i type="logical" name="LTCTE"> F  </i>
   <i type="logical" name="LTETE"> F  </i>
   <i type="logical" name="LTRIPLET"> F  </i>
   <i type="logical" name="LFXCEPS"> F  </i>
   <i type="logical" name="LFXHEG"> F  </i>
   <i type="int" name="NATURALO">     2</i>
   <i type="logical" name="LHOLEGF"> F  </i>
   <i type="logical" name="L2ORDER"> F  </i>
   <i type="logical" name="LDMP1"> F  </i>
   <i type="logical" name="LMP2LT"> F  </i>
   <i type="logical" name="LSMP2LT"> F  </i>
   <i type="logical" name="LGWLF"> F  </i>
   <i name="ENCUTGW">     -2.00000000</i>
   <i name="ENCUTGWSOFT">     -2.00000000</i>
   <i name="ENCUTLF">     -1.00000000</i>
   <i type="logical" name="LESF_SPLINES"> F  </i>
   <i type="int" name="LMAXMP2">    -1</i>
   <i name="SCISSOR">      0.00000000</i>
   <i type="int" name="NOMEGA">     0</i>
   <i type="int" name="NOMEGAR">     0</i>
   <i type="int" name="NBANDSGW">    -1</i>
   <i type="int" name="NBANDSO">    -1</i>
   <i type="int" name="NBANDSV">    -1</i>
   <i type="int" name="NELM">    90</i>
   <i type="int" name="NELMHF">     1</i>
   <i type="int" name="DIM">     3</i>
   <i type="int" name="IESPILON">     4</i>
   <i type="int" name="ANTIRES">     0</i>
   <i name="OMEGAMAX">    -30.00000000</i>
   <i name="OMEGAMIN">    -30.00000000</i>
   <i name="OMEGATL">   -200.00000000</i>
   <i type="int" name="OMEGAGRID">     0</i>
   <i name="CSHIFT">     -0.10000000</i>
   <i type="logical" name="LSELFENERGY"> F  </i>
   <i type="logical" name="LSPECTRAL"> F  </i>
   <i type="logical" name="LSPECTRALGW"> F  </i>
   <i type="logical" name="LSINGLES"> F  </i>
   <i type="logical" name="LFERMIGW"> F  </i>
   <i type="logical" name="ODDONLYGW"> F  </i>
   <i type="logical" name="EVENONLYGW"> F  </i>
   <i type="int" name="NKREDLFX">     1</i>
   <i type="int" name="NKREDLFY">     1</i>
   <i type="int" name="NKREDLFZ">     1</i>
   <i type="int" name="MAXMEM">  2800</i>
   <i type="int" name="TELESCOPE">     0</i>
   <i type="int" name="NTAUPAR">    -1</i>
   <i type="int" name="NOMEGAPAR">    -1</i>
   <i name="DAMP_NEWTON">      0.80000001</i>
   <i name="LAMBDA">      1.00000000</i>
  </separator>
  <separator name="External order field" >
   <i name="OFIELD_KAPPA">      0.00000000</i>
   <v name="OFIELD_K">      0.00000000      0.00000000      0.00000000</v>
   <i name="OFIELD_Q6_NEAR">      0.00000000</i>
   <i name="OFIELD_Q6_FAR">      0.00000000</i>
   <i name="OFIELD_A">      0.00000000</i>
  </separator>
 </parameters>
 <atominfo>
  <atoms>       1 </atoms>
  <types>       1 </types>
  <array name="atoms" >
   <dimension dim="1">ion</dimension>
   <field type="string">element</field>
   <field type="int">atomtype</field>
   <set>
    <rc><c>Si</c><c>   1</c></rc>
   </set>
  </array>
  <array name="atomtypes" >
   <dimension dim="1">type</dimension>
   <field type="int">atomspertype</field>
   <field type="string">element</field>
   <field>mass</field>
   <field>valence</field>
   <field type="string">pseudopotential</field>
   <set>
    <rc><c>   1</c><c>Si</c><c>     28.08500000</c><c>      4.00000000</c><c>  PAW_PBE Si 05Jan2001                  </c></rc>
   </set>
  </array>
 </atominfo>
 <structure name="initialpos" >
  <crystal>
   <varray name="basis" >
    <v>       1.51332563       1.51332563       1.51332563 </v>
    <v>       1.51332563      -1.51332563      -1.51332563 </v>
    <v>      -1.51332563       1.51332563      -1.51332563 </v>
   </varray>
   <i name="volume">     13.86299778 </i>
   <varray name="rec_basis" >
    <v>       0.33039816       0.33039816       0.00000000 </v>
    <v>       0.33039816       0.00000000      -0.33039816 </v>
    <v>       0.00000000       0.33039816      -0.33039816 </v>
   </varray>
  </crystal>
  <varray name="positions" >
   <v>       0.00000000       0.00000000       0.00000000 </v>
  </varray>
 </structure>
 <calculation>
  <scstep>
   <time name="dav">    0.65    0.65</time>
   <time name="total">    0.83    0.83</time>
   <energy>
    <i name="alphaZ">      2.42827211 </i>
    <i name="ewald">   -138.51397499 </i>
    <i name="hartreedc">     -0.48179554 </i>
    <i name="XCdc">     -8.69332224 </i>
    <i name="pawpsdc">     88.12379961 </i>
    <i name="pawaedc">    -70.53051779 </i>
    <i name="eentropy">     -0.00053167 </i>
    <i name="bandstr">     21.34975502 </i>
    <i name="atom">    103.06562707 </i>
    <i name="e_fr_energy">     -3.25268842 </i>
    <i name="e_wo_entrp">     -3.25215675 </i>
    <i name="e_0_energy">     -3.25242259 </i>
   </energy>
  </scstep>
  <scstep>
   <time name="dav">    0.92    0.93</time>
   <time name="total">    0.93    0.94</time>
   <energy>
    <i name="e_fr_energy">     -4.89531649 </i>
    <i name="e_wo_entrp">     -4.89486605 </i>
    <i name="e_0_energy">     -4.89509127 </i>
   </energy>
  </scstep>
  <scstep>
   <time name="dav">    0.64    0.65</time>
   <time name="total">    0.65    0.65</time>
   <energy>
    <i name="e_fr_energy">     -4.90312054 </i>
    <i name="e_wo_entrp">     -4.90263094 </i>
    <i name="e_0_energy">     -4.90287574 </i>
   </energy>
  </scstep>
  <scstep>
   <time name="dav">    0.99    1.00</time>
   <time name="total">    1.00    1.01</time>
   <energy>
    <i name="e_fr_energy">     -4.90312527 </i>
    <i name="e_wo_entrp">     -4.90263560 </i>
    <i name="e_0_energy">     -4.90288044 </i>
   </energy>
  </scstep>
  <scstep>
   <time name="dav">    0.66    0.67</time>
   <time name="total">    0.69    0.70</time>
   <energy>
    <i name="e_fr_energy">     -4.90312527 </i>
    <i name="e_wo_entrp">     -4.90263560 </i>
    <i name="e_0_energy">     -4.90288044 </i>
   </energy>
  </scstep>
  <scstep>
   <time name="dav">    0.60    0.60</time>
   <time name="total">    0.80    0.81</time>
   <energy>
    <i name="e_fr_energy">     -4.89155191 </i>
    <i name="e_wo_entrp">     -4.89103782 </i>
    <i name="e_0_energy">     -4.89129486 </i>
   </energy>
  </scstep>
  <scstep>
   <time name="dav">    0.66    0.67</time>
   <time name="total">    0.87    0.89</time>
   <energy>
    <i name="e_fr_energy">     -4.88493555 </i>
    <i name="e_wo_entrp">     -4.88438239 </i>
    <i name="e_0_energy">     -4.88465897 </i>
   </energy>
  </scstep>
  <scstep>
   <time name="dav">    0.94    0.94</time>
   <time name="total">    1.14    1.18</time>
   <energy>
    <i name="e_fr_energy">     -4.88491404 </i>
    <i name="e_wo_entrp">     -4.88436003 </i>
    <i name="e_0_energy">     -4.88463704 </i>
   </energy>
  </scstep>
  <scstep>
   <time name="dav">    0.74    0.74</time>
   <time name="total">    0.91    0.93</time>
   <energy>
    <i name="alphaZ">      2.42827211 </i>
    <i name="ewald">   -138.51397499 </i>
    <i name="hartreedc">     -0.35493640 </i>
    <i name="XCdc">     -8.62319653 </i>
    <i name="pawpsdc">    334.95770560 </i>
    <i name="pawaedc">   -317.39161582 </i>
    <i name="eentropy">     -0.00055425 </i>
    <i name="bandstr">     19.54775865 </i>
    <i name="atom">    103.06562707 </i>
    <i name="e_fr_energy">     -4.88491456 </i>
    <i name="e_wo_entrp">     -4.88436031 </i>
    <i name="e_0_energy">     -4.88463744 </i>
   </energy>
  </scstep>
  <structure>
   <crystal>
    <varray name="basis" >
     <v>       1.51332563       1.51332563       1.51332563 </v>
     <v>       1.51332563      -1.51332563      -1.51332563 </v>
     <v>      -1.51332563       1.51332563      -1.51332563 </v>
    </varray>
    <i name="volume">     13.86299778 </i>
    <varray name="rec_basis" >
     <v>       0.33039816       0.33039816       0.00000000 </v>
     <v>       0.33039816       0.00000000      -0.33039816 </v>
     <v>       0.00000000       0.33039816      -0.33039816 </v>
    </varray>
   </crystal>
   <varray name="positions" >
    <v>       0.00000000       0.00000000       0.00000000 </v>
   </varray>
  </structure>
  <varray name="forces" >
   <v>       0.00000000      -0.00000000       0.00000000 </v>
  </varray>
  <varray name="stress" >
   <v>      55.24227429       0.00000000       0.00000000 </v>
   <v>       0.00000000      55.24227429      -0.00000000 </v>
   <v>       0.00000000       0.00000000      55.24227429 </v>
  </varray>
  <energy>
   <i name="e_fr_energy">     -4.88491456 </i>
   <i name="e_wo_entrp">     -4.88436031 </i>
   <i name="e_0_energy">     -4.88463744 </i>
  </energy>
  <time name="totalsc">    8.94    9.32</time>
 </calculation>
 <calculation>
  <scstep>
   <time name="dav">    0.60    0.60</time>
   <time name="total">    0.80    0.81</time>
   <energy>
    <i name="alphaZ">      2.26774758 </i>
    <i name="ewald">   -135.39190937 </i>
    <i name="hartreedc">     -0.34691934 </i>
    <i name="XCdc">     -8.80229026 </i>
    <i name="pawpsdc">    335.02316640 </i>
    <i name="pawaedc">   -317.45673087 </i>
    <i name="eentropy">     -0.00075009 </i>
    <i name="bandstr">     16.73735245 </i>
    <i name="atom">    103.06562707 </i>
    <i name="e_fr_energy">     -4.90470643 </i>
    <i name="e_wo_entrp">     -4.90395634 </i>
    <i name="e_0_energy">     -4.90433139 </i>
   </energy>
  </scstep>
  <scstep>
   <time name="dav">    0.67    0.67</time>
   <time name="total">    0.87    0.89</time>
   <energy>
    <i name="e_fr_energy">     -4.89946747 </i>
    <i name="e_wo_entrp">     -4.89873157 </i>
    <i name="e_0_energy">     -4.89909952 </i>
   </energy>
  </scstep>
  <scstep>
   <time name="dav">    0.64    0.65</time>
   <time name="total">    0.84    0.86</time>
   <energy>
    <i name="e_fr_energy">     -4.89639248 </i>
    <i name="e_wo_entrp">     -4.89567582 </i>
    <i name="e_0_energy">     -4.89603415 </i>
   </energy>
  </scstep>
  <scstep>
   <time name="dav">    0.75    0.75</time>
   <time name="total">    0.95    0.96</time>
   <energy>
    <i name="e_fr_energy">     -4.89638924 </i>
    <i name="e_wo_entrp">     -4.89567250 </i>
    <i name="e_0_energy">     -4.89603087 </i>
   </energy>
  </scstep>
  <scstep>
   <time name="dav">    0.74    0.74</time>
   <time name="total">    0.94    0.95</time>
   <energy>
    <i name="e_fr_energy">     -4.89637722 </i>
    <i name="e_wo_entrp">     -4.89566055 </i>
    <i name="e_0_energy">     -4.89601889 </i>
   </energy>
  </scstep>
  <scstep>
   <time name="dav">    0.36    0.36</time>
   <time name="total">    0.54    0.55</time>
   <energy>
    <i name="alphaZ">      2.26774758 </i>
    <i name="ewald">   -135.39190937 </i>
    <i name="hartreedc">     -0.45477178 </i>
    <i name="XCdc">     -8.82366508 </i>
    <i name="pawpsdc">    289.46041698 </i>
    <i name="pawaedc">   -271.87938124 </i>
    <i name="eentropy">     -0.00071666 </i>
    <i name="bandstr">     16.86027489 </i>
    <i name="atom">    103.06562707 </i>
    <i name="e_fr_energy">     -4.89637762 </i>
    <i name="e_wo_entrp">     -4.89566096 </i>
    <i name="e_0_energy">     -4.89601929 </i>
   </energy>
  </scstep>
  <structure>
   <crystal>
    <varray name="basis" >
     <v>       1.54822212       1.54822212       1.54822212 </v>
     <v>       1.54822212      -1.54822212      -1.54822212 </v>
     <v>      -1.54822212       1.54822212      -1.54822212 </v>
    </varray>
    <i name="volume">     14.84430239 </i>
    <varray name="rec_basis" >
     <v>       0.32295108       0.32295108       0.00000000 </v>
     <v>       0.32295108       0.00000000      -0.32295108 </v>
     <v>       0.00000000       0.32295108      -0.32295108 </v>
    </varray>
   </crystal>
   <varray name="positions" >
    <v>      -0.00000000       0.00000000      -0.00000000 </v>
   </varray>
  </structure>
  <varray name="forces" >
   <v>       0.00000000       0.00000000       0.00000000 </v>
  </varray>
  <varray name="stress" >
   <v>     -13.82760315       0.00000000      -0.00000000 </v>
   <v>       0.00000000     -13.82760315       0.00000000 </v>
   <v>       0.00000000      -0.00000000     -13.82760315 </v>
  </varray>
  <energy>
   <i name="e_fr_energy">     -4.89637762 </i>
   <i name="e_wo_entrp">     -4.89566096 </i>
   <i name="e_0_energy">     -4.89601929 </i>
  </energy>
  <time name="totalsc">    6.02    6.29</time>
 </calculation>
 <calculation>
  <scstep>
   <time name="dav">    0.60    0.60</time>
   <time name="total">    0.80    0.81</time>
   <energy>
    <i name="alphaZ">      2.30298399 </i>
    <i name="ewald">   -136.08955113 </i>
    <i name="hartreedc">     -0.45710301 </i>
    <i name="XCdc">     -8.78432936 </i>
    <i name="pawpsdc">    289.22307958 </i>
    <i name="pawaedc">   -271.64206156 </i>
    <i name="eentropy">     -0.00066844 </i>
    <i name="bandstr">     17.48422067 </i>
    <i name="atom">    103.06562707 </i>
    <i name="e_fr_energy">     -4.89780220 </i>
    <i name="e_wo_entrp">     -4.89713376 </i>
    <i name="e_0_energy">     -4.89746798 </i>
   </energy>
  </scstep>
  <scstep>
   <time name="dav">    0.68    0.68</time>
   <time name="total">    0.88    0.89</time>
   <energy>
    <i name="e_fr_energy">     -4.89752526 </i>
    <i name="e_wo_entrp">     -4.89685644 </i>
    <i name="e_0_energy">     -4.89719085 </i>
   </energy>
  </scstep>
  <scstep>
   <time name="dav">    0.64    0.64</time>
   <time name="total">    0.84    0.86</time>
   <energy>
    <i name="e_fr_energy">     -4.89736517 </i>
    <i name="e_wo_entrp">     -4.89669567 </i>
    <i name="e_0_energy">     -4.89703042 </i>
   </energy>
  </scstep>
  <scstep>
   <time name="dav">    0.73    0.73</time>
   <time name="total">    0.93    0.94</time>
   <energy>
    <i name="e_fr_energy">     -4.89736524 </i>
    <i name="e_wo_entrp">     -4.89669574 </i>
    <i name="e_0_energy">     -4.89703049 </i>
   </energy>
  </scstep>
  <scstep>
   <time name="dav">    0.37    0.37</time>
   <time name="total">    0.58    0.59</time>
   <energy>
    <i name="e_fr_energy">     -4.89736596 </i>
    <i name="e_wo_entrp">     -4.89669645 </i>
    <i name="e_0_energy">     -4.89703120 </i>
   </energy>
  </scstep>
  <scstep>
   <time name="dav">    0.35    0.35</time>
   <time name="total">    0.52    0.53</time>
   <energy>
    <i name="alphaZ">      2.30298399 </i>
    <i name="ewald">   -136.08955113 </i>
    <i name="hartreedc">     -0.42973438 </i>
    <i name="XCdc">     -8.77926934 </i>
    <i name="pawpsdc">    298.49205377 </i>
    <i name="pawaedc">   -280.91413441 </i>
    <i name="eentropy">     -0.00066951 </i>
    <i name="bandstr">     17.45532813 </i>
    <i name="atom">    103.06562707 </i>
    <i name="e_fr_energy">     -4.89736582 </i>
    <i name="e_wo_entrp">     -4.89669631 </i>
    <i name="e_0_energy">     -4.89703106 </i>
   </energy>
  </scstep>
  <structure>
   <crystal>
    <varray name="basis" >
     <v>       1.54028540       1.54028540       1.54028540 </v>
     <v>       1.54028540      -1.54028540      -1.54028540 </v>
     <v>      -1.54028540       1.54028540      -1.54028540 </v>
    </varray>
    <i name="volume">     14.61717971 </i>
    <varray name="rec_basis" >
     <v>       0.32461517       0.32461517       0.00000000 </v>
     <v>       0.32461517       0.00000000      -0.32461517 </v>
     <v>       0.00000000       0.32461517      -0.32461517 </v>
    </varray>
   </crystal>
   <varray name="positions" >
    <v>      -0.00000000       0.00000000      -0.00000000 </v>
   </varray>
  </structure>
  <varray name="forces" >
   <v>       0.00000000       0.00000000       0.00000000 </v>
  </varray>
  <varray name="stress" >
   <v>       0.15123867       0.00000000       0.00000000 </v>
   <v>       0.00000000       0.15123867       0.00000000 </v>
   <v>      -0.00000000       0.00000000       0.15123867 </v>
  </varray>
  <energy>
   <i name="e_fr_energy">     -4.89736582 </i>
   <i name="e_wo_entrp">     -4.89669631 </i>
   <i name="e_0_energy">     -4.89703106 </i>
  </energy>
  <time name="totalsc">    5.53    5.79</time>
  <eigenvalues>
   <array>
    <dimension dim="1">band</dimension>
    <dimension dim="2">kpoint</dimension>
    <dimension dim="3">spin</dimension>
    <field>eigene</field>
    <field>occ</field>
    <set>
     <set comment="spin 1">
      <set comment="kpoint 1">
       <r>   -4.3130    1.0000 </r>
       <r>   21.3102    0.0000 </r>
       <r>   21.3102    0.0000 </r>
       <r>   21.3102    0.0000 </r>
       <r>   22.4819    0.0000 </r>
       <r>   22.4819    0.0000 </r>
       <r>   22.4819    0.0000 </r>
       <r>   26.1618    0.0000 </r>
      </set>
      <set comment="kpoint 2">
       <r>   -4.2282    1.0000 </r>
       <r>   20.1825    0.0000 </r>
       <r>   20.4798    0.0000 </r>
       <r>   21.1895    0.0000 </r>
       <r>   22.1919    0.0000 </r>
       <r>   23.0877    0.0000 </r>
       <r>   23.4550    0.0000 </r>
       <r>   25.4788    0.0000 </r>
      </set>
      <set comment="kpoint 3">
       <r>   -3.9738    1.0000 </r>
       <r>   18.2391    0.0000 </r>
       <r>   19.3833    0.0000 </r>
       <r>   20.8487    0.0000 </r>
       <r>   21.4944    0.0000 </r>
       <r>   23.2909    0.0000 </r>
       <r>   24.9686    0.0000 </r>
       <r>   24.9978    0.0000 </r>
      </set>
      <set comment="kpoint 4">
       <r>   -3.5505    1.0000 </r>
       <r>   16.0554    0.0000 </r>
       <r>   18.3967    0.0000 </r>
       <r>   20.3553    0.0000 </r>
       <r>   20.6574    0.0000 </r>
       <r>   22.6574    0.0000 </r>
       <r>   25.4625    0.0000 </r>
       <r>   26.0001    0.0000 </r>
      </set>
      <set comment="kpoint 5">
       <r>   -2.9593    1.0000 </r>
       <r>   13.8218    0.0000 </r>
       <r>   17.5451    0.0000 </r>
       <r>   19.8009    0.0000 </r>
       <r>   19.8378    0.0000 </r>
       <r>   21.9045    0.0000 </r>
       <r>   26.2104    0.0000 </r>
       <r>   26.3054    0.0000 </r>
      </set>
      <set comment="kpoint 6">
       <r>   -2.2018    1.0000 </r>
       <r>   11.6334    0.0000 </r>
       <r>   16.8333    0.0000 </r>
       <r>   19.1060    0.0000 </r>
       <r>   19.2637    0.0000 </r>
       <r>   21.2307    0.0000 </r>
       <r>   26.8126    0.0000 </r>
       <r>   27.0665    0.0000 </r>
      </set>
      <set comment="kpoint 7">
       <r>   -1.2798    1.0000 </r>
       <r>    9.5396    1.0000 </r>
       <r>   16.2640    0.0000 </r>
       <r>   18.5006    0.0000 </r>
       <r>   18.7952    0.0000 </r>
       <r>   20.6749    0.0000 </r>
       <r>   27.5040    0.0000 </r>
       <r>   28.0187    0.0000 </r>
      </set>
      <set comment="kpoint 8">
       <r>   -0.1960    1.0000 </r>
       <r>    7.5630    1.0000 </r>
       <r>   15.8370    0.0000 </r>
       <r>   18.0355    0.0000 </r>
       <r>   18.4254    0.0000 </r>
       <r>   20.2426    0.0000 </r>
       <r>   28.3315    0.0000 </r>
       <r>   29.0200    0.0000 </r>
      </set>
      <set comment="kpoint 9">
       <r>    1.0457    1.0000 </r>
       <r>    5.7220    1.0000 </r>
       <r>   15.5523    0.0000 </r>
       <r>   17.7216    0.0000 </r>
       <r>   18.1715    0.0000 </r>
       <r>   19.9495    0.0000 </r>
       <r>   29.2435    0.0000 </r>
       <r>   29.9973    0.0000 </r>
      </set>
      <set comment="kpoint 10">
       <r>    2.4306    1.0000 </r>
       <r>    4.0362    1.0000 </r>
       <r>   15.4101    0.0000 </r>
       <r>   17.5638    0.0000 </r>
       <r>   18.0425    0.0000 </r>
       <r>   19.8022    0.0000 </r>
       <r>   30.0442    0.0000 </r>
       <r>   30.7102    0.0000 </r>
      </set>
      <set comment="kpoint 11">
       <r>   -4.0586    1.0000 </r>
       <r>   18.9971    0.0000 </r>
       <r>   19.5070    0.0000 </r>
       <r>   20.5066    0.0000 </r>
       <r>   22.2681    0.0000 </r>
       <r>   23.3632    0.0000 </r>
       <r>   24.4709    0.0000 </r>
       <r>   24.7548    0.0000 </r>
      </set>
      <set comment="kpoint 12">
       <r>   -3.7197    1.0000 </r>
       <r>   17.1605    0.0000 </r>
       <r>   18.2974    0.0000 </r>
       <r>   19.8022    0.0000 </r>
       <r>   21.8858    0.0000 </r>
       <r>   23.3281    0.0000 </r>
       <r>   24.6346    0.0000 </r>
       <r>   25.6986    0.0000 </r>
      </set>
      <set comment="kpoint 13">
       <r>   -3.2125    1.0000 </r>
       <r>   14.9789    0.0000 </r>
       <r>   17.3413    0.0000 </r>
       <r>   19.0670    0.0000 </r>
       <r>   21.3113    0.0000 </r>
       <r>   22.7133    0.0000 </r>
       <r>   25.0708    0.0000 </r>
       <r>   26.7809    0.0000 </r>
      </set>
      <set comment="kpoint 14">
       <r>   -2.5381    1.0000 </r>
       <r>   12.7709    0.0000 </r>
       <r>   16.5409    0.0000 </r>
       <r>   18.3637    0.0000 </r>
       <r>   20.6978    0.0000 </r>
       <r>   22.1091    0.0000 </r>
       <r>   25.5927    0.0000 </r>
       <r>   27.5817    0.0000 </r>
      </set>
      <set comment="kpoint 15">
       <r>   -1.6983    1.0000 </r>
       <r>   10.6297    0.0000 </r>
       <r>   15.8856    0.0000 </r>
       <r>   17.7494    0.0000 </r>
       <r>   20.1318    0.0000 </r>
       <r>   21.5779    0.0000 </r>
       <r>   26.2529    0.0000 </r>
       <r>   28.4322    0.0000 </r>
      </set>
      <set comment="kpoint 16">
       <r>   -0.6953    1.0000 </r>
       <r>    8.5943    1.0000 </r>
       <r>   15.3749    0.0000 </r>
       <r>   17.2539    0.0000 </r>
       <r>   19.6634    0.0000 </r>
       <r>   21.1405    0.0000 </r>
       <r>   27.0636    0.0000 </r>
       <r>   29.3354    0.0000 </r>
      </set>
      <set comment="kpoint 17">
       <r>    0.4677    1.0000 </r>
       <r>    6.6847    1.0000 </r>
       <r>   15.0095    0.0000 </r>
       <r>   16.8928    0.0000 </r>
       <r>   19.3170    0.0000 </r>
       <r>   20.8146    0.0000 </r>
       <r>   28.0087    0.0000 </r>
       <r>   30.1795    0.0000 </r>
      </set>
      <set comment="kpoint 18">
       <r>    1.7848    1.0000 </r>
       <r>    4.9173    1.0000 </r>
       <r>   14.7901    0.0000 </r>
       <r>   16.6736    0.0000 </r>
       <r>   19.1053    0.0000 </r>
       <r>   20.6142    0.0000 </r>
       <r>   29.0297    0.0000 </r>
       <r>   30.5923    0.0000 </r>
      </set>
      <set comment="kpoint 19">
       <r>    3.0763    1.0000 </r>
       <r>    3.4753    1.0000 </r>
       <r>   14.7169    0.0000 </r>
       <r>   16.6003    0.0000 </r>
       <r>   19.0344    0.0000 </r>
       <r>   20.5471    0.0000 </r>
       <r>   29.8507    0.0000 </r>
       <r>   30.2476    0.0000 </r>
      </set>
      <set comment="kpoint 20">
       <r>   -3.2969    1.0000 </r>
       <r>   15.9782    0.0000 </r>
       <r>   16.5016    0.0000 </r>
       <r>   18.9103    0.0000 </r>
       <r>   21.9885    0.0000 </r>
       <r>   23.2646    0.0000 </r>
       <r>   24.8615    0.0000 </r>
       <r>   26.1608    0.0000 </r>
      </set>
      <set comment="kpoint 21">
       <r>   -2.7065    1.0000 </r>
       <r>   14.0039    0.0000 </r>
       <r>   15.4066    0.0000 </r>
       <r>   18.1438    0.0000 </r>
       <r>   21.7061    0.0000 </r>
       <r>   23.0301    0.0000 </r>
       <r>   25.2100    0.0000 </r>
       <r>   27.1237    0.0000 </r>
      </set>
      <set comment="kpoint 22">
       <r>   -1.9499    1.0000 </r>
       <r>   11.8520    0.0000 </r>
       <r>   14.6417    0.0000 </r>
       <r>   17.4703    0.0000 </r>
       <r>   21.2065    0.0000 </r>
       <r>   22.9226    0.0000 </r>
       <r>   25.4327    0.0000 </r>
       <r>   28.4027    0.0000 </r>
      </set>
      <set comment="kpoint 23">
       <r>   -1.0290    1.0000 </r>
       <r>    9.7703    1.0000 </r>
       <r>   14.0367    0.0000 </r>
       <r>   16.9122    0.0000 </r>
       <r>   20.7093    0.0000 </r>
       <r>   22.7709    0.0000 </r>
       <r>   25.8997    0.0000 </r>
       <r>   29.5417    0.0000 </r>
      </set>
      <set comment="kpoint 24">
       <r>    0.0535    1.0000 </r>
       <r>    7.8003    1.0000 </r>
       <r>   13.5825    0.0000 </r>
       <r>   16.4846    0.0000 </r>
       <r>   20.3055    0.0000 </r>
       <r>   22.5771    0.0000 </r>
       <r>   26.6360    0.0000 </r>
       <r>   30.3665    0.0000 </r>
      </set>
      <set comment="kpoint 25">
       <r>    1.2938    1.0000 </r>
       <r>    5.9628    1.0000 </r>
       <r>   13.2791    0.0000 </r>
       <r>   16.1961    0.0000 </r>
       <r>   20.0267    0.0000 </r>
       <r>   22.4109    0.0000 </r>
       <r>   27.5797    0.0000 </r>
       <r>   30.4879    0.0000 </r>
      </set>
      <set comment="kpoint 26">
       <r>    2.6776    1.0000 </r>
       <r>    4.2790    1.0000 </r>
       <r>   13.1272    0.0000 </r>
       <r>   16.0509    0.0000 </r>
       <r>   19.8847    0.0000 </r>
       <r>   22.3184    0.0000 </r>
       <r>   28.6312    0.0000 </r>
       <r>   29.7580    0.0000 </r>
      </set>
      <set comment="kpoint 27">
       <r>   -2.0338    1.0000 </r>
       <r>   13.0073    0.0000 </r>
       <r>   13.4231    0.0000 </r>
       <r>   17.4090    0.0000 </r>
       <r>   21.9122    0.0000 </r>
       <r>   22.8949    0.0000 </r>
       <r>   26.1237    0.0000 </r>
       <r>   27.3707    0.0000 </r>
      </set>
      <set comment="kpoint 28">
       <r>   -1.1960    1.0000 </r>
       <r>   11.0713    0.0000 </r>
       <r>   12.5534    0.0000 </r>
       <r>   16.7911    0.0000 </r>
       <r>   21.7206    0.0000 </r>
       <r>   23.0872    0.0000 </r>
       <r>   26.3847    0.0000 </r>
       <r>   28.4994    0.0000 </r>
      </set>
      <set comment="kpoint 29">
       <r>   -0.1954    1.0000 </r>
       <r>    9.0602    1.0000 </r>
       <r>   12.0025    0.0000 </r>
       <r>   16.2980    0.0000 </r>
       <r>   21.3492    0.0000 </r>
       <r>   23.5179    0.0000 </r>
       <r>   26.4302    0.0000 </r>
       <r>   29.7580    0.0000 </r>
      </set>
      <set comment="kpoint 30">
       <r>    0.9649    1.0000 </r>
       <r>    7.1615    1.0000 </r>
       <r>   11.6127    0.0000 </r>
       <r>   15.9398    0.0000 </r>
       <r>   21.0337    0.0000 </r>
       <r>   23.8661    0.0000 </r>
       <r>   26.7426    0.0000 </r>
       <r>   30.1460    0.0000 </r>
      </set>
      <set comment="kpoint 31">
       <r>    2.2790    1.0000 </r>
       <r>    5.4007    1.0000 </r>
       <r>   11.3792    0.0000 </r>
       <r>   15.7229    0.0000 </r>
       <r>   20.8344    0.0000 </r>
       <r>   24.0332    0.0000 </r>
       <r>   27.4133    0.0000 </r>
       <r>   29.5206    0.0000 </r>
      </set>
      <set comment="kpoint 32">
       <r>    3.5728    1.0000 </r>
       <r>    3.9574    1.0000 </r>
       <r>   11.3013    0.0000 </r>
       <r>   15.6502    0.0000 </r>
       <r>   20.7667    0.0000 </r>
       <r>   24.0740    0.0000 </r>
       <r>   28.0790    0.0000 </r>
       <r>   28.7991    0.0000 </r>
      </set>
      <set comment="kpoint 33">
       <r>   -0.2785    1.0000 </r>
       <r>   10.3025    0.0000 </r>
       <r>   10.6418    0.0000 </r>
       <r>   16.2377    0.0000 </r>
       <r>   22.1566    0.0000 </r>
       <r>   23.0260    0.0000 </r>
       <r>   27.7109    0.0000 </r>
       <r>   28.4720    0.0000 </r>
      </set>
      <set comment="kpoint 34">
       <r>    0.8001    1.0000 </r>
       <r>    8.4995    1.0000 </r>
       <r>   10.0196    0.0085 </r>
       <r>   15.8135    0.0000 </r>
       <r>   22.1041    0.0000 </r>
       <r>   23.5470    0.0000 </r>
       <r>   27.7944    0.0000 </r>
       <r>   29.3003    0.0000 </r>
      </set>
      <set comment="kpoint 35">
       <r>    2.0358    1.0000 </r>
       <r>    6.6801    1.0000 </r>
       <r>    9.6971    1.0000 </r>
       <r>   15.5267    0.0000 </r>
       <r>   21.9109    0.0000 </r>
       <r>   24.3318    0.0000 </r>
       <r>   27.4942    0.0000 </r>
       <r>   29.4718    0.0000 </r>
      </set>
      <set comment="kpoint 36">
       <r>    3.4151    1.0000 </r>
       <r>    5.0051    1.0000 </r>
       <r>    9.5377    1.0000 </r>
       <r>   15.3819    0.0000 </r>
       <r>   21.7956    0.0000 </r>
       <r>   24.9788    0.0000 </r>
       <r>   27.1843    0.0000 </r>
       <r>   29.1812    0.0000 </r>
      </set>
      <set comment="kpoint 37">
       <r>    1.9543    1.0000 </r>
       <r>    7.9660    1.0000 </r>
       <r>    8.2737    1.0000 </r>
       <r>   15.4606    0.0000 </r>
       <r>   22.7529    0.0000 </r>
       <r>   23.6414    0.0000 </r>
       <r>   28.0266    0.0000 </r>
       <r>   29.6183    0.0000 </r>
      </set>
      <set comment="kpoint 38">
       <r>    3.2614    1.0000 </r>
       <r>    6.3547    1.0000 </r>
       <r>    7.8977    1.0000 </r>
       <r>   15.2459    0.0000 </r>
       <r>   22.8684    0.0000 </r>
       <r>   24.3971    0.0000 </r>
       <r>   26.9941    0.0000 </r>
       <r>   30.3677    0.0000 </r>
      </set>
      <set comment="kpoint 39">
       <r>    4.5529    1.0000 </r>
       <r>    4.9204    1.0000 </r>
       <r>    7.8130    1.0000 </r>
       <r>   15.1738    0.0000 </r>
       <r>   22.8502    0.0000 </r>
       <r>   25.0883    0.0000 </r>
       <r>   26.2293    0.0000 </r>
       <r>   30.5387    0.0000 </r>
      </set>
      <set comment="kpoint 40">
       <r>    4.6233    1.0000 </r>
       <r>    6.0758    1.0000 </r>
       <r>    6.3613    1.0000 </r>
       <r>   15.1038    0.0000 </r>
       <r>   23.5879    0.0000 </r>
       <r>   24.7198    0.0000 </r>
       <r>   25.8204    0.0000 </r>
       <r>   31.8071    0.0000 </r>
      </set>
      <set comment="kpoint 41">
       <r>   -3.8044    1.0000 </r>
       <r>   17.7998    0.0000 </r>
       <r>   18.8078    0.0000 </r>
       <r>   18.8078    0.0000 </r>
       <r>   23.1242    0.0000 </r>
       <r>   23.1242    0.0000 </r>
       <r>   25.4223    0.0000 </r>
       <r>   25.4223    0.0000 </r>
      </set>
      <set comment="kpoint 42">
       <r>   -3.3814    1.0000 </r>
       <r>   16.1019    0.0000 </r>
       <r>   17.3085    0.0000 </r>
       <r>   17.9847    0.0000 </r>
       <r>   22.8159    0.0000 </r>
       <r>   23.5846    0.0000 </r>
       <r>   25.3277    0.0000 </r>
       <r>   25.9565    0.0000 </r>
      </set>
      <set comment="kpoint 43">
       <r>   -2.7907    1.0000 </r>
       <r>   13.9535    0.0000 </r>
       <r>   16.3442    0.0000 </r>
       <r>   17.1857    0.0000 </r>
       <r>   22.4126    0.0000 </r>
       <r>   23.1792    0.0000 </r>
       <r>   26.0947    0.0000 </r>
       <r>   26.4174    0.0000 </r>
      </set>
      <set comment="kpoint 44">
       <r>   -2.0338    1.0000 </r>
       <r>   11.7840    0.0000 </r>
       <r>   15.5930    0.0000 </r>
       <r>   16.4785    0.0000 </r>
       <r>   21.9660    0.0000 </r>
       <r>   22.6194    0.0000 </r>
       <r>   26.9618    0.0000 </r>
       <r>   27.0463    0.0000 </r>
      </set>
      <set comment="kpoint 45">
       <r>   -1.1126    1.0000 </r>
       <r>    9.6958    1.0000 </r>
       <r>   15.0000    0.0000 </r>
       <r>   15.8934    0.0000 </r>
       <r>   21.5438    0.0000 </r>
       <r>   22.1203    0.0000 </r>
       <r>   27.6524    0.0000 </r>
       <r>   28.0527    0.0000 </r>
      </set>
      <set comment="kpoint 46">
       <r>   -0.0296    1.0000 </r>
       <r>    7.7229    1.0000 </r>
       <r>   14.5566    0.0000 </r>
       <r>   15.4458    0.0000 </r>
       <r>   21.1962    0.0000 </r>
       <r>   21.7251    0.0000 </r>
       <r>   28.4742    0.0000 </r>
       <r>   29.0848    0.0000 </r>
      </set>
      <set comment="kpoint 47">
       <r>    1.2112    1.0000 </r>
       <r>    5.8832    1.0000 </r>
       <r>   14.2609    0.0000 </r>
       <r>   15.1442    0.0000 </r>
       <r>   20.9526    0.0000 </r>
       <r>   21.4531    0.0000 </r>
       <r>   29.3702    0.0000 </r>
       <r>   30.0748    0.0000 </r>
      </set>
      <set comment="kpoint 48">
       <r>    2.5954    1.0000 </r>
       <r>    4.1986    1.0000 </r>
       <r>   14.1131    0.0000 </r>
       <r>   14.9923    0.0000 </r>
       <r>   20.8271    0.0000 </r>
       <r>   21.3166    0.0000 </r>
       <r>   30.1459    0.0000 </r>
       <r>   30.7922    0.0000 </r>
      </set>
      <set comment="kpoint 49">
       <r>   -4.1433    1.0000 </r>
       <r>   19.8055    0.0000 </r>
       <r>   19.8055    0.0000 </r>
       <r>   20.6247    0.0000 </r>
       <r>   22.6481    0.0000 </r>
       <r>   23.5223    0.0000 </r>
       <r>   23.5223    0.0000 </r>
       <r>   24.3569    0.0000 </r>
      </set>
      <set comment="kpoint 50">
       <r>   -2.8750    1.0000 </r>
       <r>   14.9625    0.0000 </r>
       <r>   15.5865    0.0000 </r>
       <r>   16.8215    0.0000 </r>
       <r>   23.2104    0.0000 </r>
       <r>   24.0737    0.0000 </r>
       <r>   25.4648    0.0000 </r>
       <r>   26.4043    0.0000 </r>
      </set>
      <set comment="kpoint 51">
       <r>   -2.2018    1.0000 </r>
       <r>   13.0419    0.0000 </r>
       <r>   14.5033    0.0000 </r>
       <r>   16.0175    0.0000 </r>
       <r>   23.0988    0.0000 </r>
       <r>   24.0420    0.0000 </r>
       <r>   26.0324    0.0000 </r>
       <r>   27.1851    0.0000 </r>
      </set>
      <set comment="kpoint 52">
       <r>   -1.3633    1.0000 </r>
       <r>   10.9346    0.0000 </r>
       <r>   13.7991    0.0000 </r>
       <r>   15.3567    0.0000 </r>
       <r>   22.7756    0.0000 </r>
       <r>   23.7958    0.0000 </r>
       <r>   26.6845    0.0000 </r>
       <r>   28.2294    0.0000 </r>
      </set>
      <set comment="kpoint 53">
       <r>   -0.3619    1.0000 </r>
       <r>    8.9090    1.0000 </r>
       <r>   13.2630    0.0000 </r>
       <r>   14.8361    0.0000 </r>
       <r>   22.4199    0.0000 </r>
       <r>   23.5334    0.0000 </r>
       <r>   27.4430    0.0000 </r>
       <r>   29.2903    0.0000 </r>
      </set>
      <set comment="kpoint 54">
       <r>    0.7994    1.0000 </r>
       <r>    7.0050    1.0000 </r>
       <r>   12.8808    0.0000 </r>
       <r>   14.4609    0.0000 </r>
       <r>   22.1306    0.0000 </r>
       <r>   23.3091    0.0000 </r>
       <r>   28.3399    0.0000 </r>
       <r>   30.2261    0.0000 </r>
      </set>
      <set comment="kpoint 55">
       <r>    2.1147    1.0000 </r>
       <r>    5.2409    1.0000 </r>
       <r>   12.6513    0.0000 </r>
       <r>   14.2342    0.0000 </r>
       <r>   21.9466    0.0000 </r>
       <r>   23.1610    0.0000 </r>
       <r>   29.3070    0.0000 </r>
       <r>   30.7163    0.0000 </r>
      </set>
      <set comment="kpoint 56">
       <r>    3.4075    1.0000 </r>
       <r>    3.7981    1.0000 </r>
       <r>   12.5747    0.0000 </r>
       <r>   14.1587    0.0000 </r>
       <r>   21.8840    0.0000 </r>
       <r>   23.1097    0.0000 </r>
       <r>   30.0345    0.0000 </r>
       <r>   30.4992    0.0000 </r>
      </set>
      <set comment="kpoint 57">
       <r>   -3.8890    1.0000 </r>
       <r>   18.1935    0.0000 </r>
       <r>   18.7586    0.0000 </r>
       <r>   20.2275    0.0000 </r>
       <r>   22.2031    0.0000 </r>
       <r>   23.1895    0.0000 </r>
       <r>   24.0758    0.0000 </r>
       <r>   24.7302    0.0000 </r>
      </set>
      <set comment="kpoint 58">
       <r>   -1.4470    1.0000 </r>
       <r>   12.1097    0.0000 </r>
       <r>   12.5423    0.0000 </r>
       <r>   15.2608    0.0000 </r>
       <r>   23.4302    0.0000 </r>
       <r>   24.4332    0.0000 </r>
       <r>   26.6325    0.0000 </r>
       <r>   27.7665    0.0000 </r>
      </set>
      <set comment="kpoint 59">
       <r>   -0.5283    1.0000 </r>
       <r>   10.2259    0.0000 </r>
       <r>   11.7354    0.0000 </r>
       <r>   14.6652    0.0000 </r>
       <r>   23.4046    0.0000 </r>
       <r>   24.6394    0.0000 </r>
       <r>   27.1559    0.0000 </r>
       <r>   28.8118    0.0000 </r>
      </set>
      <set comment="kpoint 60">
       <r>    0.5517    1.0000 </r>
       <r>    8.2746    1.0000 </r>
       <r>   11.2574    0.0000 </r>
       <r>   14.2161    0.0000 </r>
       <r>   23.1831    0.0000 </r>
       <r>   24.8714    0.0000 </r>
       <r>   27.5886    0.0000 </r>
       <r>   29.9886    0.0000 </r>
      </set>
      <set comment="kpoint 61">
       <r>    1.7891    1.0000 </r>
       <r>    6.4445    1.0000 </r>
       <r>   10.9429    0.0000 </r>
       <r>   13.9147    0.0000 </r>
       <r>   22.9794    0.0000 </r>
       <r>   24.9862    0.0000 </r>
       <r>   28.2631    0.0000 </r>
       <r>   30.5363    0.0000 </r>
      </set>
      <set comment="kpoint 62">
       <r>    3.1702    1.0000 </r>
       <r>    4.7651    1.0000 </r>
       <r>   10.7861    0.0000 </r>
       <r>   13.7635    0.0000 </r>
       <r>   22.8672    0.0000 </r>
       <r>   25.0153    0.0000 </r>
       <r>   29.0957    0.0000 </r>
       <r>   30.1672    0.0000 </r>
      </set>
      <set comment="kpoint 63">
       <r>   -3.4659    1.0000 </r>
       <r>   16.0872    0.0000 </r>
       <r>   17.7780    0.0000 </r>
       <r>   19.8038    0.0000 </r>
       <r>   21.4048    0.0000 </r>
       <r>   22.4734    0.0000 </r>
       <r>   24.3083    0.0000 </r>
       <r>   26.3856    0.0000 </r>
      </set>
      <set comment="kpoint 64">
       <r>   -3.5505    1.0000 </r>
       <r>   17.0336    0.0000 </r>
       <r>   17.3382    0.0000 </r>
       <r>   19.6935    0.0000 </r>
       <r>   22.0294    0.0000 </r>
       <r>   22.2809    0.0000 </r>
       <r>   24.6228    0.0000 </r>
       <r>   25.3954    0.0000 </r>
      </set>
      <set comment="kpoint 65">
       <r>    0.4690    1.0000 </r>
       <r>    9.5295    1.0000 </r>
       <r>    9.8741    0.9582 </r>
       <r>   14.1407    0.0000 </r>
       <r>   23.8988    0.0000 </r>
       <r>   24.9071    0.0000 </r>
       <r>   28.3156    0.0000 </r>
       <r>   29.0344    0.0000 </r>
      </set>
      <set comment="kpoint 66">
       <r>    1.6256    1.0000 </r>
       <r>    7.7908    1.0000 </r>
       <r>    9.3262    1.0000 </r>
       <r>   13.7650    0.0000 </r>
       <r>   23.9922    0.0000 </r>
       <r>   25.4164    0.0000 </r>
       <r>   28.5961    0.0000 </r>
       <r>   29.8475    0.0000 </r>
      </set>
      <set comment="kpoint 67">
       <r>    2.9355    1.0000 </r>
       <r>    6.0432    1.0000 </r>
       <r>    9.0812    1.0000 </r>
       <r>   13.5385    0.0000 </r>
       <r>   23.9180    0.0000 </r>
       <r>   26.0293    0.0000 </r>
       <r>   28.5542    0.0000 </r>
       <r>   30.1556    0.0000 </r>
      </set>
      <set comment="kpoint 68">
       <r>    4.2287    1.0000 </r>
       <r>    4.6025    1.0000 </r>
       <r>    9.0004    1.0000 </r>
       <r>   13.4629    0.0000 </r>
       <r>   23.8806    0.0000 </r>
       <r>   26.3116    0.0000 </r>
       <r>   28.5412    0.0000 </r>
       <r>   30.0619    0.0000 </r>
      </set>
      <set comment="kpoint 69">
       <r>   -2.8750    1.0000 </r>
       <r>   13.8803    0.0000 </r>
       <r>   16.9187    0.0000 </r>
       <r>   19.2507    0.0000 </r>
       <r>   20.6056    0.0000 </r>
       <r>   21.9888    0.0000 </r>
       <r>   24.5121    0.0000 </r>
       <r>   28.1705    0.0000 </r>
      </set>
      <set comment="kpoint 70">
       <r>   -3.0436    1.0000 </r>
       <r>   15.0634    0.0000 </r>
       <r>   16.2870    0.0000 </r>
       <r>   19.2441    0.0000 </r>
       <r>   21.3694    0.0000 </r>
       <r>   21.8818    0.0000 </r>
       <r>   24.7825    0.0000 </r>
       <r>   26.7202    0.0000 </r>
      </set>
      <set comment="kpoint 71">
       <r>    2.8557    1.0000 </r>
       <r>    7.3336    1.0000 </r>
       <r>    7.6475    1.0000 </r>
       <r>   13.4640    0.0000 </r>
       <r>   24.6376    0.0000 </r>
       <r>   25.7470    0.0000 </r>
       <r>   28.7815    0.0000 </r>
       <r>   30.3146    0.0000 </r>
      </set>
      <set comment="kpoint 72">
       <r>    4.2278    1.0000 </r>
       <r>    5.8046    1.0000 </r>
       <r>    7.3486    1.0000 </r>
       <r>   13.3132    0.0000 </r>
       <r>   24.8403    0.0000 </r>
       <r>   26.4307    0.0000 </r>
       <r>   27.9489    0.0000 </r>
       <r>   31.0938    0.0000 </r>
      </set>
      <set comment="kpoint 73">
       <r>   -2.1178    1.0000 </r>
       <r>   11.7030    0.0000 </r>
       <r>   16.1956    0.0000 </r>
       <r>   18.6779    0.0000 </r>
       <r>   19.8911    0.0000 </r>
       <r>   21.5696    0.0000 </r>
       <r>   24.9074    0.0000 </r>
       <r>   28.9748    0.0000 </r>
      </set>
      <set comment="kpoint 74">
       <r>   -2.3698    1.0000 </r>
       <r>   12.8982    0.0000 </r>
       <r>   15.4711    0.0000 </r>
       <r>   18.7048    0.0000 </r>
       <r>   20.6406    0.0000 </r>
       <r>   21.8653    0.0000 </r>
       <r>   24.6733    0.0000 </r>
       <r>   28.3518    0.0000 </r>
      </set>
      <set comment="kpoint 75">
       <r>   -2.4539    1.0000 </r>
       <r>   14.0174    0.0000 </r>
       <r>   14.3855    0.0000 </r>
       <r>   18.8651    0.0000 </r>
       <r>   21.1887    0.0000 </r>
       <r>   21.3550    0.0000 </r>
       <r>   25.7885    0.0000 </r>
       <r>   26.9197    0.0000 </r>
      </set>
      <set comment="kpoint 76">
       <r>    5.3800    1.0000 </r>
       <r>    5.8869    1.0000 </r>
       <r>    5.8869    1.0000 </r>
       <r>   13.2381    0.0000 </r>
       <r>   25.3033    0.0000 </r>
       <r>   26.9780    0.0000 </r>
       <r>   26.9780    0.0000 </r>
       <r>   32.5263    0.0000 </r>
      </set>
      <set comment="kpoint 77">
       <r>   -1.1962    1.0000 </r>
       <r>    9.6144    1.0000 </r>
       <r>   15.6143    0.0000 </r>
       <r>   18.1701    0.0000 </r>
       <r>   19.2989    0.0000 </r>
       <r>   21.1836    0.0000 </r>
       <r>   25.5410    0.0000 </r>
       <r>   29.8001    0.0000 </r>
      </set>
      <set comment="kpoint 78">
       <r>   -1.5307    1.0000 </r>
       <r>   10.7740    0.0000 </r>
       <r>   14.8024    0.0000 </r>
       <r>   18.1711    0.0000 </r>
       <r>   20.0015    0.0000 </r>
       <r>   21.9218    0.0000 </r>
       <r>   24.7429    0.0000 </r>
       <r>   29.7237    0.0000 </r>
      </set>
      <set comment="kpoint 79">
       <r>   -1.6982    1.0000 </r>
       <r>   12.0488    0.0000 </r>
       <r>   13.4710    0.0000 </r>
       <r>   18.4116    0.0000 </r>
       <r>   20.6236    0.0000 </r>
       <r>   21.5433    0.0000 </r>
       <r>   25.8723    0.0000 </r>
       <r>   28.1596    0.0000 </r>
      </set>
      <set comment="kpoint 80">
       <r>   -0.1128    1.0000 </r>
       <r>    7.6408    1.0000 </r>
       <r>   15.1769    0.0000 </r>
       <r>   17.7688    0.0000 </r>
       <r>   18.8464    0.0000 </r>
       <r>   20.8582    0.0000 </r>
       <r>   26.3755    0.0000 </r>
       <r>   30.4535    0.0000 </r>
      </set>
      <set comment="kpoint 81">
       <r>   -0.5286    1.0000 </r>
       <r>    8.7469    1.0000 </r>
       <r>   14.2799    0.0000 </r>
       <r>   17.7192    0.0000 </r>
       <r>   19.4850    0.0000 </r>
       <r>   21.8928    0.0000 </r>
       <r>   25.1582    0.0000 </r>
       <r>   30.4114    0.0000 </r>
      </set>
      <set comment="kpoint 82">
       <r>   -0.7784    1.0000 </r>
       <r>    9.9913    0.0567 </r>
       <r>   12.8515    0.0000 </r>
       <r>   17.9593    0.0000 </r>
       <r>   20.0712    0.0000 </r>
       <r>   22.0264    0.0000 </r>
       <r>   25.6687    0.0000 </r>
       <r>   29.5025    0.0000 </r>
      </set>
      <set comment="kpoint 83">
       <r>   -0.8618    1.0000 </r>
       <r>   11.2126    0.0000 </r>
       <r>   11.5400    0.0000 </r>
       <r>   18.0421    0.0000 </r>
       <r>   20.8629    0.0000 </r>
       <r>   21.1849    0.0000 </r>
       <r>   27.2389    0.0000 </r>
       <r>   27.9916    0.0000 </r>
      </set>
      <set comment="kpoint 84">
       <r>    1.1284    1.0000 </r>
       <r>    5.8016    1.0000 </r>
       <r>   14.8848    0.0000 </r>
       <r>   17.4935    0.0000 </r>
       <r>   18.5409    0.0000 </r>
       <r>   20.6259    0.0000 </r>
       <r>   27.3748    0.0000 </r>
       <r>   30.4486    0.0000 </r>
      </set>
      <set comment="kpoint 85">
       <r>    0.6336    1.0000 </r>
       <r>    6.8421    1.0000 </r>
       <r>   13.9056    0.0000 </r>
       <r>   17.3830    0.0000 </r>
       <r>   19.1084    0.0000 </r>
       <r>   21.7932    0.0000 </r>
       <r>   25.9026    0.0000 </r>
       <r>   30.1878    0.0000 </r>
      </set>
      <set comment="kpoint 86">
       <r>    0.3027    1.0000 </r>
       <r>    8.0320    1.0000 </r>
       <r>   12.3898    0.0000 </r>
       <r>   17.5859    0.0000 </r>
       <r>   19.6358    0.0000 </r>
       <r>   22.5661    0.0000 </r>
       <r>   25.6250    0.0000 </r>
       <r>   29.7585    0.0000 </r>
      </set>
      <set comment="kpoint 87">
       <r>    0.1371    1.0000 </r>
       <r>    9.3560    1.0000 </r>
       <r>   10.8492    0.0000 </r>
       <r>   17.6645    0.0000 </r>
       <r>   20.5318    0.0000 </r>
       <r>   21.7323    0.0000 </r>
       <r>   27.1709    0.0000 </r>
       <r>   28.8271    0.0000 </r>
      </set>
      <set comment="kpoint 88">
       <r>    2.5129    1.0000 </r>
       <r>    4.1167    1.0000 </r>
       <r>   14.7387    0.0000 </r>
       <r>   17.3539    0.0000 </r>
       <r>   18.3878    0.0000 </r>
       <r>   20.5055    0.0000 </r>
       <r>   28.4725    0.0000 </r>
       <r>   29.6190    0.0000 </r>
      </set>
      <set comment="kpoint 89">
       <r>    1.9496    1.0000 </r>
       <r>    5.0776    1.0000 </r>
       <r>   13.6803    0.0000 </r>
       <r>   17.1771    0.0000 </r>
       <r>   18.8793    0.0000 </r>
       <r>   21.7006    0.0000 </r>
       <r>   26.8792    0.0000 </r>
       <r>   29.2279    0.0000 </r>
      </set>
      <set comment="kpoint 90">
       <r>    1.5414    1.0000 </r>
       <r>    6.2005    1.0000 </r>
       <r>   12.0814    0.0000 </r>
       <r>   17.3256    0.0000 </r>
       <r>   19.3377    0.0000 </r>
       <r>   22.9798    0.0000 </r>
       <r>   25.9204    0.0000 </r>
       <r>   28.9577    0.0000 </r>
      </set>
      <set comment="kpoint 91">
       <r>    1.2953    1.0000 </r>
       <r>    7.4728    1.0000 </r>
       <r>   10.4509    0.0000 </r>
       <r>   17.3622    0.0000 </r>
       <r>   20.1927    0.0000 </r>
       <r>   22.5609    0.0000 </r>
       <r>   26.6879    0.0000 </r>
       <r>   28.8822    0.0000 </r>
      </set>
      <set comment="kpoint 92">
       <r>    1.2132    1.0000 </r>
       <r>    8.7490    1.0000 </r>
[...]
      <set comment="kpoint 209">
       <r>    5.1962    1.0000 </r>
       <r>    8.1701    1.0000 </r>
       <r>    9.5057    1.0000 </r>
       <r>   13.2991    0.0000 </r>
       <r>   14.8090    0.0000 </r>
       <r>   17.6317    0.0000 </r>
       <r>   28.6334    0.0000 </r>
       <r>   31.7742    0.0000 </r>
      </set>
      <set comment="kpoint 210">
       <r>    6.4862    1.0000 </r>
       <r>    6.7703    1.0000 </r>
       <r>    9.4269    1.0000 </r>
       <r>   13.2568    0.0000 </r>
       <r>   15.7840    0.0000 </r>
       <r>   16.4419    0.0000 </r>
       <r>   28.5906    0.0000 </r>
       <r>   31.8893    0.0000 </r>
      </set>
      <set comment="kpoint 211">
       <r>    6.5292    1.0000 </r>
       <r>    7.9216    1.0000 </r>
       <r>    8.1268    1.0000 </r>
       <r>   14.0810    0.0000 </r>
       <r>   14.9377    0.0000 </r>
       <r>   16.1211    0.0000 </r>
       <r>   28.6624    0.0000 </r>
       <r>   33.2066    0.0000 </r>
      </set>
      <set comment="kpoint 212">
       <r>    3.8307    1.0000 </r>
       <r>   10.3707    0.0000 </r>
       <r>   10.3707    0.0000 </r>
       <r>   12.4075    0.0000 </r>
       <r>   13.3558    0.0000 </r>
       <r>   19.1697    0.0000 </r>
       <r>   30.3423    0.0000 </r>
       <r>   31.1786    0.0000 </r>
      </set>
      <set comment="kpoint 213">
       <r>    5.0370    1.0000 </r>
       <r>    9.3402    1.0000 </r>
       <r>   10.0662    0.0001 </r>
       <r>   12.3535    0.0000 </r>
       <r>   13.4595    0.0000 </r>
       <r>   17.4608    0.0000 </r>
       <r>   30.4372    0.0000 </r>
       <r>   31.8507    0.0000 </r>
      </set>
      <set comment="kpoint 214">
       <r>    6.3764    1.0000 </r>
       <r>    7.8610    1.0000 </r>
       <r>    9.9139    0.7273 </r>
       <r>   12.3020    0.0000 </r>
       <r>   14.4322    0.0000 </r>
       <r>   15.9335    0.0000 </r>
       <r>   30.3259    0.0000 </r>
       <r>   32.1383    0.0000 </r>
      </set>
      <set comment="kpoint 215">
       <r>    6.3010    1.0000 </r>
       <r>    9.0442    1.0000 </r>
       <r>    9.1762    1.0000 </r>
       <r>   12.6064    0.0000 </r>
       <r>   13.4125    0.0000 </r>
       <r>   15.8284    0.0000 </r>
       <r>   30.8284    0.0000 </r>
       <r>   33.0159    0.0000 </r>
      </set>
      <set comment="kpoint 216">
       <r>    7.5648    1.0000 </r>
       <r>    7.8100    1.0000 </r>
       <r>    9.0407    1.0000 </r>
       <r>   12.7617    0.0000 </r>
       <r>   14.1310    0.0000 </r>
       <r>   14.6091    0.0000 </r>
       <r>   30.8365    0.0000 </r>
       <r>   33.4155    0.0000 </r>
      </set>
      <set comment="kpoint 217">
       <r>    6.2229    1.0000 </r>
       <r>    9.7616    1.0000 </r>
       <r>    9.7616    1.0000 </r>
       <r>   11.7656    0.0000 </r>
       <r>   12.6694    0.0000 </r>
       <r>   15.7380    0.0000 </r>
       <r>   32.4785    0.0000 </r>
       <r>   32.9537    0.0000 </r>
      </set>
      <set comment="kpoint 218">
       <r>    7.5225    1.0000 </r>
       <r>    8.8758    1.0000 </r>
       <r>    9.6091    1.0000 </r>
       <r>   11.8350    0.0000 </r>
       <r>   12.9448    0.0000 </r>
       <r>   14.2244    0.0000 </r>
       <r>   32.5702    0.0000 </r>
       <r>   33.5179    0.0000 </r>
      </set>
      <set comment="kpoint 219">
       <r>    8.6472    1.0000 </r>
       <r>    8.8645    1.0000 </r>
       <r>    8.8645    1.0000 </r>
       <r>   12.0297    0.0000 </r>
       <r>   13.0761    0.0000 </r>
       <r>   13.0761    0.0000 </r>
       <r>   32.9035    0.0000 </r>
       <r>   34.4026    0.0000 </r>
      </set>
      <set comment="kpoint 220">
       <r>    8.7074    1.0000 </r>
       <r>    9.4563    1.0000 </r>
       <r>    9.4563    1.0000 </r>
       <r>   11.3081    0.0000 </r>
       <r>   12.3212    0.0000 </r>
       <r>   12.8503    0.0000 </r>
       <r>   34.2379    0.0000 </r>
       <r>   34.3327    0.0000 </r>
      </set>
     </set>
    </set>
   </array>
  </eigenvalues>
  <separator name="orbital magnetization" >
   <v name="MAGDIPOLOUT">      0.00000000      0.00000000      0.00000000</v>
  </separator>
  <dos>
   <i name="efermi">      9.93530851 </i>
   <total>
    <array>
     <dimension dim="1">gridpoints</dimension>
     <dimension dim="2">spin</dimension>
     <field>energy</field>
     <field>total</field>
     <field>integrated</field>
     <set>
      <set comment="spin 1">
       <r>    -6.2488     0.0000     0.0000 </r>
       <r>    -6.1069     0.0000     0.0000 </r>
       <r>    -5.9649     0.0000     0.0000 </r>
       <r>    -5.8229     0.0000     0.0000 </r>
       <r>    -5.6810     0.0000     0.0000 </r>
       <r>    -5.5390     0.0000     0.0000 </r>
       <r>    -5.3971     0.0000     0.0000 </r>
       <r>    -5.2551     0.0000     0.0000 </r>
       <r>    -5.1132     0.0000     0.0000 </r>
       <r>    -4.9712     0.0000     0.0000 </r>
       <r>    -4.8292     0.0000     0.0000 </r>
       <r>    -4.6873     0.0000     0.0000 </r>
       <r>    -4.5453     0.0000     0.0000 </r>
       <r>    -4.4034     0.0000     0.0000 </r>
       <r>    -4.2614     0.0062     0.0009 </r>
       <r>    -4.1195     0.0318     0.0054 </r>
       <r>    -3.9775     0.0614     0.0141 </r>
       <r>    -3.8355     0.0628     0.0230 </r>
       <r>    -3.6936     0.0930     0.0362 </r>
       <r>    -3.5516     0.0707     0.0463 </r>
       <r>    -3.4097     0.0947     0.0597 </r>
       <r>    -3.2677     0.0895     0.0724 </r>
       <r>    -3.1258     0.1492     0.0936 </r>
       <r>    -2.9838     0.1003     0.1078 </r>
       <r>    -2.8418     0.1090     0.1233 </r>
       <r>    -2.6999     0.1594     0.1459 </r>
       <r>    -2.5579     0.1387     0.1656 </r>
       <r>    -2.4160     0.1236     0.1832 </r>
       <r>    -2.2740     0.1097     0.1987 </r>
       <r>    -2.1321     0.1886     0.2255 </r>
       <r>    -1.9901     0.2244     0.2574 </r>
       <r>    -1.8481     0.1413     0.2774 </r>
       <r>    -1.7062     0.0966     0.2912 </r>
       <r>    -1.5642     0.1611     0.3140 </r>
       <r>    -1.4223     0.2435     0.3486 </r>
       <r>    -1.2803     0.1556     0.3707 </r>
       <r>    -1.1384     0.2818     0.4107 </r>
       <r>    -0.9964     0.1351     0.4299 </r>
       <r>    -0.8544     0.1217     0.4471 </r>
       <r>    -0.7125     0.2122     0.4773 </r>
       <r>    -0.5705     0.2449     0.5120 </r>
       <r>    -0.4286     0.2290     0.5446 </r>
       <r>    -0.2866     0.2100     0.5744 </r>
       <r>    -0.1447     0.2477     0.6095 </r>
       <r>    -0.0027     0.1513     0.6310 </r>
       <r>     0.1393     0.2396     0.6650 </r>
       <r>     0.2812     0.2128     0.6952 </r>
       <r>     0.4232     0.2390     0.7292 </r>
       <r>     0.5651     0.2765     0.7684 </r>
       <r>     0.7071     0.2331     0.8015 </r>
       <r>     0.8491     0.2886     0.8425 </r>
       <r>     0.9910     0.2487     0.8778 </r>
       <r>     1.1330     0.1460     0.8985 </r>
       <r>     1.2749     0.2373     0.9322 </r>
       <r>     1.4169     0.3576     0.9829 </r>
       <r>     1.5588     0.2594     1.0198 </r>
       <r>     1.7008     0.1544     1.0417 </r>
       <r>     1.8428     0.4143     1.1005 </r>
       <r>     1.9847     0.2771     1.1398 </r>
       <r>     2.1267     0.3008     1.1825 </r>
       <r>     2.2686     0.1536     1.2043 </r>
       <r>     2.4106     0.2032     1.2332 </r>
       <r>     2.5525     0.3593     1.2842 </r>
       <r>     2.6945     0.3440     1.3330 </r>
       <r>     2.8365     0.3300     1.3798 </r>
       <r>     2.9784     0.3165     1.4248 </r>
       <r>     3.1204     0.2762     1.4640 </r>
       <r>     3.2623     0.3260     1.5103 </r>
       <r>     3.4043     0.2971     1.5524 </r>
       <r>     3.5462     0.2283     1.5849 </r>
       <r>     3.6882     0.1483     1.6059 </r>
       <r>     3.8302     0.3973     1.6623 </r>
       <r>     3.9721     0.4561     1.7271 </r>
       <r>     4.1141     0.2839     1.7673 </r>
       <r>     4.2560     0.3531     1.8175 </r>
       <r>     4.3980     0.3140     1.8621 </r>
       <r>     4.5399     0.3053     1.9054 </r>
       <r>     4.6819     0.3103     1.9494 </r>
       <r>     4.8239     0.2673     1.9874 </r>
       <r>     4.9658     0.2489     2.0227 </r>
       <r>     5.1078     0.5179     2.0962 </r>
       <r>     5.2497     0.2778     2.1357 </r>
       <r>     5.3917     0.3351     2.1833 </r>
       <r>     5.5336     0.5334     2.2590 </r>
       <r>     5.6756     0.2098     2.2888 </r>
       <r>     5.8176     0.2405     2.3229 </r>
       <r>     5.9595     0.4960     2.3933 </r>
       <r>     6.1015     0.3601     2.4444 </r>
       <r>     6.2434     0.3637     2.4961 </r>
       <r>     6.3854     0.2653     2.5337 </r>
       <r>     6.5273     0.3734     2.5867 </r>
       <r>     6.6693     0.3645     2.6385 </r>
       <r>     6.8113     0.4088     2.6965 </r>
       <r>     6.9532     0.4336     2.7581 </r>
       <r>     7.0952     0.4093     2.8162 </r>
       <r>     7.2371     0.4757     2.8837 </r>
       <r>     7.3791     0.2628     2.9210 </r>
       <r>     7.5210     0.3316     2.9681 </r>
       <r>     7.6630     0.4111     3.0264 </r>
       <r>     7.8050     0.4246     3.0867 </r>
       <r>     7.9469     0.5225     3.1609 </r>
       <r>     8.0889     0.2553     3.1971 </r>
       <r>     8.2308     0.2914     3.2385 </r>
       <r>     8.3728     0.5097     3.3108 </r>
       <r>     8.5148     0.5498     3.3889 </r>
       <r>     8.6567     0.4199     3.4485 </r>
       <r>     8.7987     0.3920     3.5041 </r>
       <r>     8.9406     0.3810     3.5582 </r>
       <r>     9.0826     0.5721     3.6395 </r>
       <r>     9.2245     0.3799     3.6934 </r>
       <r>     9.3665     0.3470     3.7426 </r>
       <r>     9.5085     0.5035     3.8141 </r>
       <r>     9.6504     0.4248     3.8744 </r>
       <r>     9.7924     0.4302     3.9355 </r>
       <r>     9.9343     0.4507     3.9995 </r>
       <r>    10.0763     0.6296     4.0888 </r>
       <r>    10.2182     0.4497     4.1527 </r>
       <r>    10.3602     0.4944     4.2229 </r>
       <r>    10.5022     0.4273     4.2835 </r>
       <r>    10.6441     0.2748     4.3225 </r>
       <r>    10.7861     0.5359     4.3986 </r>
       <r>    10.9280     0.4275     4.4593 </r>
       <r>    11.0700     0.5860     4.5425 </r>
       <r>    11.2119     0.2553     4.5787 </r>
       <r>    11.3539     0.3992     4.6354 </r>
       <r>    11.4959     0.3653     4.6872 </r>
       <r>    11.6378     0.3884     4.7424 </r>
       <r>    11.7798     0.4292     4.8033 </r>
       <r>    11.9217     0.6889     4.9011 </r>
       <r>    12.0637     0.4760     4.9687 </r>
       <r>    12.2056     0.4549     5.0333 </r>
       <r>    12.3476     0.2640     5.0707 </r>
       <r>    12.4896     0.2669     5.1086 </r>
       <r>    12.6315     0.6593     5.2022 </r>
       <r>    12.7735     0.3951     5.2583 </r>
       <r>    12.9154     0.5588     5.3376 </r>
       <r>    13.0574     0.3156     5.3824 </r>
       <r>    13.1993     0.4699     5.4491 </r>
       <r>    13.3413     0.5908     5.5330 </r>
       <r>    13.4833     0.4290     5.5939 </r>
       <r>    13.6252     0.4766     5.6616 </r>
       <r>    13.7672     0.4110     5.7199 </r>
       <r>    13.9091     0.5169     5.7933 </r>
       <r>    14.0511     0.5770     5.8752 </r>
       <r>    14.1930     0.6270     5.9642 </r>
       <r>    14.3350     0.5295     6.0394 </r>
       <r>    14.4770     0.3472     6.0887 </r>
       <r>    14.6189     0.3809     6.1428 </r>
       <r>    14.7609     0.4691     6.2094 </r>
       <r>    14.9028     0.6625     6.3034 </r>
       <r>    15.0448     0.4433     6.3663 </r>
       <r>    15.1867     0.5773     6.4483 </r>
       <r>    15.3287     0.3614     6.4996 </r>
       <r>    15.4707     0.7060     6.5998 </r>
       <r>    15.6126     0.6743     6.6955 </r>
       <r>    15.7546     0.5101     6.7679 </r>
       <r>    15.8965     0.3886     6.8231 </r>
       <r>    16.0385     0.4670     6.8894 </r>
       <r>    16.1804     0.4641     6.9553 </r>
       <r>    16.3224     0.5646     7.0354 </r>
       <r>    16.4644     0.6376     7.1260 </r>
       <r>    16.6063     0.5909     7.2098 </r>
       <r>    16.7483     0.5937     7.2941 </r>
       <r>    16.8902     0.3656     7.3460 </r>
       <r>    17.0322     0.5826     7.4287 </r>
       <r>    17.1742     0.7000     7.5281 </r>
       <r>    17.3161     0.7579     7.6357 </r>
       <r>    17.4581     0.8576     7.7574 </r>
       <r>    17.6000     0.3760     7.8108 </r>
       <r>    17.7420     0.6445     7.9023 </r>
       <r>    17.8839     0.5363     7.9784 </r>
       <r>    18.0259     0.4644     8.0443 </r>
       <r>    18.1679     0.6271     8.1334 </r>
       <r>    18.3098     0.4566     8.1982 </r>
       <r>    18.4518     0.5462     8.2757 </r>
       <r>    18.5937     0.1315     8.2944 </r>
       <r>    18.7357     0.3018     8.3372 </r>
       <r>    18.8776     0.5019     8.4085 </r>
       <r>    19.0196     0.2072     8.4379 </r>
       <r>    19.1616     0.5208     8.5118 </r>
       <r>    19.3035     0.4965     8.5823 </r>
       <r>    19.4455     0.3656     8.6342 </r>
       <r>    19.5874     0.3789     8.6880 </r>
       <r>    19.7294     0.5098     8.7604 </r>
       <r>    19.8713     0.4424     8.8232 </r>
       <r>    20.0133     1.0213     8.9682 </r>
       <r>    20.1553     0.8622     9.0905 </r>
       <r>    20.2972     0.3851     9.1452 </r>
       <r>    20.4392     0.3491     9.1948 </r>
       <r>    20.5811     0.5317     9.2702 </r>
       <r>    20.7231     0.6646     9.3646 </r>
       <r>    20.8650     0.5042     9.4362 </r>
       <r>    21.0070     0.5841     9.5191 </r>
       <r>    21.1490     0.5024     9.5904 </r>
       <r>    21.2909     0.5768     9.6723 </r>
       <r>    21.4329     0.7834     9.7835 </r>
       <r>    21.5748     0.6881     9.8812 </r>
       <r>    21.7168     0.7301     9.9848 </r>
       <r>    21.8587     0.8186    10.1010 </r>
       <r>    22.0007     1.0884    10.2555 </r>
       <r>    22.1427     0.7556    10.3628 </r>
       <r>    22.2846     0.4689    10.4294 </r>
       <r>    22.4266     0.5693    10.5102 </r>
       <r>    22.5685     0.6507    10.6025 </r>
       <r>    22.7105     0.4999    10.6735 </r>
       <r>    22.8524     0.8569    10.7951 </r>
       <r>    22.9944     0.8164    10.9110 </r>
       <r>    23.1364     0.5886    10.9946 </r>
       <r>    23.2783     0.7195    11.0967 </r>
       <r>    23.4203     0.4866    11.1658 </r>
       <r>    23.5622     0.4634    11.2316 </r>
       <r>    23.7042     0.2905    11.2728 </r>
       <r>    23.8461     0.3703    11.3254 </r>
       <r>    23.9881     0.5883    11.4089 </r>
       <r>    24.1301     0.5092    11.4812 </r>
       <r>    24.2720     0.3687    11.5335 </r>
       <r>    24.4140     0.7745    11.6435 </r>
       <r>    24.5559     0.6753    11.7393 </r>
       <r>    24.6979     0.6308    11.8289 </r>
       <r>    24.8399     0.7276    11.9322 </r>
       <r>    24.9818     0.7036    12.0321 </r>
       <r>    25.1238     0.8918    12.1587 </r>
       <r>    25.2657     0.6424    12.2498 </r>
       <r>    25.4077     0.4004    12.3067 </r>
       <r>    25.5496     0.4266    12.3672 </r>
       <r>    25.6916     0.6566    12.4605 </r>
       <r>    25.8336     0.5623    12.5403 </r>
       <r>    25.9755     0.7371    12.6449 </r>
       <r>    26.1175     0.7409    12.7501 </r>
       <r>    26.2594     0.4394    12.8125 </r>
       <r>    26.4014     0.5899    12.8962 </r>
       <r>    26.5433     0.7498    13.0027 </r>
       <r>    26.6853     0.6881    13.1003 </r>
       <r>    26.8273     0.6894    13.1982 </r>
       <r>    26.9692     0.5312    13.2736 </r>
       <r>    27.1112     0.4592    13.3388 </r>
       <r>    27.2531     0.8251    13.4559 </r>
       <r>    27.3951     0.3307    13.5029 </r>
       <r>    27.5370     0.6518    13.5954 </r>
       <r>    27.6790     0.7002    13.6948 </r>
       <r>    27.8210     0.3794    13.7487 </r>
       <r>    27.9629     0.4757    13.8162 </r>
       <r>    28.1049     0.7763    13.9264 </r>
       <r>    28.2468     0.6800    14.0229 </r>
       <r>    28.3888     0.6032    14.1085 </r>
       <r>    28.5307     1.1167    14.2671 </r>
       <r>    28.6727     0.7973    14.3802 </r>
       <r>    28.8147     0.7128    14.4814 </r>
       <r>    28.9566     0.4855    14.5504 </r>
       <r>    29.0986     0.6965    14.6492 </r>
       <r>    29.2405     0.5237    14.7236 </r>
       <r>    29.3825     0.7367    14.8282 </r>
       <r>    29.5244     0.4797    14.8963 </r>
       <r>    29.6664     0.5528    14.9747 </r>
       <r>    29.8084     0.7504    15.0812 </r>
       <r>    29.9503     0.4896    15.1508 </r>
       <r>    30.0923     0.4448    15.2139 </r>
       <r>    30.2342     1.0104    15.3573 </r>
       <r>    30.3762     0.6844    15.4545 </r>
       <r>    30.5181     0.8288    15.5721 </r>
       <r>    30.6601     0.4403    15.6346 </r>
       <r>    30.8021     0.3554    15.6851 </r>
       <r>    30.9440     0.4291    15.7460 </r>
       <r>    31.0860     0.2389    15.7799 </r>
       <r>    31.2279     0.2547    15.8161 </r>
       <r>    31.3699     0.1162    15.8325 </r>
       <r>    31.5118     0.0932    15.8458 </r>
       <r>    31.6538     0.0502    15.8529 </r>
       <r>    31.7958     0.2425    15.8873 </r>
       <r>    31.9377     0.1733    15.9119 </r>
       <r>    32.0797     0.0965    15.9256 </r>
       <r>    32.2216     0.0651    15.9349 </r>
       <r>    32.3636     0.0803    15.9463 </r>
       <r>    32.5056     0.0163    15.9486 </r>
       <r>    32.6475     0.0615    15.9573 </r>
       <r>    32.7895     0.0066    15.9583 </r>
       <r>    32.9314     0.0271    15.9621 </r>
       <r>    33.0734     0.0589    15.9705 </r>
       <r>    33.2153     0.0320    15.9750 </r>
       <r>    33.3573     0.0223    15.9782 </r>
       <r>    33.4993     0.0643    15.9873 </r>
       <r>    33.6412     0.0482    15.9942 </r>
       <r>    33.7832     0.0000    15.9942 </r>
       <r>    33.9251     0.0000    15.9942 </r>
       <r>    34.0671     0.0000    15.9942 </r>
       <r>    34.2090     0.0026    15.9945 </r>
       <r>    34.3510     0.0196    15.9973 </r>
       <r>    34.4930     0.0189    16.0000 </r>
       <r>    34.6349     0.0001    16.0000 </r>
       <r>    34.7769     0.0000    16.0000 </r>
       <r>    34.9188     0.0000    16.0000 </r>
       <r>    35.0608     0.0000    16.0000 </r>
       <r>    35.2027     0.0000    16.0000 </r>
       <r>    35.3447     0.0000    16.0000 </r>
       <r>    35.4867     0.0000    16.0000 </r>
       <r>    35.6286     0.0000    16.0000 </r>
       <r>    35.7706     0.0000    16.0000 </r>
       <r>    35.9125     0.0000    16.0000 </r>
       <r>    36.0545     0.0000    16.0000 </r>
       <r>    36.1964     0.0000    16.0000 </r>
       <r>    36.3384     0.0000    16.0000 </r>
      </set>
     </set>
    </array>
   </total>
  </dos>
 </calculation>
 <structure name="finalpos" >
  <crystal>
   <varray name="basis" >
    <v>       1.54028540       1.54028540       1.54028540 </v>
    <v>       1.54028540      -1.54028540      -1.54028540 </v>
    <v>      -1.54028540       1.54028540      -1.54028540 </v>
   </varray>
   <i name="volume">     14.61717971 </i>
   <varray name="rec_basis" >
    <v>       0.32461517       0.32461517       0.00000000 </v>
    <v>       0.32461517       0.00000000      -0.32461517 </v>
    <v>       0.00000000       0.32461517      -0.32461517 </v>
   </varray>
  </crystal>
  <varray name="positions" >
   <v>      -0.00000000       0.00000000      -0.00000000 </v>
  </varray>
 </structure>
</modeling>
