unknown system                          
           1
     1.513326    1.513326    1.513326
     1.513326   -1.513326   -1.513326
    -1.513326    1.513326   -1.513326
   Si
     1
Direct configuration=     1
   0.00000000  0.00000000  0.00000000
unknown system                          
           1
     1.548222    1.548222    1.548222
     1.548222   -1.548222   -1.548222
    -1.548222    1.548222   -1.548222
   Si
     1
Direct configuration=     2
  -0.00000000  0.00000000 -0.00000000
unknown system                          
           1
     1.540285    1.540285    1.540285
     1.540285   -1.540285   -1.540285
    -1.540285    1.540285   -1.540285
   Si
     1
Direct configuration=     3
  -0.00000000  0.00000000 -0.00000000
