   2   2   0   0
  0.1952451E+02  0.3808100E-09  0.3808101E-09  0.3808100E-09  0.5000000E-15
  1.000000000000000E-004
  CAR 
 unknown system                          
     17.21981393     -7.13333768  301      6.26343249      1.00000000
     -7.133  0.0000E+00  0.0000E+00
     -7.052  0.0000E+00  0.0000E+00
     -6.971  0.0000E+00  0.0000E+00
     -6.890  0.0000E+00  0.0000E+00
     -6.809  0.0000E+00  0.0000E+00
     -6.727  0.0000E+00  0.0000E+00
     -6.646  0.0000E+00  0.0000E+00
     -6.565  0.0000E+00  0.0000E+00
     -6.484  0.0000E+00  0.0000E+00
     -6.403  0.0000E+00  0.0000E+00
     -6.322  0.1583E-19  0.1285E-20
     -6.240  0.2025E-12  0.1644E-13
     -6.159  0.2452E-07  0.1990E-08
     -6.078  0.2106E-04  0.1712E-05
     -5.997  0.3628E-03  0.3116E-04
     -5.916  0.1008E-02  0.1129E-03
     -5.835  0.1332E-02  0.2210E-03
     -5.753  0.1863E-02  0.3723E-03
     -5.672  0.1629E-02  0.5045E-03
     -5.591  0.2606E-02  0.7161E-03
     -5.510  0.2119E-02  0.8881E-03
     -5.429  0.2577E-02  0.1097E-02
     -5.347  0.2887E-02  0.1332E-02
     -5.266  0.3179E-02  0.1590E-02
     -5.185  0.3138E-02  0.1844E-02
     -5.104  0.2555E-02  0.2052E-02
     -5.023  0.4429E-02  0.2411E-02
     -4.942  0.3668E-02  0.2709E-02
     -4.860  0.3757E-02  0.3014E-02
     -4.779  0.2962E-02  0.3254E-02
     -4.698  0.5304E-02  0.3685E-02
     -4.617  0.4084E-02  0.4017E-02
     -4.536  0.4590E-02  0.4389E-02
     -4.454  0.4795E-02  0.4778E-02
     -4.373  0.4641E-02  0.5155E-02
     -4.292  0.3944E-02  0.5475E-02
     -4.211  0.6439E-02  0.5998E-02
     -4.130  0.6361E-02  0.6514E-02
     -4.049  0.5059E-02  0.6925E-02
     -3.967  0.5109E-02  0.7340E-02
     -3.886  0.6126E-02  0.7837E-02
     -3.805  0.6969E-02  0.8403E-02
     -3.724  0.7828E-02  0.9038E-02
     -3.643  0.7187E-02  0.9622E-02
     -3.562  0.9382E-02  0.1038E-01
     -3.480  0.9586E-02  0.1116E-01
     -3.399  0.4248E-02  0.1151E-01
     -3.318  0.9452E-02  0.1227E-01
     -3.237  0.8556E-02  0.1297E-01
     -3.156  0.7403E-02  0.1357E-01
     -3.074  0.6243E-02  0.1408E-01
     -2.993  0.8195E-02  0.1474E-01
     -2.912  0.7561E-02  0.1535E-01
     -2.831  0.3415E-02  0.1563E-01
     -2.750  0.4141E-02  0.1597E-01
     -2.669  0.7158E-02  0.1655E-01
     -2.587  0.8120E-02  0.1721E-01
     -2.506  0.5921E-02  0.1769E-01
     -2.425  0.4786E-02  0.1808E-01
     -2.344  0.2673E-02  0.1829E-01
     -2.263  0.2331E-02  0.1848E-01
     -2.182  0.2748E-02  0.1871E-01
     -2.100  0.5944E-02  0.1919E-01
     -2.019  0.5229E-02  0.1961E-01
     -1.938  0.2929E-02  0.1985E-01
     -1.857  0.1760E-02  0.1999E-01
     -1.776  0.7034E-04  0.2000E-01
     -1.694  0.3994E-07  0.2000E-01
     -1.613  0.5354E-07  0.2000E-01
     -1.532  0.9094E-04  0.2001E-01
     -1.451  0.2776E-02  0.2023E-01
     -1.370  0.7002E-02  0.2080E-01
     -1.289  0.4020E-02  0.2113E-01
     -1.207  0.2041E-02  0.2129E-01
     -1.126  0.2464E-02  0.2149E-01
     -1.045  0.1758E-02  0.2164E-01
     -0.964  0.4791E-02  0.2202E-01
     -0.883  0.1045E-01  0.2287E-01
     -0.802  0.1931E-01  0.2444E-01
     -0.720  0.1597E-01  0.2574E-01
     -0.639  0.1017E-01  0.2656E-01
     -0.558  0.7030E-02  0.2713E-01
     -0.477  0.8653E-02  0.2784E-01
     -0.396  0.8795E-02  0.2855E-01
     -0.314  0.3796E-02  0.2886E-01
     -0.233  0.6904E-02  0.2942E-01
     -0.152  0.1119E-01  0.3033E-01
     -0.071  0.5754E-02  0.3079E-01
      0.010  0.1905E-02  0.3095E-01
      0.091  0.4457E-02  0.3131E-01
      0.173  0.7895E-02  0.3195E-01
      0.254  0.4849E-02  0.3234E-01
      0.335  0.2035E-02  0.3251E-01
      0.416  0.1266E-02  0.3261E-01
      0.497  0.6199E-02  0.3312E-01
      0.578  0.8557E-02  0.3381E-01
      0.660  0.2784E-02  0.3404E-01
      0.741  0.9058E-03  0.3411E-01
      0.822  0.1726E-02  0.3425E-01
      0.903  0.3777E-02  0.3456E-01
      0.984  0.6298E-02  0.3507E-01
      1.066  0.2600E-02  0.3528E-01
      1.147  0.1240E-02  0.3538E-01
      1.228  0.5591E-03  0.3542E-01
      1.309  0.3242E-02  0.3569E-01
      1.390  0.5454E-02  0.3613E-01
      1.471  0.3893E-02  0.3645E-01
      1.553  0.4030E-03  0.3648E-01
      1.634  0.3610E-02  0.3677E-01
      1.715  0.6488E-02  0.3730E-01
      1.796  0.7021E-02  0.3787E-01
      1.877  0.1456E-01  0.3905E-01
      1.959  0.1387E-01  0.4018E-01
      2.040  0.8858E-02  0.4090E-01
      2.121  0.8362E-02  0.4158E-01
      2.202  0.9251E-02  0.4233E-01
      2.283  0.1307E-01  0.4339E-01
      2.364  0.1094E-01  0.4428E-01
      2.446  0.1003E-01  0.4509E-01
      2.527  0.7921E-02  0.4573E-01
      2.608  0.8762E-02  0.4644E-01
      2.689  0.1076E-01  0.4732E-01
      2.770  0.1394E-01  0.4845E-01
      2.851  0.9175E-02  0.4919E-01
      2.933  0.1193E-01  0.5016E-01
      3.014  0.1318E-01  0.5123E-01
      3.095  0.1077E-01  0.5211E-01
      3.176  0.1238E-01  0.5311E-01
      3.257  0.1454E-01  0.5429E-01
      3.339  0.1752E-01  0.5571E-01
      3.420  0.1446E-01  0.5689E-01
      3.501  0.1477E-01  0.5809E-01
      3.582  0.1228E-01  0.5908E-01
      3.663  0.1332E-01  0.6016E-01
      3.744  0.1337E-01  0.6125E-01
      3.826  0.1439E-01  0.6242E-01
      3.907  0.1563E-01  0.6369E-01
      3.988  0.1092E-01  0.6457E-01
      4.069  0.1104E-01  0.6547E-01
      4.150  0.1416E-01  0.6662E-01
      4.231  0.1295E-01  0.6767E-01
      4.313  0.1178E-01  0.6863E-01
      4.394  0.9982E-02  0.6944E-01
      4.475  0.1490E-01  0.7065E-01
      4.556  0.9537E-02  0.7142E-01
      4.637  0.1268E-01  0.7245E-01
      4.719  0.1207E-01  0.7343E-01
      4.800  0.8397E-02  0.7411E-01
      4.881  0.9226E-02  0.7486E-01
      4.962  0.1208E-01  0.7584E-01
      5.043  0.8431E-02  0.7653E-01
      5.124  0.5162E-02  0.7694E-01
      5.206  0.4834E-02  0.7734E-01
      5.287  0.5380E-02  0.7777E-01
      5.368  0.4893E-02  0.7817E-01
      5.449  0.5381E-02  0.7861E-01
      5.530  0.3283E-02  0.7887E-01
      5.611  0.2807E-02  0.7910E-01
      5.693  0.3140E-02  0.7936E-01
      5.774  0.1947E-02  0.7951E-01
      5.855  0.2843E-02  0.7975E-01
      5.936  0.1446E-02  0.7986E-01
      6.017  0.1051E-02  0.7995E-01
      6.099  0.6038E-03  0.8000E-01
      6.180  0.3471E-04  0.8000E-01
      6.261  0.3258E-07  0.8000E-01
      6.342  0.2148E-12  0.8000E-01
      6.423  0.8785E-17  0.8000E-01
      6.504  0.3880E-10  0.8000E-01
      6.586  0.1112E-05  0.8000E-01
      6.667  0.2941E-03  0.8002E-01
      6.748  0.1812E-02  0.8017E-01
      6.829  0.1209E-02  0.8027E-01
      6.910  0.1573E-02  0.8040E-01
      6.991  0.5089E-02  0.8081E-01
      7.073  0.3015E-02  0.8105E-01
      7.154  0.4528E-02  0.8142E-01
      7.235  0.4413E-02  0.8178E-01
      7.316  0.3044E-02  0.8203E-01
      7.397  0.4411E-02  0.8239E-01
      7.479  0.7961E-02  0.8303E-01
      7.560  0.8478E-02  0.8372E-01
      7.641  0.3611E-02  0.8401E-01
      7.722  0.6301E-02  0.8452E-01
      7.803  0.8256E-02  0.8520E-01
      7.884  0.9377E-02  0.8596E-01
      7.966  0.6804E-02  0.8651E-01
      8.047  0.1111E-01  0.8741E-01
      8.128  0.1185E-01  0.8837E-01
      8.209  0.1100E-01  0.8927E-01
      8.290  0.1234E-01  0.9027E-01
      8.372  0.1802E-01  0.9173E-01
      8.453  0.1624E-01  0.9305E-01
      8.534  0.1184E-01  0.9401E-01
      8.615  0.1457E-01  0.9519E-01
      8.696  0.1446E-01  0.9637E-01
      8.777  0.1688E-01  0.9774E-01
      8.859  0.1142E-01  0.9866E-01
      8.940  0.1116E-01  0.9957E-01
      9.021  0.1127E-01  0.1005E+00
      9.102  0.1032E-01  0.1013E+00
      9.183  0.1157E-01  0.1023E+00
      9.264  0.1170E-01  0.1032E+00
      9.346  0.1497E-01  0.1044E+00
      9.427  0.2425E-01  0.1064E+00
      9.508  0.1774E-01  0.1078E+00
      9.589  0.1766E-01  0.1093E+00
      9.670  0.2136E-01  0.1110E+00
      9.752  0.1589E-01  0.1123E+00
      9.833  0.1668E-01  0.1136E+00
      9.914  0.1307E-01  0.1147E+00
      9.995  0.1196E-01  0.1157E+00
     10.076  0.1578E-01  0.1170E+00
     10.157  0.1394E-01  0.1181E+00
     10.239  0.1408E-01  0.1192E+00
     10.320  0.1337E-01  0.1203E+00
     10.401  0.1167E-01  0.1213E+00
     10.482  0.1162E-01  0.1222E+00
     10.563  0.1157E-01  0.1231E+00
     10.644  0.1154E-01  0.1241E+00
     10.726  0.1365E-01  0.1252E+00
     10.807  0.1212E-01  0.1262E+00
     10.888  0.1176E-01  0.1271E+00
     10.969  0.1257E-01  0.1282E+00
     11.050  0.9411E-02  0.1289E+00
     11.132  0.1335E-01  0.1300E+00
     11.213  0.1544E-01  0.1313E+00
     11.294  0.1175E-01  0.1322E+00
     11.375  0.6790E-02  0.1328E+00
     11.456  0.1452E-01  0.1339E+00
     11.537  0.1541E-01  0.1352E+00
     11.619  0.9784E-02  0.1360E+00
     11.700  0.8212E-02  0.1366E+00
     11.781  0.8116E-02  0.1373E+00
     11.862  0.1356E-01  0.1384E+00
     11.943  0.1240E-01  0.1394E+00
     12.024  0.7178E-02  0.1400E+00
     12.106  0.1177E-01  0.1410E+00
     12.187  0.1456E-01  0.1421E+00
     12.268  0.9650E-02  0.1429E+00
     12.349  0.7624E-02  0.1435E+00
     12.430  0.1093E-01  0.1444E+00
     12.512  0.1009E-01  0.1452E+00
     12.593  0.5960E-02  0.1457E+00
     12.674  0.5532E-02  0.1462E+00
     12.755  0.8608E-02  0.1469E+00
     12.836  0.1222E-01  0.1479E+00
     12.917  0.1115E-01  0.1488E+00
     12.999  0.9625E-02  0.1496E+00
     13.080  0.9570E-02  0.1503E+00
     13.161  0.8662E-02  0.1510E+00
     13.242  0.6035E-02  0.1515E+00
     13.323  0.2159E-02  0.1517E+00
     13.404  0.5296E-02  0.1521E+00
     13.486  0.6688E-02  0.1527E+00
     13.567  0.6239E-02  0.1532E+00
     13.648  0.8946E-02  0.1539E+00
     13.729  0.6558E-02  0.1544E+00
     13.810  0.9603E-02  0.1552E+00
     13.892  0.5716E-02  0.1557E+00
     13.973  0.3941E-02  0.1560E+00
     14.054  0.3822E-02  0.1563E+00
     14.135  0.3276E-02  0.1566E+00
     14.216  0.5138E-02  0.1570E+00
     14.297  0.2792E-02  0.1572E+00
     14.379  0.9377E-03  0.1573E+00
     14.460  0.3214E-02  0.1576E+00
     14.541  0.8660E-02  0.1583E+00
     14.622  0.4226E-02  0.1586E+00
     14.703  0.1466E-02  0.1587E+00
     14.784  0.3479E-03  0.1587E+00
     14.866  0.1869E-05  0.1588E+00
     14.947  0.2437E-03  0.1588E+00
     15.028  0.2433E-02  0.1590E+00
     15.109  0.9564E-03  0.1590E+00
     15.190  0.6166E-03  0.1591E+00
     15.272  0.1425E-02  0.1592E+00
     15.353  0.4602E-02  0.1596E+00
     15.434  0.1482E-02  0.1597E+00
     15.515  0.2155E-03  0.1597E+00
     15.596  0.1243E-05  0.1597E+00
     15.677  0.5747E-10  0.1597E+00
     15.759  0.4949E-07  0.1597E+00
     15.840  0.7220E-04  0.1597E+00
     15.921  0.1153E-02  0.1598E+00
     16.002  0.5700E-03  0.1599E+00
     16.083  0.8131E-03  0.1599E+00
     16.165  0.7518E-03  0.1600E+00
     16.246  0.6190E-04  0.1600E+00
     16.327  0.7352E-07  0.1600E+00
     16.408  0.6074E-12  0.1600E+00
     16.489  0.0000E+00  0.1600E+00
     16.570  0.0000E+00  0.1600E+00
     16.652  0.0000E+00  0.1600E+00
     16.733  0.0000E+00  0.1600E+00
     16.814  0.0000E+00  0.1600E+00
     16.895  0.0000E+00  0.1600E+00
     16.976  0.0000E+00  0.1600E+00
     17.057  0.0000E+00  0.1600E+00
     17.139  0.0000E+00  0.1600E+00
     17.220  0.0000E+00  0.1600E+00
