    2    2  100    1
  0.1952451E+02  0.3808100E-09  0.3808101E-09  0.3808100E-09  0.5000000E-15
  1.000000000000000E-004
  CAR 
 unknown system                          
      8    182      8
 
  0.4166667E-01  0.4166667E-01  0.4166667E-01  0.1157407E-02
    1       -6.026376   1.000000
    2        5.828081   1.000000
    3        6.043300   1.000000
    4        6.043302   1.000000
    5        8.718964   0.000000
    6        8.718971   0.000000
    7        8.719449   0.000000
    8        9.902748   0.000000
 
  0.1250000E+00  0.4166667E-01  0.4166667E-01  0.3472222E-02
    1       -5.902544   1.000000
    2        4.940061   1.000000
    3        5.608634   1.000000
    4        5.991336   1.000000
    5        8.832456   0.000000
    6        8.838336   0.000000
    7        9.062498   0.000000
    8       10.670185   0.000000
 
  0.2083333E+00  0.4166667E-01  0.4166667E-01  0.3472222E-02
    1       -5.596728   1.000000
    2        3.410342   1.000000
    3        5.233073   1.000000
    4        5.716689   1.000000
    5        8.606979   0.000000
    6        9.234128   0.000000
    7        9.549083   0.000000
    8       11.952636   0.000000
 
  0.2916667E+00  0.4166667E-01  0.4166667E-01  0.3472222E-02
    1       -5.121598   1.000000
    2        1.863738   1.000000
    3        4.933539   1.000000
    4        5.394419   1.000000
    5        8.306172   0.000000
    6        9.512607   0.000000
    7        9.773739   0.000000
    8       12.978091   0.000000
 
  0.3750000E+00  0.4166667E-01  0.4166667E-01  0.3472222E-02
    1       -4.512368   1.000000
    2        0.467637   1.000000
    3        4.739587   1.000000
    4        5.116565   1.000000
    5        8.062650   0.000000
    6        9.528503   0.000000
    7        9.667305   0.000000
    8       13.820467   0.000000
 
  0.4583333E+00  0.4166667E-01  0.4166667E-01  0.3472222E-02
    1       -3.887243   1.000000
    2       -0.617122   1.000000
    3        4.659643   1.000000
    4        4.918215   1.000000
    5        7.916890   0.000000
    6        9.476017   0.000000
    7        9.479179   0.000000
    8       13.979851   0.000000
 
 -0.4583333E+00  0.4166667E-01  0.4166667E-01  0.3472222E-02
    1       -3.644791   1.000000
    2       -0.975443   1.000000
    3        4.690950   1.000000
    4        4.814955   1.000000
    5        7.880929   0.000000
    6        9.372005   0.000000
    7        9.506964   0.000000
    8       13.939975   0.000000
 
 -0.3750000E+00  0.4166667E-01  0.4166667E-01  0.3472222E-02
    1       -4.081381   1.000000
    2       -0.307657   1.000000
    3        4.816253   1.000000
    4        4.826148   1.000000
    5        7.956377   0.000000
    6        9.384124   0.000000
    7        9.649465   0.000000
    8       13.893359   0.000000
 
 -0.2916667E+00  0.4166667E-01  0.4166667E-01  0.3472222E-02
    1       -4.725992   1.000000
    2        0.908283   1.000000
    3        4.928314   1.000000
    4        5.055182   1.000000
    5        8.137547   0.000000
    6        9.449814   0.000000
    7        9.829704   0.000000
    8       13.098508   0.000000
 
 -0.2083333E+00  0.4166667E-01  0.4166667E-01  0.3472222E-02
    1       -5.297272   1.000000
    2        2.368653   1.000000
    3        5.150115   1.000000
    4        5.359408   1.000000
    5        8.401876   0.000000
    6        9.371820   0.000000
    7        9.848293   0.000000
    8       12.348467   0.000000
 
 -0.1250000E+00  0.4166667E-01  0.4166667E-01  0.3472222E-02
    1       -5.718303   1.000000
    2        3.939391   1.000000
    3        5.463673   1.000000
    4        5.690968   1.000000
    5        8.655397   0.000000
    6        9.056018   0.000000
    7        9.521223   0.000000
    8       11.483059   0.000000
 
 -0.4166667E-01  0.4166667E-01  0.4166667E-01  0.3472222E-02
    1       -5.964336   1.000000
    2        5.411108   1.000000
    3        5.809953   1.000000
    4        5.921616   1.000000
    5        8.577304   0.000000
    6        8.949275   0.000000
    7        9.025330   0.000000
    8       10.265228   0.000000
 
  0.1250000E+00  0.1250000E+00  0.4166667E-01  0.3472222E-02
    1       -5.840499   1.000000
    2        4.867474   1.000000
    3        5.453167   1.000000
    4        5.570094   1.000000
    5        8.330226   0.000000
    6        9.400142   0.000000
    7        9.528411   0.000000
    8       10.722711   0.000000
 
  0.2083333E+00  0.1250000E+00  0.4166667E-01  0.6944444E-02
    1       -5.594896   1.000000
    2        3.816274   1.000000
    3        4.848066   1.000000
    4        5.424246   1.000000
    5        8.345564   0.000000
    6        9.626652   0.000000
    7       10.044788   0.000000
    8       11.133719   0.000000
 
  0.2916667E+00  0.1250000E+00  0.4166667E-01  0.6944444E-02
    1       -5.174672   1.000000
    2        2.360978   1.000000
    3        4.464457   1.000000
    4        5.125712   1.000000
    5        8.567121   0.000000
    6        9.566968   0.000000
    7       10.420000   0.000000
    8       11.232195   0.000000
 
  0.3750000E+00  0.1250000E+00  0.4166667E-01  0.6944444E-02
    1       -4.604194   1.000000
    2        0.946082   1.000000
    3        4.205516   1.000000
    4        4.812395   1.000000
    5        8.543585   0.000000
    6        9.508510   0.000000
    7       10.400136   0.000000
    8       11.848726   0.000000
 
  0.4583333E+00  0.1250000E+00  0.4166667E-01  0.6944444E-02
    1       -3.959377   1.000000
    2       -0.249764   1.000000
    3        4.027435   1.000000
    4        4.611731   1.000000
    5        8.448025   0.000000
    6        9.381530   0.000000
    7       10.211240   0.000000
    8       13.015604   0.000000
 
 -0.4583333E+00  0.1250000E+00  0.4166667E-01  0.6944444E-02
    1       -3.521171   1.000000
    2       -0.911748   1.000000
    3        3.902226   1.000000
    4        4.586106   1.000000
    5        8.425007   0.000000
    6        9.310791   0.000000
    7       10.066732   0.000000
    8       14.179537   0.000000
 
 -0.3750000E+00  0.1250000E+00  0.4166667E-01  0.6944444E-02
    1       -3.766021   1.000000
    2       -0.553408   1.000000
    3        3.849160   1.000000
    4        4.726405   1.000000
    5        8.498719   0.000000
    6        9.346147   0.000000
    7       10.048931   0.000000
    8       13.866293   0.000000
 
 -0.2916667E+00  0.1250000E+00  0.4166667E-01  0.6944444E-02
    1       -4.392206   1.000000
    2        0.517915   1.000000
    3        3.905776   1.000000
    4        4.990123   1.000000
    5        8.657117   0.000000
    6        9.445637   0.000000
    7       10.139007   0.000000
    8       12.665369   0.000000
 
 -0.2083333E+00  0.1250000E+00  0.4166667E-01  0.6944444E-02
    1       -5.000488   1.000000
    2        1.874849   1.000000
    3        4.101421   1.000000
    4        5.326384   1.000000
    5        8.858165   0.000000
    6        9.435629   0.000000
    7       10.179206   0.000000
    8       11.805535   0.000000
 
 -0.1250000E+00  0.1250000E+00  0.4166667E-01  0.6944444E-02
    1       -5.474372   1.000000
    2        3.303928   1.000000
    3        4.484587   1.000000
    4        5.651556   1.000000
    5        8.858225   0.000000
    6        9.324357   0.000000
    7        9.863308   0.000000
    8       11.537897   0.000000
 
 -0.4166667E-01  0.1250000E+00  0.4166667E-01  0.6944444E-02
    1       -5.779240   1.000000
    2        4.393027   1.000000
    3        5.249413   1.000000
    4        5.808394   1.000000
    5        8.628909   0.000000
    6        9.162395   0.000000
    7        9.451066   0.000000
    8       11.137813   0.000000
 
  0.2083333E+00  0.2083333E+00  0.4166667E-01  0.3472222E-02
    1       -5.409598   1.000000
    2        3.577972   1.000000
    3        4.675911   1.000000
    4        4.696079   1.000000
    5        7.715763   0.000000
    6       10.210021   0.000000
    7       10.758930   0.000000
    8       10.806395   0.000000
 
  0.2916667E+00  0.2083333E+00  0.4166667E-01  0.6944444E-02
    1       -5.046709   1.000000
    2        2.596864   1.000000
    3        4.076273   1.000000
    4        4.512896   1.000000
    5        7.751051   0.000000
    6        9.788164   0.000000
    7       10.985076   0.000000
    8       11.425540   0.000000
 
  0.3750000E+00  0.2083333E+00  0.4166667E-01  0.6944444E-02
    1       -4.523095   1.000000
    2        1.354788   1.000000
    3        3.620260   1.000000
    4        4.238802   1.000000
    5        8.013636   0.000000
    6       10.004427   0.000000
    7       10.792851   0.000000
    8       11.616576   0.000000
 
  0.4583333E+00  0.2083333E+00  0.4166667E-01  0.6944444E-02
    1       -3.887808   1.000000
    2        0.165309   1.000000
    3        3.223757   1.000000
    4        4.095445   1.000000
    5        8.082784   0.000000
    6       10.504715   0.000000
    7       11.037909   0.000000
    8       11.473895   0.000000
 
 -0.4583333E+00  0.2083333E+00  0.4166667E-01  0.6944444E-02
    1       -3.322377   1.000000
    2       -0.689589   1.000000
    3        2.906784   1.000000
    4        4.133518   1.000000
    5        8.164176   0.000000
    6       10.273360   0.000000
    7       11.277415   0.000000
    8       12.490384   0.000000
 
 -0.3750000E+00  0.2083333E+00  0.4166667E-01  0.6944444E-02
    1       -3.333001   1.000000
    2       -0.670863   1.000000
    3        2.717206   1.000000
    4        4.330246   1.000000
    5        8.374243   0.000000
    6       10.115283   0.000000
    7       11.149945   0.000000
    8       13.825303   0.000000
 
 -0.2916667E+00  0.2083333E+00  0.4166667E-01  0.6944444E-02
    1       -3.904365   1.000000
    2        0.197225   1.000000
    3        2.700032   1.000000
    4        4.651199   1.000000
    5        8.709678   0.000000
    6       10.020698   0.000000
    7       11.077944   0.000000
    8       12.445418   0.000000
 
 -0.2083333E+00  0.2083333E+00  0.4166667E-01  0.6944444E-02
    1       -4.536780   1.000000
    2        1.329279   1.000000
    3        2.943010   1.000000
    4        5.041806   1.000000
    5        9.097643   0.000000
    6        9.798527   0.000000
    7       10.897496   0.000000
    8       11.508912   0.000000
 
 -0.1250000E+00  0.2083333E+00  0.4166667E-01  0.6944444E-02
    1       -5.056282   1.000000
    2        2.269182   1.000000
    3        3.687430   1.000000
    4        5.394324   1.000000
    5        9.195612   0.000000
    6        9.394912   0.000000
    7       10.332557   0.000000
    8       11.430485   0.000000
 
 -0.4166667E-01  0.2083333E+00  0.4166667E-01  0.6944444E-02
    1       -5.415187   1.000000
    2        2.879208   1.000000
    3        4.862701   1.000000
    4        5.522644   1.000000
    5        8.682140   0.000000
    6        9.253658   0.000000
    7        9.913376   0.000000
    8       11.839840   0.000000
 
  0.2916667E+00  0.2916667E+00  0.4166667E-01  0.3472222E-02
    1       -4.740897   1.000000
    2        2.140614   1.000000
    3        3.950843   1.000000
    4        4.005366   1.000000
    5        7.160526   0.000000
    6        8.947815   0.000000
    7       12.175486   0.000000
    8       12.239514   0.000000
 
  0.3750000E+00  0.2916667E+00  0.4166667E-01  0.6944444E-02
    1       -4.268563   1.000000
    2        1.276606   1.000000
    3        3.442714   1.000000
    4        3.770934   1.000000
    5        7.277309   0.000000
    6        8.624287   0.000000
    7       12.327499   0.000000
    8       12.935573   0.000000
 
  0.4583333E+00  0.2916667E+00  0.4166667E-01  0.6944444E-02
    1       -3.661461   1.000000
    2        0.312240   1.000000
    3        2.791929   1.000000
    4        3.638302   1.000000
    5        7.511246   0.000000
    6        9.181459   0.000000
    7       12.103359   0.000000
    8       13.017030   0.000000
 
 -0.4583333E+00  0.2916667E+00  0.4166667E-01  0.6944444E-02
    1       -3.031628   1.000000
    2       -0.538754   1.000000
    3        2.229495   1.000000
    4        3.680198   1.000000
    5        7.625573   0.000000
    6       10.458562   0.000000
    7       11.833022   0.000000
    8       12.853180   0.000000
 
 -0.3750000E+00  0.2916667E+00  0.4166667E-01  0.6944444E-02
    1       -2.816367   1.000000
    2       -0.792229   1.000000
    3        1.879367   1.000000
    4        3.880873   1.000000
    5        7.851834   0.000000
    6       11.423888   0.000000
    7       12.164757   0.000000
    8       12.736356   0.000000
 
 -0.2916667E+00  0.2916667E+00  0.4166667E-01  0.6944444E-02
    1       -3.299805   1.000000
    2       -0.198675   1.000000
    3        1.837056   1.000000
    4        4.214645   1.000000
    5        8.227247   0.000000
    6       11.202275   0.000000
    7       12.318615   0.000000
    8       12.476768   0.000000
 
 -0.2083333E+00  0.2916667E+00  0.4166667E-01  0.6944444E-02
    1       -3.937538   1.000000
    2        0.502800   1.000000
    3        2.308051   1.000000
    4        4.632302   1.000000
    5        8.695988   0.000000
    6       10.440725   0.000000
    7       11.566588   0.000000
    8       11.881297   0.000000
 
 -0.1250000E+00  0.2916667E+00  0.4166667E-01  0.6944444E-02
    1       -4.487925   1.000000
    2        0.971244   1.000000
    3        3.356955   1.000000
    4        5.026285   1.000000
    5        8.973781   0.000000
    6        9.585869   0.000000
    7       10.528063   0.000000
    8       11.994156   0.000000
 
 -0.4166667E-01  0.2916667E+00  0.4166667E-01  0.6944444E-02
    1       -4.889765   1.000000
    2        1.387232   1.000000
    3        4.593469   1.000000
    4        5.195242   1.000000
    5        8.457717   0.000000
    6        9.422477   0.000000
    7       10.008363   0.000000
    8       12.392951   0.000000
 
  0.3750000E+00  0.3750000E+00  0.4166667E-01  0.3472222E-02
    1       -3.847065   1.000000
    2        0.659258   1.000000
    3        3.423773   1.000000
    4        3.518565   1.000000
    5        6.798984   0.000000
    6        7.869375   0.000000
    7       13.729832   0.000000
    8       13.746640   0.000000
 
  0.4583333E+00  0.3750000E+00  0.4166667E-01  0.6944444E-02
    1       -3.278459   1.000000
    2       -0.105754   1.000000
    3        3.009058   1.000000
    4        3.311128   1.000000
    5        7.011136   0.000000
    6        7.780056   0.000000
    7       13.765313   0.000000
    8       14.520997   0.000000
 
 -0.4583333E+00  0.3750000E+00  0.4166667E-01  0.6944444E-02
    1       -2.629259   1.000000
    2       -0.827688   1.000000
    3        2.267975   1.000000
    4        3.328668   1.000000
    5        7.199888   0.000000
    6        8.732338   0.000000
    7       13.496745   0.000000
    8       14.549010   0.000000
 
 -0.3750000E+00  0.3750000E+00  0.4166667E-01  0.6944444E-02
    1       -2.265728   1.000000
    2       -1.169580   1.000000
    3        1.701432   1.000000
    4        3.508570   1.000000
    5        7.412464   0.000000
    6       10.250733   0.000000
    7       13.156124   0.000000
    8       14.050033   0.000000
 
 -0.2916667E+00  0.3750000E+00  0.4166667E-01  0.6944444E-02
    1       -2.701496   1.000000
    2       -0.762996   1.000000
    3        1.603690   1.000000
    4        3.830367   1.000000
    5        7.784124   0.000000
    6       11.786707   0.000000
    7       12.368131   0.000000
    8       13.157688   0.000000
 
 -0.2083333E+00  0.3750000E+00  0.4166667E-01  0.6944444E-02
    1       -3.306626   1.000000
    2       -0.411996   1.000000
    3        2.184777   1.000000
    4        4.253720   1.000000
    5        8.280236   0.000000
    6       10.682103   0.000000
    7       11.783830   0.000000
    8       13.079448   0.000000
 
 -0.1250000E+00  0.3750000E+00  0.4166667E-01  0.6944444E-02
    1       -3.843305   1.000000
    2       -0.193823   1.000000
    3        3.258141   1.000000
    4        4.685020   1.000000
    5        8.687911   0.000000
    6        9.583613   0.000000
    7       10.526358   0.000000
    8       13.169337   0.000000
 
 -0.4166667E-01  0.3750000E+00  0.4166667E-01  0.6944444E-02
    1       -4.254061   1.000000
    2        0.078635   1.000000
    3        4.437394   1.000000
    4        4.924974   1.000000
    5        8.258448   0.000000
    6        9.387822   0.000000
    7        9.849325   0.000000
    8       13.388961   0.000000
 
  0.4583333E+00  0.4583333E+00  0.4166667E-01  0.3472222E-02
    1       -2.748334   1.000000
    2       -0.786703   1.000000
    3        3.128447   1.000000
    4        3.242094   1.000000
    5        6.693698   0.000000
    6        7.150708   0.000000
    7       15.304794   0.000000
    8       15.337878   0.000000
 
 -0.4583333E+00  0.4583333E+00  0.4166667E-01  0.6944444E-02
    1       -2.106421   1.000000
    2       -1.460469   1.000000
    3        2.817199   1.000000
    4        3.119778   1.000000
    5        6.955752   0.000000
    6        7.353327   0.000000
    7       15.273809   0.000000
    8       15.900803   0.000000
 
 -0.3750000E+00  0.4583333E+00  0.4166667E-01  0.6944444E-02
    1       -2.093119   1.000000
    2       -1.389380   1.000000
    3        2.162153   1.000000
    4        3.267946   1.000000
    5        7.134750   0.000000
    6        8.644249   0.000000
    7       14.211023   0.000000
    8       15.007374   0.000000
 
 -0.2916667E+00  0.4583333E+00  0.4166667E-01  0.6944444E-02
    1       -2.600536   1.000000
    2       -0.884958   1.000000
    3        1.884442   1.000000
    4        3.565572   1.000000
    5        7.484542   0.000000
    6       10.320256   0.000000
    7       12.497273   0.000000
    8       13.596100   0.000000
 
 -0.2083333E+00  0.4583333E+00  0.4166667E-01  0.6944444E-02
    1       -3.033979   1.000000
    2       -0.782407   1.000000
    3        2.343967   1.000000
    4        3.981743   1.000000
    5        7.982624   0.000000
    6       10.852418   0.000000
    7       11.894014   0.000000
    8       12.375424   0.000000
 
 -0.1250000E+00  0.4583333E+00  0.4166667E-01  0.6944444E-02
    1       -3.399611   1.000000
    2       -0.856011   1.000000
    3        3.316614   1.000000
    4        4.441483   1.000000
    5        8.467929   0.000000
    6        9.612073   0.000000
    7       10.560073   0.000000
    8       14.210908   0.000000
 
 -0.4166667E-01  0.4583333E+00  0.4166667E-01  0.6944444E-02
    1       -3.691690   1.000000
    2       -0.826655   1.000000
    3        4.376264   1.000000
    4        4.767074   1.000000
    5        8.151588   0.000000
    6        9.326827   0.000000
    7        9.701874   0.000000
    8       14.065940   0.000000
 
 -0.4583333E+00 -0.4583333E+00  0.4166667E-01  0.3472222E-02
    1       -2.131314   1.000000
    2       -1.475090   1.000000
    3        3.069199   1.000000
    4        3.186373   1.000000
    5        6.738543   0.000000
    6        6.939807   0.000000
    7       16.047156   0.000000
    8       16.112852   0.000000
 
 -0.3750000E+00 -0.4583333E+00  0.4166667E-01  0.6944444E-02
    1       -2.712463   1.000000
    2       -0.792473   1.000000
    3        2.881476   1.000000
    4        3.183196   1.000000
    5        6.962984   0.000000
    6        7.507266   0.000000
    7       14.514678   0.000000
    8       15.323575   0.000000
 
 -0.2916667E+00 -0.4583333E+00  0.4166667E-01  0.6944444E-02
    1       -3.162554   1.000000
    2       -0.248129   1.000000
    3        2.479596   1.000000
    4        3.451121   1.000000
    5        7.327069   0.000000
    6        8.910371   0.000000
    7       12.788240   0.000000
    8       13.776148   0.000000
 
 -0.2083333E+00 -0.4583333E+00  0.4166667E-01  0.6944444E-02
    1       -3.470730   1.000000
    2       -0.189893   1.000000
    3        2.694951   1.000000
    4        3.854706   1.000000
    5        7.829655   0.000000
    6       10.650541   0.000000
    7       11.215530   0.000000
    8       12.135234   0.000000
 
 -0.1250000E+00 -0.4583333E+00  0.4166667E-01  0.6944444E-02
    1       -3.641654   1.000000
    2       -0.509055   1.000000
    3        3.493949   1.000000
    4        4.340036   1.000000
    5        8.360763   0.000000
    6        9.742203   0.000000
    7       10.694721   0.000000
    8       12.716196   0.000000
 
 -0.3750000E+00 -0.3750000E+00  0.4166667E-01  0.3472222E-02
    1       -3.321688   1.000000
    2       -0.072582   1.000000
    3        3.246753   1.000000
    4        3.353160   1.000000
    5        6.711968   0.000000
    6        7.463340   0.000000
    7       14.520890   0.000000
    8       14.529573   0.000000
 
 -0.2916667E+00 -0.3750000E+00  0.4166667E-01  0.6944444E-02
    1       -3.798505   1.000000
    2        0.587935   1.000000
    3        3.197603   1.000000
    4        3.505943   1.000000
    5        7.115594   0.000000
    6        8.154727   0.000000
    7       13.036770   0.000000
    8       13.721088   0.000000
 
 -0.2083333E+00 -0.3750000E+00  0.4166667E-01  0.6944444E-02
    1       -4.116768   1.000000
    2        0.844829   1.000000
    3        3.185469   1.000000
    4        3.897021   1.000000
    5        7.744090   0.000000
    6        9.548410   0.000000
    7       11.437439   0.000000
    8       12.293052   0.000000
 
 -0.1250000E+00 -0.3750000E+00  0.4166667E-01  0.6944444E-02
    1       -4.268418   1.000000
    2        0.540496   1.000000
    3        3.747654   1.000000
    4        4.415714   1.000000
    5        8.353118   0.000000
    6        9.953001   0.000000
    7       10.888707   0.000000
    8       11.389952   0.000000
 
 -0.2916667E+00 -0.2916667E+00  0.4166667E-01  0.3472222E-02
    1       -4.321062   1.000000
    2        1.400123   1.000000
    3        3.658796   1.000000
    4        3.736774   1.000000
    5        6.950703   0.000000
    6        8.366637   0.000000
    7       12.944286   0.000000
    8       12.985812   0.000000
 
 -0.2083333E+00 -0.2916667E+00  0.4166667E-01  0.6944444E-02
    1       -4.685467   1.000000
    2        1.948905   1.000000
    3        3.737937   1.000000
    4        4.108203   1.000000
    5        7.491820   0.000000
    6        9.179305   0.000000
    7       11.637334   0.000000
    8       12.168688   0.000000
 
 -0.1250000E+00 -0.2916667E+00  0.4166667E-01  0.6944444E-02
    1       -4.876630   1.000000
    2        1.855609   1.000000
    3        4.051688   1.000000
    4        4.664054   1.000000
    5        8.300994   0.000000
    6       10.104808   0.000000
    7       10.613781   0.000000
    8       10.999600   0.000000
 
 -0.2083333E+00 -0.2083333E+00  0.4166667E-01  0.3472222E-02
    1       -5.104329   1.000000
    2        2.870505   1.000000
    3        4.298095   1.000000
    4        4.320515   1.000000
    5        7.419886   0.000000
    6        9.592119   0.000000
    7       11.432196   0.000000
    8       11.511226   0.000000
 
 -0.1250000E+00 -0.2083333E+00  0.4166667E-01  0.6944444E-02
    1       -5.350357   1.000000
    2        3.218332   1.000000
    3        4.449986   1.000000
    4        4.965696   1.000000
    5        8.042242   0.000000
    6       10.107804   0.000000
    7       10.682903   0.000000
    8       10.714981   0.000000
 
 -0.1250000E+00 -0.1250000E+00  0.4166667E-01  0.3472222E-02
    1       -5.655335   1.000000
    2        4.249049   1.000000
    3        5.060517   1.000000
    4        5.132191   1.000000
    5        8.028958   0.000000
    6        9.978252   0.000000
    7       10.137639   0.000000
    8       10.812622   0.000000
 
  0.1250000E+00  0.1250000E+00  0.1250000E+00  0.1157407E-02
    1       -5.841044   1.000000
    2        4.476665   1.000000
    3        5.787269   1.000000
    4        5.787272   1.000000
    5        8.657189   0.000000
    6        9.094568   0.000000
    7        9.094576   0.000000
    8       11.032576   0.000000
 
  0.2083333E+00  0.1250000E+00  0.1250000E+00  0.3472222E-02
    1       -5.657000   1.000000
    2        3.853983   1.000000
    3        4.887525   1.000000
    4        5.868378   1.000000
    5        9.012720   0.000000
    6        9.077889   0.000000
    7        9.389581   0.000000
    8       11.601460   0.000000
 
  0.2916667E+00  0.1250000E+00  0.1250000E+00  0.3472222E-02
    1       -5.294472   1.000000
    2        2.782886   1.000000
    3        4.081879   1.000000
    4        5.650350   1.000000
    5        9.154687   0.000000
    6        9.437969   0.000000
    7        9.745505   0.000000
    8       11.905341   0.000000
 
  0.3750000E+00  0.1250000E+00  0.1250000E+00  0.3472222E-02
    1       -4.770750   1.000000
    2        1.408616   1.000000
    3        3.724139   1.000000
    4        5.296843   1.000000
    5        8.882553   0.000000
    6        9.783411   0.000000
    7        9.966944   0.000000
    8       12.492119   0.000000
 
  0.4583333E+00  0.1250000E+00  0.1250000E+00  0.3472222E-02
    1       -4.135879   1.000000
    2        0.134719   1.000000
    3        3.585456   1.000000
    4        4.945456   1.000000
    5        8.614526   0.000000
    6        9.816607   0.000000
    7        9.916958   0.000000
    8       13.545173   0.000000
 
 -0.4583333E+00  0.1250000E+00  0.1250000E+00  0.3472222E-02
    1       -3.570748   1.000000
    2       -0.763509   1.000000
    3        3.607094   1.000000
    4        4.664453   1.000000
    5        8.412828   0.000000
    6        9.667712   0.000000
    7       10.014146   0.000000
    8       14.433543   0.000000
 
 -0.3750000E+00  0.1250000E+00  0.1250000E+00  0.3472222E-02
    1       -3.567756   1.000000
    2       -0.769029   1.000000
    3        3.767363   1.000000
    4        4.488556   1.000000
    5        8.313667   0.000000
    6        9.636534   0.000000
    7       10.193696   0.000000
    8       13.536328   0.000000
 
 -0.2916667E+00  0.1250000E+00  0.1250000E+00  0.3472222E-02
    1       -4.131101   1.000000
    2        0.123627   1.000000
    3        4.046739   1.000000
    4        4.436855   1.000000
    5        8.324140   0.000000
    6        9.722104   0.000000
    7       10.450341   0.000000
    8       12.170265   0.000000
 
 -0.2083333E+00  0.1250000E+00  0.1250000E+00  0.3472222E-02
    1       -4.766737   1.000000
    2        1.403514   1.000000
    3        4.417684   1.000000
    4        4.518446   1.000000
    5        8.369600   0.000000
    6        9.850288   0.000000
    7       10.668130   0.000000
    8       11.143778   0.000000
 
 -0.1250000E+00  0.1250000E+00  0.1250000E+00  0.3472222E-02
    1       -5.291633   1.000000
    2        2.840139   1.000000
    3        4.732072   1.000000
    4        4.824005   1.000000
    5        8.237876   0.000000
    6        9.896922   0.000000
    7       10.603639   0.000000
    8       10.845633   0.000000
 
  0.2083333E+00  0.2083333E+00  0.1250000E+00  0.3472222E-02
    1       -5.534859   1.000000
    2        3.390238   1.000000
    3        5.097346   1.000000
    4        5.323840   1.000000
    5        8.514375   0.000000
    6        9.353545   0.000000
    7       10.039169   0.000000
    8       11.402372   0.000000
 
  0.2916667E+00  0.2083333E+00  0.1250000E+00  0.6944444E-02
    1       -5.232291   1.000000
    2        2.753087   1.000000
    3        4.087516   1.000000
    4        5.245708   1.000000
    5        8.586273   0.000000
    6        9.723200   0.000000
    7       10.544359   0.000000
    8       10.947133   0.000000
 
  0.3750000E+00  0.2083333E+00  0.1250000E+00  0.6944444E-02
    1       -4.761421   1.000000
    2        1.765244   1.000000
    3        3.324826   1.000000
    4        4.961442   1.000000
    5        9.000596   0.000000
    6        9.643693   0.000000
    7       10.793207   0.000000
    8       11.118221   0.000000
 
  0.4583333E+00  0.2083333E+00  0.1250000E+00  0.6944444E-02
    1       -4.155599   1.000000
    2        0.563825   1.000000
    3        3.011205   1.000000
    4        4.595082   1.000000
    5        9.139227   0.000000
    6        9.392864   0.000000
    7       11.247760   0.000000
    8       11.564461   0.000000
 
 -0.4583333E+00  0.2083333E+00  0.1250000E+00  0.6944444E-02
    1       -3.527260   1.000000
    2       -0.459870   1.000000
    3        2.924460   1.000000
    4        4.297934   1.000000
    5        8.934989   0.000000
    6        9.331020   0.000000
    7       11.276960   0.000000
    8       12.849708   0.000000
 
 -0.3750000E+00  0.2083333E+00  0.1250000E+00  0.6944444E-02
    1       -3.276514   1.000000
    2       -0.815714   1.000000
    3        2.971645   1.000000
    4        4.152161   1.000000
    5        8.711905   0.000000
    6        9.460856   0.000000
    7       11.298908   0.000000
    8       13.423814   0.000000
 
 -0.2916667E+00  0.2083333E+00  0.1250000E+00  0.6944444E-02
    1       -3.718452   1.000000
    2       -0.172511   1.000000
    3        3.106861   1.000000
    4        4.203285   1.000000
    5        8.598685   0.000000
    6        9.712415   0.000000
    7       11.384304   0.000000
    8       11.904349   0.000000
 
 -0.2083333E+00  0.2083333E+00  0.1250000E+00  0.6944444E-02
    1       -4.363542   1.000000
    2        0.957031   1.000000
    3        3.330494   1.000000
    4        4.439404   1.000000
    5        8.539864   0.000000
    6       10.035965   0.000000
    7       10.696953   0.000000
    8       11.472633   0.000000
 
 -0.1250000E+00  0.2083333E+00  0.1250000E+00  0.6944444E-02
    1       -4.932014   1.000000
    2        2.199527   1.000000
    3        3.718874   1.000000
    4        4.762596   1.000000
    5        8.309187   0.000000
    6       10.084293   0.000000
    7       10.438441   0.000000
    8       11.290024   0.000000
 