 vasp.6.2.0 18Jan21 (build Aug 12 2022 13:00:08) complex                        
  
 executed on             LinuxIFC date 2024.11.05  05:57:41
 running on    4 total cores
 distrk:  each k-point on    4 cores,    1 groups
 distr:  one band on NCORE=   1 cores,    4 groups


--------------------------------------------------------------------------------------------------------


 INCAR:
   ISTART = 0            (Read existing wavefunction, if there)
   ISPIN = 1            (Non-Spin polarised DFT)
   LREAL = .FALSE.       (Projection operators: automatic)
   LWAVE = .FALSE.        (Write WAVECAR or not)
   LCHARG = .FALSE.        (Write CHGCAR or not)
   ADDGRID = .TRUE.        (Increase grid, helps GGA convergence)
   LASPH = .TRUE.        (Give more accurate total energies and band structure calculations)
   PREC = Accurate      (Accurate strictly avoids any aliasing or wrap around errors)
   ENCUT = 350          (Cut-off energy for plane wave basis set, in eV)
   ISMEAR = 0            (Gaussian smearing, metals:1)
   SIGMA = 0.05         (Smearing value in eV, metals:0.2)
   NELM = 90           (Max electronic SCF steps)
   NELMIN = 6            (Min electronic SCF steps)
   EDIFF = 1E-06        (SCF energy convergence, in eV)
   NSW = 100          (Max ionic steps)
   IBRION = 2            (Algorithm: 0-MD, 1-Quasi-New, 2-CG)
   ISIF = 2            (Stress/relaxation: 2-Ions, 3-Shape/Ions/V, 4-Shape/Ions)
   EDIFFG = -2E-03        (Ionic convergence, eV/AA)
   ISYM = 2              (Symmetry: 0\=none, 2\=GGA, 3\=hybrids)

 POTCAR:    PAW_PBE Si 05Jan2001                  
 POTCAR:    PAW_PBE Si 05Jan2001                  
   VRHFIN =Si: s2p2                                                                                 
   LEXCH  = PE                                                                                      
   EATOM  =   103.0669 eV,    7.5752 Ry                                                             
                                                                                                    
   TITEL  = PAW_PBE Si 05Jan2001                                                                    
   LULTRA =        F    use ultrasoft PP ?                                                          
   IUNSCR =        1    unscreen: 0-lin 1-nonlin 2-no                                               
   RPACOR =    1.500    partial core radius                                                         
   POMASS =   28.085; ZVAL   =    4.000    mass and valenz                                          
   RCORE  =    1.900    outmost cutoff radius                                                       
   RWIGS  =    2.480; RWIGS  =    1.312    wigner-seitz radius (au A)                               
   ENMAX  =  245.345; ENMIN  =  184.009 eV                                                          
   ICORE  =        2    local potential                                                             
   LCOR   =        T    correct aug charges                                                         
   LPAW   =        T    paw PP                                                                      
   EAUG   =  322.069                                                                                
   DEXC   =    0.000                                                                                
   RMAX   =    1.950    core radius for proj-oper                                                   
   RAUG   =    1.300    factor for augmentation sphere                                              
   RDEP   =    1.993    radius for radial grids                                                     
   RDEPT  =    1.837    core radius for aug-charge                                                  
                                                                                                    
   Atomic configuration                                                                             
    6 entries                                                                                       
     n  l   j            E        occ.                                                              
     1  0  0.50     -1785.8828   2.0000                                                             
     2  0  0.50      -139.4969   2.0000                                                             
     2  1  1.50       -95.5546   6.0000                                                             
     3  0  0.50       -10.8127   2.0000                                                             
     3  1  0.50        -4.0811   2.0000                                                             
     3  2  1.50        -4.0817   0.0000                                                             
   Description                                                                                      
     l       E           TYP  RCUT    TYP  RCUT                                                     
     0    -10.8127223     23  1.900                                                                 
     0     -7.6451159     23  1.900                                                                 
     1     -4.0811372     23  1.900                                                                 
     1      2.4879257     23  1.900                                                                 
     2     -4.0817478      7  1.900                                                                 
  local pseudopotential read in
  partial core-charges read in
  partial kinetic energy density read in
  atomic valenz-charges read in
  non local Contribution for L=           0  read in
    real space projection operators read in
  non local Contribution for L=           0  read in
    real space projection operators read in
  non local Contribution for L=           1  read in
    real space projection operators read in
  non local Contribution for L=           1  read in
    real space projection operators read in
    PAW grid and wavefunctions read in
 
   number of l-projection  operators is LMAX  =           4
   number of lm-projection operators is LMMAX =           8
 
  PAW_PBE Si 05Jan2001                  :
 energy of atom  1       EATOM= -103.0669
 kinetic energy error for atom=    0.0013 (will be added to EATOM!!)
 
 
 POSCAR: Si2
  positions in direct lattice
  velocities in cartesian coordinates
 exchange correlation table for  LEXCH =        8
   RHO(1)=    0.500       N(1)  =     2000
   RHO(2)=  100.500       N(2)  =     4000
 


--------------------------------------------------------------------------------------------------------


 ion  position               nearest neighbor table
   1  0.875  0.875  0.875-   2 2.33   2 2.33   2 2.33   2 2.33
   2  0.125  0.125  0.125-   1 2.33   1 2.33   1 2.33   1 2.33
 
  LATTYP: Found a face centered cubic cell.
 ALAT       =     5.3854679802
  
  Lattice vectors:
  
 A1 = (   3.2979113893,   0.0000000000,   1.9040497600)
 A2 = (   1.0993037964,   3.1093019084,   1.9040497600)
 A3 = (   0.0000000000,   0.0000000000,   3.8080995200)


Analysis of symmetry for initial positions (statically):
=====================================================================
 Subroutine PRICEL returns:
 Original cell was already a primitive cell.
 

 Routine SETGRP: Setting up the symmetry group for a 
 face centered cubic supercell.


 Subroutine GETGRP returns: Found 48 space group operations
 (whereof 12 operations were pure point group operations)
 out of a pool of 48 trial point group operations.


The static configuration has the point symmetry D_3d.
 The point group associated with its full space group is O_h .


Analysis of symmetry for dynamics (positions and initial velocities):
=====================================================================
 Subroutine PRICEL returns:
 Original cell was already a primitive cell.
 

 Routine SETGRP: Setting up the symmetry group for a 
 face centered cubic supercell.


 Subroutine GETGRP returns: Found 48 space group operations
 (whereof 12 operations were pure point group operations)
 out of a pool of 48 trial point group operations.


The dynamic configuration has the point symmetry D_3d.
 The point group associated with its full space group is O_h .


 Subroutine INISYM returns: Found 48 space group operations
 (whereof 12 operations are pure point group operations),
 and found     1 'primitive' translations


----------------------------------------------------------------------------------------

                                     Primitive cell                                     

  volume of cell :      39.0490

  direct lattice vectors                    reciprocal lattice vectors
     3.297911389  0.000000000  1.904049760     0.303222216 -0.107205200  0.000000000
     1.099303796  3.109301908  1.904049760     0.000000000  0.321615600  0.000000000
     0.000000000  0.000000000  3.808099520    -0.151611108 -0.107205200  0.262598179

  length of vectors
     3.808099923  3.808100929  3.808099520     0.321615714  0.321615600  0.321615744

  position of ions in fractional coordinates (direct lattice)
     0.875000000  0.875000000  0.875000000
     0.125000000  0.125000000  0.125000000

  ion indices of the primitive-cell ions
   primitive index   ion index
                 1           1
                 2           2

----------------------------------------------------------------------------------------

 
 
 KPOINTS: Automatic                               

Automatic generation of k-mesh.
 Grid dimensions read from file:
 generate k-points for:   12   12   12

 Generating k-lattice:

  Cartesian coordinates                     Fractional coordinates (reciprocal lattice)
     0.025268518 -0.008933767  0.000000000     0.083333333  0.000000000  0.000000000
     0.000000000  0.026801300  0.000000000     0.000000000  0.083333333  0.000000000
    -0.012634259 -0.008933767  0.021883182     0.000000000  0.000000000  0.083333333

  Length of vectors
     0.026801309  0.026801300  0.026801312

  Shift w.r.t. Gamma in fractional coordinates (k-lattice)
     0.500000000  0.500000000  0.500000000

 
 Subroutine IBZKPT returns following result:
 ===========================================
 
 Found    182 irreducible k-points:
 
 Following reciprocal coordinates:
            Coordinates               Weight
  0.041667  0.041667  0.041667      8.000000
  0.125000  0.041667  0.041667     24.000000
  0.208333  0.041667  0.041667     24.000000
  0.291667  0.041667  0.041667     24.000000
  0.375000  0.041667  0.041667     24.000000
  0.458333  0.041667  0.041667     24.000000
 -0.458333  0.041667  0.041667     24.000000
 -0.375000  0.041667  0.041667     24.000000
 -0.291667  0.041667  0.041667     24.000000
 -0.208333  0.041667  0.041667     24.000000
 -0.125000  0.041667  0.041667     24.000000
 -0.041667  0.041667  0.041667     24.000000
  0.125000  0.125000  0.041667     24.000000
  0.208333  0.125000  0.041667     48.000000
  0.291667  0.125000  0.041667     48.000000
  0.375000  0.125000  0.041667     48.000000
  0.458333  0.125000  0.041667     48.000000
 -0.458333  0.125000  0.041667     48.000000
 -0.375000  0.125000  0.041667     48.000000
 -0.291667  0.125000  0.041667     48.000000
 -0.208333  0.125000  0.041667     48.000000
 -0.125000  0.125000  0.041667     48.000000
 -0.041667  0.125000  0.041667     48.000000
  0.208333  0.208333  0.041667     24.000000
  0.291667  0.208333  0.041667     48.000000
  0.375000  0.208333  0.041667     48.000000
  0.458333  0.208333  0.041667     48.000000
 -0.458333  0.208333  0.041667     48.000000
 -0.375000  0.208333  0.041667     48.000000
 -0.291667  0.208333  0.041667     48.000000
 -0.208333  0.208333  0.041667     48.000000
 -0.125000  0.208333  0.041667     48.000000
 -0.041667  0.208333  0.041667     48.000000
  0.291667  0.291667  0.041667     24.000000
  0.375000  0.291667  0.041667     48.000000
  0.458333  0.291667  0.041667     48.000000
 -0.458333  0.291667  0.041667     48.000000
 -0.375000  0.291667  0.041667     48.000000
 -0.291667  0.291667  0.041667     48.000000
 -0.208333  0.291667  0.041667     48.000000
 -0.125000  0.291667  0.041667     48.000000
 -0.041667  0.291667  0.041667     48.000000
  0.375000  0.375000  0.041667     24.000000
  0.458333  0.375000  0.041667     48.000000
 -0.458333  0.375000  0.041667     48.000000
 -0.375000  0.375000  0.041667     48.000000
 -0.291667  0.375000  0.041667     48.000000
 -0.208333  0.375000  0.041667     48.000000
 -0.125000  0.375000  0.041667     48.000000
 -0.041667  0.375000  0.041667     48.000000
  0.458333  0.458333  0.041667     24.000000
 -0.458333  0.458333  0.041667     48.000000
 -0.375000  0.458333  0.041667     48.000000
 -0.291667  0.458333  0.041667     48.000000
 -0.208333  0.458333  0.041667     48.000000
 -0.125000  0.458333  0.041667     48.000000
 -0.041667  0.458333  0.041667     48.000000
 -0.458333 -0.458333  0.041667     24.000000
 -0.375000 -0.458333  0.041667     48.000000
 -0.291667 -0.458333  0.041667     48.000000
 -0.208333 -0.458333  0.041667     48.000000
 -0.125000 -0.458333  0.041667     48.000000
 -0.375000 -0.375000  0.041667     24.000000
 -0.291667 -0.375000  0.041667     48.000000
 -0.208333 -0.375000  0.041667     48.000000
 -0.125000 -0.375000  0.041667     48.000000
 -0.291667 -0.291667  0.041667     24.000000
 -0.208333 -0.291667  0.041667     48.000000
 -0.125000 -0.291667  0.041667     48.000000
 -0.208333 -0.208333  0.041667     24.000000
 -0.125000 -0.208333  0.041667     48.000000
 -0.125000 -0.125000  0.041667     24.000000
  0.125000  0.125000  0.125000      8.000000
  0.208333  0.125000  0.125000     24.000000
  0.291667  0.125000  0.125000     24.000000
  0.375000  0.125000  0.125000     24.000000
  0.458333  0.125000  0.125000     24.000000
 -0.458333  0.125000  0.125000     24.000000
 -0.375000  0.125000  0.125000     24.000000
 -0.291667  0.125000  0.125000     24.000000
 -0.208333  0.125000  0.125000     24.000000
 -0.125000  0.125000  0.125000     24.000000
  0.208333  0.208333  0.125000     24.000000
  0.291667  0.208333  0.125000     48.000000
  0.375000  0.208333  0.125000     48.000000
  0.458333  0.208333  0.125000     48.000000
 -0.458333  0.208333  0.125000     48.000000
 -0.375000  0.208333  0.125000     48.000000
 -0.291667  0.208333  0.125000     48.000000
 -0.208333  0.208333  0.125000     48.000000
 -0.125000  0.208333  0.125000     48.000000
  0.291667  0.291667  0.125000     24.000000
  0.375000  0.291667  0.125000     48.000000
  0.458333  0.291667  0.125000     48.000000
 -0.458333  0.291667  0.125000     48.000000
 -0.375000  0.291667  0.125000     48.000000
 -0.291667  0.291667  0.125000     48.000000
 -0.208333  0.291667  0.125000     48.000000
 -0.125000  0.291667  0.125000     48.000000
  0.375000  0.375000  0.125000     24.000000
  0.458333  0.375000  0.125000     48.000000
 -0.458333  0.375000  0.125000     48.000000
 -0.375000  0.375000  0.125000     48.000000
 -0.291667  0.375000  0.125000     48.000000
 -0.208333  0.375000  0.125000     48.000000
 -0.125000  0.375000  0.125000     48.000000
  0.458333  0.458333  0.125000     24.000000
 -0.458333  0.458333  0.125000     48.000000
 -0.375000  0.458333  0.125000     48.000000
 -0.291667  0.458333  0.125000     48.000000
 -0.208333  0.458333  0.125000     48.000000
 -0.125000  0.458333  0.125000     48.000000
 -0.458333 -0.458333  0.125000     24.000000
 -0.375000 -0.458333  0.125000     48.000000
 -0.291667 -0.458333  0.125000     48.000000
 -0.208333 -0.458333  0.125000     48.000000
 -0.375000 -0.375000  0.125000     24.000000
 -0.291667 -0.375000  0.125000     48.000000
 -0.208333 -0.375000  0.125000     48.000000
 -0.291667 -0.291667  0.125000     24.000000
 -0.208333 -0.291667  0.125000     48.000000
 -0.208333 -0.208333  0.125000     24.000000
  0.208333  0.208333  0.208333      8.000000
  0.291667  0.208333  0.208333     24.000000
  0.375000  0.208333  0.208333     24.000000
  0.458333  0.208333  0.208333     24.000000
 -0.458333  0.208333  0.208333     24.000000
 -0.375000  0.208333  0.208333     24.000000
 -0.291667  0.208333  0.208333     24.000000
 -0.208333  0.208333  0.208333     24.000000
  0.291667  0.291667  0.208333     24.000000
  0.375000  0.291667  0.208333     48.000000
  0.458333  0.291667  0.208333     48.000000
 -0.458333  0.291667  0.208333     48.000000
 -0.375000  0.291667  0.208333     48.000000
 -0.291667  0.291667  0.208333     48.000000
 -0.208333  0.291667  0.208333     48.000000
  0.375000  0.375000  0.208333     24.000000
  0.458333  0.375000  0.208333     48.000000
 -0.458333  0.375000  0.208333     48.000000
 -0.375000  0.375000  0.208333     48.000000
 -0.291667  0.375000  0.208333     48.000000
 -0.208333  0.375000  0.208333     48.000000
  0.458333  0.458333  0.208333     24.000000
 -0.458333  0.458333  0.208333     48.000000
 -0.375000  0.458333  0.208333     48.000000
 -0.291667  0.458333  0.208333     48.000000
 -0.208333  0.458333  0.208333     48.000000
 -0.458333 -0.458333  0.208333     24.000000
 -0.375000 -0.458333  0.208333     48.000000
 -0.291667 -0.458333  0.208333     48.000000
 -0.375000 -0.375000  0.208333     24.000000
 -0.291667 -0.375000  0.208333     48.000000
 -0.291667 -0.291667  0.208333     24.000000
  0.291667  0.291667  0.291667      8.000000
  0.375000  0.291667  0.291667     24.000000
  0.458333  0.291667  0.291667     24.000000
 -0.458333  0.291667  0.291667     24.000000
 -0.375000  0.291667  0.291667     24.000000
 -0.291667  0.291667  0.291667     24.000000
  0.375000  0.375000  0.291667     24.000000
  0.458333  0.375000  0.291667     48.000000
 -0.458333  0.375000  0.291667     48.000000
 -0.375000  0.375000  0.291667     48.000000
 -0.291667  0.375000  0.291667     48.000000
  0.458333  0.458333  0.291667     24.000000
 -0.458333  0.458333  0.291667     48.000000
 -0.375000  0.458333  0.291667     48.000000
 -0.291667  0.458333  0.291667     48.000000
 -0.458333 -0.458333  0.291667     24.000000
 -0.375000 -0.458333  0.291667     48.000000
 -0.375000 -0.375000  0.291667     24.000000
  0.375000  0.375000  0.375000      8.000000
  0.458333  0.375000  0.375000     24.000000
 -0.458333  0.375000  0.375000     24.000000
 -0.375000  0.375000  0.375000     24.000000
  0.458333  0.458333  0.375000     24.000000
 -0.458333  0.458333  0.375000     48.000000
 -0.375000  0.458333  0.375000     48.000000
 -0.458333 -0.458333  0.375000     24.000000
  0.458333  0.458333  0.458333      8.000000
 -0.458333  0.458333  0.458333     24.000000
 
 Following cartesian coordinates:
            Coordinates               Weight
  0.006222  0.004400  0.010777      8.000000
  0.031112 -0.004400  0.010777     24.000000
  0.056001 -0.013200  0.010777     24.000000
  0.080891 -0.021999  0.010777     24.000000
  0.105780 -0.030799  0.010777     24.000000
  0.130670 -0.039599  0.010777     24.000000
 -0.143115  0.057198  0.010777     24.000000
 -0.118225  0.048399  0.010777     24.000000
 -0.093336  0.039599  0.010777     24.000000
 -0.068446  0.030799  0.010777     24.000000
 -0.043557  0.021999  0.010777     24.000000
 -0.018667  0.013200  0.010777     24.000000
  0.031112  0.021999  0.010777     24.000000
  0.056001  0.013200  0.010777     48.000000
  0.080891  0.004400  0.010777     48.000000
  0.105780 -0.004400  0.010777     48.000000
  0.130670 -0.013200  0.010777     48.000000
 -0.143115  0.083598  0.010777     48.000000
 -0.118225  0.074798  0.010777     48.000000
 -0.093336  0.065998  0.010777     48.000000
 -0.068446  0.057198  0.010777     48.000000
 -0.043557  0.048399  0.010777     48.000000
 -0.018667  0.039599  0.010777     48.000000
  0.056001  0.039599  0.010777     24.000000
  0.080891  0.030799  0.010777     48.000000
  0.105780  0.021999  0.010777     48.000000
  0.130670  0.013200  0.010777     48.000000
 -0.143115  0.109997  0.010777     48.000000
 -0.118225  0.101197  0.010777     48.000000
 -0.093336  0.092397  0.010777     48.000000
 -0.068446  0.083598  0.010777     48.000000
 -0.043557  0.074798  0.010777     48.000000
 -0.018667  0.065998  0.010777     48.000000
  0.080891  0.057198  0.010777     24.000000
  0.105780  0.048399  0.010777     48.000000
  0.130670  0.039599  0.010777     48.000000
 -0.143115  0.136396  0.010777     48.000000
 -0.118225  0.127597  0.010777     48.000000
 -0.093336  0.118797  0.010777     48.000000
 -0.068446  0.109997  0.010777     48.000000
 -0.043557  0.101197  0.010777     48.000000
 -0.018667  0.092397  0.010777     48.000000
  0.105780  0.074798  0.010777     24.000000
  0.130670  0.065998  0.010777     48.000000
 -0.143115  0.162796  0.010777     48.000000
 -0.118225  0.153996  0.010777     48.000000
 -0.093336  0.145196  0.010777     48.000000
 -0.068446  0.136396  0.010777     48.000000
 -0.043557  0.127597  0.010777     48.000000
 -0.018667  0.118797  0.010777     48.000000
  0.130670  0.092397  0.010777     24.000000
 -0.143115  0.189195  0.010777     48.000000
 -0.118225  0.180395  0.010777     48.000000
 -0.093336  0.171595  0.010777     48.000000
 -0.068446  0.162796  0.010777     48.000000
 -0.043557  0.153996  0.010777     48.000000
 -0.018667  0.145196  0.010777     48.000000
 -0.143115 -0.101197  0.010777     24.000000
 -0.118225 -0.109997  0.010777     48.000000
 -0.093336 -0.118797  0.010777     48.000000
 -0.068446 -0.127597  0.010777     48.000000
 -0.043557 -0.136396  0.010777     48.000000
 -0.118225 -0.083598  0.010777     24.000000
 -0.093336 -0.092397  0.010777     48.000000
 -0.068446 -0.101197  0.010777     48.000000
 -0.043557 -0.109997  0.010777     48.000000
 -0.093336 -0.065998  0.010777     24.000000
 -0.068446 -0.074798  0.010777     48.000000
 -0.043557 -0.083598  0.010777     48.000000
 -0.068446 -0.048399  0.010777     24.000000
 -0.043557 -0.057198  0.010777     48.000000
 -0.043557 -0.030799  0.010777     24.000000
  0.018667  0.013200  0.032332      8.000000
  0.043557  0.004400  0.032332     24.000000
  0.068446 -0.004400  0.032332     24.000000
  0.093336 -0.013200  0.032332     24.000000
  0.118225 -0.021999  0.032332     24.000000
 -0.155559  0.074798  0.032332     24.000000
 -0.130670  0.065998  0.032332     24.000000
 -0.105780  0.057198  0.032332     24.000000
 -0.080891  0.048399  0.032332     24.000000
 -0.056001  0.039599  0.032332     24.000000
  0.043557  0.030799  0.032332     24.000000
  0.068446  0.021999  0.032332     48.000000
  0.093336  0.013200  0.032332     48.000000
  0.118225  0.004400  0.032332     48.000000
 -0.155559  0.101197  0.032332     48.000000
 -0.130670  0.092397  0.032332     48.000000
 -0.105780  0.083598  0.032332     48.000000
 -0.080891  0.074798  0.032332     48.000000
 -0.056001  0.065998  0.032332     48.000000
  0.068446  0.048399  0.032332     24.000000
  0.093336  0.039599  0.032332     48.000000
  0.118225  0.030799  0.032332     48.000000
 -0.155559  0.127597  0.032332     48.000000
 -0.130670  0.118797  0.032332     48.000000
 -0.105780  0.109997  0.032332     48.000000
 -0.080891  0.101197  0.032332     48.000000
 -0.056001  0.092397  0.032332     48.000000
  0.093336  0.065998  0.032332     24.000000
  0.118225  0.057198  0.032332     48.000000
 -0.155559  0.153996  0.032332     48.000000
 -0.130670  0.145196  0.032332     48.000000
 -0.105780  0.136396  0.032332     48.000000
 -0.080891  0.127597  0.032332     48.000000
 -0.056001  0.118797  0.032332     48.000000
  0.118225  0.083598  0.032332     24.000000
 -0.155559  0.180395  0.032332     48.000000
 -0.130670  0.171595  0.032332     48.000000
 -0.105780  0.162796  0.032332     48.000000
 -0.080891  0.153996  0.032332     48.000000
 -0.056001  0.145196  0.032332     48.000000
 -0.155559 -0.109997  0.032332     24.000000
 -0.130670 -0.118797  0.032332     48.000000
 -0.105780 -0.127597  0.032332     48.000000
 -0.080891 -0.136396  0.032332     48.000000
 -0.130670 -0.092397  0.032332     24.000000
 -0.105780 -0.101197  0.032332     48.000000
 -0.080891 -0.109997  0.032332     48.000000
 -0.105780 -0.074798  0.032332     24.000000
 -0.080891 -0.083598  0.032332     48.000000
 -0.080891 -0.057198  0.032332     24.000000
  0.031112  0.021999  0.053887      8.000000
  0.056001  0.013200  0.053887     24.000000
  0.080891  0.004400  0.053887     24.000000
  0.105780 -0.004400  0.053887     24.000000
 -0.168004  0.092397  0.053887     24.000000
 -0.143115  0.083598  0.053887     24.000000
 -0.118225  0.074798  0.053887     24.000000
 -0.093336  0.065998  0.053887     24.000000
  0.056001  0.039599  0.053887     24.000000
  0.080891  0.030799  0.053887     48.000000
  0.105780  0.021999  0.053887     48.000000
 -0.168004  0.118797  0.053887     48.000000
 -0.143115  0.109997  0.053887     48.000000
 -0.118225  0.101197  0.053887     48.000000
 -0.093336  0.092397  0.053887     48.000000
  0.080891  0.057198  0.053887     24.000000
  0.105780  0.048399  0.053887     48.000000
 -0.168004  0.145196  0.053887     48.000000
 -0.143115  0.136396  0.053887     48.000000
 -0.118225  0.127597  0.053887     48.000000
 -0.093336  0.118797  0.053887     48.000000
  0.105780  0.074798  0.053887     24.000000
 -0.168004  0.171595  0.053887     48.000000
 -0.143115  0.162796  0.053887     48.000000
 -0.118225  0.153996  0.053887     48.000000
 -0.093336  0.145196  0.053887     48.000000
 -0.168004 -0.118797  0.053887     24.000000
 -0.143115 -0.127597  0.053887     48.000000
 -0.118225 -0.136396  0.053887     48.000000
 -0.143115 -0.101197  0.053887     24.000000
 -0.118225 -0.109997  0.053887     48.000000
 -0.118225 -0.083598  0.053887     24.000000
  0.043557  0.030799  0.075442      8.000000
  0.068446  0.021999  0.075442     24.000000
  0.093336  0.013200  0.075442     24.000000
 -0.180449  0.109997  0.075442     24.000000
 -0.155559  0.101197  0.075442     24.000000
 -0.130670  0.092397  0.075442     24.000000
  0.068446  0.048399  0.075442     24.000000
  0.093336  0.039599  0.075442     48.000000
 -0.180449  0.136396  0.075442     48.000000
 -0.155559  0.127597  0.075442     48.000000
 -0.130670  0.118797  0.075442     48.000000
  0.093336  0.065998  0.075442     24.000000
 -0.180449  0.162796  0.075442     48.000000
 -0.155559  0.153996  0.075442     48.000000
 -0.130670  0.145196  0.075442     48.000000
 -0.180449 -0.127597  0.075442     24.000000
 -0.155559 -0.136396  0.075442     48.000000
 -0.155559 -0.109997  0.075442     24.000000
  0.056001  0.039599  0.096997      8.000000
  0.080891  0.030799  0.096997     24.000000
 -0.192894  0.127597  0.096997     24.000000
 -0.168004  0.118797  0.096997     24.000000
  0.080891  0.057198  0.096997     24.000000
 -0.192894  0.153996  0.096997     48.000000
 -0.168004  0.145196  0.096997     48.000000
 -0.192894 -0.136396  0.096997     24.000000
  0.068446  0.048399  0.118552      8.000000
 -0.205338  0.145196  0.118552     24.000000
 


--------------------------------------------------------------------------------------------------------




 Dimension of arrays:
   k-points           NKPTS =    182   k-points in BZ     NKDIM =    182   number of bands    NBANDS=      8
   number of dos      NEDOS =    301   number of ions     NIONS =      2
   non local maximal  LDIM  =      4   non local SUM 2l+1 LMDIM =      8
   total plane-waves  NPLWV =  13824
   max r-space proj   IRMAX =      1   max aug-charges    IRDMAX=  94881
   dimension x,y,z NGX =    24 NGY =   24 NGZ =   24
   dimension x,y,z NGXF=    48 NGYF=   48 NGZF=   48
   support grid    NGXF=    96 NGYF=   96 NGZF=   96
   ions per type =               2
   NGX,Y,Z   is equivalent  to a cutoff of  10.48, 10.48, 10.48 a.u.
   NGXF,Y,Z  is equivalent  to a cutoff of  20.95, 20.95, 20.95 a.u.

 SYSTEM =  unknown system                          
 POSCAR =  Si2                                     

 Startparameter for this run:
   NWRITE =      2    write-flag & timer
   PREC   = accura    normal or accurate (medium, high low for compatibility)
   ISTART =      0    job   : 0-new  1-cont  2-samecut
   ICHARG =      2    charge: 1-file 2-atom 10-const
   ISPIN  =      1    spin polarized calculation?
   LNONCOLLINEAR =      F non collinear calculations
   LSORBIT =      F    spin-orbit coupling
   INIWAV =      1    electr: 0-lowe 1-rand  2-diag
   LASPH  =      T    aspherical Exc in radial PAW
   METAGGA=      F    non-selfconsistent MetaGGA calc.

 Electronic Relaxation 1
   ENCUT  =  350.0 eV  25.72 Ry    5.07 a.u.   5.81  5.81  5.81*2*pi/ulx,y,z
   ENINI  =  350.0     initial cutoff
   ENAUG  =  322.1 eV  augmentation charge cutoff
   NELM   =     90;   NELMIN=  6; NELMDL= -5     # of ELM steps 
   EDIFF  = 0.1E-05   stopping-criterion for ELM
   LREAL  =      F    real-space projection
   NLSPLINE    = F    spline interpolate recip. space projectors
   LCOMPAT=      F    compatible to vasp.4.4
   GGA_COMPAT  = T    GGA compatible to vasp.4.4-vasp.4.6
   LMAXPAW     = -100 max onsite density
   LMAXMIX     =    2 max onsite mixed and CHGCAR
   VOSKOWN=      0    Vosko Wilk Nusair interpolation
   ROPT   =    0.00000
 Ionic relaxation
   EDIFFG = -.2E-02   stopping-criterion for IOM
   NSW    =    100    number of steps for IOM
   NBLOCK =      1;   KBLOCK =    100    inner block; outer block 
   IBRION =      2    ionic relax: 0-MD 1-quasi-New 2-CG
   NFREE  =      1    steps in history (QN), initial steepest desc. (CG)
   ISIF   =      2    stress and relaxation
   IWAVPR =     11    prediction:  0-non 1-charg 2-wave 3-comb
   ISYM   =      2    0-nonsym 1-usesym 2-fastsym
   LCORR  =      T    Harris-Foulkes like correction to forces

   POTIM  = 0.5000    time-step for ionic-motion
   TEIN   =    0.0    initial temperature
   TEBEG  =    0.0;   TEEND  =   0.0 temperature during run
   SMASS  =  -3.00    Nose mass-parameter (am)
   estimated Nose-frequenzy (Omega)   =  0.10E-29 period in steps = 0.13E+47 mass=  -0.331E-27a.u.
   SCALEE = 1.0000    scale energy and forces
   NPACO  =    256;   APACO  = 16.0  distance and # of slots for P.C.
   PSTRESS=    0.0 pullay stress

  Mass of Ions in am
   POMASS =  28.09
  Ionic Valenz
   ZVAL   =   4.00
  Atomic Wigner-Seitz radii
   RWIGS  =  -1.00
  virtual crystal weights 
   VCA    =   1.00
   NELECT =       8.0000    total number of electrons
   NUPDOWN=      -1.0000    fix difference up-down

 DOS related values:
   EMIN   =  10.00;   EMAX   =-10.00  energy-range for DOS
   EFERMI =   0.00
   ISMEAR =     0;   SIGMA  =   0.05  broadening in eV -4-tet -1-fermi 0-gaus

 Electronic relaxation 2 (details)
   IALGO  =     38    algorithm
   LDIAG  =      T    sub-space diagonalisation (order eigenvalues)
   LSUBROT=      F    optimize rotation matrix (better conditioning)
   TURBO    =      0    0=normal 1=particle mesh
   IRESTART =      0    0=no restart 2=restart with 2 vectors
   NREBOOT  =      0    no. of reboots
   NMIN     =      0    reboot dimension
   EREF     =   0.00    reference energy to select bands
   IMIX   =      4    mixing-type and parameters
     AMIX     =   0.40;   BMIX     =  1.00
     AMIX_MAG =   1.60;   BMIX_MAG =  1.00
     AMIN     =   0.10
     WC   =   100.;   INIMIX=   1;  MIXPRE=   1;  MAXMIX= -45

 Intra band minimization:
   WEIMIN = 0.0010     energy-eigenvalue tresh-hold
   EBREAK =  0.31E-07  absolut break condition
   DEPER  =   0.30     relativ break condition  

   TIME   =   0.40     timestep for ELM

  volume/ion in A,a.u.               =      19.52       131.76
  Fermi-wavevector in a.u.,A,eV,Ry     =   0.965091  1.823757 12.672466  0.931400
  Thomas-Fermi vector in A             =   2.094778
 
 Write flags
   LWAVE        =      F    write WAVECAR
   LDOWNSAMPLE  =      F    k-point downsampling of WAVECAR
   LCHARG       =      F    write CHGCAR
   LVTOT        =      F    write LOCPOT, total local potential
   LVHAR        =      F    write LOCPOT, Hartree potential only
   LELF         =      F    write electronic localiz. function (ELF)
   LORBIT       =      0    0 simple, 1 ext, 2 COOP (PROOUT), +10 PAW based schemes


 Dipole corrections
   LMONO  =      F    monopole corrections only (constant potential shift)
   LDIPOL =      F    correct potential (dipole corrections)
   IDIPOL =      0    1-x, 2-y, 3-z, 4-all directions 
   EPSILON=  1.0000000 bulk dielectric constant

 Exchange correlation treatment:
   GGA     =    --    GGA type
   LEXCH   =     8    internal setting for exchange type
   VOSKOWN=      0    Vosko Wilk Nusair interpolation
   LHFCALC =     F    Hartree Fock is set to
   LHFONE  =     F    Hartree Fock one center treatment
   AEXX    =    0.0000 exact exchange contribution

 Linear response parameters
   LEPSILON=     F    determine dielectric tensor
   LRPA    =     F    only Hartree local field effects (RPA)
   LNABLA  =     F    use nabla operator in PAW spheres
   LVEL    =     F    velocity operator in full k-point grid
   LINTERFAST=   F  fast interpolation
   KINTER  =     0    interpolate to denser k-point grid
   CSHIFT  =0.1000    complex shift for real part using Kramers Kronig
   OMEGAMAX=  -1.0    maximum frequency
   DEG_THRESHOLD= 0.2000000E-02 threshold for treating states as degnerate
   RTIME   =   -0.100 relaxation time in fs
  (WPLASMAI=    0.000 imaginary part of plasma frequency in eV, 0.658/RTIME)
   DFIELD  = 0.0000000 0.0000000 0.0000000 field for delta impulse in time
 
 Orbital magnetization related:
   ORBITALMAG=     F  switch on orbital magnetization
   LCHIMAG   =     F  perturbation theory with respect to B field
   DQ        =  0.001000  dq finite difference perturbation B field
   LLRAUG    =     F  two centre corrections for induced B field



--------------------------------------------------------------------------------------------------------


 conjugate gradient relaxation of ions
 charge density and potential will be updated during run
 non-spin polarized calculation
 Variant of blocked Davidson
 Davidson routine will perform the subspace rotation
 perform sub-space diagonalisation
    after iterative eigenvector-optimisation
 modified Broyden-mixing scheme, WC =      100.0
 initial mixing is a Kerker type mixing with AMIX =  0.4000 and BMIX =      1.0000
 Hartree-type preconditioning will be used
 using additional bands            4
 reciprocal scheme for non local part
 use partial core corrections
 calculate Harris-corrections to forces 
   (improved forces if not selfconsistent)
 use gradient corrections 
 use of overlap-Matrix (Vanderbilt PP)
 Gauss-broadening in eV      SIGMA  =   0.05


--------------------------------------------------------------------------------------------------------


  energy-cutoff  :      350.00
  volume of cell :       39.05
      direct lattice vectors                 reciprocal lattice vectors
     3.297911389  0.000000000  1.904049760     0.303222216 -0.107205200  0.000000000
     1.099303796  3.109301908  1.904049760     0.000000000  0.321615600  0.000000000
     0.000000000  0.000000000  3.808099520    -0.151611108 -0.107205200  0.262598179

  length of vectors
     3.808099923  3.808100929  3.808099520     0.321615714  0.321615600  0.321615744


 
 k-points in units of 2pi/SCALE and weight: Automatic                               
   0.00622237  0.00439988  0.01077747       0.001
   0.03111186 -0.00439988  0.01077747       0.003
   0.05600135 -0.01319964  0.01077747       0.003
   0.08089084 -0.02199940  0.01077747       0.003
   0.10578033 -0.03079916  0.01077747       0.003
   0.13066982 -0.03959892  0.01077747       0.003
  -0.14311457  0.05719844  0.01077747       0.003
  -0.11822508  0.04839868  0.01077747       0.003
  -0.09333559  0.03959892  0.01077747       0.003
  -0.06844610  0.03079916  0.01077747       0.003
  -0.04355661  0.02199940  0.01077747       0.003
  -0.01866712  0.01319964  0.01077747       0.003
   0.03111186  0.02199940  0.01077747       0.003
   0.05600135  0.01319964  0.01077747       0.007
   0.08089084  0.00439988  0.01077747       0.007
   0.10578033 -0.00439988  0.01077747       0.007
   0.13066982 -0.01319964  0.01077747       0.007
  -0.14311457  0.08359772  0.01077747       0.007
  -0.11822508  0.07479796  0.01077747       0.007
  -0.09333559  0.06599820  0.01077747       0.007
  -0.06844610  0.05719844  0.01077747       0.007
  -0.04355661  0.04839868  0.01077747       0.007
  -0.01866712  0.03959892  0.01077747       0.007
   0.05600135  0.03959892  0.01077747       0.003
   0.08089084  0.03079916  0.01077747       0.007
   0.10578033  0.02199940  0.01077747       0.007
   0.13066982  0.01319964  0.01077747       0.007
  -0.14311457  0.10999700  0.01077747       0.007
  -0.11822508  0.10119724  0.01077747       0.007
  -0.09333559  0.09239748  0.01077747       0.007
  -0.06844610  0.08359772  0.01077747       0.007
  -0.04355661  0.07479796  0.01077747       0.007
  -0.01866712  0.06599820  0.01077747       0.007
   0.08089084  0.05719844  0.01077747       0.003
   0.10578033  0.04839868  0.01077747       0.007
   0.13066982  0.03959892  0.01077747       0.007
  -0.14311457  0.13639628  0.01077747       0.007
  -0.11822508  0.12759652  0.01077747       0.007
  -0.09333559  0.11879676  0.01077747       0.007
  -0.06844610  0.10999700  0.01077747       0.007
  -0.04355661  0.10119724  0.01077747       0.007
  -0.01866712  0.09239748  0.01077747       0.007
   0.10578033  0.07479796  0.01077747       0.003
   0.13066982  0.06599820  0.01077747       0.007
  -0.14311457  0.16279556  0.01077747       0.007
  -0.11822508  0.15399580  0.01077747       0.007
  -0.09333559  0.14519604  0.01077747       0.007
  -0.06844610  0.13639628  0.01077747       0.007
  -0.04355661  0.12759652  0.01077747       0.007
  -0.01866712  0.11879676  0.01077747       0.007
   0.13066982  0.09239748  0.01077747       0.003
  -0.14311457  0.18919484  0.01077747       0.007
  -0.11822508  0.18039508  0.01077747       0.007
  -0.09333559  0.17159532  0.01077747       0.007
  -0.06844610  0.16279556  0.01077747       0.007
  -0.04355661  0.15399580  0.01077747       0.007
  -0.01866712  0.14519604  0.01077747       0.007
  -0.14311457 -0.10119724  0.01077747       0.003
  -0.11822508 -0.10999700  0.01077747       0.007
  -0.09333559 -0.11879676  0.01077747       0.007
  -0.06844610 -0.12759652  0.01077747       0.007
  -0.04355661 -0.13639628  0.01077747       0.007
  -0.11822508 -0.08359772  0.01077747       0.003
  -0.09333559 -0.09239748  0.01077747       0.007
  -0.06844610 -0.10119724  0.01077747       0.007
  -0.04355661 -0.10999700  0.01077747       0.007
  -0.09333559 -0.06599820  0.01077747       0.003
  -0.06844610 -0.07479796  0.01077747       0.007
  -0.04355661 -0.08359772  0.01077747       0.007
  -0.06844610 -0.04839868  0.01077747       0.003
  -0.04355661 -0.05719844  0.01077747       0.007
  -0.04355661 -0.03079916  0.01077747       0.003
   0.01866712  0.01319964  0.03233240       0.001
   0.04355661  0.00439988  0.03233240       0.003
   0.06844610 -0.00439988  0.03233240       0.003
   0.09333559 -0.01319964  0.03233240       0.003
   0.11822508 -0.02199940  0.03233240       0.003
  -0.15555931  0.07479796  0.03233240       0.003
  -0.13066982  0.06599820  0.03233240       0.003
  -0.10578033  0.05719844  0.03233240       0.003
  -0.08089084  0.04839868  0.03233240       0.003
  -0.05600135  0.03959892  0.03233240       0.003
   0.04355661  0.03079916  0.03233240       0.003
   0.06844610  0.02199940  0.03233240       0.007
   0.09333559  0.01319964  0.03233240       0.007
   0.11822508  0.00439988  0.03233240       0.007
  -0.15555931  0.10119724  0.03233240       0.007
  -0.13066982  0.09239748  0.03233240       0.007
  -0.10578033  0.08359772  0.03233240       0.007
  -0.08089084  0.07479796  0.03233240       0.007
  -0.05600135  0.06599820  0.03233240       0.007
   0.06844610  0.04839868  0.03233240       0.003
   0.09333559  0.03959892  0.03233240       0.007
   0.11822508  0.03079916  0.03233240       0.007
  -0.15555931  0.12759652  0.03233240       0.007
  -0.13066982  0.11879676  0.03233240       0.007
  -0.10578033  0.10999700  0.03233240       0.007
  -0.08089084  0.10119724  0.03233240       0.007
  -0.05600135  0.09239748  0.03233240       0.007
   0.09333559  0.06599820  0.03233240       0.003
   0.11822508  0.05719844  0.03233240       0.007
  -0.15555931  0.15399580  0.03233240       0.007
  -0.13066982  0.14519604  0.03233240       0.007
  -0.10578033  0.13639628  0.03233240       0.007
  -0.08089084  0.12759652  0.03233240       0.007
  -0.05600135  0.11879676  0.03233240       0.007
   0.11822508  0.08359772  0.03233240       0.003
  -0.15555931  0.18039508  0.03233240       0.007
  -0.13066982  0.17159532  0.03233240       0.007
  -0.10578033  0.16279556  0.03233240       0.007
  -0.08089084  0.15399580  0.03233240       0.007
  -0.05600135  0.14519604  0.03233240       0.007
  -0.15555931 -0.10999700  0.03233240       0.003
  -0.13066982 -0.11879676  0.03233240       0.007
  -0.10578033 -0.12759652  0.03233240       0.007
  -0.08089084 -0.13639628  0.03233240       0.007
  -0.13066982 -0.09239748  0.03233240       0.003
  -0.10578033 -0.10119724  0.03233240       0.007
  -0.08089084 -0.10999700  0.03233240       0.007
  -0.10578033 -0.07479796  0.03233240       0.003
  -0.08089084 -0.08359772  0.03233240       0.007
  -0.08089084 -0.05719844  0.03233240       0.003
   0.03111186  0.02199940  0.05388733       0.001
   0.05600135  0.01319964  0.05388733       0.003
   0.08089084  0.00439988  0.05388733       0.003
   0.10578033 -0.00439988  0.05388733       0.003
  -0.16800406  0.09239748  0.05388733       0.003
  -0.14311457  0.08359772  0.05388733       0.003
  -0.11822508  0.07479796  0.05388733       0.003
  -0.09333559  0.06599820  0.05388733       0.003
   0.05600135  0.03959892  0.05388733       0.003
   0.08089084  0.03079916  0.05388733       0.007
   0.10578033  0.02199940  0.05388733       0.007
  -0.16800406  0.11879676  0.05388733       0.007
  -0.14311457  0.10999700  0.05388733       0.007
  -0.11822508  0.10119724  0.05388733       0.007
  -0.09333559  0.09239748  0.05388733       0.007
   0.08089084  0.05719844  0.05388733       0.003
   0.10578033  0.04839868  0.05388733       0.007
  -0.16800406  0.14519604  0.05388733       0.007
  -0.14311457  0.13639628  0.05388733       0.007
  -0.11822508  0.12759652  0.05388733       0.007
  -0.09333559  0.11879676  0.05388733       0.007
   0.10578033  0.07479796  0.05388733       0.003
  -0.16800406  0.17159532  0.05388733       0.007
  -0.14311457  0.16279556  0.05388733       0.007
  -0.11822508  0.15399580  0.05388733       0.007
  -0.09333559  0.14519604  0.05388733       0.007
  -0.16800406 -0.11879676  0.05388733       0.003
  -0.14311457 -0.12759652  0.05388733       0.007
  -0.11822508 -0.13639628  0.05388733       0.007
  -0.14311457 -0.10119724  0.05388733       0.003
  -0.11822508 -0.10999700  0.05388733       0.007
  -0.11822508 -0.08359772  0.05388733       0.003
   0.04355661  0.03079916  0.07544227       0.001
   0.06844610  0.02199940  0.07544227       0.003
   0.09333559  0.01319964  0.07544227       0.003
  -0.18044880  0.10999700  0.07544227       0.003
  -0.15555931  0.10119724  0.07544227       0.003
  -0.13066982  0.09239748  0.07544227       0.003
   0.06844610  0.04839868  0.07544227       0.003
   0.09333559  0.03959892  0.07544227       0.007
  -0.18044880  0.13639628  0.07544227       0.007
  -0.15555931  0.12759652  0.07544227       0.007
  -0.13066982  0.11879676  0.07544227       0.007
   0.09333559  0.06599820  0.07544227       0.003
  -0.18044880  0.16279556  0.07544227       0.007
  -0.15555931  0.15399580  0.07544227       0.007
  -0.13066982  0.14519604  0.07544227       0.007
  -0.18044880 -0.12759652  0.07544227       0.003
  -0.15555931 -0.13639628  0.07544227       0.007
  -0.15555931 -0.10999700  0.07544227       0.003
   0.05600135  0.03959892  0.09699720       0.001
   0.08089084  0.03079916  0.09699720       0.003
  -0.19289355  0.12759652  0.09699720       0.003
  -0.16800406  0.11879676  0.09699720       0.003
   0.08089084  0.05719844  0.09699720       0.003
  -0.19289355  0.15399580  0.09699720       0.007
  -0.16800406  0.14519604  0.09699720       0.007
  -0.19289355 -0.13639628  0.09699720       0.003
   0.06844610  0.04839868  0.11855214       0.001
  -0.20533829  0.14519604  0.11855214       0.003
 
 k-points in reciprocal lattice and weights: Automatic                               
   0.04166667  0.04166667  0.04166667       0.001
   0.12500000  0.04166667  0.04166667       0.003
   0.20833333  0.04166667  0.04166667       0.003
   0.29166667  0.04166667  0.04166667       0.003
   0.37500000  0.04166667  0.04166667       0.003
   0.45833333  0.04166667  0.04166667       0.003
  -0.45833333  0.04166667  0.04166667       0.003
  -0.37500000  0.04166667  0.04166667       0.003
  -0.29166667  0.04166667  0.04166667       0.003
  -0.20833333  0.04166667  0.04166667       0.003
  -0.12500000  0.04166667  0.04166667       0.003
  -0.04166667  0.04166667  0.04166667       0.003
   0.12500000  0.12500000  0.04166667       0.003
   0.20833333  0.12500000  0.04166667       0.007
   0.29166667  0.12500000  0.04166667       0.007
   0.37500000  0.12500000  0.04166667       0.007
   0.45833333  0.12500000  0.04166667       0.007
  -0.45833333  0.12500000  0.04166667       0.007
  -0.37500000  0.12500000  0.04166667       0.007
  -0.29166667  0.12500000  0.04166667       0.007
  -0.20833333  0.12500000  0.04166667       0.007
  -0.12500000  0.12500000  0.04166667       0.007
  -0.04166667  0.12500000  0.04166667       0.007
   0.20833333  0.20833333  0.04166667       0.003
   0.29166667  0.20833333  0.04166667       0.007
   0.37500000  0.20833333  0.04166667       0.007
   0.45833333  0.20833333  0.04166667       0.007
  -0.45833333  0.20833333  0.04166667       0.007
  -0.37500000  0.20833333  0.04166667       0.007
  -0.29166667  0.20833333  0.04166667       0.007
  -0.20833333  0.20833333  0.04166667       0.007
  -0.12500000  0.20833333  0.04166667       0.007
  -0.04166667  0.20833333  0.04166667       0.007
   0.29166667  0.29166667  0.04166667       0.003
   0.37500000  0.29166667  0.04166667       0.007
   0.45833333  0.29166667  0.04166667       0.007
  -0.45833333  0.29166667  0.04166667       0.007
  -0.37500000  0.29166667  0.04166667       0.007
  -0.29166667  0.29166667  0.04166667       0.007
  -0.20833333  0.29166667  0.04166667       0.007
  -0.12500000  0.29166667  0.04166667       0.007
  -0.04166667  0.29166667  0.04166667       0.007
   0.37500000  0.37500000  0.04166667       0.003
   0.45833333  0.37500000  0.04166667       0.007
  -0.45833333  0.37500000  0.04166667       0.007
  -0.37500000  0.37500000  0.04166667       0.007
  -0.29166667  0.37500000  0.04166667       0.007
  -0.20833333  0.37500000  0.04166667       0.007
  -0.12500000  0.37500000  0.04166667       0.007
  -0.04166667  0.37500000  0.04166667       0.007
   0.45833333  0.45833333  0.04166667       0.003
  -0.45833333  0.45833333  0.04166667       0.007
  -0.37500000  0.45833333  0.04166667       0.007
  -0.29166667  0.45833333  0.04166667       0.007
  -0.20833333  0.45833333  0.04166667       0.007
  -0.12500000  0.45833333  0.04166667       0.007
  -0.04166667  0.45833333  0.04166667       0.007
  -0.45833333 -0.45833333  0.04166667       0.003
  -0.37500000 -0.45833333  0.04166667       0.007
  -0.29166667 -0.45833333  0.04166667       0.007
  -0.20833333 -0.45833333  0.04166667       0.007
  -0.12500000 -0.45833333  0.04166667       0.007
  -0.37500000 -0.37500000  0.04166667       0.003
  -0.29166667 -0.37500000  0.04166667       0.007
  -0.20833333 -0.37500000  0.04166667       0.007
  -0.12500000 -0.37500000  0.04166667       0.007
  -0.29166667 -0.29166667  0.04166667       0.003
  -0.20833333 -0.29166667  0.04166667       0.007
  -0.12500000 -0.29166667  0.04166667       0.007
  -0.20833333 -0.20833333  0.04166667       0.003
  -0.12500000 -0.20833333  0.04166667       0.007
  -0.12500000 -0.12500000  0.04166667       0.003
   0.12500000  0.12500000  0.12500000       0.001
   0.20833333  0.12500000  0.12500000       0.003
   0.29166667  0.12500000  0.12500000       0.003
   0.37500000  0.12500000  0.12500000       0.003
   0.45833333  0.12500000  0.12500000       0.003
  -0.45833333  0.12500000  0.12500000       0.003
  -0.37500000  0.12500000  0.12500000       0.003
  -0.29166667  0.12500000  0.12500000       0.003
  -0.20833333  0.12500000  0.12500000       0.003
  -0.12500000  0.12500000  0.12500000       0.003
   0.20833333  0.20833333  0.12500000       0.003
   0.29166667  0.20833333  0.12500000       0.007
   0.37500000  0.20833333  0.12500000       0.007
   0.45833333  0.20833333  0.12500000       0.007
  -0.45833333  0.20833333  0.12500000       0.007
  -0.37500000  0.20833333  0.12500000       0.007
  -0.29166667  0.20833333  0.12500000       0.007
  -0.20833333  0.20833333  0.12500000       0.007
  -0.12500000  0.20833333  0.12500000       0.007
   0.29166667  0.29166667  0.12500000       0.003
   0.37500000  0.29166667  0.12500000       0.007
   0.45833333  0.29166667  0.12500000       0.007
  -0.45833333  0.29166667  0.12500000       0.007
  -0.37500000  0.29166667  0.12500000       0.007
  -0.29166667  0.29166667  0.12500000       0.007
  -0.20833333  0.29166667  0.12500000       0.007
  -0.12500000  0.29166667  0.12500000       0.007
   0.37500000  0.37500000  0.12500000       0.003
   0.45833333  0.37500000  0.12500000       0.007
  -0.45833333  0.37500000  0.12500000       0.007
  -0.37500000  0.37500000  0.12500000       0.007
  -0.29166667  0.37500000  0.12500000       0.007
  -0.20833333  0.37500000  0.12500000       0.007
  -0.12500000  0.37500000  0.12500000       0.007
   0.45833333  0.45833333  0.12500000       0.003
  -0.45833333  0.45833333  0.12500000       0.007
  -0.37500000  0.45833333  0.12500000       0.007
  -0.29166667  0.45833333  0.12500000       0.007
  -0.20833333  0.45833333  0.12500000       0.007
  -0.12500000  0.45833333  0.12500000       0.007
  -0.45833333 -0.45833333  0.12500000       0.003
  -0.37500000 -0.45833333  0.12500000       0.007
  -0.29166667 -0.45833333  0.12500000       0.007
  -0.20833333 -0.45833333  0.12500000       0.007
  -0.37500000 -0.37500000  0.12500000       0.003
  -0.29166667 -0.37500000  0.12500000       0.007
  -0.20833333 -0.37500000  0.12500000       0.007
  -0.29166667 -0.29166667  0.12500000       0.003
  -0.20833333 -0.29166667  0.12500000       0.007
  -0.20833333 -0.20833333  0.12500000       0.003
   0.20833333  0.20833333  0.20833333       0.001
   0.29166667  0.20833333  0.20833333       0.003
   0.37500000  0.20833333  0.20833333       0.003
   0.45833333  0.20833333  0.20833333       0.003
  -0.45833333  0.20833333  0.20833333       0.003
  -0.37500000  0.20833333  0.20833333       0.003
  -0.29166667  0.20833333  0.20833333       0.003
  -0.20833333  0.20833333  0.20833333       0.003
   0.29166667  0.29166667  0.20833333       0.003
   0.37500000  0.29166667  0.20833333       0.007
   0.45833333  0.29166667  0.20833333       0.007
  -0.45833333  0.29166667  0.20833333       0.007
  -0.37500000  0.29166667  0.20833333       0.007
  -0.29166667  0.29166667  0.20833333       0.007
  -0.20833333  0.29166667  0.20833333       0.007
   0.37500000  0.37500000  0.20833333       0.003
   0.45833333  0.37500000  0.20833333       0.007
  -0.45833333  0.37500000  0.20833333       0.007
  -0.37500000  0.37500000  0.20833333       0.007
  -0.29166667  0.37500000  0.20833333       0.007
  -0.20833333  0.37500000  0.20833333       0.007
   0.45833333  0.45833333  0.20833333       0.003
  -0.45833333  0.45833333  0.20833333       0.007
  -0.37500000  0.45833333  0.20833333       0.007
  -0.29166667  0.45833333  0.20833333       0.007
  -0.20833333  0.45833333  0.20833333       0.007
  -0.45833333 -0.45833333  0.20833333       0.003
  -0.37500000 -0.45833333  0.20833333       0.007
  -0.29166667 -0.45833333  0.20833333       0.007
  -0.37500000 -0.37500000  0.20833333       0.003
  -0.29166667 -0.37500000  0.20833333       0.007
  -0.29166667 -0.29166667  0.20833333       0.003
   0.29166667  0.29166667  0.29166667       0.001
   0.37500000  0.29166667  0.29166667       0.003
   0.45833333  0.29166667  0.29166667       0.003
  -0.45833333  0.29166667  0.29166667       0.003
  -0.37500000  0.29166667  0.29166667       0.003
  -0.29166667  0.29166667  0.29166667       0.003
   0.37500000  0.37500000  0.29166667       0.003
   0.45833333  0.37500000  0.29166667       0.007
  -0.45833333  0.37500000  0.29166667       0.007
  -0.37500000  0.37500000  0.29166667       0.007
  -0.29166667  0.37500000  0.29166667       0.007
   0.45833333  0.45833333  0.29166667       0.003
  -0.45833333  0.45833333  0.29166667       0.007
  -0.37500000  0.45833333  0.29166667       0.007
  -0.29166667  0.45833333  0.29166667       0.007
  -0.45833333 -0.45833333  0.29166667       0.003
  -0.37500000 -0.45833333  0.29166667       0.007
  -0.37500000 -0.37500000  0.29166667       0.003
   0.37500000  0.37500000  0.37500000       0.001
   0.45833333  0.37500000  0.37500000       0.003
  -0.45833333  0.37500000  0.37500000       0.003
  -0.37500000  0.37500000  0.37500000       0.003
   0.45833333  0.45833333  0.37500000       0.003
  -0.45833333  0.45833333  0.37500000       0.007
  -0.37500000  0.45833333  0.37500000       0.007
  -0.45833333 -0.45833333  0.37500000       0.003
   0.45833333  0.45833333  0.45833333       0.001
  -0.45833333  0.45833333  0.45833333       0.003
 
 position of ions in fractional coordinates (direct lattice) 
   0.87500000  0.87500000  0.87500000
   0.12500000  0.12500000  0.12500000
 
 position of ions in cartesian coordinates  (Angst):
   3.84756329  2.72063917  6.66417416
   0.54965190  0.38866274  0.95202488
 


--------------------------------------------------------------------------------------------------------


 k-point   1 :   0.0417 0.0417 0.0417  plane waves:     561
 k-point   2 :   0.1250 0.0417 0.0417  plane waves:     567
 k-point   3 :   0.2083 0.0417 0.0417  plane waves:     574
 k-point   4 :   0.2917 0.0417 0.0417  plane waves:     577
 k-point   5 :   0.3750 0.0417 0.0417  plane waves:     587
 k-point   6 :   0.4583 0.0417 0.0417  plane waves:     588
 k-point   7 :  -0.4583 0.0417 0.0417  plane waves:     578
 k-point   8 :  -0.3750 0.0417 0.0417  plane waves:     588
 k-point   9 :  -0.2917 0.0417 0.0417  plane waves:     586
 k-point  10 :  -0.2083 0.0417 0.0417  plane waves:     577
 k-point  11 :  -0.1250 0.0417 0.0417  plane waves:     574
 k-point  12 :  -0.0417 0.0417 0.0417  plane waves:     571
 k-point  13 :   0.1250 0.1250 0.0417  plane waves:     571
 k-point  14 :   0.2083 0.1250 0.0417  plane waves:     574
 k-point  15 :   0.2917 0.1250 0.0417  plane waves:     575
 k-point  16 :   0.3750 0.1250 0.0417  plane waves:     587
 k-point  17 :   0.4583 0.1250 0.0417  plane waves:     586
 k-point  18 :  -0.4583 0.1250 0.0417  plane waves:     582
 k-point  19 :  -0.3750 0.1250 0.0417  plane waves:     581
 k-point  20 :  -0.2917 0.1250 0.0417  plane waves:     583
 k-point  21 :  -0.2083 0.1250 0.0417  plane waves:     581
 k-point  22 :  -0.1250 0.1250 0.0417  plane waves:     572
 k-point  23 :  -0.0417 0.1250 0.0417  plane waves:     570
 k-point  24 :   0.2083 0.2083 0.0417  plane waves:     576
 k-point  25 :   0.2917 0.2083 0.0417  plane waves:     578
 k-point  26 :   0.3750 0.2083 0.0417  plane waves:     583
 k-point  27 :   0.4583 0.2083 0.0417  plane waves:     580
 k-point  28 :  -0.4583 0.2083 0.0417  plane waves:     580
 k-point  29 :  -0.3750 0.2083 0.0417  plane waves:     581
 k-point  30 :  -0.2917 0.2083 0.0417  plane waves:     581
 k-point  31 :  -0.2083 0.2083 0.0417  plane waves:     584
 k-point  32 :  -0.1250 0.2083 0.0417  plane waves:     580
 k-point  33 :  -0.0417 0.2083 0.0417  plane waves:     577
 k-point  34 :   0.2917 0.2917 0.0417  plane waves:     582
 k-point  35 :   0.3750 0.2917 0.0417  plane waves:     579
 k-point  36 :   0.4583 0.2917 0.0417  plane waves:     585
 k-point  37 :  -0.4583 0.2917 0.0417  plane waves:     580
 k-point  38 :  -0.3750 0.2917 0.0417  plane waves:     581
 k-point  39 :  -0.2917 0.2917 0.0417  plane waves:     578
 k-point  40 :  -0.2083 0.2917 0.0417  plane waves:     580
 k-point  41 :  -0.1250 0.2917 0.0417  plane waves:     581
 k-point  42 :  -0.0417 0.2917 0.0417  plane waves:     583
 k-point  43 :   0.3750 0.3750 0.0417  plane waves:     578
 k-point  44 :   0.4583 0.3750 0.0417  plane waves:     588
 k-point  45 :  -0.4583 0.3750 0.0417  plane waves:     582
 k-point  46 :  -0.3750 0.3750 0.0417  plane waves:     585
 k-point  47 :  -0.2917 0.3750 0.0417  plane waves:     580
 k-point  48 :  -0.2083 0.3750 0.0417  plane waves:     579
 k-point  49 :  -0.1250 0.3750 0.0417  plane waves:     583
 k-point  50 :  -0.0417 0.3750 0.0417  plane waves:     586
 k-point  51 :   0.4583 0.4583 0.0417  plane waves:     585
 k-point  52 :  -0.4583 0.4583 0.0417  plane waves:     589
 k-point  53 :  -0.3750 0.4583 0.0417  plane waves:     586
 k-point  54 :  -0.2917 0.4583 0.0417  plane waves:     580
 k-point  55 :  -0.2083 0.4583 0.0417  plane waves:     577
 k-point  56 :  -0.1250 0.4583 0.0417  plane waves:     579
 k-point  57 :  -0.0417 0.4583 0.0417  plane waves:     585
 k-point  58 :  -0.4583-0.4583 0.0417  plane waves:     588
 k-point  59 :  -0.3750-0.4583 0.0417  plane waves:     587
 k-point  60 :  -0.2917-0.4583 0.0417  plane waves:     582
 k-point  61 :  -0.2083-0.4583 0.0417  plane waves:     578
 k-point  62 :  -0.1250-0.4583 0.0417  plane waves:     583
 k-point  63 :  -0.3750-0.3750 0.0417  plane waves:     583
 k-point  64 :  -0.2917-0.3750 0.0417  plane waves:     581
 k-point  65 :  -0.2083-0.3750 0.0417  plane waves:     584
 k-point  66 :  -0.1250-0.3750 0.0417  plane waves:     582
 k-point  67 :  -0.2917-0.2917 0.0417  plane waves:     576
 k-point  68 :  -0.2083-0.2917 0.0417  plane waves:     579
 k-point  69 :  -0.1250-0.2917 0.0417  plane waves:     579
 k-point  70 :  -0.2083-0.2083 0.0417  plane waves:     578
 k-point  71 :  -0.1250-0.2083 0.0417  plane waves:     577
 k-point  72 :  -0.1250-0.1250 0.0417  plane waves:     571
 k-point  73 :   0.1250 0.1250 0.1250  plane waves:     573
 k-point  74 :   0.2083 0.1250 0.1250  plane waves:     568
 k-point  75 :   0.2917 0.1250 0.1250  plane waves:     572
 k-point  76 :   0.3750 0.1250 0.1250  plane waves:     582
 k-point  77 :   0.4583 0.1250 0.1250  plane waves:     582
 k-point  78 :  -0.4583 0.1250 0.1250  plane waves:     579
 k-point  79 :  -0.3750 0.1250 0.1250  plane waves:     580
 k-point  80 :  -0.2917 0.1250 0.1250  plane waves:     588
 k-point  81 :  -0.2083 0.1250 0.1250  plane waves:     586
 k-point  82 :  -0.1250 0.1250 0.1250  plane waves:     576
 k-point  83 :   0.2083 0.2083 0.1250  plane waves:     575
 k-point  84 :   0.2917 0.2083 0.1250  plane waves:     576
 k-point  85 :   0.3750 0.2083 0.1250  plane waves:     583
 k-point  86 :   0.4583 0.2083 0.1250  plane waves:     579
 k-point  87 :  -0.4583 0.2083 0.1250  plane waves:     582
 k-point  88 :  -0.3750 0.2083 0.1250  plane waves:     581
 k-point  89 :  -0.2917 0.2083 0.1250  plane waves:     580
 k-point  90 :  -0.2083 0.2083 0.1250  plane waves:     584
 k-point  91 :  -0.1250 0.2083 0.1250  plane waves:     582
 k-point  92 :   0.2917 0.2917 0.1250  plane waves:     578
 k-point  93 :   0.3750 0.2917 0.1250  plane waves:     584
 k-point  94 :   0.4583 0.2917 0.1250  plane waves:     583
 k-point  95 :  -0.4583 0.2917 0.1250  plane waves:     575
 k-point  96 :  -0.3750 0.2917 0.1250  plane waves:     577
 k-point  97 :  -0.2917 0.2917 0.1250  plane waves:     575
 k-point  98 :  -0.2083 0.2917 0.1250  plane waves:     578
 k-point  99 :  -0.1250 0.2917 0.1250  plane waves:     583
 k-point 100 :   0.3750 0.3750 0.1250  plane waves:     581
 k-point 101 :   0.4583 0.3750 0.1250  plane waves:     582
 k-point 102 :  -0.4583 0.3750 0.1250  plane waves:     579
 k-point 103 :  -0.3750 0.3750 0.1250  plane waves:     581
 k-point 104 :  -0.2917 0.3750 0.1250  plane waves:     579
 k-point 105 :  -0.2083 0.3750 0.1250  plane waves:     577
 k-point 106 :  -0.1250 0.3750 0.1250  plane waves:     579
 k-point 107 :   0.4583 0.4583 0.1250  plane waves:     585
 k-point 108 :  -0.4583 0.4583 0.1250  plane waves:     582
 k-point 109 :  -0.3750 0.4583 0.1250  plane waves:     586
 k-point 110 :  -0.2917 0.4583 0.1250  plane waves:     585
 k-point 111 :  -0.2083 0.4583 0.1250  plane waves:     575
 k-point 112 :  -0.1250 0.4583 0.1250  plane waves:     579
 k-point 113 :  -0.4583-0.4583 0.1250  plane waves:     588
 k-point 114 :  -0.3750-0.4583 0.1250  plane waves:     586
 k-point 115 :  -0.2917-0.4583 0.1250  plane waves:     582
 k-point 116 :  -0.2083-0.4583 0.1250  plane waves:     578
 k-point 117 :  -0.3750-0.3750 0.1250  plane waves:     586
 k-point 118 :  -0.2917-0.3750 0.1250  plane waves:     583
 k-point 119 :  -0.2083-0.3750 0.1250  plane waves:     579
 k-point 120 :  -0.2917-0.2917 0.1250  plane waves:     587
 k-point 121 :  -0.2083-0.2917 0.1250  plane waves:     581
 k-point 122 :  -0.2083-0.2083 0.1250  plane waves:     581
 k-point 123 :   0.2083 0.2083 0.2083  plane waves:     579
 k-point 124 :   0.2917 0.2083 0.2083  plane waves:     576
 k-point 125 :   0.3750 0.2083 0.2083  plane waves:     583
 k-point 126 :   0.4583 0.2083 0.2083  plane waves:     584
 k-point 127 :  -0.4583 0.2083 0.2083  plane waves:     581
 k-point 128 :  -0.3750 0.2083 0.2083  plane waves:     572
 k-point 129 :  -0.2917 0.2083 0.2083  plane waves:     582
 k-point 130 :  -0.2083 0.2083 0.2083  plane waves:     586
 k-point 131 :   0.2917 0.2917 0.2083  plane waves:     581
 k-point 132 :   0.3750 0.2917 0.2083  plane waves:     584
 k-point 133 :   0.4583 0.2917 0.2083  plane waves:     577
 k-point 134 :  -0.4583 0.2917 0.2083  plane waves:     575
 k-point 135 :  -0.3750 0.2917 0.2083  plane waves:     577
 k-point 136 :  -0.2917 0.2917 0.2083  plane waves:     575
 k-point 137 :  -0.2083 0.2917 0.2083  plane waves:     579
 k-point 138 :   0.3750 0.3750 0.2083  plane waves:     582
 k-point 139 :   0.4583 0.3750 0.2083  plane waves:     581
 k-point 140 :  -0.4583 0.3750 0.2083  plane waves:     579
 k-point 141 :  -0.3750 0.3750 0.2083  plane waves:     573
 k-point 142 :  -0.2917 0.3750 0.2083  plane waves:     579
 k-point 143 :  -0.2083 0.3750 0.2083  plane waves:     575
 k-point 144 :   0.4583 0.4583 0.2083  plane waves:     578
 k-point 145 :  -0.4583 0.4583 0.2083  plane waves:     580
 k-point 146 :  -0.3750 0.4583 0.2083  plane waves:     580
 k-point 147 :  -0.2917 0.4583 0.2083  plane waves:     588
 k-point 148 :  -0.2083 0.4583 0.2083  plane waves:     584
 k-point 149 :  -0.4583-0.4583 0.2083  plane waves:     579
 k-point 150 :  -0.3750-0.4583 0.2083  plane waves:     583
 k-point 151 :  -0.2917-0.4583 0.2083  plane waves:     587
 k-point 152 :  -0.3750-0.3750 0.2083  plane waves:     585
 k-point 153 :  -0.2917-0.3750 0.2083  plane waves:     581
 k-point 154 :  -0.2917-0.2917 0.2083  plane waves:     582
 k-point 155 :   0.2917 0.2917 0.2917  plane waves:     577
 k-point 156 :   0.3750 0.2917 0.2917  plane waves:     585
 k-point 157 :   0.4583 0.2917 0.2917  plane waves:     578
 k-point 158 :  -0.4583 0.2917 0.2917  plane waves:     580
 k-point 159 :  -0.3750 0.2917 0.2917  plane waves:     581
 k-point 160 :  -0.2917 0.2917 0.2917  plane waves:     581
 k-point 161 :   0.3750 0.3750 0.2917  plane waves:     588
 k-point 162 :   0.4583 0.3750 0.2917  plane waves:     584
 k-point 163 :  -0.4583 0.3750 0.2917  plane waves:     581
 k-point 164 :  -0.3750 0.3750 0.2917  plane waves:     581
 k-point 165 :  -0.2917 0.3750 0.2917  plane waves:     583
 k-point 166 :   0.4583 0.4583 0.2917  plane waves:     584
 k-point 167 :  -0.4583 0.4583 0.2917  plane waves:     578
 k-point 168 :  -0.3750 0.4583 0.2917  plane waves:     577
 k-point 169 :  -0.2917 0.4583 0.2917  plane waves:     585
 k-point 170 :  -0.4583-0.4583 0.2917  plane waves:     580
 k-point 171 :  -0.3750-0.4583 0.2917  plane waves:     580
 k-point 172 :  -0.3750-0.3750 0.2917  plane waves:     583
 k-point 173 :   0.3750 0.3750 0.3750  plane waves:     589
 k-point 174 :   0.4583 0.3750 0.3750  plane waves:     584
 k-point 175 :  -0.4583 0.3750 0.3750  plane waves:     584
 k-point 176 :  -0.3750 0.3750 0.3750  plane waves:     581
 k-point 177 :   0.4583 0.4583 0.3750  plane waves:     585
 k-point 178 :  -0.4583 0.4583 0.3750  plane waves:     581
 k-point 179 :  -0.3750 0.4583 0.3750  plane waves:     577
 k-point 180 :  -0.4583-0.4583 0.3750  plane waves:     578
 k-point 181 :   0.4583 0.4583 0.4583  plane waves:     580
 k-point 182 :  -0.4583 0.4583 0.4583  plane waves:     577

 maximum and minimum number of plane-waves per node :       589      561

 maximum number of plane-waves:       589
 maximum index in each direction: 
   IXMAX=    6   IYMAX=    6   IZMAX=    5
   IXMIN=   -6   IYMIN=   -6   IZMIN=   -6


 serial   3D FFT for wavefunctions
 parallel 3D FFT for charge:
    minimum data exchange during FFTs selected (reduces bandwidth)


 total amount of memory used by VASP MPI-rank0    46563. kBytes
=======================================================================

   base      :      30000. kBytes
   nonl-proj :       6914. kBytes
   fftplans  :       4177. kBytes
   grid      :       1926. kBytes
   one-center:          6. kBytes
   wavefun   :       3540. kBytes
 
     INWAV:  cpu time    0.0000: real time    0.0006
 Broyden mixing: mesh for mixing (old mesh)
   NGX = 11   NGY = 11   NGZ = 11
  (NGX  = 48   NGY  = 48   NGZ  = 48)
  gives a total of   1331 points

 initial charge density was supplied:
 charge density of overlapping atoms calculated
 number of electron       8.0000000 magnetization 
 keeping initial charge density in first step


--------------------------------------------------------------------------------------------------------


 Maximum index for augmentation-charges        23021 (set IRDMAX)


--------------------------------------------------------------------------------------------------------


 First call to EWALD:  gamma=   0.522
 Maximum number of real-space cells 3x 3x 3
 Maximum number of reciprocal cells 3x 3x 3

    FEWALD:  cpu time    0.0030: real time    0.0035


--------------------------------------- Iteration      1(   1)  ---------------------------------------


    POTLOK:  cpu time    0.0310: real time    0.0345
    SETDIJ:  cpu time    0.1780: real time    0.1786
     EDDAV:  cpu time    1.4608: real time    1.4615
       DOS:  cpu time    0.0020: real time    0.0031
    --------------------------------------------
      LOOP:  cpu time    1.6727: real time    1.6780

 eigenvalue-minimisations  :  2928
 total energy-change (2. order) : 0.1354562E+01  (-0.2563003E+03)
 number of electron       8.0000000 magnetization 
 augmentation part        8.0000000 magnetization 

 Free energy of the ion-electron system (eV)
  ---------------------------------------------------
  alpha Z        PSCENC =         3.44829435
  Ewald energy   TEWEN  =      -230.45353226
  -Hartree energ DENC   =       -10.63347071
  -exchange      EXHF   =         0.00000000
  -V(xc)+E(xc)   XCENC  =       -18.50396166
  PAW double counting   =       176.24759923     -141.06103558
  entropy T*S    EENTRO =        -0.00047033
  eigenvalues    EBANDS =        16.17988511
  atomic energy  EATOM  =       206.13125414
  Solvation  Ediel_sol  =         0.00000000
  ---------------------------------------------------
  free energy    TOTEN  =         1.35456230 eV

  energy without entropy =        1.35503263  energy(sigma->0) =        1.35479746


--------------------------------------------------------------------------------------------------------




--------------------------------------- Iteration      1(   2)  ---------------------------------------


     EDDAV:  cpu time    2.0977: real time    2.1170
       DOS:  cpu time    0.0020: real time    0.0020
    --------------------------------------------
      LOOP:  cpu time    2.0987: real time    2.1190

 eigenvalue-minimisations  :  4480
 total energy-change (2. order) :-0.1223298E+02  (-0.1167874E+02)
 number of electron       8.0000000 magnetization 
 augmentation part        8.0000000 magnetization 

 Free energy of the ion-electron system (eV)
  ---------------------------------------------------
  alpha Z        PSCENC =         3.44829435
  Ewald energy   TEWEN  =      -230.45353226
  -Hartree energ DENC   =       -10.63347071
  -exchange      EXHF   =         0.00000000
  -V(xc)+E(xc)   XCENC  =       -18.50396166
  PAW double counting   =       176.24759923     -141.06103558
  entropy T*S    EENTRO =        -0.00000000
  eigenvalues    EBANDS =         3.94643265
  atomic energy  EATOM  =       206.13125414
  Solvation  Ediel_sol  =         0.00000000
  ---------------------------------------------------
  free energy    TOTEN  =       -10.87841983 eV

  energy without entropy =      -10.87841983  energy(sigma->0) =      -10.87841983


--------------------------------------------------------------------------------------------------------




--------------------------------------- Iteration      1(   3)  ---------------------------------------


     EDDAV:  cpu time    1.7597: real time    1.7786
       DOS:  cpu time    0.0020: real time    0.0020
    --------------------------------------------
      LOOP:  cpu time    1.7617: real time    1.7806

 eigenvalue-minimisations  :  3656
 total energy-change (2. order) :-0.1390044E+00  (-0.1390044E+00)
 number of electron       8.0000000 magnetization 
 augmentation part        8.0000000 magnetization 

 Free energy of the ion-electron system (eV)
  ---------------------------------------------------
  alpha Z        PSCENC =         3.44829435
  Ewald energy   TEWEN  =      -230.45353226
  -Hartree energ DENC   =       -10.63347071
  -exchange      EXHF   =         0.00000000
  -V(xc)+E(xc)   XCENC  =       -18.50396166
  PAW double counting   =       176.24759923     -141.06103558
  entropy T*S    EENTRO =        -0.00000000
  eigenvalues    EBANDS =         3.80742828
  atomic energy  EATOM  =       206.13125414
  Solvation  Ediel_sol  =         0.00000000
  ---------------------------------------------------
  free energy    TOTEN  =       -11.01742420 eV

  energy without entropy =      -11.01742420  energy(sigma->0) =      -11.01742420


--------------------------------------------------------------------------------------------------------




--------------------------------------- Iteration      1(   4)  ---------------------------------------


     EDDAV:  cpu time    2.2417: real time    2.2613
       DOS:  cpu time    0.0010: real time    0.0021
    --------------------------------------------
      LOOP:  cpu time    2.2437: real time    2.2633

 eigenvalue-minimisations  :  4816
 total energy-change (2. order) :-0.5780411E-03  (-0.5780411E-03)
 number of electron       8.0000000 magnetization 
 augmentation part        8.0000000 magnetization 

 Free energy of the ion-electron system (eV)
  ---------------------------------------------------
  alpha Z        PSCENC =         3.44829435
  Ewald energy   TEWEN  =      -230.45353226
  -Hartree energ DENC   =       -10.63347071
  -exchange      EXHF   =         0.00000000
  -V(xc)+E(xc)   XCENC  =       -18.50396166
  PAW double counting   =       176.24759923     -141.06103558
  entropy T*S    EENTRO =        -0.00000000
  eigenvalues    EBANDS =         3.80685024
  atomic energy  EATOM  =       206.13125414
  Solvation  Ediel_sol  =         0.00000000
  ---------------------------------------------------
  free energy    TOTEN  =       -11.01800224 eV

  energy without entropy =      -11.01800224  energy(sigma->0) =      -11.01800224


--------------------------------------------------------------------------------------------------------




--------------------------------------- Iteration      1(   5)  ---------------------------------------


     EDDAV:  cpu time    1.7727: real time    1.7914
       DOS:  cpu time    0.0010: real time    0.0020
    CHARGE:  cpu time    0.1150: real time    0.1150
    MIXING:  cpu time    0.0020: real time    0.0015
    --------------------------------------------
      LOOP:  cpu time    1.8897: real time    1.9100

 eigenvalue-minimisations  :  3704
 total energy-change (2. order) :-0.2070295E-06  (-0.2070294E-06)
 number of electron       8.0000000 magnetization 
 augmentation part       -0.4723247 magnetization 

 Broyden mixing:
  rms(total) = 0.50658E+00    rms(broyden)= 0.50657E+00
  rms(prec ) = 0.98326E+00
  weight for this iteration     100.00

 Free energy of the ion-electron system (eV)
  ---------------------------------------------------
  alpha Z        PSCENC =         3.44829435
  Ewald energy   TEWEN  =      -230.45353226
  -Hartree energ DENC   =       -10.63347071
  -exchange      EXHF   =         0.00000000
  -V(xc)+E(xc)   XCENC  =       -18.50396166
  PAW double counting   =       176.24759923     -141.06103558
  entropy T*S    EENTRO =        -0.00000000
  eigenvalues    EBANDS =         3.80685003
  atomic energy  EATOM  =       206.13125414
  Solvation  Ediel_sol  =         0.00000000
  ---------------------------------------------------
  free energy    TOTEN  =       -11.01800245 eV

  energy without entropy =      -11.01800245  energy(sigma->0) =      -11.01800245


--------------------------------------------------------------------------------------------------------




--------------------------------------- Iteration      1(   6)  ---------------------------------------


    POTLOK:  cpu time    0.0320: real time    0.0478
    SETDIJ:  cpu time    0.1730: real time    0.1737
     EDDAV:  cpu time    1.6897: real time    1.6918
       DOS:  cpu time    0.0020: real time    0.0020
    CHARGE:  cpu time    0.1090: real time    0.1088
    MIXING:  cpu time    0.0010: real time    0.0015
    --------------------------------------------
      LOOP:  cpu time    2.0067: real time    2.0257

 eigenvalue-minimisations  :  3488
 total energy-change (2. order) : 0.1356636E+00  (-0.9134349E-02)
 number of electron       8.0000000 magnetization 
 augmentation part       -0.4661035 magnetization 

 Broyden mixing:
  rms(total) = 0.31086E+00    rms(broyden)= 0.31086E+00
  rms(prec ) = 0.58270E+00
  weight for this iteration     100.00

 eigenvalues of (default mixing * dielectric matrix)
  average eigenvalue GAMMA=   2.5769
  2.5769

 Free energy of the ion-electron system (eV)
  ---------------------------------------------------
  alpha Z        PSCENC =         3.44829435
  Ewald energy   TEWEN  =      -230.45353226
  -Hartree energ DENC   =       -12.16915400
  -exchange      EXHF   =         0.00000000
  -V(xc)+E(xc)   XCENC  =       -18.25940503
  PAW double counting   =       392.68685430     -357.62130552
  entropy T*S    EENTRO =        -0.00000000
  eigenvalues    EBANDS =         5.35465520
  atomic energy  EATOM  =       206.13125414
  Solvation  Ediel_sol  =         0.00000000
  ---------------------------------------------------
  free energy    TOTEN  =       -10.88233882 eV

  energy without entropy =      -10.88233882  energy(sigma->0) =      -10.88233882


--------------------------------------------------------------------------------------------------------




--------------------------------------- Iteration      1(   7)  ---------------------------------------


    POTLOK:  cpu time    0.0320: real time    0.0481
    SETDIJ:  cpu time    0.1730: real time    0.1733
     EDDAV:  cpu time    1.7957: real time    1.7966
       DOS:  cpu time    0.0000: real time    0.0020
    CHARGE:  cpu time    0.1100: real time    0.1091
    MIXING:  cpu time    0.0010: real time    0.0015
    --------------------------------------------
      LOOP:  cpu time    2.1117: real time    2.1305

 eigenvalue-minimisations  :  3760
 total energy-change (2. order) : 0.6058972E-01  (-0.1688803E-01)
 number of electron       8.0000000 magnetization 
 augmentation part       -0.4585526 magnetization 

 Broyden mixing:
  rms(total) = 0.21752E-01    rms(broyden)= 0.21752E-01
  rms(prec ) = 0.44476E-01
  weight for this iteration     100.00

 eigenvalues of (default mixing * dielectric matrix)
  average eigenvalue GAMMA=   2.0842
  1.7867  2.3816

 Free energy of the ion-electron system (eV)
  ---------------------------------------------------
  alpha Z        PSCENC =         3.44829435
  Ewald energy   TEWEN  =      -230.45353226
  -Hartree energ DENC   =       -14.65246836
  -exchange      EXHF   =         0.00000000
  -V(xc)+E(xc)   XCENC  =       -17.85632279
  PAW double counting   =       917.36334926     -882.45507882
  entropy T*S    EENTRO =        -0.00000000
  eigenvalues    EBANDS =         7.65275537
  atomic energy  EATOM  =       206.13125414
  Solvation  Ediel_sol  =         0.00000000
  ---------------------------------------------------
  free energy    TOTEN  =       -10.82174910 eV

  energy without entropy =      -10.82174910  energy(sigma->0) =      -10.82174910


--------------------------------------------------------------------------------------------------------




--------------------------------------- Iteration      1(   8)  ---------------------------------------


    POTLOK:  cpu time    0.0310: real time    0.0483
    SETDIJ:  cpu time    0.1730: real time    0.1729
     EDDAV:  cpu time    1.6298: real time    1.6310
       DOS:  cpu time    0.0010: real time    0.0021
    CHARGE:  cpu time    0.1090: real time    0.1089
    MIXING:  cpu time    0.0020: real time    0.0015
    --------------------------------------------
      LOOP:  cpu time    1.9457: real time    1.9646

 eigenvalue-minimisations  :  3344
 total energy-change (2. order) :-0.1010491E-02  (-0.4133696E-03)
 number of electron       8.0000000 magnetization 
 augmentation part       -0.4595637 magnetization 

 Broyden mixing:
  rms(total) = 0.75174E-02    rms(broyden)= 0.75171E-02
  rms(prec ) = 0.13247E-01
  weight for this iteration     100.00

 eigenvalues of (default mixing * dielectric matrix)
  average eigenvalue GAMMA=   2.2638
  2.8640  1.9637  1.9637

 Free energy of the ion-electron system (eV)
  ---------------------------------------------------
  alpha Z        PSCENC =         3.44829435
  Ewald energy   TEWEN  =      -230.45353226
  -Hartree energ DENC   =       -14.57468787
  -exchange      EXHF   =         0.00000000
  -V(xc)+E(xc)   XCENC  =       -17.85575296
  PAW double counting   =       935.72100906     -900.78476271
  entropy T*S    EENTRO =        -0.00000000
  eigenvalues    EBANDS =         7.54541866
  atomic energy  EATOM  =       206.13125414
  Solvation  Ediel_sol  =         0.00000000
  ---------------------------------------------------
  free energy    TOTEN  =       -10.82275960 eV

  energy without entropy =      -10.82275960  energy(sigma->0) =      -10.82275960


--------------------------------------------------------------------------------------------------------




--------------------------------------- Iteration      1(   9)  ---------------------------------------


    POTLOK:  cpu time    0.0310: real time    0.0485
    SETDIJ:  cpu time    0.1730: real time    0.1728
     EDDAV:  cpu time    2.0607: real time    2.0617
       DOS:  cpu time    0.0010: real time    0.0019
    CHARGE:  cpu time    0.1090: real time    0.1092
    MIXING:  cpu time    0.0010: real time    0.0015
    --------------------------------------------
      LOOP:  cpu time    2.3766: real time    2.3957

 eigenvalue-minimisations  :  4392
 total energy-change (2. order) :-0.1805640E-03  (-0.1742129E-04)
 number of electron       8.0000000 magnetization 
 augmentation part       -0.4596776 magnetization 

 Broyden mixing:
  rms(total) = 0.59335E-02    rms(broyden)= 0.59335E-02
  rms(prec ) = 0.68075E-02
  weight for this iteration     100.00

[...]
      3       1.9607      2.00000
      4       2.3749      2.00000
      5       9.8170      0.00000
      6      10.3921      0.00000
      7      11.1608      0.00000
      8      11.7794      0.00000

 k-point   148 :      -0.2083    0.4583    0.2083
  band No.  band energies     occupation 
      1      -2.3199      2.00000
      2      -1.0052      2.00000
      3       1.8718      2.00000
      4       2.6887      2.00000
      5       9.8226      0.00000
      6      10.1773      0.00000
      7      10.8750      0.00000
      8      12.5214      0.00000

 k-point   149 :      -0.4583   -0.4583    0.2083
  band No.  band energies     occupation 
      1      -2.6092      2.00000
      2      -0.8582      2.00000
      3       2.0238      2.00000
      4       3.5320      2.00000
      5       7.1813      0.00000
      6       9.4885      0.00000
      7      13.4575      0.00000
      8      13.6247      0.00000

 k-point   150 :      -0.3750   -0.4583    0.2083
  band No.  band energies     occupation 
      1      -2.1029      2.00000
      2      -1.3173      2.00000
      3       1.9281      2.00000
      4       3.1185      2.00000
      5       7.6728      0.00000
      6       9.4604      0.00000
      7      13.1348      0.00000
      8      13.9543      0.00000

 k-point   151 :      -0.2917   -0.4583    0.2083
  band No.  band energies     occupation 
      1      -1.9523      2.00000
      2      -1.3839      2.00000
      3       2.0619      2.00000
      4       2.4873      2.00000
      5       8.9502      0.00000
      6       9.6059      0.00000
      7      12.0492      0.00000
      8      12.7901      0.00000

 k-point   152 :      -0.3750   -0.3750    0.2083
  band No.  band energies     occupation 
      1      -2.1603      2.00000
      2      -1.2994      2.00000
      3       1.8785      2.00000
      4       3.4796      2.00000
      5       7.1083      0.00000
      6       9.4106      0.00000
      7      14.0634      0.00000
      8      14.4332      0.00000

 k-point   153 :      -0.2917   -0.3750    0.2083
  band No.  band energies     occupation 
      1      -2.5614      2.00000
      2      -0.8664      2.00000
      3       2.0498      2.00000
      4       3.1992      2.00000
      5       7.7376      0.00000
      6       9.5388      0.00000
      7      12.4381      0.00000
      8      14.5256      0.00000

 k-point   154 :      -0.2917   -0.2917    0.2083
  band No.  band energies     occupation 
      1      -3.1047      2.00000
      2      -0.3784      2.00000
      3       2.3114      2.00000
      4       3.6359      2.00000
      5       7.3245      0.00000
      6       9.6459      0.00000
      7      12.8164      0.00000
      8      12.8194      0.00000

 k-point   155 :       0.2917    0.2917    0.2917
  band No.  band energies     occupation 
      1      -4.9506      2.00000
      2       1.3689      2.00000
      3       5.1753      2.00000
      4       5.1753      2.00000
      5       8.0589      0.00000
      6       9.6336      0.00000
      7       9.6336      0.00000
      8      13.6226      0.00000

 k-point   156 :       0.3750    0.2917    0.2917
  band No.  band energies     occupation 
      1      -4.6660      2.00000
      2       0.9320      2.00000
      3       4.2628      2.00000
      4       5.2249      2.00000
      5       8.4841      0.00000
      6       9.6242      0.00000
      7       9.7878      0.00000
      8      13.1463      0.00000

 k-point   157 :       0.4583    0.2917    0.2917
  band No.  band energies     occupation 
      1      -4.2181      2.00000
      2       0.5663      2.00000
      3       3.0143      2.00000
      4       4.9433      2.00000
      5       8.7416      0.00000
      6      10.2474      0.00000
      7      10.2985      0.00000
      8      12.8710      0.00000

 k-point   158 :      -0.4583    0.2917    0.2917
  band No.  band energies     occupation 
      1      -3.6355      2.00000
      2       0.1413      2.00000
      3       2.0370      2.00000
      4       4.5196      2.00000
      5       8.3174      0.00000
      6      11.2465      0.00000
      7      11.5199      0.00000
      8      12.7861      0.00000

 k-point   159 :      -0.3750    0.2917    0.2917
  band No.  band energies     occupation 
      1      -3.0049      2.00000
      2      -0.4933      2.00000
      3       1.6730      2.00000
      4       4.1153      2.00000
      5       7.8513      0.00000
      6      12.0856      0.00000
      7      12.2013      0.00000
      8      13.1897      0.00000

 k-point   160 :      -0.2917    0.2917    0.2917
  band No.  band energies     occupation 
      1      -2.6829      2.00000
      2      -0.8700      2.00000
      3       1.8309      2.00000
      4       3.8090      2.00000
      5       7.5101      0.00000
      6      11.1505      0.00000
      7      12.4873      0.00000
      8      12.6972      0.00000

 k-point   161 :       0.3750    0.3750    0.2917
  band No.  band energies     occupation 
      1      -4.4510      2.00000
      2       0.4918      2.00000
      3       4.6265      2.00000
      4       4.6763      2.00000
      5       8.3586      0.00000
      6       9.3853      0.00000
      7      10.1028      0.00000
      8      12.5914      0.00000

 k-point   162 :       0.4583    0.3750    0.2917
  band No.  band energies     occupation 
      1      -4.0736      2.00000
      2       0.1494      2.00000
      3       3.5243      2.00000
      4       4.6054      2.00000
      5       8.7657      0.00000
      6       9.3881      0.00000
      7      10.7113      0.00000
      8      12.2438      0.00000

 k-point   163 :      -0.4583    0.3750    0.2917
  band No.  band energies     occupation 
      1      -3.5545      2.00000
      2      -0.1349      2.00000
      3       2.4234      2.00000
      4       4.2135      2.00000
      5       8.8946      0.00000
      6       9.7900      0.00000
      7      11.9114      0.00000
      8      12.1252      0.00000

 k-point   164 :      -0.3750    0.3750    0.2917
  band No.  band energies     occupation 
      1      -2.9411      2.00000
      2      -0.5181      2.00000
      3       1.7203      2.00000
      4       3.7639      2.00000
      5       8.3978      0.00000
      6      11.0612      0.00000
      7      12.1349      0.00000
      8      13.0137      0.00000

 k-point   165 :      -0.2917    0.3750    0.2917
  band No.  band energies     occupation 
      1      -2.4069      2.00000
      2      -1.0069      2.00000
      3       1.6427      2.00000
      4       3.4047      2.00000
      5       7.9936      0.00000
      6      11.0910      0.00000
      7      12.1793      0.00000
      8      13.0032      0.00000

 k-point   166 :       0.4583    0.4583    0.2917
  band No.  band energies     occupation 
      1      -3.7745      2.00000
      2      -0.1951      2.00000
      3       3.4189      2.00000
      4       4.2228      2.00000
      5       8.0985      0.00000
      6      10.3353      0.00000
      7      10.8689      0.00000
      8      11.8398      0.00000

 k-point   167 :      -0.4583    0.4583    0.2917
  band No.  band energies     occupation 
      1      -3.3400      2.00000
      2      -0.4497      2.00000
      3       2.6552      2.00000
      4       3.8693      2.00000
      5       8.3768      0.00000
      6      10.1890      0.00000
      7      11.6483      0.00000
      8      12.1191      0.00000

 k-point   168 :      -0.3750    0.4583    0.2917
  band No.  band energies     occupation 
      1      -2.8024      2.00000
      2      -0.7027      2.00000
      3       1.9996      2.00000
      4       3.2831      2.00000
      5       9.3896      0.00000
      6       9.7527      0.00000
      7      11.6148      0.00000
      8      13.3757      0.00000

 k-point   169 :      -0.2917    0.4583    0.2917
  band No.  band energies     occupation 
      1      -2.2173      2.00000
      2      -1.1138      2.00000
      3       1.7821      2.00000
      4       2.7703      2.00000
      5       9.2470      0.00000
      6      10.7659      0.00000
      7      11.4877      0.00000
      8      11.9107      0.00000

 k-point   170 :      -0.4583   -0.4583    0.2917
  band No.  band energies     occupation 
      1      -3.0167      2.00000
      2      -0.6908      2.00000
      3       2.2562      2.00000
      4       3.9038      2.00000
      5       7.6525      0.00000
      6      11.2308      0.00000
      7      11.8989      0.00000
      8      11.9656      0.00000

 k-point   171 :      -0.3750   -0.4583    0.2917
  band No.  band energies     occupation 
      1      -2.6244      2.00000
      2      -0.8805      2.00000
      3       1.8495      2.00000
      4       3.4781      2.00000
      5       8.0601      0.00000
      6      11.0490      0.00000
      7      11.6443      0.00000
      8      13.5966      0.00000

 k-point   172 :      -0.3750   -0.3750    0.2917
  band No.  band energies     occupation 
      1      -2.4707      2.00000
      2      -0.9823      2.00000
      3       1.5936      2.00000
      4       3.7611      2.00000
      5       7.4373      0.00000
      6      11.0956      0.00000
      7      13.0316      0.00000
      8      13.4590      0.00000

 k-point   173 :       0.3750    0.3750    0.3750
  band No.  band energies     occupation 
      1      -4.3148      2.00000
      2       0.0486      2.00000
      3       4.9768      2.00000
      4       4.9768      2.00000
      5       7.8401      0.00000
      6       9.5335      0.00000
      7       9.5335      0.00000
      8      14.0200      0.00000

 k-point   174 :       0.4583    0.3750    0.3750
  band No.  band energies     occupation 
      1      -4.0214      2.00000
      2      -0.2749      2.00000
      3       4.1720      2.00000
      4       4.9397      2.00000
      5       8.2997      0.00000
      6       9.5633      0.00000
      7       9.6453      0.00000
      8      14.0332      0.00000

 k-point   175 :      -0.4583    0.3750    0.3750
  band No.  band energies     occupation 
      1      -3.5900      2.00000
      2      -0.4726      2.00000
      3       2.9838      2.00000
      4       4.5967      2.00000
      5       8.4120      0.00000
      6      10.2252      0.00000
      7      10.4102      0.00000
      8      14.1438      0.00000

 k-point   176 :      -0.3750    0.3750    0.3750
  band No.  band energies     occupation 
      1      -3.0527      2.00000
      2      -0.6348      2.00000
      3       1.9970      2.00000
      4       4.1556      2.00000
      5       7.9147      0.00000
      6      11.6107      0.00000
      7      11.6230      0.00000
      8      13.1443      0.00000

 k-point   177 :       0.4583    0.4583    0.3750
  band No.  band energies     occupation 
      1      -3.8255      2.00000
      2      -0.5860      2.00000
      3       4.3675      2.00000
      4       4.6488      2.00000
      5       8.2367      0.00000
      6       9.3367      0.00000
      7       9.8727      0.00000
      8      13.7226      0.00000

 k-point   178 :      -0.4583    0.4583    0.3750
  band No.  band energies     occupation 
      1      -3.5084      2.00000
      2      -0.7398      2.00000
      3       3.4500      2.00000
      4       4.4236      2.00000
      5       8.7384      0.00000
      6       9.2079      0.00000
      7      10.6282      0.00000
      8      13.6306      0.00000

 k-point   179 :      -0.3750    0.4583    0.3750
  band No.  band energies     occupation 
      1      -3.0992      2.00000
      2      -0.7733      2.00000
      3       2.4627      2.00000
      4       3.9535      2.00000
      5       8.5697      0.00000
      6       9.9473      0.00000
      7      12.0117      0.00000
      8      13.2255      0.00000

 k-point   180 :      -0.4583   -0.4583    0.3750
  band No.  band energies     occupation 
      1      -3.3366      2.00000
      2      -0.8375      2.00000
      3       3.1289      2.00000
      4       4.3473      2.00000
      5       8.1887      0.00000
      6      10.2279      0.00000
      7      10.6016      0.00000
      8      13.3624      0.00000

 k-point   181 :       0.4583    0.4583    0.4583
  band No.  band energies     occupation 
      1      -3.7532      2.00000
      2      -0.8604      2.00000
      3       4.8764      2.00000
      4       4.8764      2.00000
      5       7.7271      0.00000
      6       9.4284      0.00000
      7       9.4284      0.00000
      8      13.8682      0.00000

 k-point   182 :      -0.4583    0.4583    0.4583
  band No.  band energies     occupation 
      1      -3.5831      2.00000
      2      -0.9420      2.00000
      3       4.2108      2.00000
      4       4.7408      2.00000
      5       8.2146      0.00000
      6       9.3878      0.00000
      7       9.7067      0.00000
      8      14.1828      0.00000


--------------------------------------------------------------------------------------------------------


 soft charge-density along one line, spin component           1
         0         1         2         3         4         5         6         7         8         9
 total charge-density along one line
 
 pseudopotential strength for first ion, spin component:           1
 18.385  25.650   0.000   0.000   0.000   0.000   0.000   0.000
 25.650  35.791   0.000   0.000   0.000   0.000   0.000   0.000
  0.000   0.000   4.176  -0.000  -0.000   7.781  -0.000  -0.000
  0.000   0.000  -0.000   4.176  -0.000  -0.000   7.781  -0.000
  0.000   0.000  -0.000  -0.000   4.176  -0.000  -0.000   7.781
  0.000   0.000   7.781  -0.000  -0.000  14.509  -0.000  -0.000
  0.000   0.000  -0.000   7.781  -0.000  -0.000  14.509  -0.000
  0.000   0.000  -0.000  -0.000   7.781  -0.000  -0.000  14.509
 total augmentation occupancy for first ion, spin component:           1
  5.929  -2.285  -0.000   0.000   0.000   0.000   0.000   0.000
 -2.285   0.994  -0.000   0.000   0.000  -0.000   0.000  -0.000
 -0.000  -0.000   3.112  -0.000   0.000  -0.715   0.000  -0.000
 -0.000   0.000  -0.000   3.112   0.000   0.000  -0.715  -0.000
  0.000   0.000   0.000   0.000   3.112  -0.000  -0.000  -0.715
 -0.000   0.000  -0.715   0.000  -0.000   0.173  -0.000   0.000
  0.000  -0.000   0.000  -0.715  -0.000  -0.000   0.173   0.000
  0.000  -0.000  -0.000  -0.000  -0.715   0.000   0.000   0.173


------------------------ aborting loop because EDIFF is reached ----------------------------------------


    CHARGE:  cpu time    0.1070: real time    0.1081
    FORLOC:  cpu time    0.0010: real time    0.0017
    FORNL :  cpu time    0.1460: real time    0.1471
    STRESS:  cpu time    1.2888: real time    1.2895
    FORCOR:  cpu time    0.0300: real time    0.0311
    FORHAR:  cpu time    0.0060: real time    0.0059
    MIXING:  cpu time    0.0000: real time    0.0012
    OFIELD:  cpu time    0.0010: real time    0.0002

  FORCE on cell =-STRESS in cart. coord.  units (eV):
  Direction    XX          YY          ZZ          XY          YZ          ZX
  --------------------------------------------------------------------------------------
  Alpha Z     3.44829     3.44829     3.44829
  Ewald     -76.81786   -76.81793   -76.81785     0.00001    -0.00000    -0.00000
  Hartree     4.87471     4.87471     4.87471     0.00000     0.00000     0.00000
  E(xc)     -25.51754   -25.51754   -25.51754    -0.00000     0.00000     0.00000
  Local     -28.90045   -28.90044   -28.90043    -0.00000     0.00001     0.00001
  n-local    75.96079    78.38205    80.72642    -1.00314    -1.45752     0.07320
  augment   -11.66537   -11.66537   -11.66538    -0.00000    -0.00001    -0.00001
  Kinetic    56.04363    57.33479    58.55295     0.04502     0.72641    -1.24803
  Fock        0.00000     0.00000     0.00000     0.00000     0.00000     0.00000
  -------------------------------------------------------------------------------------
  Total       1.08864     1.08864     1.08864     0.00000     0.00000     0.00000
  in kB      44.66692    44.66695    44.66690     0.00000     0.00000     0.00000
  external pressure =       44.67 kB  Pullay stress =        0.00 kB


 VOLUME and BASIS-vectors are now :
 -----------------------------------------------------------------------------
  energy-cutoff  :      350.00
  volume of cell :       39.05
      direct lattice vectors                 reciprocal lattice vectors
     3.297911389  0.000000000  1.904049760     0.303222216 -0.107205200  0.000000000
     1.099303796  3.109301908  1.904049760     0.000000000  0.321615600  0.000000000
     0.000000000  0.000000000  3.808099520    -0.151611108 -0.107205200  0.262598179

  length of vectors
     3.808099923  3.808100929  3.808099520     0.321615714  0.321615600  0.321615744


 FORCES acting on ions
    electron-ion (+dipol)            ewald-force                    non-local-force                 convergence-correction
 -----------------------------------------------------------------------------------------------
   0.528E-05 0.247E-04 -.110E-08   -.919E-05 -.431E-04 0.324E-14   0.661E-17 0.116E-16 0.694E-17   0.615E-07 0.455E-07 0.106E-06
   -.528E-05 -.247E-04 0.110E-08   0.919E-05 0.431E-04 -.316E-14   -.724E-17 -.116E-16 -.139E-16   -.615E-07 -.455E-07 -.106E-06
 -----------------------------------------------------------------------------------------------
   0.306E-13 -.611E-13 0.121E-12   0.312E-15 -.503E-16 0.828E-16   -.622E-18 -.136E-19 -.694E-17   0.915E-16 0.340E-16 0.235E-15
 
 
 POSITION                                       TOTAL-FORCE (eV/Angst)
 -----------------------------------------------------------------------------------
      3.84756      2.72064      6.66417        -0.000000      0.000000      0.000000
      0.54965      0.38866      0.95202         0.000000     -0.000000     -0.000000
 -----------------------------------------------------------------------------------
    total drift:                                0.000000     -0.000000      0.000000


--------------------------------------------------------------------------------------------------------



  FREE ENERGIE OF THE ION-ELECTRON SYSTEM (eV)
  ---------------------------------------------------
  free  energy   TOTEN  =       -10.82296516 eV

  energy  without entropy=      -10.82296516  energy(sigma->0) =      -10.82296516
 


--------------------------------------------------------------------------------------------------------


    POTLOK:  cpu time    0.2050: real time    0.2116


--------------------------------------------------------------------------------------------------------




--------------------------------------------------------------------------------------------------------


  
 reached required accuracy - stopping structural energy minimisation
     LOOP+:  cpu time   24.2743: real time   24.6333
    4ORBIT:  cpu time    0.0000: real time    0.0000

 total amount of memory used by VASP MPI-rank0    46563. kBytes
=======================================================================

   base      :      30000. kBytes
   nonl-proj :       6914. kBytes
   fftplans  :       4177. kBytes
   grid      :       1926. kBytes
   one-center:          6. kBytes
   wavefun   :       3540. kBytes
 
  
  
 General timing and accounting informations for this job:
 ========================================================
  
                  Total CPU time used (sec):       26.914
                            User time (sec):       26.489
                          System time (sec):        0.425
                         Elapsed time (sec):       28.113
  
                   Maximum memory used (kb):       71024.
                   Average memory used (kb):          N/A
  
                          Minor page faults:        15346
                          Major page faults:            1
                 Voluntary context switches:        19771
