<?xml version="1.0" encoding="ISO-8859-1"?>
<modeling>
 <generator>
  <i name="program" type="string">vasp </i>
  <i name="version" type="string">6.2.0  </i>
  <i name="subversion" type="string">18Jan21 (build Aug 12 2022 13:00:08) complex                          parallel </i>
  <i name="platform" type="string">LinuxIFC </i>
  <i name="date" type="string">2024 11 05 </i>
  <i name="time" type="string">05:57:41 </i>
 </generator>
 <incar>
  <i type="int" name="ISTART">     0</i>
  <i type="string" name="PREC">Accurate      (Accurate strictly avoids</i>
  <i type="logical" name="ADDGRID"> T  </i>
  <i type="int" name="ISPIN">     1</i>
  <i type="int" name="NELM">    90</i>
  <i type="int" name="NELMIN">     6</i>
  <i type="int" name="IBRION">     2</i>
  <i name="EDIFF">      0.00000100</i>
  <i name="EDIFFG">     -0.00200000</i>
  <i type="int" name="NSW">   100</i>
  <i type="int" name="ISIF">     2</i>
  <i type="int" name="ISYM">     2</i>
  <i name="ENCUT">    350.00000000</i>
  <i type="logical" name="LREAL"> F  </i>
  <i type="int" name="ISMEAR">     0</i>
  <i name="SIGMA">      0.05000000</i>
  <i type="logical" name="LWAVE"> F  </i>
  <i type="logical" name="LCHARG"> F  </i>
  <i type="logical" name="LASPH"> T  </i>
 </incar>
 <primitive_cell>
  <structure name="primitive_cell" >
   <crystal>
    <varray name="basis" >
     <v>       3.29791139       0.00000000       1.90404976 </v>
     <v>       1.09930380       3.10930191       1.90404976 </v>
     <v>       0.00000000       0.00000000       3.80809952 </v>
    </varray>
    <i name="volume">     39.04902239 </i>
    <varray name="rec_basis" >
     <v>       0.30322222      -0.10720520       0.00000000 </v>
     <v>       0.00000000       0.32161560       0.00000000 </v>
     <v>      -0.15161111      -0.10720520       0.26259818 </v>
    </varray>
   </crystal>
   <varray name="positions" >
    <v>       0.87500000       0.87500000       0.87500000 </v>
    <v>       0.12500000       0.12500000       0.12500000 </v>
   </varray>
  </structure>
  <varray name="primitive_index" >
   <v type="int" >        1 </v>
   <v type="int" >        2 </v>
  </varray>
 </primitive_cell>
 <kpoints>
  <generation param="Monkhorst-Pack">
   <v type="int" name="divisions">      12       12       12 </v>
   <v name="usershift">      0.00000000       0.00000000       0.00000000 </v>
   <v name="genvec1">      0.08333333       0.00000000       0.00000000 </v>
   <v name="genvec2">      0.00000000       0.08333333       0.00000000 </v>
   <v name="genvec3">      0.00000000       0.00000000       0.08333333 </v>
   <v name="shift">      0.50000000       0.50000000       0.50000000 </v>
  </generation>
  <varray name="kpointlist" >
   <v>       0.04166667       0.04166667       0.04166667 </v>
   <v>       0.12500000       0.04166667       0.04166667 </v>
   <v>       0.20833333       0.04166667       0.04166667 </v>
   <v>       0.29166667       0.04166667       0.04166667 </v>
   <v>       0.37500000       0.04166667       0.04166667 </v>
   <v>       0.45833333       0.04166667       0.04166667 </v>
   <v>      -0.45833333       0.04166667       0.04166667 </v>
   <v>      -0.37500000       0.04166667       0.04166667 </v>
   <v>      -0.29166667       0.04166667       0.04166667 </v>
   <v>      -0.20833333       0.04166667       0.04166667 </v>
   <v>      -0.12500000       0.04166667       0.04166667 </v>
   <v>      -0.04166667       0.04166667       0.04166667 </v>
   <v>       0.12500000       0.12500000       0.04166667 </v>
   <v>       0.20833333       0.12500000       0.04166667 </v>
   <v>       0.29166667       0.12500000       0.04166667 </v>
   <v>       0.37500000       0.12500000       0.04166667 </v>
   <v>       0.45833333       0.12500000       0.04166667 </v>
   <v>      -0.45833333       0.12500000       0.04166667 </v>
   <v>      -0.37500000       0.12500000       0.04166667 </v>
   <v>      -0.29166667       0.12500000       0.04166667 </v>
   <v>      -0.20833333       0.12500000       0.04166667 </v>
   <v>      -0.12500000       0.12500000       0.04166667 </v>
   <v>      -0.04166667       0.12500000       0.04166667 </v>
   <v>       0.20833333       0.20833333       0.04166667 </v>
   <v>       0.29166667       0.20833333       0.04166667 </v>
   <v>       0.37500000       0.20833333       0.04166667 </v>
   <v>       0.45833333       0.20833333       0.04166667 </v>
   <v>      -0.45833333       0.20833333       0.04166667 </v>
   <v>      -0.37500000       0.20833333       0.04166667 </v>
   <v>      -0.29166667       0.20833333       0.04166667 </v>
   <v>      -0.20833333       0.20833333       0.04166667 </v>
   <v>      -0.12500000       0.20833333       0.04166667 </v>
   <v>      -0.04166667       0.20833333       0.04166667 </v>
   <v>       0.29166667       0.29166667       0.04166667 </v>
   <v>       0.37500000       0.29166667       0.04166667 </v>
   <v>       0.45833333       0.29166667       0.04166667 </v>
   <v>      -0.45833333       0.29166667       0.04166667 </v>
   <v>      -0.37500000       0.29166667       0.04166667 </v>
   <v>      -0.29166667       0.29166667       0.04166667 </v>
   <v>      -0.20833333       0.29166667       0.04166667 </v>
   <v>      -0.12500000       0.29166667       0.04166667 </v>
   <v>      -0.04166667       0.29166667       0.04166667 </v>
   <v>       0.37500000       0.37500000       0.04166667 </v>
   <v>       0.45833333       0.37500000       0.04166667 </v>
   <v>      -0.45833333       0.37500000       0.04166667 </v>
   <v>      -0.37500000       0.37500000       0.04166667 </v>
   <v>      -0.29166667       0.37500000       0.04166667 </v>
   <v>      -0.20833333       0.37500000       0.04166667 </v>
   <v>      -0.12500000       0.37500000       0.04166667 </v>
   <v>      -0.04166667       0.37500000       0.04166667 </v>
   <v>       0.45833333       0.45833333       0.04166667 </v>
   <v>      -0.45833333       0.45833333       0.04166667 </v>
   <v>      -0.37500000       0.45833333       0.04166667 </v>
   <v>      -0.29166667       0.45833333       0.04166667 </v>
   <v>      -0.20833333       0.45833333       0.04166667 </v>
   <v>      -0.12500000       0.45833333       0.04166667 </v>
   <v>      -0.04166667       0.45833333       0.04166667 </v>
   <v>      -0.45833333      -0.45833333       0.04166667 </v>
   <v>      -0.37500000      -0.45833333       0.04166667 </v>
   <v>      -0.29166667      -0.45833333       0.04166667 </v>
   <v>      -0.20833333      -0.45833333       0.04166667 </v>
   <v>      -0.12500000      -0.45833333       0.04166667 </v>
   <v>      -0.37500000      -0.37500000       0.04166667 </v>
   <v>      -0.29166667      -0.37500000       0.04166667 </v>
   <v>      -0.20833333      -0.37500000       0.04166667 </v>
   <v>      -0.12500000      -0.37500000       0.04166667 </v>
   <v>      -0.29166667      -0.29166667       0.04166667 </v>
   <v>      -0.20833333      -0.29166667       0.04166667 </v>
   <v>      -0.12500000      -0.29166667       0.04166667 </v>
   <v>      -0.20833333      -0.20833333       0.04166667 </v>
   <v>      -0.12500000      -0.20833333       0.04166667 </v>
   <v>      -0.12500000      -0.12500000       0.04166667 </v>
   <v>       0.12500000       0.12500000       0.12500000 </v>
   <v>       0.20833333       0.12500000       0.12500000 </v>
   <v>       0.29166667       0.12500000       0.12500000 </v>
   <v>       0.37500000       0.12500000       0.12500000 </v>
   <v>       0.45833333       0.12500000       0.12500000 </v>
   <v>      -0.45833333       0.12500000       0.12500000 </v>
   <v>      -0.37500000       0.12500000       0.12500000 </v>
   <v>      -0.29166667       0.12500000       0.12500000 </v>
   <v>      -0.20833333       0.12500000       0.12500000 </v>
   <v>      -0.12500000       0.12500000       0.12500000 </v>
   <v>       0.20833333       0.20833333       0.12500000 </v>
   <v>       0.29166667       0.20833333       0.12500000 </v>
   <v>       0.37500000       0.20833333       0.12500000 </v>
   <v>       0.45833333       0.20833333       0.12500000 </v>
   <v>      -0.45833333       0.20833333       0.12500000 </v>
   <v>      -0.37500000       0.20833333       0.12500000 </v>
   <v>      -0.29166667       0.20833333       0.12500000 </v>
   <v>      -0.20833333       0.20833333       0.12500000 </v>
   <v>      -0.12500000       0.20833333       0.12500000 </v>
   <v>       0.29166667       0.29166667       0.12500000 </v>
   <v>       0.37500000       0.29166667       0.12500000 </v>
   <v>       0.45833333       0.29166667       0.12500000 </v>
   <v>      -0.45833333       0.29166667       0.12500000 </v>
   <v>      -0.37500000       0.29166667       0.12500000 </v>
   <v>      -0.29166667       0.29166667       0.12500000 </v>
   <v>      -0.20833333       0.29166667       0.12500000 </v>
   <v>      -0.12500000       0.29166667       0.12500000 </v>
   <v>       0.37500000       0.37500000       0.12500000 </v>
   <v>       0.45833333       0.37500000       0.12500000 </v>
   <v>      -0.45833333       0.37500000       0.12500000 </v>
   <v>      -0.37500000       0.37500000       0.12500000 </v>
   <v>      -0.29166667       0.37500000       0.12500000 </v>
   <v>      -0.20833333       0.37500000       0.12500000 </v>
   <v>      -0.12500000       0.37500000       0.12500000 </v>
   <v>       0.45833333       0.45833333       0.12500000 </v>
   <v>      -0.45833333       0.45833333       0.12500000 </v>
   <v>      -0.37500000       0.45833333       0.12500000 </v>
   <v>      -0.29166667       0.45833333       0.12500000 </v>
   <v>      -0.20833333       0.45833333       0.12500000 </v>
   <v>      -0.12500000       0.45833333       0.12500000 </v>
   <v>      -0.45833333      -0.45833333       0.12500000 </v>
   <v>      -0.37500000      -0.45833333       0.12500000 </v>
   <v>      -0.29166667      -0.45833333       0.12500000 </v>
   <v>      -0.20833333      -0.45833333       0.12500000 </v>
   <v>      -0.37500000      -0.37500000       0.12500000 </v>
   <v>      -0.29166667      -0.37500000       0.12500000 </v>
   <v>      -0.20833333      -0.37500000       0.12500000 </v>
   <v>      -0.29166667      -0.29166667       0.12500000 </v>
   <v>      -0.20833333      -0.29166667       0.12500000 </v>
   <v>      -0.20833333      -0.20833333       0.12500000 </v>
   <v>       0.20833333       0.20833333       0.20833333 </v>
   <v>       0.29166667       0.20833333       0.20833333 </v>
   <v>       0.37500000       0.20833333       0.20833333 </v>
   <v>       0.45833333       0.20833333       0.20833333 </v>
   <v>      -0.45833333       0.20833333       0.20833333 </v>
   <v>      -0.37500000       0.20833333       0.20833333 </v>
   <v>      -0.29166667       0.20833333       0.20833333 </v>
   <v>      -0.20833333       0.20833333       0.20833333 </v>
   <v>       0.29166667       0.29166667       0.20833333 </v>
   <v>       0.37500000       0.29166667       0.20833333 </v>
   <v>       0.45833333       0.29166667       0.20833333 </v>
   <v>      -0.45833333       0.29166667       0.20833333 </v>
   <v>      -0.37500000       0.29166667       0.20833333 </v>
   <v>      -0.29166667       0.29166667       0.20833333 </v>
   <v>      -0.20833333       0.29166667       0.20833333 </v>
   <v>       0.37500000       0.37500000       0.20833333 </v>
   <v>       0.45833333       0.37500000       0.20833333 </v>
   <v>      -0.45833333       0.37500000       0.20833333 </v>
   <v>      -0.37500000       0.37500000       0.20833333 </v>
   <v>      -0.29166667       0.37500000       0.20833333 </v>
   <v>      -0.20833333       0.37500000       0.20833333 </v>
   <v>       0.45833333       0.45833333       0.20833333 </v>
   <v>      -0.45833333       0.45833333       0.20833333 </v>
   <v>      -0.37500000       0.45833333       0.20833333 </v>
   <v>      -0.29166667       0.45833333       0.20833333 </v>
   <v>      -0.20833333       0.45833333       0.20833333 </v>
   <v>      -0.45833333      -0.45833333       0.20833333 </v>
   <v>      -0.37500000      -0.45833333       0.20833333 </v>
   <v>      -0.29166667      -0.45833333       0.20833333 </v>
   <v>      -0.37500000      -0.37500000       0.20833333 </v>
   <v>      -0.29166667      -0.37500000       0.20833333 </v>
   <v>      -0.29166667      -0.29166667       0.20833333 </v>
   <v>       0.29166667       0.29166667       0.29166667 </v>
   <v>       0.37500000       0.29166667       0.29166667 </v>
   <v>       0.45833333       0.29166667       0.29166667 </v>
   <v>      -0.45833333       0.29166667       0.29166667 </v>
   <v>      -0.37500000       0.29166667       0.29166667 </v>
   <v>      -0.29166667       0.29166667       0.29166667 </v>
   <v>       0.37500000       0.37500000       0.29166667 </v>
   <v>       0.45833333       0.37500000       0.29166667 </v>
   <v>      -0.45833333       0.37500000       0.29166667 </v>
   <v>      -0.37500000       0.37500000       0.29166667 </v>
   <v>      -0.29166667       0.37500000       0.29166667 </v>
   <v>       0.45833333       0.45833333       0.29166667 </v>
   <v>      -0.45833333       0.45833333       0.29166667 </v>
   <v>      -0.37500000       0.45833333       0.29166667 </v>
   <v>      -0.29166667       0.45833333       0.29166667 </v>
   <v>      -0.45833333      -0.45833333       0.29166667 </v>
   <v>      -0.37500000      -0.45833333       0.29166667 </v>
   <v>      -0.37500000      -0.37500000       0.29166667 </v>
   <v>       0.37500000       0.37500000       0.37500000 </v>
   <v>       0.45833333       0.37500000       0.37500000 </v>
   <v>      -0.45833333       0.37500000       0.37500000 </v>
   <v>      -0.37500000       0.37500000       0.37500000 </v>
   <v>       0.45833333       0.45833333       0.37500000 </v>
   <v>      -0.45833333       0.45833333       0.37500000 </v>
   <v>      -0.37500000       0.45833333       0.37500000 </v>
   <v>      -0.45833333      -0.45833333       0.37500000 </v>
   <v>       0.45833333       0.45833333       0.45833333 </v>
   <v>      -0.45833333       0.45833333       0.45833333 </v>
  </varray>
  <varray name="weights" >
   <v>       0.00115741 </v>
   <v>       0.00347222 </v>
   <v>       0.00347222 </v>
   <v>       0.00347222 </v>
   <v>       0.00347222 </v>
   <v>       0.00347222 </v>
   <v>       0.00347222 </v>
   <v>       0.00347222 </v>
   <v>       0.00347222 </v>
   <v>       0.00347222 </v>
   <v>       0.00347222 </v>
   <v>       0.00347222 </v>
   <v>       0.00347222 </v>
   <v>       0.00694444 </v>
   <v>       0.00694444 </v>
   <v>       0.00694444 </v>
   <v>       0.00694444 </v>
   <v>       0.00694444 </v>
   <v>       0.00694444 </v>
   <v>       0.00694444 </v>
   <v>       0.00694444 </v>
   <v>       0.00694444 </v>
   <v>       0.00694444 </v>
   <v>       0.00347222 </v>
   <v>       0.00694444 </v>
   <v>       0.00694444 </v>
   <v>       0.00694444 </v>
   <v>       0.00694444 </v>
   <v>       0.00694444 </v>
   <v>       0.00694444 </v>
   <v>       0.00694444 </v>
   <v>       0.00694444 </v>
   <v>       0.00694444 </v>
   <v>       0.00347222 </v>
   <v>       0.00694444 </v>
   <v>       0.00694444 </v>
   <v>       0.00694444 </v>
   <v>       0.00694444 </v>
   <v>       0.00694444 </v>
   <v>       0.00694444 </v>
   <v>       0.00694444 </v>
   <v>       0.00694444 </v>
   <v>       0.00347222 </v>
   <v>       0.00694444 </v>
   <v>       0.00694444 </v>
   <v>       0.00694444 </v>
   <v>       0.00694444 </v>
   <v>       0.00694444 </v>
   <v>       0.00694444 </v>
   <v>       0.00694444 </v>
   <v>       0.00347222 </v>
   <v>       0.00694444 </v>
   <v>       0.00694444 </v>
   <v>       0.00694444 </v>
   <v>       0.00694444 </v>
   <v>       0.00694444 </v>
   <v>       0.00694444 </v>
   <v>       0.00347222 </v>
   <v>       0.00694444 </v>
   <v>       0.00694444 </v>
   <v>       0.00694444 </v>
   <v>       0.00694444 </v>
   <v>       0.00347222 </v>
   <v>       0.00694444 </v>
   <v>       0.00694444 </v>
   <v>       0.00694444 </v>
   <v>       0.00347222 </v>
   <v>       0.00694444 </v>
   <v>       0.00694444 </v>
   <v>       0.00347222 </v>
   <v>       0.00694444 </v>
   <v>       0.00347222 </v>
   <v>       0.00115741 </v>
   <v>       0.00347222 </v>
   <v>       0.00347222 </v>
   <v>       0.00347222 </v>
   <v>       0.00347222 </v>
   <v>       0.00347222 </v>
   <v>       0.00347222 </v>
   <v>       0.00347222 </v>
   <v>       0.00347222 </v>
   <v>       0.00347222 </v>
   <v>       0.00347222 </v>
   <v>       0.00694444 </v>
   <v>       0.00694444 </v>
   <v>       0.00694444 </v>
   <v>       0.00694444 </v>
   <v>       0.00694444 </v>
   <v>       0.00694444 </v>
   <v>       0.00694444 </v>
   <v>       0.00694444 </v>
   <v>       0.00347222 </v>
   <v>       0.00694444 </v>
   <v>       0.00694444 </v>
   <v>       0.00694444 </v>
   <v>       0.00694444 </v>
   <v>       0.00694444 </v>
   <v>       0.00694444 </v>
   <v>       0.00694444 </v>
   <v>       0.00347222 </v>
   <v>       0.00694444 </v>
   <v>       0.00694444 </v>
   <v>       0.00694444 </v>
   <v>       0.00694444 </v>
   <v>       0.00694444 </v>
   <v>       0.00694444 </v>
   <v>       0.00347222 </v>
   <v>       0.00694444 </v>
   <v>       0.00694444 </v>
   <v>       0.00694444 </v>
   <v>       0.00694444 </v>
   <v>       0.00694444 </v>
   <v>       0.00347222 </v>
   <v>       0.00694444 </v>
   <v>       0.00694444 </v>
   <v>       0.00694444 </v>
   <v>       0.00347222 </v>
   <v>       0.00694444 </v>
   <v>       0.00694444 </v>
   <v>       0.00347222 </v>
   <v>       0.00694444 </v>
   <v>       0.00347222 </v>
   <v>       0.00115741 </v>
   <v>       0.00347222 </v>
   <v>       0.00347222 </v>
   <v>       0.00347222 </v>
   <v>       0.00347222 </v>
   <v>       0.00347222 </v>
   <v>       0.00347222 </v>
   <v>       0.00347222 </v>
   <v>       0.00347222 </v>
   <v>       0.00694444 </v>
   <v>       0.00694444 </v>
   <v>       0.00694444 </v>
   <v>       0.00694444 </v>
   <v>       0.00694444 </v>
   <v>       0.00694444 </v>
   <v>       0.00347222 </v>
   <v>       0.00694444 </v>
   <v>       0.00694444 </v>
   <v>       0.00694444 </v>
   <v>       0.00694444 </v>
   <v>       0.00694444 </v>
   <v>       0.00347222 </v>
   <v>       0.00694444 </v>
   <v>       0.00694444 </v>
   <v>       0.00694444 </v>
   <v>       0.00694444 </v>
   <v>       0.00347222 </v>
   <v>       0.00694444 </v>
   <v>       0.00694444 </v>
   <v>       0.00347222 </v>
   <v>       0.00694444 </v>
   <v>       0.00347222 </v>
   <v>       0.00115741 </v>
   <v>       0.00347222 </v>
   <v>       0.00347222 </v>
   <v>       0.00347222 </v>
   <v>       0.00347222 </v>
   <v>       0.00347222 </v>
   <v>       0.00347222 </v>
   <v>       0.00694444 </v>
   <v>       0.00694444 </v>
   <v>       0.00694444 </v>
   <v>       0.00694444 </v>
   <v>       0.00347222 </v>
   <v>       0.00694444 </v>
   <v>       0.00694444 </v>
   <v>       0.00694444 </v>
   <v>       0.00347222 </v>
   <v>       0.00694444 </v>
   <v>       0.00347222 </v>
   <v>       0.00115741 </v>
   <v>       0.00347222 </v>
   <v>       0.00347222 </v>
   <v>       0.00347222 </v>
   <v>       0.00347222 </v>
   <v>       0.00694444 </v>
   <v>       0.00694444 </v>
   <v>       0.00347222 </v>
   <v>       0.00115741 </v>
   <v>       0.00347222 </v>
  </varray>
 </kpoints>
 <parameters>
  <separator name="general" >
   <i type="string" name="SYSTEM">unknown system</i>
   <i type="logical" name="LCOMPAT"> F  </i>
  </separator>
  <separator name="electronic" >
   <i type="string" name="PREC">accura</i>
   <i name="ENMAX">    350.00000000</i>
   <i name="ENAUG">    322.06900000</i>
   <i name="EDIFF">      0.00000100</i>
   <i type="int" name="IALGO">    38</i>
   <i type="int" name="IWAVPR">    11</i>
   <i type="int" name="NBANDS">     8</i>
   <i type="int" name="NBANDSLOW">    -1</i>
   <i type="int" name="NBANDSHIGH">    -1</i>
   <i name="NELECT">      8.00000000</i>
   <i type="int" name="TURBO">     0</i>
   <i type="int" name="IRESTART">     0</i>
   <i type="int" name="NREBOOT">     0</i>
   <i type="int" name="NMIN">     0</i>
   <i name="EREF">      0.00000000</i>
   <separator name="electronic smearing" >
    <i type="int" name="ISMEAR">     0</i>
    <i name="SIGMA">      0.05000000</i>
    <i name="KSPACING">      0.50000000</i>
    <i type="logical" name="KGAMMA"> T  </i>
    <i type="logical" name="KBLOWUP"> T  </i>
   </separator>
   <separator name="electronic projectors" >
    <i type="logical" name="LREAL"> F  </i>
    <v name="ROPT">      0.00000000</v>
    <i type="int" name="LMAXPAW">  -100</i>
    <i type="int" name="LMAXMIX">     2</i>
    <i type="logical" name="NLSPLINE"> F  </i>
   </separator>
   <separator name="electronic startup" >
    <i type="int" name="ISTART">     0</i>
    <i type="int" name="ICHARG">     2</i>
    <i type="int" name="INIWAV">     1</i>
   </separator>
   <separator name="electronic spin" >
    <i type="int" name="ISPIN">     1</i>
    <i type="logical" name="LNONCOLLINEAR"> F  </i>
    <v name="MAGMOM">      1.00000000      1.00000000</v>
    <i name="NUPDOWN">     -1.00000000</i>
    <i type="logical" name="LSORBIT"> F  </i>
    <v name="SAXIS">      0.00000000      0.00000000      1.00000000</v>
    <i type="logical" name="LSPIRAL"> F  </i>
    <v name="QSPIRAL">      0.00000000      0.00000000      0.00000000</v>
    <i type="logical" name="LZEROZ"> F  </i>
   </separator>
   <separator name="electronic exchange-correlation" >
    <i type="logical" name="LASPH"> T  </i>
    <i type="logical" name="LMETAGGA"> F  </i>
   </separator>
   <separator name="electronic convergence" >
    <i type="int" name="NELM">    90</i>
    <i type="int" name="NELMDL">    -5</i>
    <i type="int" name="NELMIN">     6</i>
    <i name="ENINI">    350.00000000</i>
    <separator name="electronic convergence detail" >
     <i type="logical" name="LDIAG"> T  </i>
     <i type="logical" name="LSUBROT"> F  </i>
     <i name="WEIMIN">      0.00100000</i>
     <i name="EBREAK">      0.00000003</i>
     <i name="DEPER">      0.30000000</i>
     <i type="int" name="NRMM">     4</i>
     <i name="TIME">      0.40000000</i>
    </separator>
   </separator>
   <separator name="electronic mixer" >
    <i name="AMIX">      0.40000000</i>
    <i name="BMIX">      1.00000000</i>
    <i name="AMIN">      0.10000000</i>
    <i name="AMIX_MAG">      1.60000000</i>
    <i name="BMIX_MAG">      1.00000000</i>
    <separator name="electronic mixer details" >
     <i type="int" name="IMIX">     4</i>
     <i type="logical" name="MIXFIRST"> F  </i>
     <i type="int" name="MAXMIX">   -45</i>
     <i name="WC">    100.00000000</i>
     <i type="int" name="INIMIX">     1</i>
     <i type="int" name="MIXPRE">     1</i>
     <i type="int" name="MREMOVE">     5</i>
    </separator>
   </separator>
   <separator name="electronic dipolcorrection" >
    <i type="logical" name="LDIPOL"> F  </i>
    <i type="logical" name="LMONO"> F  </i>
    <i type="int" name="IDIPOL">     0</i>
    <i name="EPSILON">      1.00000000</i>
    <v name="DIPOL">   -100.00000000   -100.00000000   -100.00000000</v>
    <i name="EFIELD">      0.00000000</i>
   </separator>
  </separator>
  <separator name="grids" >
   <i type="int" name="NGX">    24</i>
   <i type="int" name="NGY">    24</i>
   <i type="int" name="NGZ">    24</i>
   <i type="int" name="NGXF">    48</i>
   <i type="int" name="NGYF">    48</i>
   <i type="int" name="NGZF">    48</i>
   <i type="logical" name="ADDGRID"> T  </i>
  </separator>
  <separator name="ionic" >
   <i type="int" name="NSW">   100</i>
   <i type="int" name="IBRION">     2</i>
   <i type="int" name="MDALGO">     0</i>
   <i type="int" name="ISIF">     2</i>
   <i name="PSTRESS">      0.00000000</i>
   <i name="EDIFFG">     -0.00200000</i>
   <i type="int" name="NFREE">     1</i>
   <i name="POTIM">      0.50000000</i>
   <i name="SMASS">     -3.00000000</i>
   <i name="SCALEE">      1.00000000</i>
  </separator>
  <separator name="ionic md" >
   <i name="TEBEG">      0.00010000</i>
   <i name="TEEND">      0.00010000</i>
   <i type="int" name="NBLOCK">     1</i>
   <i type="int" name="KBLOCK">   100</i>
   <i type="int" name="NPACO">   256</i>
   <i name="APACO">     16.00000000</i>
  </separator>
  <separator name="symmetry" >
   <i type="int" name="ISYM">     2</i>
   <i name="SYMPREC">      0.00001000</i>
  </separator>
  <separator name="dos" >
   <i type="int" name="LORBIT">     0</i>
   <v name="RWIGS">     -1.00000000</v>
   <i type="int" name="NEDOS">   301</i>
   <i name="EMIN">     10.00000000</i>
   <i name="EMAX">    -10.00000000</i>
   <i name="EFERMI">      0.00000000</i>
  </separator>
  <separator name="writing" >
   <i type="int" name="NWRITE">     2</i>
   <i type="logical" name="LWAVE"> F  </i>
   <i type="logical" name="LDOWNSAMPLE"> F  </i>
   <i type="logical" name="LCHARG"> F  </i>
   <i type="logical" name="LPARD"> F  </i>
   <i type="logical" name="LVTOT"> F  </i>
   <i type="logical" name="LVHAR"> F  </i>
   <i type="logical" name="LELF"> F  </i>
   <i type="logical" name="LOPTICS"> F  </i>
   <v name="STM">      0.00000000      0.00000000      0.00000000      0.00000000      0.00000000      0.00000000      0.00000000</v>
  </separator>
  <separator name="performance" >
   <i type="int" name="NPAR">     4</i>
   <i type="int" name="NSIM">     4</i>
   <i type="int" name="NBLK">    -1</i>
   <i type="logical" name="LPLANE"> T  </i>
   <i type="logical" name="LSCALAPACK"> T  </i>
   <i type="logical" name="LSCAAWARE"> F  </i>
   <i type="logical" name="LSCALU"> F  </i>
   <i type="logical" name="LASYNC"> F  </i>
   <i type="logical" name="LORBITALREAL"> F  </i>
  </separator>
  <separator name="miscellaneous" >
   <i type="int" name="IDIOT">     3</i>
   <i type="int" name="PHON_NSTRUCT">    -1</i>
   <i type="logical" name="LMUSIC"> F  </i>
   <v name="POMASS">     28.08500000</v>
   <v name="DARWINR">      0.00000000</v>
   <v name="DARWINV">      1.00000000</v>
   <i type="logical" name="LCORR"> T  </i>
  </separator>
  <i type="logical" name="GGA_COMPAT"> T  </i>
  <i type="logical" name="LBERRY"> F  </i>
  <i type="int" name="ICORELEVEL">     0</i>
  <i type="logical" name="LDAU"> F  </i>
  <i type="int" name="I_CONSTRAINED_M">     0</i>
  <separator name="electronic exchange-correlation" >
   <i type="string" name="GGA">--</i>
   <i type="int" name="VOSKOWN">     0</i>
   <i type="logical" name="LHFCALC"> F  </i>
   <i type="string" name="PRECFOCK"></i>
   <i type="logical" name="LSYMGRAD"> F  </i>
   <i type="logical" name="LHFONE"> F  </i>
   <i type="logical" name="LRHFCALC"> F  </i>
   <i type="logical" name="LTHOMAS"> F  </i>
   <i type="logical" name="LMODELHF"> F  </i>
   <i type="logical" name="LFOCKACE"> F  </i>
   <i name="ENCUT4O">     -1.00000000</i>
   <i type="int" name="EXXOEP">     0</i>
   <i type="int" name="FOURORBIT">     0</i>
   <i name="AEXX">      0.00000000</i>
   <i name="HFALPHA">      0.00000000</i>
   <i name="MCALPHA">      0.00000000</i>
   <i name="ALDAX">      1.00000000</i>
   <i name="AGGAX">      1.00000000</i>
   <i name="ALDAC">      1.00000000</i>
   <i name="AGGAC">      1.00000000</i>
   <i type="int" name="NKREDX">     1</i>
   <i type="int" name="NKREDY">     1</i>
   <i type="int" name="NKREDZ">     1</i>
   <i type="logical" name="SHIFTRED"> F  </i>
   <i type="logical" name="ODDONLY"> F  </i>
   <i type="logical" name="EVENONLY"> F  </i>
   <i type="int" name="LMAXFOCK">     0</i>
   <i type="int" name="NMAXFOCKAE">     0</i>
   <i type="logical" name="LFOCKAEDFT"> F  </i>
   <i name="HFSCREEN">      0.00000000</i>
   <i name="HFSCREENC">      0.00000000</i>
   <i type="int" name="NBANDSGWLOW">     0</i>
  </separator>
  <separator name="vdW DFT" >
   <i type="logical" name="LUSE_VDW"> F  </i>
   <i name="Zab_VDW">     -0.84910000</i>
   <i name="PARAM1">      0.12340000</i>
   <i name="PARAM2">      1.00000000</i>
   <i name="PARAM3">      0.00000000</i>
  </separator>
  <separator name="model GW" >
   <i type="int" name="MODEL_GW">     0</i>
   <i name="MODEL_EPS0">     11.71470672</i>
   <i name="MODEL_ALPHA">      1.00000000</i>
  </separator>
  <separator name="linear response parameters" >
   <i type="logical" name="LEPSILON"> F  </i>
   <i type="logical" name="LRPA"> F  </i>
   <i type="logical" name="LNABLA"> F  </i>
   <i type="logical" name="LVEL"> F  </i>
   <i type="int" name="KINTER">     0</i>
   <i name="CSHIFT">      0.10000000</i>
   <i name="OMEGAMAX">     -1.00000000</i>
   <i name="DEG_THRESHOLD">      0.00200000</i>
   <i name="RTIME">     -0.10000000</i>
   <i name="WPLASMAI">      0.00000000</i>
   <v name="DFIELD">      0.00000000      0.00000000      0.00000000</v>
   <v name="WPLASMA">      0.00000000      0.00000000      0.00000000      0.00000000      0.00000000      0.00000000      0.00000000      0.00000000      0.00000000</v>
  </separator>
  <separator name="orbital magnetization" >
   <i type="logical" name="NUCIND"> F  </i>
   <v name="MAGPOS">      0.00000000      0.00000000      0.00000000</v>
   <i type="logical" name="LNICSALL"> T  </i>
   <i type="logical" name="ORBITALMAG"> F  </i>
   <i type="logical" name="LMAGBLOCH"> F  </i>
   <i type="logical" name="LCHIMAG"> F  </i>
   <i type="logical" name="LGAUGE"> T  </i>
   <i type="int" name="MAGATOM">     0</i>
   <v name="MAGDIPOL">      0.00000000      0.00000000      0.00000000</v>
   <v name="AVECCONST">      0.00000000      0.00000000      0.00000000</v>
  </separator>
  <separator name="response functions" >
   <i type="logical" name="LFINITE_TEMPERATURE"> F  </i>
   <i type="logical" name="LADDER"> F  </i>
   <i type="logical" name="LRPAFORCE"> F  </i>
   <i type="logical" name="LFXC"> F  </i>
   <i type="logical" name="LHARTREE"> T  </i>
   <i type="int" name="IBSE">     0</i>
   <v type="int" name="KPOINT">    -1     0     0     0</v>
   <i type="logical" name="LTCTC"> F  </i>
   <i type="logical" name="LTCTE"> F  </i>
   <i type="logical" name="LTETE"> F  </i>
   <i type="logical" name="LTRIPLET"> F  </i>
   <i type="logical" name="LFXCEPS"> F  </i>
   <i type="logical" name="LFXHEG"> F  </i>
   <i type="int" name="NATURALO">     2</i>
   <i type="logical" name="LHOLEGF"> F  </i>
   <i type="logical" name="L2ORDER"> F  </i>
   <i type="logical" name="LDMP1"> F  </i>
   <i type="logical" name="LMP2LT"> F  </i>
   <i type="logical" name="LSMP2LT"> F  </i>
   <i type="logical" name="LGWLF"> F  </i>
   <i name="ENCUTGW">     -2.00000000</i>
   <i name="ENCUTGWSOFT">     -2.00000000</i>
   <i name="ENCUTLF">     -1.00000000</i>
   <i type="logical" name="LESF_SPLINES"> F  </i>
   <i type="int" name="LMAXMP2">    -1</i>
   <i name="SCISSOR">      0.00000000</i>
   <i type="int" name="NOMEGA">     0</i>
   <i type="int" name="NOMEGAR">     0</i>
   <i type="int" name="NBANDSGW">    -1</i>
   <i type="int" name="NBANDSO">    -1</i>
   <i type="int" name="NBANDSV">    -1</i>
   <i type="int" name="NELM">    90</i>
   <i type="int" name="NELMHF">     1</i>
   <i type="int" name="DIM">     3</i>
   <i type="int" name="IESPILON">     4</i>
   <i type="int" name="ANTIRES">     0</i>
   <i name="OMEGAMAX">    -30.00000000</i>
   <i name="OMEGAMIN">    -30.00000000</i>
   <i name="OMEGATL">   -200.00000000</i>
   <i type="int" name="OMEGAGRID">     0</i>
   <i name="CSHIFT">     -0.10000000</i>
   <i type="logical" name="LSELFENERGY"> F  </i>
   <i type="logical" name="LSPECTRAL"> F  </i>
   <i type="logical" name="LSPECTRALGW"> F  </i>
   <i type="logical" name="LSINGLES"> F  </i>
   <i type="logical" name="LFERMIGW"> F  </i>
   <i type="logical" name="ODDONLYGW"> F  </i>
   <i type="logical" name="EVENONLYGW"> F  </i>
   <i type="int" name="NKREDLFX">     1</i>
   <i type="int" name="NKREDLFY">     1</i>
   <i type="int" name="NKREDLFZ">     1</i>
   <i type="int" name="MAXMEM">  2800</i>
   <i type="int" name="TELESCOPE">     0</i>
   <i type="int" name="NTAUPAR">    -1</i>
   <i type="int" name="NOMEGAPAR">    -1</i>
   <i name="DAMP_NEWTON">      0.80000001</i>
   <i name="LAMBDA">      1.00000000</i>
  </separator>
  <separator name="External order field" >
   <i name="OFIELD_KAPPA">      0.00000000</i>
   <v name="OFIELD_K">      0.00000000      0.00000000      0.00000000</v>
   <i name="OFIELD_Q6_NEAR">      0.00000000</i>
   <i name="OFIELD_Q6_FAR">      0.00000000</i>
   <i name="OFIELD_A">      0.00000000</i>
  </separator>
 </parameters>
 <atominfo>
  <atoms>       2 </atoms>
  <types>       1 </types>
  <array name="atoms" >
   <dimension dim="1">ion</dimension>
   <field type="string">element</field>
   <field type="int">atomtype</field>
   <set>
    <rc><c>Si</c><c>   1</c></rc>
    <rc><c>Si</c><c>   1</c></rc>
   </set>
  </array>
  <array name="atomtypes" >
   <dimension dim="1">type</dimension>
   <field type="int">atomspertype</field>
   <field type="string">element</field>
   <field>mass</field>
   <field>valence</field>
   <field type="string">pseudopotential</field>
   <set>
    <rc><c>   2</c><c>Si</c><c>     28.08500000</c><c>      4.00000000</c><c>  PAW_PBE Si 05Jan2001                  </c></rc>
   </set>
  </array>
 </atominfo>
 <structure name="initialpos" >
  <crystal>
   <varray name="basis" >
    <v>       3.29791139       0.00000000       1.90404976 </v>
    <v>       1.09930380       3.10930191       1.90404976 </v>
    <v>       0.00000000       0.00000000       3.80809952 </v>
   </varray>
   <i name="volume">     39.04902239 </i>
   <varray name="rec_basis" >
    <v>       0.30322222      -0.10720520       0.00000000 </v>
    <v>       0.00000000       0.32161560       0.00000000 </v>
    <v>      -0.15161111      -0.10720520       0.26259818 </v>
   </varray>
  </crystal>
  <varray name="positions" >
   <v>       0.87500000       0.87500000       0.87500000 </v>
   <v>       0.12500000       0.12500000       0.12500000 </v>
  </varray>
 </structure>
 <calculation>
  <scstep>
   <time name="dav">    1.46    1.46</time>
   <time name="total">    1.67    1.68</time>
   <energy>
    <i name="alphaZ">      3.44829435 </i>
    <i name="ewald">   -230.45353226 </i>
    <i name="hartreedc">    -10.63347071 </i>
    <i name="XCdc">    -18.50396166 </i>
    <i name="pawpsdc">    176.24759923 </i>
    <i name="pawaedc">   -141.06103558 </i>
    <i name="eentropy">     -0.00047033 </i>
    <i name="bandstr">     16.17988511 </i>
    <i name="atom">    206.13125414 </i>
    <i name="e_fr_energy">      1.35456230 </i>
    <i name="e_wo_entrp">      1.35503263 </i>
    <i name="e_0_energy">      1.35479746 </i>
   </energy>
  </scstep>
  <scstep>
   <time name="dav">    2.10    2.12</time>
   <time name="total">    2.10    2.12</time>
   <energy>
    <i name="e_fr_energy">    -10.87841983 </i>
    <i name="e_wo_entrp">    -10.87841983 </i>
    <i name="e_0_energy">    -10.87841983 </i>
   </energy>
  </scstep>
  <scstep>
   <time name="dav">    1.76    1.78</time>
   <time name="total">    1.76    1.78</time>
   <energy>
    <i name="e_fr_energy">    -11.01742420 </i>
    <i name="e_wo_entrp">    -11.01742420 </i>
    <i name="e_0_energy">    -11.01742420 </i>
   </energy>
  </scstep>
  <scstep>
   <time name="dav">    2.24    2.26</time>
   <time name="total">    2.24    2.26</time>
   <energy>
    <i name="e_fr_energy">    -11.01800224 </i>
    <i name="e_wo_entrp">    -11.01800224 </i>
    <i name="e_0_energy">    -11.01800224 </i>
   </energy>
  </scstep>
  <scstep>
   <time name="dav">    1.77    1.79</time>
   <time name="total">    1.89    1.91</time>
   <energy>
    <i name="e_fr_energy">    -11.01800245 </i>
    <i name="e_wo_entrp">    -11.01800245 </i>
    <i name="e_0_energy">    -11.01800245 </i>
   </energy>
  </scstep>
  <scstep>
   <time name="dav">    1.69    1.69</time>
   <time name="total">    2.01    2.03</time>
   <energy>
    <i name="e_fr_energy">    -10.88233882 </i>
    <i name="e_wo_entrp">    -10.88233882 </i>
    <i name="e_0_energy">    -10.88233882 </i>
   </energy>
  </scstep>
  <scstep>
   <time name="dav">    1.80    1.80</time>
   <time name="total">    2.11    2.13</time>
   <energy>
    <i name="e_fr_energy">    -10.82174910 </i>
    <i name="e_wo_entrp">    -10.82174910 </i>
    <i name="e_0_energy">    -10.82174910 </i>
   </energy>
  </scstep>
  <scstep>
   <time name="dav">    1.63    1.63</time>
   <time name="total">    1.95    1.96</time>
   <energy>
    <i name="e_fr_energy">    -10.82275960 </i>
    <i name="e_wo_entrp">    -10.82275960 </i>
    <i name="e_0_energy">    -10.82275960 </i>
   </energy>
  </scstep>
  <scstep>
   <time name="dav">    2.06    2.06</time>
   <time name="total">    2.38    2.40</time>
   <energy>
    <i name="e_fr_energy">    -10.82294016 </i>
    <i name="e_wo_entrp">    -10.82294016 </i>
    <i name="e_0_energy">    -10.82294016 </i>
   </energy>
  </scstep>
  <scstep>
   <time name="dav">    1.68    1.68</time>
   <time name="total">    1.99    2.01</time>
   <energy>
    <i name="e_fr_energy">    -10.82296557 </i>
    <i name="e_wo_entrp">    -10.82296557 </i>
    <i name="e_0_energy">    -10.82296557 </i>
   </energy>
  </scstep>
  <scstep>
   <time name="dav">    1.95    1.96</time>
   <time name="total">    2.16    2.18</time>
   <energy>
    <i name="alphaZ">      3.44829435 </i>
    <i name="ewald">   -230.45353226 </i>
    <i name="hartreedc">    -14.62256271 </i>
    <i name="XCdc">    -17.84692641 </i>
    <i name="pawpsdc">    928.92727322 </i>
    <i name="pawaedc">   -893.98820370 </i>
    <i name="eentropy">     -0.00000000 </i>
    <i name="bandstr">      7.58143820 </i>
    <i name="atom">    206.13125414 </i>
    <i name="e_fr_energy">    -10.82296516 </i>
    <i name="e_wo_entrp">    -10.82296516 </i>
    <i name="e_0_energy">    -10.82296516 </i>
   </energy>
  </scstep>
  <structure>
   <crystal>
    <varray name="basis" >
     <v>       3.29791139       0.00000000       1.90404976 </v>
     <v>       1.09930380       3.10930191       1.90404976 </v>
     <v>       0.00000000       0.00000000       3.80809952 </v>
    </varray>
    <i name="volume">     39.04902239 </i>
    <varray name="rec_basis" >
     <v>       0.30322222      -0.10720520       0.00000000 </v>
     <v>       0.00000000       0.32161560       0.00000000 </v>
     <v>      -0.15161111      -0.10720520       0.26259818 </v>
    </varray>
   </crystal>
   <varray name="positions" >
    <v>       0.87500000       0.87500000       0.87500000 </v>
    <v>       0.12500000       0.12500000       0.12500000 </v>
   </varray>
  </structure>
  <varray name="forces" >
   <v>      -0.00000000       0.00000000       0.00000000 </v>
   <v>       0.00000000      -0.00000000      -0.00000000 </v>
  </varray>
  <varray name="stress" >
   <v>      44.66691725      -0.00000000       0.00000000 </v>
   <v>       0.00000000      44.66695265       0.00000000 </v>
   <v>      -0.00000000       0.00000000      44.66690466 </v>
  </varray>
  <energy>
   <i name="e_fr_energy">    -10.82296516 </i>
   <i name="e_wo_entrp">    -10.82296516 </i>
   <i name="e_0_energy">    -10.82296516 </i>
  </energy>
  <time name="totalsc">   24.27   24.63</time>
  <eigenvalues>
   <array>
    <dimension dim="1">band</dimension>
    <dimension dim="2">kpoint</dimension>
    <dimension dim="3">spin</dimension>
    <field>eigene</field>
    <field>occ</field>
    <set>
     <set comment="spin 1">
      <set comment="kpoint 1">
       <r>   -6.0264    1.0000 </r>
       <r>    5.8281    1.0000 </r>
       <r>    6.0433    1.0000 </r>
       <r>    6.0433    1.0000 </r>
       <r>    8.7190    0.0000 </r>
       <r>    8.7190    0.0000 </r>
       <r>    8.7194    0.0000 </r>
       <r>    9.9027    0.0000 </r>
      </set>
      <set comment="kpoint 2">
       <r>   -5.9025    1.0000 </r>
       <r>    4.9401    1.0000 </r>
       <r>    5.6086    1.0000 </r>
       <r>    5.9913    1.0000 </r>
       <r>    8.8325    0.0000 </r>
       <r>    8.8383    0.0000 </r>
       <r>    9.0625    0.0000 </r>
       <r>   10.6702    0.0000 </r>
      </set>
      <set comment="kpoint 3">
       <r>   -5.5967    1.0000 </r>
       <r>    3.4103    1.0000 </r>
       <r>    5.2331    1.0000 </r>
       <r>    5.7167    1.0000 </r>
       <r>    8.6070    0.0000 </r>
       <r>    9.2341    0.0000 </r>
       <r>    9.5491    0.0000 </r>
       <r>   11.9526    0.0000 </r>
      </set>
      <set comment="kpoint 4">
       <r>   -5.1216    1.0000 </r>
       <r>    1.8637    1.0000 </r>
       <r>    4.9335    1.0000 </r>
       <r>    5.3944    1.0000 </r>
       <r>    8.3062    0.0000 </r>
       <r>    9.5126    0.0000 </r>
       <r>    9.7737    0.0000 </r>
       <r>   12.9781    0.0000 </r>
      </set>
      <set comment="kpoint 5">
       <r>   -4.5124    1.0000 </r>
       <r>    0.4676    1.0000 </r>
       <r>    4.7396    1.0000 </r>
       <r>    5.1166    1.0000 </r>
       <r>    8.0626    0.0000 </r>
       <r>    9.5285    0.0000 </r>
       <r>    9.6673    0.0000 </r>
       <r>   13.8205    0.0000 </r>
      </set>
      <set comment="kpoint 6">
       <r>   -3.8872    1.0000 </r>
       <r>   -0.6171    1.0000 </r>
       <r>    4.6596    1.0000 </r>
       <r>    4.9182    1.0000 </r>
       <r>    7.9169    0.0000 </r>
       <r>    9.4760    0.0000 </r>
       <r>    9.4792    0.0000 </r>
       <r>   13.9799    0.0000 </r>
      </set>
      <set comment="kpoint 7">
       <r>   -3.6448    1.0000 </r>
       <r>   -0.9754    1.0000 </r>
       <r>    4.6909    1.0000 </r>
       <r>    4.8150    1.0000 </r>
       <r>    7.8809    0.0000 </r>
       <r>    9.3720    0.0000 </r>
       <r>    9.5070    0.0000 </r>
       <r>   13.9400    0.0000 </r>
      </set>
      <set comment="kpoint 8">
       <r>   -4.0814    1.0000 </r>
       <r>   -0.3077    1.0000 </r>
       <r>    4.8163    1.0000 </r>
       <r>    4.8261    1.0000 </r>
       <r>    7.9564    0.0000 </r>
       <r>    9.3841    0.0000 </r>
       <r>    9.6495    0.0000 </r>
       <r>   13.8934    0.0000 </r>
      </set>
      <set comment="kpoint 9">
       <r>   -4.7260    1.0000 </r>
       <r>    0.9083    1.0000 </r>
       <r>    4.9283    1.0000 </r>
       <r>    5.0552    1.0000 </r>
       <r>    8.1375    0.0000 </r>
       <r>    9.4498    0.0000 </r>
       <r>    9.8297    0.0000 </r>
       <r>   13.0985    0.0000 </r>
      </set>
      <set comment="kpoint 10">
       <r>   -5.2973    1.0000 </r>
       <r>    2.3687    1.0000 </r>
       <r>    5.1501    1.0000 </r>
       <r>    5.3594    1.0000 </r>
       <r>    8.4019    0.0000 </r>
       <r>    9.3718    0.0000 </r>
       <r>    9.8483    0.0000 </r>
       <r>   12.3485    0.0000 </r>
      </set>
      <set comment="kpoint 11">
       <r>   -5.7183    1.0000 </r>
       <r>    3.9394    1.0000 </r>
       <r>    5.4637    1.0000 </r>
       <r>    5.6910    1.0000 </r>
       <r>    8.6554    0.0000 </r>
       <r>    9.0560    0.0000 </r>
       <r>    9.5212    0.0000 </r>
       <r>   11.4831    0.0000 </r>
      </set>
      <set comment="kpoint 12">
       <r>   -5.9643    1.0000 </r>
       <r>    5.4111    1.0000 </r>
       <r>    5.8100    1.0000 </r>
       <r>    5.9216    1.0000 </r>
       <r>    8.5773    0.0000 </r>
       <r>    8.9493    0.0000 </r>
       <r>    9.0253    0.0000 </r>
       <r>   10.2652    0.0000 </r>
      </set>
      <set comment="kpoint 13">
       <r>   -5.8405    1.0000 </r>
       <r>    4.8675    1.0000 </r>
       <r>    5.4532    1.0000 </r>
       <r>    5.5701    1.0000 </r>
       <r>    8.3302    0.0000 </r>
       <r>    9.4001    0.0000 </r>
       <r>    9.5284    0.0000 </r>
       <r>   10.7227    0.0000 </r>
      </set>
      <set comment="kpoint 14">
       <r>   -5.5949    1.0000 </r>
       <r>    3.8163    1.0000 </r>
       <r>    4.8481    1.0000 </r>
       <r>    5.4242    1.0000 </r>
       <r>    8.3456    0.0000 </r>
       <r>    9.6267    0.0000 </r>
       <r>   10.0448    0.0000 </r>
       <r>   11.1337    0.0000 </r>
      </set>
      <set comment="kpoint 15">
       <r>   -5.1747    1.0000 </r>
       <r>    2.3610    1.0000 </r>
       <r>    4.4645    1.0000 </r>
       <r>    5.1257    1.0000 </r>
       <r>    8.5671    0.0000 </r>
       <r>    9.5670    0.0000 </r>
       <r>   10.4200    0.0000 </r>
       <r>   11.2322    0.0000 </r>
      </set>
      <set comment="kpoint 16">
       <r>   -4.6042    1.0000 </r>
       <r>    0.9461    1.0000 </r>
       <r>    4.2055    1.0000 </r>
       <r>    4.8124    1.0000 </r>
       <r>    8.5436    0.0000 </r>
       <r>    9.5085    0.0000 </r>
       <r>   10.4001    0.0000 </r>
       <r>   11.8487    0.0000 </r>
      </set>
      <set comment="kpoint 17">
       <r>   -3.9594    1.0000 </r>
       <r>   -0.2498    1.0000 </r>
       <r>    4.0274    1.0000 </r>
       <r>    4.6117    1.0000 </r>
       <r>    8.4480    0.0000 </r>
       <r>    9.3815    0.0000 </r>
       <r>   10.2112    0.0000 </r>
       <r>   13.0156    0.0000 </r>
      </set>
      <set comment="kpoint 18">
       <r>   -3.5212    1.0000 </r>
       <r>   -0.9117    1.0000 </r>
       <r>    3.9022    1.0000 </r>
       <r>    4.5861    1.0000 </r>
       <r>    8.4250    0.0000 </r>
       <r>    9.3108    0.0000 </r>
       <r>   10.0667    0.0000 </r>
       <r>   14.1795    0.0000 </r>
      </set>
      <set comment="kpoint 19">
       <r>   -3.7660    1.0000 </r>
       <r>   -0.5534    1.0000 </r>
       <r>    3.8492    1.0000 </r>
       <r>    4.7264    1.0000 </r>
       <r>    8.4987    0.0000 </r>
       <r>    9.3461    0.0000 </r>
       <r>   10.0489    0.0000 </r>
       <r>   13.8663    0.0000 </r>
      </set>
      <set comment="kpoint 20">
       <r>   -4.3922    1.0000 </r>
       <r>    0.5179    1.0000 </r>
       <r>    3.9058    1.0000 </r>
       <r>    4.9901    1.0000 </r>
       <r>    8.6571    0.0000 </r>
       <r>    9.4456    0.0000 </r>
       <r>   10.1390    0.0000 </r>
       <r>   12.6654    0.0000 </r>
      </set>
      <set comment="kpoint 21">
       <r>   -5.0005    1.0000 </r>
       <r>    1.8748    1.0000 </r>
       <r>    4.1014    1.0000 </r>
       <r>    5.3264    1.0000 </r>
       <r>    8.8582    0.0000 </r>
       <r>    9.4356    0.0000 </r>
       <r>   10.1792    0.0000 </r>
       <r>   11.8055    0.0000 </r>
      </set>
      <set comment="kpoint 22">
       <r>   -5.4744    1.0000 </r>
       <r>    3.3039    1.0000 </r>
       <r>    4.4846    1.0000 </r>
       <r>    5.6516    1.0000 </r>
       <r>    8.8582    0.0000 </r>
       <r>    9.3244    0.0000 </r>
       <r>    9.8633    0.0000 </r>
       <r>   11.5379    0.0000 </r>
      </set>
      <set comment="kpoint 23">
       <r>   -5.7792    1.0000 </r>
       <r>    4.3930    1.0000 </r>
       <r>    5.2494    1.0000 </r>
       <r>    5.8084    1.0000 </r>
       <r>    8.6289    0.0000 </r>
       <r>    9.1624    0.0000 </r>
       <r>    9.4511    0.0000 </r>
       <r>   11.1378    0.0000 </r>
      </set>
      <set comment="kpoint 24">
       <r>   -5.4096    1.0000 </r>
       <r>    3.5780    1.0000 </r>
       <r>    4.6759    1.0000 </r>
       <r>    4.6961    1.0000 </r>
       <r>    7.7158    0.0000 </r>
       <r>   10.2100    0.0000 </r>
       <r>   10.7589    0.0000 </r>
       <r>   10.8064    0.0000 </r>
      </set>
      <set comment="kpoint 25">
       <r>   -5.0467    1.0000 </r>
       <r>    2.5969    1.0000 </r>
       <r>    4.0763    1.0000 </r>
       <r>    4.5129    1.0000 </r>
       <r>    7.7511    0.0000 </r>
       <r>    9.7882    0.0000 </r>
       <r>   10.9851    0.0000 </r>
       <r>   11.4255    0.0000 </r>
      </set>
      <set comment="kpoint 26">
       <r>   -4.5231    1.0000 </r>
       <r>    1.3548    1.0000 </r>
       <r>    3.6203    1.0000 </r>
       <r>    4.2388    1.0000 </r>
       <r>    8.0136    0.0000 </r>
       <r>   10.0044    0.0000 </r>
       <r>   10.7929    0.0000 </r>
       <r>   11.6166    0.0000 </r>
      </set>
      <set comment="kpoint 27">
       <r>   -3.8878    1.0000 </r>
       <r>    0.1653    1.0000 </r>
       <r>    3.2238    1.0000 </r>
       <r>    4.0954    1.0000 </r>
       <r>    8.0828    0.0000 </r>
       <r>   10.5047    0.0000 </r>
       <r>   11.0379    0.0000 </r>
       <r>   11.4739    0.0000 </r>
      </set>
      <set comment="kpoint 28">
       <r>   -3.3224    1.0000 </r>
       <r>   -0.6896    1.0000 </r>
       <r>    2.9068    1.0000 </r>
       <r>    4.1335    1.0000 </r>
       <r>    8.1642    0.0000 </r>
       <r>   10.2734    0.0000 </r>
       <r>   11.2774    0.0000 </r>
       <r>   12.4904    0.0000 </r>
      </set>
      <set comment="kpoint 29">
       <r>   -3.3330    1.0000 </r>
       <r>   -0.6709    1.0000 </r>
       <r>    2.7172    1.0000 </r>
       <r>    4.3302    1.0000 </r>
       <r>    8.3742    0.0000 </r>
       <r>   10.1153    0.0000 </r>
       <r>   11.1499    0.0000 </r>
       <r>   13.8253    0.0000 </r>
      </set>
      <set comment="kpoint 30">
       <r>   -3.9044    1.0000 </r>
       <r>    0.1972    1.0000 </r>
       <r>    2.7000    1.0000 </r>
       <r>    4.6512    1.0000 </r>
       <r>    8.7097    0.0000 </r>
       <r>   10.0207    0.0000 </r>
       <r>   11.0779    0.0000 </r>
       <r>   12.4454    0.0000 </r>
      </set>
      <set comment="kpoint 31">
       <r>   -4.5368    1.0000 </r>
       <r>    1.3293    1.0000 </r>
       <r>    2.9430    1.0000 </r>
       <r>    5.0418    1.0000 </r>
       <r>    9.0976    0.0000 </r>
       <r>    9.7985    0.0000 </r>
       <r>   10.8975    0.0000 </r>
       <r>   11.5089    0.0000 </r>
      </set>
      <set comment="kpoint 32">
       <r>   -5.0563    1.0000 </r>
       <r>    2.2692    1.0000 </r>
       <r>    3.6874    1.0000 </r>
       <r>    5.3943    1.0000 </r>
       <r>    9.1956    0.0000 </r>
       <r>    9.3949    0.0000 </r>
       <r>   10.3326    0.0000 </r>
       <r>   11.4305    0.0000 </r>
      </set>
      <set comment="kpoint 33">
       <r>   -5.4152    1.0000 </r>
       <r>    2.8792    1.0000 </r>
       <r>    4.8627    1.0000 </r>
       <r>    5.5226    1.0000 </r>
       <r>    8.6821    0.0000 </r>
       <r>    9.2537    0.0000 </r>
       <r>    9.9134    0.0000 </r>
       <r>   11.8398    0.0000 </r>
      </set>
      <set comment="kpoint 34">
       <r>   -4.7409    1.0000 </r>
       <r>    2.1406    1.0000 </r>
       <r>    3.9508    1.0000 </r>
       <r>    4.0054    1.0000 </r>
       <r>    7.1605    0.0000 </r>
       <r>    8.9478    0.0000 </r>
       <r>   12.1755    0.0000 </r>
       <r>   12.2395    0.0000 </r>
      </set>
      <set comment="kpoint 35">
       <r>   -4.2686    1.0000 </r>
       <r>    1.2766    1.0000 </r>
       <r>    3.4427    1.0000 </r>
       <r>    3.7709    1.0000 </r>
       <r>    7.2773    0.0000 </r>
       <r>    8.6243    0.0000 </r>
       <r>   12.3275    0.0000 </r>
       <r>   12.9356    0.0000 </r>
      </set>
      <set comment="kpoint 36">
       <r>   -3.6615    1.0000 </r>
       <r>    0.3122    1.0000 </r>
       <r>    2.7919    1.0000 </r>
       <r>    3.6383    1.0000 </r>
       <r>    7.5112    0.0000 </r>
       <r>    9.1815    0.0000 </r>
       <r>   12.1034    0.0000 </r>
       <r>   13.0170    0.0000 </r>
      </set>
      <set comment="kpoint 37">
       <r>   -3.0316    1.0000 </r>
       <r>   -0.5388    1.0000 </r>
       <r>    2.2295    1.0000 </r>
       <r>    3.6802    1.0000 </r>
       <r>    7.6256    0.0000 </r>
       <r>   10.4586    0.0000 </r>
       <r>   11.8330    0.0000 </r>
       <r>   12.8532    0.0000 </r>
      </set>
      <set comment="kpoint 38">
       <r>   -2.8164    1.0000 </r>
       <r>   -0.7922    1.0000 </r>
       <r>    1.8794    1.0000 </r>
       <r>    3.8809    1.0000 </r>
       <r>    7.8518    0.0000 </r>
       <r>   11.4239    0.0000 </r>
       <r>   12.1648    0.0000 </r>
       <r>   12.7364    0.0000 </r>
      </set>
      <set comment="kpoint 39">
       <r>   -3.2998    1.0000 </r>
       <r>   -0.1987    1.0000 </r>
       <r>    1.8371    1.0000 </r>
       <r>    4.2146    1.0000 </r>
       <r>    8.2272    0.0000 </r>
       <r>   11.2023    0.0000 </r>
       <r>   12.3186    0.0000 </r>
       <r>   12.4768    0.0000 </r>
      </set>
      <set comment="kpoint 40">
       <r>   -3.9375    1.0000 </r>
       <r>    0.5028    1.0000 </r>
       <r>    2.3081    1.0000 </r>
       <r>    4.6323    1.0000 </r>
       <r>    8.6960    0.0000 </r>
       <r>   10.4407    0.0000 </r>
       <r>   11.5666    0.0000 </r>
       <r>   11.8813    0.0000 </r>
      </set>
      <set comment="kpoint 41">
       <r>   -4.4879    1.0000 </r>
       <r>    0.9712    1.0000 </r>
       <r>    3.3570    1.0000 </r>
       <r>    5.0263    1.0000 </r>
       <r>    8.9738    0.0000 </r>
       <r>    9.5859    0.0000 </r>
       <r>   10.5281    0.0000 </r>
       <r>   11.9942    0.0000 </r>
      </set>
      <set comment="kpoint 42">
       <r>   -4.8898    1.0000 </r>
       <r>    1.3872    1.0000 </r>
       <r>    4.5935    1.0000 </r>
       <r>    5.1952    1.0000 </r>
       <r>    8.4577    0.0000 </r>
       <r>    9.4225    0.0000 </r>
       <r>   10.0084    0.0000 </r>
       <r>   12.3930    0.0000 </r>
      </set>
      <set comment="kpoint 43">
       <r>   -3.8471    1.0000 </r>
       <r>    0.6593    1.0000 </r>
       <r>    3.4238    1.0000 </r>
       <r>    3.5186    1.0000 </r>
       <r>    6.7990    0.0000 </r>
       <r>    7.8694    0.0000 </r>
       <r>   13.7298    0.0000 </r>
       <r>   13.7466    0.0000 </r>
      </set>
      <set comment="kpoint 44">
       <r>   -3.2785    1.0000 </r>
       <r>   -0.1058    1.0000 </r>
       <r>    3.0091    1.0000 </r>
       <r>    3.3111    1.0000 </r>
       <r>    7.0111    0.0000 </r>
       <r>    7.7801    0.0000 </r>
       <r>   13.7653    0.0000 </r>
       <r>   14.5210    0.0000 </r>
      </set>
      <set comment="kpoint 45">
       <r>   -2.6293    1.0000 </r>
       <r>   -0.8277    1.0000 </r>
       <r>    2.2680    1.0000 </r>
       <r>    3.3287    1.0000 </r>
       <r>    7.1999    0.0000 </r>
       <r>    8.7323    0.0000 </r>
       <r>   13.4967    0.0000 </r>
       <r>   14.5490    0.0000 </r>
      </set>
      <set comment="kpoint 46">
       <r>   -2.2657    1.0000 </r>
       <r>   -1.1696    1.0000 </r>
       <r>    1.7014    1.0000 </r>
       <r>    3.5086    1.0000 </r>
       <r>    7.4125    0.0000 </r>
       <r>   10.2507    0.0000 </r>
       <r>   13.1561    0.0000 </r>
       <r>   14.0500    0.0000 </r>
      </set>
      <set comment="kpoint 47">
       <r>   -2.7015    1.0000 </r>
       <r>   -0.7630    1.0000 </r>
       <r>    1.6037    1.0000 </r>
       <r>    3.8304    1.0000 </r>
       <r>    7.7841    0.0000 </r>
       <r>   11.7867    0.0000 </r>
       <r>   12.3681    0.0000 </r>
       <r>   13.1577    0.0000 </r>
      </set>
      <set comment="kpoint 48">
       <r>   -3.3066    1.0000 </r>
       <r>   -0.4120    1.0000 </r>
       <r>    2.1848    1.0000 </r>
       <r>    4.2537    1.0000 </r>
       <r>    8.2802    0.0000 </r>
       <r>   10.6821    0.0000 </r>
       <r>   11.7838    0.0000 </r>
       <r>   13.0794    0.0000 </r>
      </set>
      <set comment="kpoint 49">
       <r>   -3.8433    1.0000 </r>
       <r>   -0.1938    1.0000 </r>
       <r>    3.2581    1.0000 </r>
       <r>    4.6850    1.0000 </r>
       <r>    8.6879    0.0000 </r>
       <r>    9.5836    0.0000 </r>
       <r>   10.5264    0.0000 </r>
       <r>   13.1693    0.0000 </r>
      </set>
      <set comment="kpoint 50">
       <r>   -4.2541    1.0000 </r>
       <r>    0.0786    1.0000 </r>
       <r>    4.4374    1.0000 </r>
       <r>    4.9250    1.0000 </r>
       <r>    8.2584    0.0000 </r>
       <r>    9.3878    0.0000 </r>
       <r>    9.8493    0.0000 </r>
       <r>   13.3890    0.0000 </r>
      </set>
      <set comment="kpoint 51">
       <r>   -2.7483    1.0000 </r>
       <r>   -0.7867    1.0000 </r>
       <r>    3.1284    1.0000 </r>
       <r>    3.2421    1.0000 </r>
       <r>    6.6937    0.0000 </r>
       <r>    7.1507    0.0000 </r>
       <r>   15.3048    0.0000 </r>
       <r>   15.3379    0.0000 </r>
      </set>
      <set comment="kpoint 52">
       <r>   -2.1064    1.0000 </r>
       <r>   -1.4605    1.0000 </r>
       <r>    2.8172    1.0000 </r>
       <r>    3.1198    1.0000 </r>
       <r>    6.9558    0.0000 </r>
       <r>    7.3533    0.0000 </r>
       <r>   15.2738    0.0000 </r>
       <r>   15.9008    0.0000 </r>
      </set>
      <set comment="kpoint 53">
       <r>   -2.0931    1.0000 </r>
       <r>   -1.3894    1.0000 </r>
       <r>    2.1622    1.0000 </r>
       <r>    3.2679    1.0000 </r>
       <r>    7.1347    0.0000 </r>
       <r>    8.6442    0.0000 </r>
       <r>   14.2110    0.0000 </r>
       <r>   15.0074    0.0000 </r>
      </set>
      <set comment="kpoint 54">
       <r>   -2.6005    1.0000 </r>
       <r>   -0.8850    1.0000 </r>
       <r>    1.8844    1.0000 </r>
       <r>    3.5656    1.0000 </r>
       <r>    7.4845    0.0000 </r>
       <r>   10.3203    0.0000 </r>
       <r>   12.4973    0.0000 </r>
       <r>   13.5961    0.0000 </r>
      </set>
      <set comment="kpoint 55">
       <r>   -3.0340    1.0000 </r>
       <r>   -0.7824    1.0000 </r>
       <r>    2.3440    1.0000 </r>
       <r>    3.9817    1.0000 </r>
       <r>    7.9826    0.0000 </r>
       <r>   10.8524    0.0000 </r>
       <r>   11.8940    0.0000 </r>
       <r>   12.3754    0.0000 </r>
      </set>
      <set comment="kpoint 56">
       <r>   -3.3996    1.0000 </r>
       <r>   -0.8560    1.0000 </r>
       <r>    3.3166    1.0000 </r>
       <r>    4.4415    1.0000 </r>
       <r>    8.4679    0.0000 </r>
       <r>    9.6121    0.0000 </r>
       <r>   10.5601    0.0000 </r>
       <r>   14.2109    0.0000 </r>
      </set>
      <set comment="kpoint 57">
       <r>   -3.6917    1.0000 </r>
       <r>   -0.8267    1.0000 </r>
       <r>    4.3763    1.0000 </r>
       <r>    4.7671    1.0000 </r>
       <r>    8.1516    0.0000 </r>
       <r>    9.3268    0.0000 </r>
       <r>    9.7019    0.0000 </r>
       <r>   14.0659    0.0000 </r>
      </set>
      <set comment="kpoint 58">
       <r>   -2.1313    1.0000 </r>
       <r>   -1.4751    1.0000 </r>
       <r>    3.0692    1.0000 </r>
       <r>    3.1864    1.0000 </r>
       <r>    6.7385    0.0000 </r>
       <r>    6.9398    0.0000 </r>
       <r>   16.0472    0.0000 </r>
       <r>   16.1129    0.0000 </r>
      </set>
      <set comment="kpoint 59">
       <r>   -2.7125    1.0000 </r>
       <r>   -0.7925    1.0000 </r>
       <r>    2.8815    1.0000 </r>
       <r>    3.1832    1.0000 </r>
       <r>    6.9630    0.0000 </r>
       <r>    7.5073    0.0000 </r>
       <r>   14.5147    0.0000 </r>
       <r>   15.3236    0.0000 </r>
      </set>
      <set comment="kpoint 60">
       <r>   -3.1626    1.0000 </r>
       <r>   -0.2481    1.0000 </r>
       <r>    2.4796    1.0000 </r>
       <r>    3.4511    1.0000 </r>
       <r>    7.3271    0.0000 </r>
       <r>    8.9104    0.0000 </r>
       <r>   12.7882    0.0000 </r>
       <r>   13.7761    0.0000 </r>
      </set>
      <set comment="kpoint 61">
       <r>   -3.4707    1.0000 </r>
       <r>   -0.1899    1.0000 </r>
       <r>    2.6950    1.0000 </r>
       <r>    3.8547    1.0000 </r>
       <r>    7.8297    0.0000 </r>
       <r>   10.6505    0.0000 </r>
       <r>   11.2155    0.0000 </r>
       <r>   12.1352    0.0000 </r>
      </set>
      <set comment="kpoint 62">
       <r>   -3.6417    1.0000 </r>
       <r>   -0.5091    1.0000 </r>
       <r>    3.4939    1.0000 </r>
       <r>    4.3400    1.0000 </r>
       <r>    8.3608    0.0000 </r>
       <r>    9.7422    0.0000 </r>
       <r>   10.6947    0.0000 </r>
       <r>   12.7162    0.0000 </r>
      </set>
      <set comment="kpoint 63">
       <r>   -3.3217    1.0000 </r>
       <r>   -0.0726    1.0000 </r>
       <r>    3.2468    1.0000 </r>
       <r>    3.3532    1.0000 </r>
       <r>    6.7120    0.0000 </r>
       <r>    7.4633    0.0000 </r>
       <r>   14.5209    0.0000 </r>
       <r>   14.5296    0.0000 </r>
      </set>
      <set comment="kpoint 64">
       <r>   -3.7985    1.0000 </r>
       <r>    0.5879    1.0000 </r>
       <r>    3.1976    1.0000 </r>
       <r>    3.5059    1.0000 </r>
       <r>    7.1156    0.0000 </r>
       <r>    8.1547    0.0000 </r>
       <r>   13.0368    0.0000 </r>
       <r>   13.7211    0.0000 </r>
      </set>
      <set comment="kpoint 65">
       <r>   -4.1168    1.0000 </r>
       <r>    0.8448    1.0000 </r>
       <r>    3.1855    1.0000 </r>
       <r>    3.8970    1.0000 </r>
       <r>    7.7441    0.0000 </r>
       <r>    9.5484    0.0000 </r>
       <r>   11.4374    0.0000 </r>
       <r>   12.2931    0.0000 </r>
      </set>
      <set comment="kpoint 66">
       <r>   -4.2684    1.0000 </r>
       <r>    0.5405    1.0000 </r>
       <r>    3.7477    1.0000 </r>
       <r>    4.4157    1.0000 </r>
       <r>    8.3531    0.0000 </r>
       <r>    9.9530    0.0000 </r>
       <r>   10.8887    0.0000 </r>
       <r>   11.3900    0.0000 </r>
      </set>
      <set comment="kpoint 67">
       <r>   -4.3211    1.0000 </r>
       <r>    1.4001    1.0000 </r>
       <r>    3.6588    1.0000 </r>
       <r>    3.7368    1.0000 </r>
       <r>    6.9507    0.0000 </r>
       <r>    8.3666    0.0000 </r>
       <r>   12.9443    0.0000 </r>
       <r>   12.9858    0.0000 </r>
      </set>
      <set comment="kpoint 68">
       <r>   -4.6855    1.0000 </r>
       <r>    1.9489    1.0000 </r>
       <r>    3.7379    1.0000 </r>
       <r>    4.1082    1.0000 </r>
       <r>    7.4918    0.0000 </r>
       <r>    9.1793    0.0000 </r>
       <r>   11.6373    0.0000 </r>
       <r>   12.1687    0.0000 </r>
      </set>
      <set comment="kpoint 69">
       <r>   -4.8766    1.0000 </r>
       <r>    1.8556    1.0000 </r>
       <r>    4.0517    1.0000 </r>
       <r>    4.6641    1.0000 </r>
       <r>    8.3010    0.0000 </r>
       <r>   10.1048    0.0000 </r>
       <r>   10.6138    0.0000 </r>
       <r>   10.9996    0.0000 </r>
      </set>
      <set comment="kpoint 70">
       <r>   -5.1043    1.0000 </r>
       <r>    2.8705    1.0000 </r>
       <r>    4.2981    1.0000 </r>
       <r>    4.3205    1.0000 </r>
       <r>    7.4199    0.0000 </r>
       <r>    9.5921    0.0000 </r>
       <r>   11.4322    0.0000 </r>
       <r>   11.5112    0.0000 </r>
      </set>
      <set comment="kpoint 71">
       <r>   -5.3504    1.0000 </r>
       <r>    3.2183    1.0000 </r>
       <r>    4.4500    1.0000 </r>
       <r>    4.9657    1.0000 </r>
       <r>    8.0422    0.0000 </r>
       <r>   10.1078    0.0000 </r>
       <r>   10.6829    0.0000 </r>
       <r>   10.7150    0.0000 </r>
      </set>
      <set comment="kpoint 72">
       <r>   -5.6553    1.0000 </r>
       <r>    4.2490    1.0000 </r>
       <r>    5.0605    1.0000 </r>
       <r>    5.1322    1.0000 </r>
       <r>    8.0290    0.0000 </r>
       <r>    9.9783    0.0000 </r>
       <r>   10.1376    0.0000 </r>
       <r>   10.8126    0.0000 </r>
      </set>
      <set comment="kpoint 73">
       <r>   -5.8410    1.0000 </r>
       <r>    4.4767    1.0000 </r>
       <r>    5.7873    1.0000 </r>
       <r>    5.7873    1.0000 </r>
       <r>    8.6572    0.0000 </r>
       <r>    9.0946    0.0000 </r>
       <r>    9.0946    0.0000 </r>
       <r>   11.0326    0.0000 </r>
      </set>
      <set comment="kpoint 74">
       <r>   -5.6570    1.0000 </r>
       <r>    3.8540    1.0000 </r>
       <r>    4.8875    1.0000 </r>
       <r>    5.8684    1.0000 </r>
       <r>    9.0127    0.0000 </r>
       <r>    9.0779    0.0000 </r>
       <r>    9.3896    0.0000 </r>
       <r>   11.6015    0.0000 </r>
      </set>
      <set comment="kpoint 75">
       <r>   -5.2945    1.0000 </r>
       <r>    2.7829    1.0000 </r>
       <r>    4.0819    1.0000 </r>
       <r>    5.6504    1.0000 </r>
       <r>    9.1547    0.0000 </r>
       <r>    9.4380    0.0000 </r>
       <r>    9.7455    0.0000 </r>
       <r>   11.9053    0.0000 </r>
      </set>
      <set comment="kpoint 76">
       <r>   -4.7707    1.0000 </r>
       <r>    1.4086    1.0000 </r>
       <r>    3.7241    1.0000 </r>
       <r>    5.2968    1.0000 </r>
       <r>    8.8826    0.0000 </r>
       <r>    9.7834    0.0000 </r>
       <r>    9.9669    0.0000 </r>
       <r>   12.4921    0.0000 </r>
      </set>
      <set comment="kpoint 77">
       <r>   -4.1359    1.0000 </r>
       <r>    0.1347    1.0000 </r>
       <r>    3.5855    1.0000 </r>
       <r>    4.9455    1.0000 </r>
       <r>    8.6145    0.0000 </r>
       <r>    9.8166    0.0000 </r>
       <r>    9.9170    0.0000 </r>
       <r>   13.5452    0.0000 </r>
      </set>
      <set comment="kpoint 78">
       <r>   -3.5707    1.0000 </r>
       <r>   -0.7635    1.0000 </r>
       <r>    3.6071    1.0000 </r>
       <r>    4.6645    1.0000 </r>
       <r>    8.4128    0.0000 </r>
       <r>    9.6677    0.0000 </r>
       <r>   10.0141    0.0000 </r>
       <r>   14.4335    0.0000 </r>
      </set>
      <set comment="kpoint 79">
       <r>   -3.5678    1.0000 </r>
       <r>   -0.7690    1.0000 </r>
       <r>    3.7674    1.0000 </r>
       <r>    4.4886    1.0000 </r>
       <r>    8.3137    0.0000 </r>
       <r>    9.6365    0.0000 </r>
       <r>   10.1937    0.0000 </r>
       <r>   13.5363    0.0000 </r>
      </set>
      <set comment="kpoint 80">
       <r>   -4.1311    1.0000 </r>
       <r>    0.1236    1.0000 </r>
       <r>    4.0467    1.0000 </r>
       <r>    4.4369    1.0000 </r>
       <r>    8.3241    0.0000 </r>
       <r>    9.7221    0.0000 </r>
       <r>   10.4503    0.0000 </r>
       <r>   12.1703    0.0000 </r>
      </set>
      <set comment="kpoint 81">
       <r>   -4.7667    1.0000 </r>
       <r>    1.4035    1.0000 </r>
       <r>    4.4177    1.0000 </r>
       <r>    4.5184    1.0000 </r>
       <r>    8.3696    0.0000 </r>
       <r>    9.8503    0.0000 </r>
       <r>   10.6681    0.0000 </r>
       <r>   11.1438    0.0000 </r>
      </set>
      <set comment="kpoint 82">
       <r>   -5.2916    1.0000 </r>
       <r>    2.8401    1.0000 </r>
       <r>    4.7321    1.0000 </r>
       <r>    4.8240    1.0000 </r>
       <r>    8.2379    0.0000 </r>
       <r>    9.8969    0.0000 </r>
       <r>   10.6036    0.0000 </r>
       <r>   10.8456    0.0000 </r>
      </set>
      <set comment="kpoint 83">
       <r>   -5.5349    1.0000 </r>
       <r>    3.3902    1.0000 </r>
       <r>    5.0973    1.0000 </r>
       <r>    5.3238    1.0000 </r>
       <r>    8.5144    0.0000 </r>
       <r>    9.3535    0.0000 </r>
       <r>   10.0392    0.0000 </r>
       <r>   11.4024    0.0000 </r>
      </set>
      <set comment="kpoint 84">
       <r>   -5.2323    1.0000 </r>
       <r>    2.7531    1.0000 </r>
       <r>    4.0875    1.0000 </r>
       <r>    5.2457    1.0000 </r>
       <r>    8.5863    0.0000 </r>
       <r>    9.7232    0.0000 </r>
       <r>   10.5444    0.0000 </r>
       <r>   10.9471    0.0000 </r>
      </set>
      <set comment="kpoint 85">
       <r>   -4.7614    1.0000 </r>
       <r>    1.7652    1.0000 </r>
       <r>    3.3248    1.0000 </r>
       <r>    4.9614    1.0000 </r>
       <r>    9.0006    0.0000 </r>
       <r>    9.6437    0.0000 </r>
       <r>   10.7932    0.0000 </r>
       <r>   11.1182    0.0000 </r>
      </set>
      <set comment="kpoint 86">
       <r>   -4.1556    1.0000 </r>
       <r>    0.5638    1.0000 </r>
       <r>    3.0112    1.0000 </r>
       <r>    4.5951    1.0000 </r>
       <r>    9.1392    0.0000 </r>
       <r>    9.3929    0.0000 </r>
       <r>   11.2478    0.0000 </r>
       <r>   11.5645    0.0000 </r>
      </set>
      <set comment="kpoint 87">
       <r>   -3.5273    1.0000 </r>
       <r>   -0.4599    1.0000 </r>
       <r>    2.9245    1.0000 </r>
       <r>    4.2979    1.0000 </r>
       <r>    8.9350    0.0000 </r>
       <r>    9.3310    0.0000 </r>
       <r>   11.2770    0.0000 </r>
       <r>   12.8497    0.0000 </r>
      </set>
      <set comment="kpoint 88">
       <r>   -3.2765    1.0000 </r>
       <r>   -0.8157    1.0000 </r>
       <r>    2.9716    1.0000 </r>
       <r>    4.1522    1.0000 </r>
       <r>    8.7119    0.0000 </r>
       <r>    9.4609    0.0000 </r>
       <r>   11.2989    0.0000 </r>
       <r>   13.4238    0.0000 </r>
      </set>
      <set comment="kpoint 89">
       <r>   -3.7185    1.0000 </r>
       <r>   -0.1725    1.0000 </r>
       <r>    3.1069    1.0000 </r>
       <r>    4.2033    1.0000 </r>
       <r>    8.5987    0.0000 </r>
       <r>    9.7124    0.0000 </r>
       <r>   11.3843    0.0000 </r>
       <r>   11.9043    0.0000 </r>
      </set>
      <set comment="kpoint 90">
       <r>   -4.3635    1.0000 </r>
       <r>    0.9570    1.0000 </r>
       <r>    3.3305    1.0000 </r>
       <r>    4.4394    1.0000 </r>
       <r>    8.5399    0.0000 </r>
       <r>   10.0360    0.0000 </r>
       <r>   10.6970    0.0000 </r>
       <r>   11.4726    0.0000 </r>
      </set>
      <set comment="kpoint 91">
       <r>   -4.9320    1.0000 </r>
       <r>    2.1995    1.0000 </r>
       <r>    3.7189    1.0000 </r>
       <r>    4.7626    1.0000 </r>
       <r>    8.3092    0.0000 </r>
       <r>   10.0843    0.0000 </r>
       <r>   10.4384    0.0000 </r>
       <r>   11.2900    0.0000 </r>
      </set>
      <set comment="kpoint 92">
       <r>   -4.9898    1.0000 </r>
       <r>    2.2850    1.0000 </r>
       <r>    4.2928    1.0000 </r>
       <r>    4.3906    1.0000 </r>
       <r>    7.9416    0.0000 </r>
       <r>   10.0196    0.0000 </r>
       <r>   10.7536    0.0000 </r>
       <r>   11.1934    0.0000 </r>
      </set>
      <set comment="kpoint 93">
       <r>   -4.5754    1.0000 </r>
       <r>    1.6355    1.0000 </r>
       <r>    3.3904    1.0000 </r>
       <r>    4.2776    1.0000 </r>
       <r>    8.0556    0.0000 </r>
       <r>    9.6201    0.0000 </r>
       <r>   10.8665    0.0000 </r>
       <r>   12.0667    0.0000 </r>
      </set>
      <set comment="kpoint 94">
       <r>   -4.0112    1.0000 </r>
       <r>    0.7636    1.0000 </r>
       <r>    2.7410    1.0000 </r>
       <r>    3.9387    1.0000 </r>
       <r>    8.5548    0.0000 </r>
       <r>    9.7507    0.0000 </r>
       <r>   10.5620    0.0000 </r>
       <r>   12.7697    0.0000 </r>
      </set>
      <set comment="kpoint 95">
       <r>   -3.3664    1.0000 </r>
       <r>   -0.1845    1.0000 </r>
       <r>    2.3940    1.0000 </r>
       <r>    3.6520    1.0000 </r>
       <r>    8.7593    0.0000 </r>
       <r>   10.0997    0.0000 </r>
       <r>   10.9058    0.0000 </r>
       <r>   12.9230    0.0000 </r>
      </set>
      <set comment="kpoint 96">
       <r>   -2.9171    1.0000 </r>
       <r>   -0.7748    1.0000 </r>
       <r>    2.2195    1.0000 </r>
       <r>    3.5735    1.0000 </r>
       <r>    8.9353    0.0000 </r>
       <r>    9.8146    0.0000 </r>
       <r>   12.3915    0.0000 </r>
       <r>   12.9048    0.0000 </r>
      </set>
      <set comment="kpoint 97">
       <r>   -3.1806    1.0000 </r>
       <r>   -0.4332    1.0000 </r>
       <r>    2.1890    1.0000 </r>
       <r>    3.7281    1.0000 </r>
       <r>    9.2298    0.0000 </r>
       <r>    9.6056    0.0000 </r>
       <r>   11.8132    0.0000 </r>
       <r>   12.8378    0.0000 </r>
      </set>
      <set comment="kpoint 98">
       <r>   -3.8121    1.0000 </r>
       <r>    0.4431    1.0000 </r>
       <r>    2.3887    1.0000 </r>
       <r>    4.0601    1.0000 </r>
       <r>    9.3729    0.0000 </r>
       <r>    9.6403    0.0000 </r>
       <r>   10.5821    0.0000 </r>
       <r>   12.6479    0.0000 </r>
      </set>
      <set comment="kpoint 99">
       <r>   -4.4121    1.0000 </r>
       <r>    1.2665    1.0000 </r>
       <r>    3.0068    1.0000 </r>
       <r>    4.4512    1.0000 </r>
       <r>    8.7646    0.0000 </r>
       <r>   10.0599    0.0000 </r>
       <r>   10.2364    0.0000 </r>
       <r>   11.9272    0.0000 </r>
      </set>
      <set comment="kpoint 100">
       <r>   -4.2175    1.0000 </r>
       <r>    1.1169    1.0000 </r>
       <r>    3.3503    1.0000 </r>
       <r>    3.8240    1.0000 </r>
       <r>    7.4118    0.0000 </r>
       <r>    8.9668    0.0000 </r>
       <r>   12.1941    0.0000 </r>
       <r>   12.4295    0.0000 </r>
      </set>
      <set comment="kpoint 101">
       <r>   -3.7028    1.0000 </r>
       <r>    0.4473    1.0000 </r>
       <r>    2.8786    1.0000 </r>
       <r>    3.4723    1.0000 </r>
       <r>    7.6700    0.0000 </r>
       <r>    8.6738    0.0000 </r>
       <r>   12.1000    0.0000 </r>
       <r>   13.6847    0.0000 </r>
      </set>
      <set comment="kpoint 102">
       <r>   -3.0726    1.0000 </r>
       <r>   -0.2911    1.0000 </r>
       <r>    2.3838    1.0000 </r>
       <r>    3.0983    1.0000 </r>
       <r>    8.2571    0.0000 </r>
       <r>    9.0585    0.0000 </r>
       <r>   11.7391    0.0000 </r>
       <r>   14.4940    0.0000 </r>
      </set>
      <set comment="kpoint 103">
       <r>   -2.4965    1.0000 </r>
       <r>   -0.9110    1.0000 </r>
       <r>    1.9174    1.0000 </r>
       <r>    3.0464    1.0000 </r>
       <r>    8.4645    0.0000 </r>
       <r>   10.3774    0.0000 </r>
       <r>   11.4422    0.0000 </r>
       <r>   13.6303    0.0000 </r>
      </set>
      <set comment="kpoint 104">
       <r>   -2.5736    1.0000 </r>
       <r>   -0.8218    1.0000 </r>
       <r>    1.6988    1.0000 </r>
       <r>    3.2566    1.0000 </r>
       <r>    8.7581    0.0000 </r>
       <r>   10.9292    0.0000 </r>
       <r>   11.8676    0.0000 </r>
       <r>   12.3812    0.0000 </r>
      </set>
      <set comment="kpoint 105">
       <r>   -3.1731    1.0000 </r>
       <r>   -0.2575    1.0000 </r>
       <r>    1.9271    1.0000 </r>
       <r>    3.6452    1.0000 </r>
       <r>    9.1816    0.0000 </r>
       <r>   10.1166    0.0000 </r>
       <r>   11.1596    0.0000 </r>
       <r>   13.4312    0.0000 </r>
      </set>
      <set comment="kpoint 106">
       <r>   -3.7791    1.0000 </r>
       <r>    0.1818    1.0000 </r>
       <r>    2.6902    1.0000 </r>
       <r>    4.1080    1.0000 </r>
       <r>    8.9757    0.0000 </r>
       <r>    9.6691    0.0000 </r>
       <r>   11.1550    0.0000 </r>
       <r>   12.0937    0.0000 </r>
      </set>
      <set comment="kpoint 107">
       <r>   -3.2388    1.0000 </r>
       <r>   -0.1529    1.0000 </r>
       <r>    2.7325    1.0000 </r>
       <r>    3.4489    1.0000 </r>
       <r>    7.0441    0.0000 </r>
       <r>    8.2385    0.0000 </r>
       <r>   13.7598    0.0000 </r>
       <r>   13.7804    0.0000 </r>
      </set>
      <set comment="kpoint 108">
       <r>   -2.6437    1.0000 </r>
       <r>   -0.8097    1.0000 </r>
       <r>    2.5830    1.0000 </r>
       <r>    3.0124    1.0000 </r>
       <r>    7.4785    0.0000 </r>
       <r>    8.1058    0.0000 </r>
       <r>   13.4786    0.0000 </r>
       <r>   15.3053    0.0000 </r>
      </set>
      <set comment="kpoint 109">
       <r>   -2.0050    1.0000 </r>
       <r>   -1.4071    1.0000 </r>
       <r>    2.2565    1.0000 </r>
       <r>    2.6859    1.0000 </r>
       <r>    8.1357    0.0000 </r>
       <r>    8.7518    0.0000 </r>
       <r>   13.1196    0.0000 </r>
       <r>   13.8862    0.0000 </r>
      </set>
      <set comment="kpoint 110">
       <r>   -2.1426    1.0000 </r>
       <r>   -1.2227    1.0000 </r>
       <r>    1.7985    1.0000 </r>
       <r>    2.9288    1.0000 </r>
       <r>    8.4032    0.0000 </r>
       <r>   10.3272    0.0000 </r>
       <r>   12.0891    0.0000 </r>
       <r>   12.8625    0.0000 </r>
      </set>
      <set comment="kpoint 111">
       <r>   -2.6937    1.0000 </r>
       <r>   -0.8205    1.0000 </r>
       <r>    1.8981    1.0000 </r>
       <r>    3.3597    1.0000 </r>
       <r>    8.8181    0.0000 </r>
       <r>   10.3721    0.0000 </r>
       <r>   12.2163    0.0000 </r>
       <r>   12.7668    0.0000 </r>
      </set>
      <set comment="kpoint 112">
       <r>   -3.2082    1.0000 </r>
       <r>   -0.6557    1.0000 </r>
       <r>    2.5769    1.0000 </r>
       <r>    3.8985    1.0000 </r>
       <r>    9.1035    0.0000 </r>
       <r>    9.3305    0.0000 </r>
       <r>   12.0782    0.0000 </r>
       <r>   12.5956    0.0000 </r>
      </set>
      <set comment="kpoint 113">
       <r>   -2.0992    1.0000 </r>
       <r>   -1.4369    1.0000 </r>
       <r>    2.4742    1.0000 </r>
       <r>    3.2854    1.0000 </r>
       <r>    6.8799    0.0000 </r>
       <r>    7.9262    0.0000 </r>
       <r>   15.1327    0.0000 </r>
       <r>   15.4098    0.0000 </r>
      </set>
      <set comment="kpoint 114">
       <r>   -2.0612    1.0000 </r>
       <r>   -1.4354    1.0000 </r>
       <r>    2.5226    1.0000 </r>
       <r>    2.9215    1.0000 </r>
       <r>    7.4478    0.0000 </r>
       <r>    7.9838    0.0000 </r>
       <r>   14.2184    0.0000 </r>
       <r>   14.9923    0.0000 </r>
      </set>
      <set comment="kpoint 115">
       <r>   -2.5481    1.0000 </r>
       <r>   -0.8475    1.0000 </r>
       <r>    2.2945    1.0000 </r>
       <r>    2.8289    1.0000 </r>
       <r>    8.1753    0.0000 </r>
       <r>    8.8552    0.0000 </r>
       <r>   12.4062    0.0000 </r>
       <r>   14.6740    0.0000 </r>
      </set>
      <set comment="kpoint 116">
       <r>   -2.9304    1.0000 </r>
       <r>   -0.5474    1.0000 </r>
       <r>    2.1283    1.0000 </r>
       <r>    3.2881    1.0000 </r>
       <r>    8.5848    0.0000 </r>
       <r>   10.4035    0.0000 </r>
       <r>   10.9396    0.0000 </r>
       <r>   13.7681    0.0000 </r>
      </set>
      <set comment="kpoint 117">
       <r>   -2.6831    1.0000 </r>
       <r>   -0.8033    1.0000 </r>
       <r>    2.5596    1.0000 </r>
       <r>    3.3400    1.0000 </r>
       <r>    6.9351    0.0000 </r>
       <r>    8.0303    0.0000 </r>
       <r>   14.4620    0.0000 </r>
       <r>   14.5929    0.0000 </r>
      </set>
      <set comment="kpoint 118">
       <r>   -3.1940    1.0000 </r>
       <r>   -0.1770    1.0000 </r>
       <r>    2.7024    1.0000 </r>
       <r>    3.1957    1.0000 </r>
       <r>    7.5500    0.0000 </r>
       <r>    8.3388    0.0000 </r>
       <r>   12.7714    0.0000 </r>
       <r>   14.5114    0.0000 </r>
      </set>
      <set comment="kpoint 119">
       <r>   -3.5629    1.0000 </r>
       <r>    0.2465    1.0000 </r>
       <r>    2.5324    1.0000 </r>
       <r>    3.4759    1.0000 </r>
       <r>    8.3840    0.0000 </r>
       <r>    9.3579    0.0000 </r>
       <r>   11.1235    0.0000 </r>
       <r>   13.6287    0.0000 </r>
      </set>
      <set comment="kpoint 120">
       <r>   -3.7522    1.0000 </r>
       <r>    0.4920    1.0000 </r>
       <r>    2.9958    1.0000 </r>
       <r>    3.6108    1.0000 </r>
       <r>    7.2042    0.0000 </r>
       <r>    8.5514    0.0000 </r>
       <r>   12.9795    0.0000 </r>
       <r>   13.0807    0.0000 </r>
      </set>
      <set comment="kpoint 121">
       <r>   -4.1646    1.0000 </r>
       <r>    1.0527    1.0000 </r>
       <r>    3.1090    1.0000 </r>
       <r>    3.8378    1.0000 </r>
       <r>    7.8398    0.0000 </r>
       <r>    9.1045    0.0000 </r>
       <r>   11.4636    0.0000 </r>
       <r>   12.8677    0.0000 </r>
      </set>
      <set comment="kpoint 122">
       <r>   -4.6310    1.0000 </r>
       <r>    1.7138    1.0000 </r>
[...]
       <r>   -0.8805    1.0000 </r>
       <r>    1.8495    1.0000 </r>
       <r>    3.4781    1.0000 </r>
       <r>    8.0601    0.0000 </r>
       <r>   11.0490    0.0000 </r>
       <r>   11.6443    0.0000 </r>
       <r>   13.5966    0.0000 </r>
      </set>
      <set comment="kpoint 172">
       <r>   -2.4707    1.0000 </r>
       <r>   -0.9823    1.0000 </r>
       <r>    1.5936    1.0000 </r>
       <r>    3.7611    1.0000 </r>
       <r>    7.4373    0.0000 </r>
       <r>   11.0956    0.0000 </r>
       <r>   13.0316    0.0000 </r>
       <r>   13.4590    0.0000 </r>
      </set>
      <set comment="kpoint 173">
       <r>   -4.3148    1.0000 </r>
       <r>    0.0486    1.0000 </r>
       <r>    4.9768    1.0000 </r>
       <r>    4.9768    1.0000 </r>
       <r>    7.8401    0.0000 </r>
       <r>    9.5335    0.0000 </r>
       <r>    9.5335    0.0000 </r>
       <r>   14.0200    0.0000 </r>
      </set>
      <set comment="kpoint 174">
       <r>   -4.0214    1.0000 </r>
       <r>   -0.2749    1.0000 </r>
       <r>    4.1720    1.0000 </r>
       <r>    4.9397    1.0000 </r>
       <r>    8.2997    0.0000 </r>
       <r>    9.5633    0.0000 </r>
       <r>    9.6453    0.0000 </r>
       <r>   14.0332    0.0000 </r>
      </set>
      <set comment="kpoint 175">
       <r>   -3.5900    1.0000 </r>
       <r>   -0.4726    1.0000 </r>
       <r>    2.9838    1.0000 </r>
       <r>    4.5967    1.0000 </r>
       <r>    8.4120    0.0000 </r>
       <r>   10.2252    0.0000 </r>
       <r>   10.4102    0.0000 </r>
       <r>   14.1438    0.0000 </r>
      </set>
      <set comment="kpoint 176">
       <r>   -3.0527    1.0000 </r>
       <r>   -0.6348    1.0000 </r>
       <r>    1.9970    1.0000 </r>
       <r>    4.1556    1.0000 </r>
       <r>    7.9147    0.0000 </r>
       <r>   11.6107    0.0000 </r>
       <r>   11.6230    0.0000 </r>
       <r>   13.1443    0.0000 </r>
      </set>
      <set comment="kpoint 177">
       <r>   -3.8255    1.0000 </r>
       <r>   -0.5860    1.0000 </r>
       <r>    4.3675    1.0000 </r>
       <r>    4.6488    1.0000 </r>
       <r>    8.2367    0.0000 </r>
       <r>    9.3367    0.0000 </r>
       <r>    9.8727    0.0000 </r>
       <r>   13.7226    0.0000 </r>
      </set>
      <set comment="kpoint 178">
       <r>   -3.5084    1.0000 </r>
       <r>   -0.7398    1.0000 </r>
       <r>    3.4500    1.0000 </r>
       <r>    4.4236    1.0000 </r>
       <r>    8.7384    0.0000 </r>
       <r>    9.2079    0.0000 </r>
       <r>   10.6282    0.0000 </r>
       <r>   13.6306    0.0000 </r>
      </set>
      <set comment="kpoint 179">
       <r>   -3.0992    1.0000 </r>
       <r>   -0.7733    1.0000 </r>
       <r>    2.4627    1.0000 </r>
       <r>    3.9535    1.0000 </r>
       <r>    8.5697    0.0000 </r>
       <r>    9.9473    0.0000 </r>
       <r>   12.0117    0.0000 </r>
       <r>   13.2255    0.0000 </r>
      </set>
      <set comment="kpoint 180">
       <r>   -3.3366    1.0000 </r>
       <r>   -0.8375    1.0000 </r>
       <r>    3.1289    1.0000 </r>
       <r>    4.3473    1.0000 </r>
       <r>    8.1887    0.0000 </r>
       <r>   10.2279    0.0000 </r>
       <r>   10.6016    0.0000 </r>
       <r>   13.3624    0.0000 </r>
      </set>
      <set comment="kpoint 181">
       <r>   -3.7532    1.0000 </r>
       <r>   -0.8604    1.0000 </r>
       <r>    4.8764    1.0000 </r>
       <r>    4.8764    1.0000 </r>
       <r>    7.7271    0.0000 </r>
       <r>    9.4284    0.0000 </r>
       <r>    9.4284    0.0000 </r>
       <r>   13.8682    0.0000 </r>
      </set>
      <set comment="kpoint 182">
       <r>   -3.5831    1.0000 </r>
       <r>   -0.9420    1.0000 </r>
       <r>    4.2108    1.0000 </r>
       <r>    4.7408    1.0000 </r>
       <r>    8.2146    0.0000 </r>
       <r>    9.3878    0.0000 </r>
       <r>    9.7067    0.0000 </r>
       <r>   14.1828    0.0000 </r>
      </set>
     </set>
    </set>
   </array>
  </eigenvalues>
  <separator name="orbital magnetization" >
   <v name="MAGDIPOLOUT">      0.00000000      0.00000000      0.00000000</v>
  </separator>
  <dos>
   <i name="efermi">      6.26343249 </i>
   <total>
    <array>
     <dimension dim="1">gridpoints</dimension>
     <dimension dim="2">spin</dimension>
     <field>energy</field>
     <field>total</field>
     <field>integrated</field>
     <set>
      <set comment="spin 1">
       <r>    -7.1333     0.0000     0.0000 </r>
       <r>    -7.0522     0.0000     0.0000 </r>
       <r>    -6.9710     0.0000     0.0000 </r>
       <r>    -6.8898     0.0000     0.0000 </r>
       <r>    -6.8086     0.0000     0.0000 </r>
       <r>    -6.7275     0.0000     0.0000 </r>
       <r>    -6.6463     0.0000     0.0000 </r>
       <r>    -6.5651     0.0000     0.0000 </r>
       <r>    -6.4839     0.0000     0.0000 </r>
       <r>    -6.4027     0.0000     0.0000 </r>
       <r>    -6.3216     0.0000     0.0000 </r>
       <r>    -6.2404     0.0000     0.0000 </r>
       <r>    -6.1592     0.0000     0.0000 </r>
       <r>    -6.0780     0.0021     0.0002 </r>
       <r>    -5.9969     0.0363     0.0031 </r>
       <r>    -5.9157     0.1008     0.0113 </r>
       <r>    -5.8345     0.1332     0.0221 </r>
       <r>    -5.7533     0.1863     0.0372 </r>
       <r>    -5.6721     0.1629     0.0505 </r>
       <r>    -5.5910     0.2606     0.0716 </r>
       <r>    -5.5098     0.2119     0.0888 </r>
       <r>    -5.4286     0.2577     0.1097 </r>
       <r>    -5.3474     0.2887     0.1332 </r>
       <r>    -5.2663     0.3179     0.1590 </r>
       <r>    -5.1851     0.3138     0.1844 </r>
       <r>    -5.1039     0.2555     0.2052 </r>
       <r>    -5.0227     0.4429     0.2411 </r>
       <r>    -4.9416     0.3668     0.2709 </r>
       <r>    -4.8604     0.3757     0.3014 </r>
       <r>    -4.7792     0.2962     0.3254 </r>
       <r>    -4.6980     0.5304     0.3685 </r>
       <r>    -4.6168     0.4084     0.4017 </r>
       <r>    -4.5357     0.4590     0.4389 </r>
       <r>    -4.4545     0.4795     0.4778 </r>
       <r>    -4.3733     0.4641     0.5155 </r>
       <r>    -4.2921     0.3944     0.5475 </r>
       <r>    -4.2110     0.6439     0.5998 </r>
       <r>    -4.1298     0.6361     0.6514 </r>
       <r>    -4.0486     0.5059     0.6925 </r>
       <r>    -3.9674     0.5109     0.7340 </r>
       <r>    -3.8863     0.6126     0.7837 </r>
       <r>    -3.8051     0.6969     0.8403 </r>
       <r>    -3.7239     0.7828     0.9038 </r>
       <r>    -3.6427     0.7187     0.9622 </r>
       <r>    -3.5615     0.9382     1.0383 </r>
       <r>    -3.4804     0.9586     1.1161 </r>
       <r>    -3.3992     0.4248     1.1506 </r>
       <r>    -3.3180     0.9452     1.2274 </r>
       <r>    -3.2368     0.8556     1.2968 </r>
       <r>    -3.1557     0.7403     1.3569 </r>
       <r>    -3.0745     0.6243     1.4076 </r>
       <r>    -2.9933     0.8195     1.4741 </r>
       <r>    -2.9121     0.7561     1.5355 </r>
       <r>    -2.8309     0.3415     1.5632 </r>
       <r>    -2.7498     0.4141     1.5968 </r>
       <r>    -2.6686     0.7158     1.6549 </r>
       <r>    -2.5874     0.8120     1.7208 </r>
       <r>    -2.5062     0.5921     1.7689 </r>
       <r>    -2.4251     0.4786     1.8077 </r>
       <r>    -2.3439     0.2673     1.8294 </r>
       <r>    -2.2627     0.2331     1.8484 </r>
       <r>    -2.1815     0.2748     1.8707 </r>
       <r>    -2.1004     0.5944     1.9189 </r>
       <r>    -2.0192     0.5229     1.9614 </r>
       <r>    -1.9380     0.2929     1.9851 </r>
       <r>    -1.8568     0.1760     1.9994 </r>
       <r>    -1.7756     0.0070     2.0000 </r>
       <r>    -1.6945     0.0000     2.0000 </r>
       <r>    -1.6133     0.0000     2.0000 </r>
       <r>    -1.5321     0.0091     2.0007 </r>
       <r>    -1.4509     0.2776     2.0233 </r>
       <r>    -1.3698     0.7002     2.0801 </r>
       <r>    -1.2886     0.4020     2.1127 </r>
       <r>    -1.2074     0.2041     2.1293 </r>
       <r>    -1.1262     0.2464     2.1493 </r>
       <r>    -1.0450     0.1758     2.1636 </r>
       <r>    -0.9639     0.4791     2.2025 </r>
       <r>    -0.8827     1.0455     2.2873 </r>
       <r>    -0.8015     1.9306     2.4441 </r>
       <r>    -0.7203     1.5966     2.5737 </r>
       <r>    -0.6392     1.0173     2.6562 </r>
       <r>    -0.5580     0.7030     2.7133 </r>
       <r>    -0.4768     0.8653     2.7836 </r>
       <r>    -0.3956     0.8795     2.8550 </r>
       <r>    -0.3145     0.3796     2.8858 </r>
       <r>    -0.2333     0.6904     2.9418 </r>
       <r>    -0.1521     1.1188     3.0326 </r>
       <r>    -0.0709     0.5754     3.0793 </r>
       <r>     0.0103     0.1905     3.0948 </r>
       <r>     0.0914     0.4457     3.1310 </r>
       <r>     0.1726     0.7895     3.1951 </r>
       <r>     0.2538     0.4849     3.2344 </r>
       <r>     0.3350     0.2035     3.2510 </r>
       <r>     0.4161     0.1266     3.2612 </r>
       <r>     0.4973     0.6199     3.3116 </r>
       <r>     0.5785     0.8557     3.3810 </r>
       <r>     0.6597     0.2784     3.4036 </r>
       <r>     0.7408     0.0906     3.4110 </r>
       <r>     0.8220     0.1726     3.4250 </r>
       <r>     0.9032     0.3777     3.4556 </r>
       <r>     0.9844     0.6298     3.5068 </r>
       <r>     1.0656     0.2600     3.5279 </r>
       <r>     1.1467     0.1240     3.5379 </r>
       <r>     1.2279     0.0559     3.5425 </r>
       <r>     1.3091     0.3242     3.5688 </r>
       <r>     1.3903     0.5454     3.6131 </r>
       <r>     1.4714     0.3893     3.6447 </r>
       <r>     1.5526     0.0403     3.6479 </r>
       <r>     1.6338     0.3610     3.6772 </r>
       <r>     1.7150     0.6488     3.7299 </r>
       <r>     1.7962     0.7021     3.7869 </r>
       <r>     1.8773     1.4561     3.9051 </r>
       <r>     1.9585     1.3875     4.0177 </r>
       <r>     2.0397     0.8858     4.0896 </r>
       <r>     2.1209     0.8362     4.1575 </r>
       <r>     2.2020     0.9251     4.2326 </r>
       <r>     2.2832     1.3069     4.3387 </r>
       <r>     2.3644     1.0942     4.4275 </r>
       <r>     2.4456     1.0030     4.5089 </r>
       <r>     2.5267     0.7921     4.5732 </r>
       <r>     2.6079     0.8762     4.6444 </r>
       <r>     2.6891     1.0765     4.7318 </r>
       <r>     2.7703     1.3942     4.8449 </r>
       <r>     2.8515     0.9175     4.9194 </r>
       <r>     2.9326     1.1930     5.0163 </r>
       <r>     3.0138     1.3176     5.1232 </r>
       <r>     3.0950     1.0766     5.2106 </r>
       <r>     3.1762     1.2376     5.3111 </r>
       <r>     3.2573     1.4537     5.4291 </r>
       <r>     3.3385     1.7521     5.5713 </r>
       <r>     3.4197     1.4455     5.6887 </r>
       <r>     3.5009     1.4770     5.8086 </r>
       <r>     3.5820     1.2281     5.9083 </r>
       <r>     3.6632     1.3318     6.0164 </r>
       <r>     3.7444     1.3373     6.1249 </r>
       <r>     3.8256     1.4393     6.2418 </r>
       <r>     3.9068     1.5631     6.3687 </r>
       <r>     3.9879     1.0920     6.4573 </r>
       <r>     4.0691     1.1043     6.5469 </r>
       <r>     4.1503     1.4162     6.6619 </r>
       <r>     4.2315     1.2948     6.7670 </r>
       <r>     4.3126     1.1778     6.8626 </r>
       <r>     4.3938     0.9982     6.9437 </r>
       <r>     4.4750     1.4900     7.0646 </r>
       <r>     4.5562     0.9537     7.1420 </r>
       <r>     4.6374     1.2680     7.2450 </r>
       <r>     4.7185     1.2074     7.3430 </r>
       <r>     4.7997     0.8397     7.4111 </r>
       <r>     4.8809     0.9226     7.4860 </r>
       <r>     4.9621     1.2079     7.5841 </r>
       <r>     5.0432     0.8431     7.6525 </r>
       <r>     5.1244     0.5162     7.6944 </r>
       <r>     5.2056     0.4834     7.7337 </r>
       <r>     5.2868     0.5380     7.7773 </r>
       <r>     5.3679     0.4893     7.8171 </r>
       <r>     5.4491     0.5381     7.8607 </r>
       <r>     5.5303     0.3283     7.8874 </r>
       <r>     5.6115     0.2807     7.9102 </r>
       <r>     5.6927     0.3140     7.9357 </r>
       <r>     5.7738     0.1947     7.9515 </r>
       <r>     5.8550     0.2843     7.9745 </r>
       <r>     5.9362     0.1446     7.9863 </r>
       <r>     6.0174     0.1051     7.9948 </r>
       <r>     6.0985     0.0604     7.9997 </r>
       <r>     6.1797     0.0035     8.0000 </r>
       <r>     6.2609     0.0000     8.0000 </r>
       <r>     6.3421     0.0000     8.0000 </r>
       <r>     6.4233     0.0000     8.0000 </r>
       <r>     6.5044     0.0000     8.0000 </r>
       <r>     6.5856     0.0001     8.0000 </r>
       <r>     6.6668     0.0294     8.0024 </r>
       <r>     6.7480     0.1812     8.0171 </r>
       <r>     6.8291     0.1209     8.0269 </r>
       <r>     6.9103     0.1573     8.0397 </r>
       <r>     6.9915     0.5089     8.0810 </r>
       <r>     7.0727     0.3015     8.1055 </r>
       <r>     7.1538     0.4528     8.1422 </r>
       <r>     7.2350     0.4413     8.1780 </r>
       <r>     7.3162     0.3044     8.2028 </r>
       <r>     7.3974     0.4411     8.2386 </r>
       <r>     7.4786     0.7961     8.3032 </r>
       <r>     7.5597     0.8478     8.3720 </r>
       <r>     7.6409     0.3611     8.4013 </r>
       <r>     7.7221     0.6301     8.4525 </r>
       <r>     7.8033     0.8256     8.5195 </r>
       <r>     7.8844     0.9377     8.5956 </r>
       <r>     7.9656     0.6804     8.6509 </r>
       <r>     8.0468     1.1109     8.7410 </r>
       <r>     8.1280     1.1850     8.8372 </r>
       <r>     8.2091     1.1005     8.9266 </r>
       <r>     8.2903     1.2344     9.0268 </r>
       <r>     8.3715     1.8019     9.1730 </r>
       <r>     8.4527     1.6244     9.3049 </r>
       <r>     8.5339     1.1844     9.4011 </r>
       <r>     8.6150     1.4567     9.5193 </r>
       <r>     8.6962     1.4462     9.6367 </r>
       <r>     8.7774     1.6876     9.7737 </r>
       <r>     8.8586     1.1424     9.8664 </r>
       <r>     8.9397     1.1164     9.9571 </r>
       <r>     9.0209     1.1267    10.0485 </r>
       <r>     9.1021     1.0316    10.1323 </r>
       <r>     9.1833     1.1569    10.2262 </r>
       <r>     9.2645     1.1705    10.3212 </r>
       <r>     9.3456     1.4968    10.4427 </r>
       <r>     9.4268     2.4248    10.6395 </r>
       <r>     9.5080     1.7736    10.7835 </r>
       <r>     9.5892     1.7657    10.9268 </r>
       <r>     9.6703     2.1361    11.1002 </r>
       <r>     9.7515     1.5885    11.2292 </r>
       <r>     9.8327     1.6678    11.3646 </r>
       <r>     9.9139     1.3075    11.4707 </r>
       <r>     9.9950     1.1960    11.5678 </r>
       <r>    10.0762     1.5780    11.6959 </r>
       <r>    10.1574     1.3943    11.8091 </r>
       <r>    10.2386     1.4080    11.9234 </r>
       <r>    10.3198     1.3373    12.0320 </r>
       <r>    10.4009     1.1671    12.1267 </r>
       <r>    10.4821     1.1615    12.2210 </r>
       <r>    10.5633     1.1572    12.3149 </r>
       <r>    10.6445     1.1538    12.4086 </r>
       <r>    10.7256     1.3645    12.5194 </r>
       <r>    10.8068     1.2123    12.6178 </r>
       <r>    10.8880     1.1758    12.7132 </r>
       <r>    10.9692     1.2565    12.8152 </r>
       <r>    11.0503     0.9411    12.8916 </r>
       <r>    11.1315     1.3349    13.0000 </r>
       <r>    11.2127     1.5437    13.1253 </r>
       <r>    11.2939     1.1755    13.2207 </r>
       <r>    11.3751     0.6790    13.2758 </r>
       <r>    11.4562     1.4519    13.3937 </r>
       <r>    11.5374     1.5408    13.5188 </r>
       <r>    11.6186     0.9784    13.5982 </r>
       <r>    11.6998     0.8212    13.6649 </r>
       <r>    11.7809     0.8116    13.7308 </r>
       <r>    11.8621     1.3556    13.8408 </r>
       <r>    11.9433     1.2399    13.9414 </r>
       <r>    12.0245     0.7178    13.9997 </r>
       <r>    12.1057     1.1773    14.0953 </r>
       <r>    12.1868     1.4556    14.2134 </r>
       <r>    12.2680     0.9650    14.2918 </r>
       <r>    12.3492     0.7624    14.3537 </r>
       <r>    12.4304     1.0932    14.4424 </r>
       <r>    12.5115     1.0089    14.5243 </r>
       <r>    12.5927     0.5960    14.5727 </r>
       <r>    12.6739     0.5532    14.6176 </r>
       <r>    12.7551     0.8608    14.6875 </r>
       <r>    12.8362     1.2218    14.7867 </r>
       <r>    12.9174     1.1147    14.8772 </r>
       <r>    12.9986     0.9625    14.9553 </r>
       <r>    13.0798     0.9570    15.0330 </r>
       <r>    13.1610     0.8662    15.1033 </r>
       <r>    13.2421     0.6035    15.1523 </r>
       <r>    13.3233     0.2159    15.1698 </r>
       <r>    13.4045     0.5296    15.2128 </r>
       <r>    13.4857     0.6688    15.2671 </r>
       <r>    13.5668     0.6239    15.3177 </r>
       <r>    13.6480     0.8946    15.3904 </r>
       <r>    13.7292     0.6558    15.4436 </r>
       <r>    13.8104     0.9603    15.5216 </r>
       <r>    13.8915     0.5716    15.5680 </r>
       <r>    13.9727     0.3941    15.6000 </r>
       <r>    14.0539     0.3822    15.6310 </r>
       <r>    14.1351     0.3276    15.6576 </r>
       <r>    14.2163     0.5138    15.6993 </r>
       <r>    14.2974     0.2792    15.7220 </r>
       <r>    14.3786     0.0938    15.7296 </r>
       <r>    14.4598     0.3214    15.7557 </r>
       <r>    14.5410     0.8660    15.8260 </r>
       <r>    14.6221     0.4226    15.8603 </r>
       <r>    14.7033     0.1466    15.8722 </r>
       <r>    14.7845     0.0348    15.8750 </r>
       <r>    14.8657     0.0002    15.8750 </r>
       <r>    14.9469     0.0244    15.8770 </r>
       <r>    15.0280     0.2433    15.8967 </r>
       <r>    15.1092     0.0956    15.9045 </r>
       <r>    15.1904     0.0617    15.9095 </r>
       <r>    15.2716     0.1425    15.9211 </r>
       <r>    15.3527     0.4602    15.9584 </r>
       <r>    15.4339     0.1482    15.9705 </r>
       <r>    15.5151     0.0215    15.9722 </r>
       <r>    15.5963     0.0001    15.9722 </r>
       <r>    15.6774     0.0000    15.9722 </r>
       <r>    15.7586     0.0000    15.9722 </r>
       <r>    15.8398     0.0072    15.9728 </r>
       <r>    15.9210     0.1153    15.9822 </r>
       <r>    16.0022     0.0570    15.9868 </r>
       <r>    16.0833     0.0813    15.9934 </r>
       <r>    16.1645     0.0752    15.9995 </r>
       <r>    16.2457     0.0062    16.0000 </r>
       <r>    16.3269     0.0000    16.0000 </r>
       <r>    16.4080     0.0000    16.0000 </r>
       <r>    16.4892     0.0000    16.0000 </r>
       <r>    16.5704     0.0000    16.0000 </r>
       <r>    16.6516     0.0000    16.0000 </r>
       <r>    16.7328     0.0000    16.0000 </r>
       <r>    16.8139     0.0000    16.0000 </r>
       <r>    16.8951     0.0000    16.0000 </r>
       <r>    16.9763     0.0000    16.0000 </r>
       <r>    17.0575     0.0000    16.0000 </r>
       <r>    17.1386     0.0000    16.0000 </r>
       <r>    17.2198     0.0000    16.0000 </r>
      </set>
     </set>
    </array>
   </total>
  </dos>
 </calculation>
 <structure name="finalpos" >
  <crystal>
   <varray name="basis" >
    <v>       3.29791139       0.00000000       1.90404976 </v>
    <v>       1.09930380       3.10930191       1.90404976 </v>
    <v>       0.00000000       0.00000000       3.80809952 </v>
   </varray>
   <i name="volume">     39.04902239 </i>
   <varray name="rec_basis" >
    <v>       0.30322222      -0.10720520       0.00000000 </v>
    <v>       0.00000000       0.32161560       0.00000000 </v>
    <v>      -0.15161111      -0.10720520       0.26259818 </v>
   </varray>
  </crystal>
  <varray name="positions" >
   <v>       0.87500000       0.87500000       0.87500000 </v>
   <v>       0.12500000       0.12500000       0.12500000 </v>
  </varray>
 </structure>
</modeling>
