unknown system                          
           1
     3.297911    0.000000    1.904050
     1.099304    3.109302    1.904050
     0.000000    0.000000    3.808100
   Si
     2
Direct configuration=     1
   0.87500000  0.87500000  0.87500000
   0.12500000  0.12500000  0.12500000
