unknown system                          
   1.00000000000000     
     2.830013    0.000000    0.000000
     0.000000    2.830013    0.000000
     0.000000    0.000000    2.830013
   Fe
     2
Direct
  0.000000  0.000000  0.000000
  0.500000  0.500000  0.500000
 
   40   40   40
  191.97      188.16      177.18      160.21      139.02      115.65      92.140      70.216      51.171      35.767    
  24.238      16.357      11.540      8.9671      7.7157      6.9448      6.3672      5.9818      5.7422      5.6190    
  5.5790      5.6190      5.7422      5.9818      6.3672      6.9448      7.7157      8.9671      11.540      16.357    
  24.238      35.767      51.171      70.216      92.140      115.65      139.02      160.21      177.18      188.16    
  188.16      184.45      173.71      157.11      136.37      113.49      90.443      68.941      50.257      35.144    
  23.841      16.128      11.426      8.9215      7.6988      6.9341      6.3611      5.9791      5.7418      5.6197    
  5.5800      5.6197      5.7418      5.9791      6.3611      6.9341      7.6988      8.9215      11.426      16.128    
  23.841      35.144      50.257      68.941      90.443      113.49      136.37      157.11      173.71      184.45    
  177.18      173.71      163.67      148.14      128.70      107.20      85.508      65.231      47.592      33.332    
  22.691      15.467      11.098      8.7923      7.6496      6.9017      6.3435      5.9712      5.7409      5.6214    
  5.5833      5.6214      5.7409      5.9712      6.3435      6.9017      7.6496      8.7923      11.098      15.467    
  22.691      33.332      47.592      65.231      85.508      107.20      128.70      148.14      163.67      173.71    
  160.21      157.11      148.14      134.23      116.77      97.400      77.788      59.412      43.413      30.496    
  20.904      14.454      10.606      8.6014      7.5700      6.8481      6.3151      5.9588      5.7399      5.6248    
  5.5890      5.6248      5.7399      5.9588      6.3151      6.8481      7.5700      8.6014      10.606      14.454    
  20.904      30.496      43.413      59.412      77.788      97.400      116.77      134.23      148.14      157.11    
  139.02      136.37      128.70      116.77      101.74      85.001      67.989      52.012      38.100      26.910    
  18.671      13.213      10.021      8.3764      7.4611      6.7747      6.2777      5.9428      5.7393      5.6299    
  5.5973      5.6299      5.7393      5.9428      6.2777      6.7747      7.4611      8.3764      10.021      13.213    
  18.671      26.910      38.100      52.012      67.989      85.001      101.74      116.77      128.70      136.37    
  115.65      113.49      107.20      97.400      85.001      71.134      56.995      43.702      32.155      22.934    
  16.239      11.899      9.4257      8.1388      7.3222      6.6856      6.2320      5.9252      5.7388      5.6373    
  5.6074      5.6373      5.7388      5.9252      6.2320      6.6856      7.3222      8.1388      9.4257      11.899    
  16.239      22.934      32.155      43.702      56.995      71.134      85.001      97.400      107.20      113.49    
  92.140      90.443      85.508      77.788      67.989      56.995      45.770      35.234      26.141      18.973    
  13.880      10.671      8.8882      7.8919      7.1553      6.5859      6.1798      5.9070      5.7378      5.6466    
  5.6181      5.6466      5.7378      5.9070      6.1798      6.5859      7.1553      7.8919      8.8882      10.671    
  13.880      18.973      26.141      35.234      45.770      56.995      67.989      77.788      85.508      90.443    
  70.216      68.941      65.231      59.412      52.012      43.702      35.234      27.337      20.608      15.413    
  11.832      9.6512      8.4322      7.6250      6.9712      6.4790      6.1245      5.8876      5.7367      5.6560    
  5.6291      5.6560      5.7367      5.8876      6.1245      6.4790      6.9712      7.6250      8.4322      9.6512    
  11.832      15.413      20.608      27.337      35.234      43.702      52.012      59.412      65.231      68.941    
  51.171      50.257      47.592      43.413      38.100      32.155      26.141      20.608      15.992      12.540    
  10.247      8.8818      8.0252      7.3364      6.7842      6.3679      6.0700      5.8657      5.7354      5.6625    
  5.6396      5.6625      5.7354      5.8657      6.0700      6.3679      6.7842      7.3364      8.0252      8.8818    
  10.247      12.540      15.992      20.608      26.141      32.155      38.100      43.413      47.592      50.257    
  35.767      35.144      33.332      30.496      26.910      22.934      18.973      15.413      12.540      10.474    
  9.1458      8.2973      7.6213      7.0500      6.6003      6.2604      6.0149      5.8432      5.7309      5.6669    
  5.6464      5.6669      5.7309      5.8432      6.0149      6.2604      6.6003      7.0500      7.6213      8.2973    
  9.1458      10.474      12.540      15.413      18.973      22.934      26.910      30.496      33.332      35.144    
  24.238      23.841      22.691      20.904      18.671      16.239      13.880      11.832      10.247      9.1458    
  8.3945      7.7771      7.2316      6.7826      6.4279      6.1597      5.9609      5.8190      5.7226      5.6670    
  5.6483      5.6670      5.7226      5.8190      5.9609      6.1597      6.4279      6.7826      7.2316      7.7771    
  8.3945      9.1458      10.247      11.832      13.880      16.239      18.671      20.904      22.691      23.841    
  16.357      16.128      15.467      14.454      13.213      11.899      10.671      9.6512      8.8818      8.2973    
  7.7771      7.2961      6.8828      6.5426      6.2742      6.0663      5.9088      5.7919      5.7109      5.6623    
  5.6464      5.6623      5.7109      5.7919      5.9088      6.0663      6.2742      6.5426      6.8828      7.2961    
  7.7771      8.2973      8.8818      9.6512      10.671      11.899      13.213      14.454      15.467      16.128    
  11.540      11.426      11.098      10.606      10.021      9.4257      8.8882      8.4322      8.0252      7.6213    
  7.2316      6.8828      6.5833      6.3374      6.1389      5.9818      5.8584      5.7638      5.6953      5.6537    
  5.6396      5.6537      5.6953      5.7638      5.8584      5.9818      6.1389      6.3374      6.5833      6.8828    
  7.2316      7.6213      8.0252      8.4322      8.8882      9.4257      10.021      10.606      11.098      11.426    
  8.9671      8.9215      8.7923      8.6014      8.3764      8.1388      7.8919      7.6250      7.3364      7.0500    
  6.7826      6.5426      6.3374      6.1647      6.0226      5.9057      5.8097      5.7329      5.6761      5.6409    
  5.6291      5.6409      5.6761      5.7329      5.8097      5.9057      6.0226      6.1647      6.3374      6.5426    
  6.7826      7.0500      7.3364      7.6250      7.8919      8.1388      8.3764      8.6014      8.7923      8.9215    
  7.7157      7.6988      7.6496      7.5700      7.4611      7.3222      7.1553      6.9712      6.7842      6.6003    
  6.4279      6.2742      6.1389      6.0226      5.9227      5.8361      5.7621      5.7018      5.6563      5.6279    
  5.6181      5.6279      5.6563      5.7018      5.7621      5.8361      5.9227      6.0226      6.1389      6.2742    
  6.4279      6.6003      6.7842      6.9712      7.1553      7.3222      7.4611      7.5700      7.6496      7.6988    
  6.9448      6.9341      6.9017      6.8481      6.7747      6.6856      6.5859      6.4790      6.3679      6.2604    
  6.1597      6.0663      5.9818      5.9057      5.8361      5.7732      5.7183      5.6724      5.6373      5.6150    
  5.6074      5.6150      5.6373      5.6724      5.7183      5.7732      5.8361      5.9057      5.9818      6.0663    
  6.1597      6.2604      6.3679      6.4790      6.5859      6.6856      6.7747      6.8481      6.9017      6.9341    
  6.3672      6.3611      6.3435      6.3151      6.2777      6.2320      6.1798      6.1245      6.0700      6.0149    
  5.9609      5.9088      5.8584      5.8097      5.7621      5.7183      5.6790      5.6456      5.6195      5.6030    
  5.5973      5.6030      5.6195      5.6456      5.6790      5.7183      5.7621      5.8097      5.8584      5.9088    
  5.9609      6.0149      6.0700      6.1245      6.1798      6.2320      6.2777      6.3151      6.3435      6.3611    
  5.9818      5.9791      5.9712      5.9588      5.9428      5.9252      5.9070      5.8876      5.8657      5.8432    
  5.8190      5.7919      5.7638      5.7329      5.7018      5.6724      5.6456      5.6222      5.6042      5.5929    
  5.5890      5.5929      5.6042      5.6222      5.6456      5.6724      5.7018      5.7329      5.7638      5.7919    
  5.8190      5.8432      5.8657      5.8876      5.9070      5.9252      5.9428      5.9588      5.9712      5.9791    
  5.7422      5.7418      5.7409      5.7399      5.7393      5.7388      5.7378      5.7367      5.7354      5.7309    
  5.7226      5.7109      5.6953      5.6761      5.6563      5.6373      5.6195      5.6042      5.5927      5.5857    
  5.5833      5.5857      5.5927      5.6042      5.6195      5.6373      5.6563      5.6761      5.6953      5.7109    
  5.7226      5.7309      5.7354      5.7367      5.7378      5.7388      5.7393      5.7399      5.7409      5.7418    
  5.6190      5.6197      5.6214      5.6248      5.6299      5.6373      5.6466      5.6560      5.6625      5.6669    
  5.6670      5.6623      5.6537      5.6409      5.6279      5.6150      5.6030      5.5929      5.5857      5.5813    
  5.5800      5.5813      5.5857      5.5929      5.6030      5.6150      5.6279      5.6409      5.6537      5.6623    
  5.6670      5.6669      5.6625      5.6560      5.6466      5.6373      5.6299      5.6248      5.6214      5.6197    
  5.5790      5.5800      5.5833      5.5890      5.5973      5.6074      5.6181      5.6291      5.6396      5.6464    
  5.6483      5.6464      5.6396      5.6291      5.6181      5.6074      5.5973      5.5890      5.5833      5.5800    
  5.5790      5.5800      5.5833      5.5890      5.5973      5.6074      5.6181      5.6291      5.6396      5.6464    
  5.6483      5.6464      5.6396      5.6291      5.6181      5.6074      5.5973      5.5890      5.5833      5.5800    
  5.6190      5.6197      5.6214      5.6248      5.6299      5.6373      5.6466      5.6560      5.6625      5.6669    
  5.6670      5.6623      5.6537      5.6409      5.6279      5.6150      5.6030      5.5929      5.5857      5.5813    
  5.5800      5.5813      5.5857      5.5929      5.6030      5.6150      5.6279      5.6409      5.6537      5.6623    
  5.6670      5.6669      5.6625      5.6560      5.6466      5.6373      5.6299      5.6248      5.6214      5.6197    
  5.7422      5.7418      5.7409      5.7399      5.7393      5.7388      5.7378      5.7367      5.7354      5.7309    
  5.7226      5.7109      5.6953      5.6761      5.6563      5.6373      5.6195      5.6042      5.5927      5.5857    
  5.5833      5.5857      5.5927      5.6042      5.6195      5.6373      5.6563      5.6761      5.6953      5.7109    
  5.7226      5.7309      5.7354      5.7367      5.7378      5.7388      5.7393      5.7399      5.7409      5.7418    
  5.9818      5.9791      5.9712      5.9588      5.9428      5.9252      5.9070      5.8876      5.8657      5.8432    
  5.8190      5.7919      5.7638      5.7329      5.7018      5.6724      5.6456      5.6222      5.6042      5.5929    
  5.5890      5.5929      5.6042      5.6222      5.6456      5.6724      5.7018      5.7329      5.7638      5.7919    
  5.8190      5.8432      5.8657      5.8876      5.9070      5.9252      5.9428      5.9588      5.9712      5.9791    
  6.3672      6.3611      6.3435      6.3151      6.2777      6.2320      6.1798      6.1245      6.0700      6.0149    
  5.9609      5.9088      5.8584      5.8097      5.7621      5.7183      5.6790      5.6456      5.6195      5.6030    
  5.5973      5.6030      5.6195      5.6456      5.6790      5.7183      5.7621      5.8097      5.8584      5.9088    
  5.9609      6.0149      6.0700      6.1245      6.1798      6.2320      6.2777      6.3151      6.3435      6.3611    
  6.9448      6.9341      6.9017      6.8481      6.7747      6.6856      6.5859      6.4790      6.3679      6.2604    
  6.1597      6.0663      5.9818      5.9057      5.8361      5.7732      5.7183      5.6724      5.6373      5.6150    
  5.6074      5.6150      5.6373      5.6724      5.7183      5.7732      5.8361      5.9057      5.9818      6.0663    
  6.1597      6.2604      6.3679      6.4790      6.5859      6.6856      6.7747      6.8481      6.9017      6.9341    
  7.7157      7.6988      7.6496      7.5700      7.4611      7.3222      7.1553      6.9712      6.7842      6.6003    
  6.4279      6.2742      6.1389      6.0226      5.9227      5.8361      5.7621      5.7018      5.6563      5.6279    
  5.6181      5.6279      5.6563      5.7018      5.7621      5.8361      5.9227      6.0226      6.1389      6.2742    
  6.4279      6.6003      6.7842      6.9712      7.1553      7.3222      7.4611      7.5700      7.6496      7.6988    
  8.9671      8.9215      8.7923      8.6014      8.3764      8.1388      7.8919      7.6250      7.3364      7.0500    
  6.7826      6.5426      6.3374      6.1647      6.0226      5.9057      5.8097      5.7329      5.6761      5.6409    
  5.6291      5.6409      5.6761      5.7329      5.8097      5.9057      6.0226      6.1647      6.3374      6.5426    
  6.7826      7.0500      7.3364      7.6250      7.8919      8.1388      8.3764      8.6014      8.7923      8.9215    
  11.540      11.426      11.098      10.606      10.021      9.4257      8.8882      8.4322      8.0252      7.6213    
  7.2316      6.8828      6.5833      6.3374      6.1389      5.9818      5.8584      5.7638      5.6953      5.6537    
  5.6396      5.6537      5.6953      5.7638      5.8584      5.9818      6.1389      6.3374      6.5833      6.8828    
  7.2316      7.6213      8.0252      8.4322      8.8882      9.4257      10.021      10.606      11.098      11.426    
  16.357      16.128      15.467      14.454      13.213      11.899      10.671      9.6512      8.8818      8.2973    
  7.7771      7.2961      6.8828      6.5426      6.2742      6.0663      5.9088      5.7919      5.7109      5.6623    
  5.6464      5.6623      5.7109      5.7919      5.9088      6.0663      6.2742      6.5426      6.8828      7.2961    
  7.7771      8.2973      8.8818      9.6512      10.671      11.899      13.213      14.454      15.467      16.128    
  24.238      23.841      22.691      20.904      18.671      16.239      13.880      11.832      10.247      9.1458    
  8.3945      7.7771      7.2316      6.7826      6.4279      6.1597      5.9609      5.8190      5.7226      5.6670    
  5.6483      5.6670      5.7226      5.8190      5.9609      6.1597      6.4279      6.7826      7.2316      7.7771    
  8.3945      9.1458      10.247      11.832      13.880      16.239      18.671      20.904      22.691      23.841    
  35.767      35.144      33.332      30.496      26.910      22.934      18.973      15.413      12.540      10.474    
  9.1458      8.2973      7.6213      7.0500      6.6003      6.2604      6.0149      5.8432      5.7309      5.6669    
  5.6464      5.6669      5.7309      5.8432      6.0149      6.2604      6.6003      7.0500      7.6213      8.2973    
  9.1458      10.474      12.540      15.413      18.973      22.934      26.910      30.496      33.332      35.144    
  51.171      50.257      47.592      43.413      38.100      32.155      26.141      20.608      15.992      12.540    
  10.247      8.8818      8.0252      7.3364      6.7842      6.3679      6.0700      5.8657      5.7354      5.6625    
  5.6396      5.6625      5.7354      5.8657      6.0700      6.3679      6.7842      7.3364      8.0252      8.8818    
  10.247      12.540      15.992      20.608      26.141      32.155      38.100      43.413      47.592      50.257    
  70.216      68.941      65.231      59.412      52.012      43.702      35.234      27.337      20.608      15.413    
  11.832      9.6512      8.4322      7.6250      6.9712      6.4790      6.1245      5.8876      5.7367      5.6560    
  5.6291      5.6560      5.7367      5.8876      6.1245      6.4790      6.9712      7.6250      8.4322      9.6512    
  11.832      15.413      20.608      27.337      35.234      43.702      52.012      59.412      65.231      68.941    
  92.140      90.443      85.508      77.788      67.989      56.995      45.770      35.234      26.141      18.973    
  13.880      10.671      8.8882      7.8919      7.1553      6.5859      6.1798      5.9070      5.7378      5.6466    
  5.6181      5.6466      5.7378      5.9070      6.1798      6.5859      7.1553      7.8919      8.8882      10.671    
  13.880      18.973      26.141      35.234      45.770      56.995      67.989      77.788      85.508      90.443    
  115.65      113.49      107.20      97.400      85.001      71.134      56.995      43.702      32.155      22.934    
  16.239      11.899      9.4257      8.1388      7.3222      6.6856      6.2320      5.9252      5.7388      5.6373    
  5.6074      5.6373      5.7388      5.9252      6.2320      6.6856      7.3222      8.1388      9.4257      11.899    
  16.239      22.934      32.155      43.702      56.995      71.134      85.001      97.400      107.20      113.49    
  139.02      136.37      128.70      116.77      101.74      85.001      67.989      52.012      38.100      26.910    
  18.671      13.213      10.021      8.3764      7.4611      6.7747      6.2777      5.9428      5.7393      5.6299    
  5.5973      5.6299      5.7393      5.9428      6.2777      6.7747      7.4611      8.3764      10.021      13.213    
  18.671      26.910      38.100      52.012      67.989      85.001      101.74      116.77      128.70      136.37    
  160.21      157.11      148.14      134.23      116.77      97.400      77.788      59.412      43.413      30.496    
  20.904      14.454      10.606      8.6014      7.5700      6.8481      6.3151      5.9588      5.7399      5.6248    
  5.5890      5.6248      5.7399      5.9588      6.3151      6.8481      7.5700      8.6014      10.606      14.454    
  20.904      30.496      43.413      59.412      77.788      97.400      116.77      134.23      148.14      157.11    
  177.18      173.71      163.67      148.14      128.70      107.20      85.508      65.231      47.592      33.332    
  22.691      15.467      11.098      8.7923      7.6496      6.9017      6.3435      5.9712      5.7409      5.6214    
  5.5833      5.6214      5.7409      5.9712      6.3435      6.9017      7.6496      8.7923      11.098      15.467    
  22.691      33.332      47.592      65.231      85.508      107.20      128.70      148.14      163.67      173.71    
  188.16      184.45      173.71      157.11      136.37      113.49      90.443      68.941      50.257      35.144    
  23.841      16.128      11.426      8.9215      7.6988      6.9341      6.3611      5.9791      5.7418      5.6197    
  5.5800      5.6197      5.7418      5.9791      6.3611      6.9341      7.6988      8.9215      11.426      16.128    
  23.841      35.144      50.257      68.941      90.443      113.49      136.37      157.11      173.71      184.45    
  188.16      184.45      173.71      157.11      136.37      113.49      90.443      68.941      50.257      35.144    
  23.841      16.128      11.426      8.9215      7.6988      6.9341      6.3611      5.9791      5.7418      5.6197    
  5.5800      5.6197      5.7418      5.9791      6.3611      6.9341      7.6988      8.9215      11.426      16.128    
  23.841      35.144      50.257      68.941      90.443      113.49      136.37      157.11      173.71      184.45    
  184.45      180.81      170.31      154.07      133.78      111.37      88.777      67.689      49.358      34.532    
  23.452      15.904      11.314      8.8776      7.6824      6.9237      6.3555      5.9768      5.7417      5.6206    
  5.5813      5.6206      5.7417      5.9768      6.3555      6.9237      7.6824      8.8776      11.314      15.904    
  23.452      34.532      49.358      67.689      88.777      111.37      133.78      154.07      170.31      180.81    
  173.71      170.31      160.49      145.29      126.26      105.20      83.935      64.045      46.740      32.752    
  22.325      15.258      10.996      8.7533      7.6348      6.8922      6.3390      5.9699      5.7419      5.6233    
  5.5857      5.6233      5.7419      5.9699      6.3390      6.8922      7.6348      8.7533      10.996      15.258    
  22.325      32.752      46.740      64.045      83.935      105.20      126.26      145.29      160.49      170.31    
  157.11      154.07      145.29      131.68      114.57      95.590      76.357      58.331      42.634      29.968    
  20.574      14.269      10.519      8.5698      7.5573      6.8403      6.3125      5.9591      5.7424      5.6281    
  5.5929      5.6281      5.7424      5.9591      6.3125      6.8403      7.5573      8.5698      10.519      14.269    
  20.574      29.968      42.634      58.331      76.357      95.590      114.57      131.68      145.29      154.07    
  136.37      133.78      126.26      114.57      99.841      83.427      66.739      51.064      37.418      26.451    
  18.388      13.060      9.9532      8.3530      7.4509      6.7693      6.2772      5.9453      5.7438      5.6352    
  5.6030      5.6352      5.7438      5.9453      6.2772      6.7693      7.4509      8.3530      9.9532      13.060    
  18.388      26.451      37.418      51.064      66.739      83.427      99.841      114.57      126.26      133.78    
  113.49      111.37      105.20      95.590      83.427      69.822      55.948      42.907      31.586      22.556    
  16.013      11.783      9.3782      8.1230      7.3145      6.6834      6.2341      5.9302      5.7454      5.6447    
  5.6150      5.6447      5.7454      5.9302      6.2341      6.6834      7.3145      8.1230      9.3782      11.783    
  16.013      22.556      31.586      42.907      55.948      69.822      83.427      95.590      105.20      111.37    
  90.443      88.777      83.935      76.357      66.739      55.948      44.934      34.601      25.693      18.683    
  13.714      10.592      8.8594      7.8818      7.1508      6.5871      6.1847      5.9146      5.7467      5.6564    
  5.6279      5.6564      5.7467      5.9146      6.1847      6.5871      7.1508      7.8818      8.8594      10.592    
  13.714      18.683      25.693      34.601      44.934      55.948      66.739      76.357      83.935      88.777    
  68.941      67.689      64.045      58.331      51.064      42.907      34.601      26.863      20.280      15.208    
  11.723      9.6047      8.4172      7.6187      6.9708      6.4835      6.1326      5.8977      5.7479      5.6677    
  5.6409      5.6677      5.7479      5.8977      6.1326      6.4835      6.9708      7.6187      8.4172      9.6047    
  11.723      15.208      20.280      26.863      34.601      42.907      51.064      58.331      64.045      67.689    
  50.257      49.358      46.740      42.634      37.418      31.586      25.693      20.280      15.773      12.412    
  10.185      8.8600      8.0176      7.3345      6.7881      6.3758      6.0809      5.8783      5.7490      5.6765    
  5.6537      5.6765      5.7490      5.8783      6.0809      6.3758      6.7881      7.3345      8.0176      8.8600    
  10.185      12.412      15.773      20.280      25.693      31.586      37.418      42.634      46.740      49.358    
  35.144      34.532      32.752      29.968      26.451      22.556      18.683      15.208      12.412      10.407    
  9.1190      8.2882      7.6184      7.0532      6.6080      6.2719      6.0286      5.8583      5.7466      5.6828    
  5.6623      5.6828      5.7466      5.8583      6.0286      6.2719      6.6080      7.0532      7.6184      8.2882    
  9.1190      10.407      12.412      15.208      18.683      22.556      26.451      29.968      32.752      34.532    
  23.841      23.452      22.325      20.574      18.388      16.013      13.714      11.723      10.185      9.1190    
  8.3847      7.7738      7.2342      6.7902      6.4397      6.1741      5.9771      5.8363      5.7408      5.6855    
  5.6670      5.6855      5.7408      5.8363      5.9771      6.1741      6.4397      6.7902      7.2342      7.7738    
  8.3847      9.1190      10.185      11.723      13.714      16.013      18.388      20.574      22.325      23.452    
  16.128      15.904      15.258      14.269      13.060      11.783      10.592      9.6047      8.8600      8.2882    
  7.7738      7.2985      6.8904      6.5545      6.2891      6.0836      5.9279      5.8120      5.7313      5.6828    
  5.6669      5.6828      5.7313      5.8120      5.9279      6.0836      6.2891      6.5545      6.8904      7.2985    
  7.7738      8.2882      8.8600      9.6047      10.592      11.783      13.060      14.269      15.258      15.904    
  11.426      11.314      10.996      10.519      9.9532      9.3782      8.8594      8.4172      8.0176      7.6184    
  7.2342      6.8904      6.5952      6.3524      6.1571      6.0020      5.8793      5.7853      5.7175      5.6765    
  5.6625      5.6765      5.7175      5.7853      5.8793      6.0020      6.1571      6.3524      6.5952      6.8904    
  7.2342      7.6184      8.0176      8.4172      8.8594      9.3782      9.9532      10.519      10.996      11.314    
  8.9215      8.8776      8.7533      8.5698      8.3530      8.1230      7.8818      7.6187      7.3345      7.0532    
  6.7902      6.5545      6.3524      6.1832      6.0432      5.9272      5.8328      5.7578      5.7023      5.6677    
  5.6560      5.6677      5.7023      5.7578      5.8328      5.9272      6.0432      6.1832      6.3524      6.5545    
  6.7902      7.0532      7.3345      7.6187      7.8818      8.1230      8.3530      8.5698      8.7533      8.8776    
  7.6988      7.6824      7.6348      7.5573      7.4509      7.3145      7.1508      6.9708      6.7881      6.6080    
  6.4397      6.2891      6.1571      6.0432      5.9445      5.8605      5.7888      5.7297      5.6846      5.6564    
  5.6466      5.6564      5.6846      5.7297      5.7888      5.8605      5.9445      6.0432      6.1571      6.2891    
  6.4397      6.6080      6.7881      6.9708      7.1508      7.3145      7.4509      7.5573      7.6348      7.6824    
  6.9341      6.9237      6.8922      6.8403      6.7693      6.6834      6.5871      6.4835      6.3758      6.2719    
  6.1741      6.0836      6.0020      5.9272      5.8605      5.8003      5.7468      5.7013      5.6666      5.6447    
  5.6373      5.6447      5.6666      5.7013      5.7468      5.8003      5.8605      5.9272      6.0020      6.0836    
  6.1741      6.2719      6.3758      6.4835      6.5871      6.6834      6.7693      6.8403      6.8922      6.9237    
  6.3611      6.3555      6.3390      6.3125      6.2772      6.2341      6.1847      6.1326      6.0809      6.0286    
  5.9771      5.9279      5.8793      5.8328      5.7888      5.7468      5.7082      5.6755      5.6507      5.6352    
  5.6299      5.6352      5.6507      5.6755      5.7082      5.7468      5.7888      5.8328      5.8793      5.9279    
  5.9771      6.0286      6.0809      6.1326      6.1847      6.2341      6.2772      6.3125      6.3390      6.3555    
  5.9791      5.9768      5.9699      5.9591      5.9453      5.9302      5.9146      5.8977      5.8783      5.8583    
  5.8363      5.8120      5.7853      5.7578      5.7297      5.7013      5.6755      5.6541      5.6381      5.6281    
  5.6248      5.6281      5.6381      5.6541      5.6755      5.7013      5.7297      5.7578      5.7853      5.8120    
  5.8363      5.8583      5.8783      5.8977      5.9146      5.9302      5.9453      5.9591      5.9699      5.9768    
  5.7418      5.7417      5.7419      5.7424      5.7438      5.7454      5.7467      5.7479      5.7490      5.7466    
  5.7408      5.7313      5.7175      5.7023      5.6846      5.6666      5.6507      5.6381      5.6289      5.6233    
  5.6214      5.6233      5.6289      5.6381      5.6507      5.6666      5.6846      5.7023      5.7175      5.7313    
  5.7408      5.7466      5.7490      5.7479      5.7467      5.7454      5.7438      5.7424      5.7419      5.7417    
  5.6197      5.6206      5.6233      5.6281      5.6352      5.6447      5.6564      5.6677      5.6765      5.6828    
  5.6855      5.6828      5.6765      5.6677      5.6564      5.6447      5.6352      5.6281      5.6233      5.6206    
  5.6197      5.6206      5.6233      5.6281      5.6352      5.6447      5.6564      5.6677      5.6765      5.6828    
  5.6855      5.6828      5.6765      5.6677      5.6564      5.6447      5.6352      5.6281      5.6233      5.6206    
  5.5800      5.5813      5.5857      5.5929      5.6030      5.6150      5.6279      5.6409      5.6537      5.6623    
  5.6670      5.6669      5.6625      5.6560      5.6466      5.6373      5.6299      5.6248      5.6214      5.6197    
  5.6190      5.6197      5.6214      5.6248      5.6299      5.6373      5.6466      5.6560      5.6625      5.6669    
  5.6670      5.6623      5.6537      5.6409      5.6279      5.6150      5.6030      5.5929      5.5857      5.5813    
  5.6197      5.6206      5.6233      5.6281      5.6352      5.6447      5.6564      5.6677      5.6765      5.6828    