   2   2   1   0
  0.1133275E+02  0.2830013E-09  0.2830013E-09  0.2830013E-09  0.5000000E-15
  1.000000000000000E-004
  CAR 
 unknown system                          
     45.86209271     -4.90452662  301      5.84804502      1.00000000
     -4.905  0.0000E+00  0.0000E+00  0.0000E+00  0.0000E+00
     -4.735  0.0000E+00  0.0000E+00  0.0000E+00  0.0000E+00
     -4.566  0.0000E+00  0.0000E+00  0.0000E+00  0.0000E+00
     -4.397  0.0000E+00  0.0000E+00  0.0000E+00  0.0000E+00
     -4.228 -0.2228E-31  0.0000E+00 -0.3770E-32  0.0000E+00
     -4.058 -0.1015E-25 -0.3191E-31 -0.1718E-26 -0.5400E-32
     -3.889 -0.1120E-20 -0.1400E-25 -0.1895E-21 -0.2370E-26
     -3.720 -0.2927E-16 -0.1487E-20 -0.4953E-17 -0.2517E-21
     -3.551 -0.1909E-12 -0.3748E-16 -0.3231E-13 -0.6343E-17
     -3.382 -0.3074E-09 -0.2350E-12 -0.5205E-10 -0.3978E-13
     -3.212 -0.1218E-06 -0.3644E-09 -0.2066E-07 -0.6171E-10
     -3.043 -0.1164E-04 -0.1391E-06 -0.1991E-05 -0.2360E-07
     -2.874 -0.2456E-03 -0.1279E-04 -0.4356E-04 -0.2188E-05
     -2.705 -0.5499E-03 -0.2584E-03 -0.1366E-03 -0.4592E-04
     -2.535  0.6193E-02 -0.5110E-03  0.9114E-03 -0.1324E-03
     -2.366  0.2361E-01  0.6516E-02  0.4906E-02  0.9703E-03
     -2.197  0.3781E-01  0.2388E-01  0.1130E-01  0.5012E-02
     -2.028  0.4869E-01  0.3769E-01  0.1954E-01  0.1139E-01
     -1.859  0.5543E-01  0.4830E-01  0.2892E-01  0.1956E-01
     -1.689  0.6794E-01  0.5452E-01  0.4042E-01  0.2879E-01
     -1.520  0.6920E-01  0.6685E-01  0.5213E-01  0.4010E-01
     -1.351  0.8428E-01  0.6735E-01  0.6639E-01  0.5150E-01
     -1.182  0.8904E-01  0.8129E-01  0.8146E-01  0.6525E-01
     -1.012  0.9323E-01  0.8650E-01  0.9724E-01  0.7989E-01
     -0.843  0.1097E+00  0.8833E-01  0.1158E+00  0.9484E-01
     -0.674  0.1177E+00  0.1015E+00  0.1357E+00  0.1120E+00
     -0.505  0.1145E+00  0.1135E+00  0.1551E+00  0.1312E+00
     -0.336  0.1465E+00  0.1027E+00  0.1799E+00  0.1486E+00
     -0.166  0.1479E+00  0.1271E+00  0.2049E+00  0.1701E+00
      0.003  0.1551E+00  0.1376E+00  0.2312E+00  0.1934E+00
      0.172  0.1870E+00  0.1305E+00  0.2628E+00  0.2155E+00
      0.341  0.2085E+00  0.1448E+00  0.2981E+00  0.2400E+00
      0.511  0.2208E+00  0.1673E+00  0.3355E+00  0.2683E+00
      0.680  0.2747E+00  0.1724E+00  0.3819E+00  0.2975E+00
      0.849  0.3948E+00  0.1680E+00  0.4487E+00  0.3259E+00
      1.018  0.7224E+00  0.2003E+00  0.5710E+00  0.3598E+00
      1.187  0.1078E+01  0.2246E+00  0.7534E+00  0.3978E+00
      1.357  0.1241E+01  0.2215E+00  0.9635E+00  0.4353E+00
      1.526  0.1527E+01  0.2484E+00  0.1222E+01  0.4773E+00
      1.695  0.1893E+01  0.2981E+00  0.1542E+01  0.5278E+00
      1.864  0.1658E+01  0.3261E+00  0.1823E+01  0.5830E+00
      2.034  0.1210E+01  0.3824E+00  0.2028E+01  0.6477E+00
      2.203  0.8870E+00  0.5491E+00  0.2178E+01  0.7406E+00
      2.372  0.1063E+01  0.6857E+00  0.2358E+01  0.8566E+00
      2.541  0.2566E+01  0.7039E+00  0.2792E+01  0.9758E+00
      2.710  0.2882E+01  0.7202E+00  0.3279E+01  0.1098E+01
      2.880  0.2145E+01  0.7900E+00  0.3643E+01  0.1231E+01
      3.049  0.2046E+01  0.1010E+01  0.3989E+01  0.1402E+01
      3.218  0.2533E+01  0.1259E+01  0.4417E+01  0.1615E+01
      3.387  0.2921E+01  0.1258E+01  0.4912E+01  0.1828E+01
      3.557  0.2224E+01  0.9802E+00  0.5288E+01  0.1994E+01
      3.726  0.1215E+01  0.6666E+00  0.5494E+01  0.2107E+01
      3.895  0.8360E+00  0.6321E+00  0.5635E+01  0.2214E+01
      4.064  0.8662E+00  0.1527E+01  0.5782E+01  0.2472E+01
      4.233  0.1013E+01  0.2517E+01  0.5953E+01  0.2898E+01
      4.403  0.1518E+01  0.2559E+01  0.6210E+01  0.3331E+01
      4.572  0.2604E+01  0.2357E+01  0.6651E+01  0.3730E+01
      4.741  0.3774E+01  0.2232E+01  0.7289E+01  0.4108E+01
      4.910  0.4990E+01  0.2350E+01  0.8134E+01  0.4505E+01
      5.080  0.4316E+01  0.2449E+01  0.8864E+01  0.4920E+01
      5.249  0.2328E+01  0.2090E+01  0.9258E+01  0.5273E+01
      5.418  0.1635E+01  0.1553E+01  0.9535E+01  0.5536E+01
      5.587  0.1521E+01  0.8747E+00  0.9792E+01  0.5684E+01
      5.756  0.1495E+01  0.5349E+00  0.1005E+02  0.5775E+01
      5.926  0.1480E+01  0.4839E+00  0.1030E+02  0.5857E+01
      6.095  0.1196E+01  0.5220E+00  0.1050E+02  0.5945E+01
      6.264  0.5603E+00  0.5827E+00  0.1059E+02  0.6043E+01
      6.433  0.2962E+00  0.7559E+00  0.1064E+02  0.6171E+01
      6.603  0.2793E+00  0.1104E+01  0.1069E+02  0.6358E+01
      6.772  0.3055E+00  0.1434E+01  0.1074E+02  0.6601E+01
      6.941  0.2785E+00  0.1695E+01  0.1079E+02  0.6888E+01
      7.110  0.3265E+00  0.2126E+01  0.1084E+02  0.7247E+01
      7.279  0.2784E+00  0.2651E+01  0.1089E+02  0.7696E+01
      7.449  0.2515E+00  0.2556E+01  0.1093E+02  0.8128E+01
      7.618  0.3068E+00  0.2941E+01  0.1099E+02  0.8626E+01
      7.787  0.2820E+00  0.4674E+01  0.1103E+02  0.9417E+01
      7.956  0.2812E+00  0.3668E+01  0.1108E+02  0.1004E+02
      8.126  0.2574E+00  0.1806E+01  0.1112E+02  0.1034E+02
      8.295  0.2672E+00  0.1179E+01  0.1117E+02  0.1054E+02
      8.464  0.2607E+00  0.6723E+00  0.1121E+02  0.1066E+02
      8.633  0.2507E+00  0.4564E+00  0.1126E+02  0.1073E+02
      8.802  0.2512E+00  0.4432E+00  0.1130E+02  0.1081E+02
      8.972  0.2642E+00  0.3719E+00  0.1134E+02  0.1087E+02
      9.141  0.2291E+00  0.3857E+00  0.1138E+02  0.1094E+02
      9.310  0.1970E+00  0.3999E+00  0.1142E+02  0.1100E+02
      9.479  0.2533E+00  0.3186E+00  0.1146E+02  0.1106E+02
      9.649  0.2531E+00  0.3631E+00  0.1150E+02  0.1112E+02
      9.818  0.1665E+00  0.3176E+00  0.1153E+02  0.1117E+02
      9.987  0.2038E+00  0.3065E+00  0.1156E+02  0.1123E+02
     10.156  0.2216E+00  0.3343E+00  0.1160E+02  0.1128E+02
     10.325  0.1686E+00  0.2912E+00  0.1163E+02  0.1133E+02
     10.495  0.1770E+00  0.2595E+00  0.1166E+02  0.1138E+02
     10.664  0.2170E+00  0.2726E+00  0.1170E+02  0.1142E+02
     10.833  0.1836E+00  0.2872E+00  0.1173E+02  0.1147E+02
     11.002  0.1042E+00  0.2505E+00  0.1175E+02  0.1151E+02
     11.172  0.1119E+00  0.2217E+00  0.1176E+02  0.1155E+02
     11.341  0.1820E+00  0.2329E+00  0.1180E+02  0.1159E+02
     11.510  0.1760E+00  0.2228E+00  0.1183E+02  0.1163E+02
     11.679  0.1263E+00  0.2105E+00  0.1185E+02  0.1166E+02
     11.848  0.8269E-01  0.2042E+00  0.1186E+02  0.1170E+02
     12.018  0.1054E+00  0.1996E+00  0.1188E+02  0.1173E+02
     12.187  0.9763E-01  0.1369E+00  0.1189E+02  0.1175E+02
     12.356  0.6407E-01  0.1563E+00  0.1191E+02  0.1178E+02
     12.525  0.8368E-01  0.2042E+00  0.1192E+02  0.1182E+02
     12.695  0.1008E+00  0.1655E+00  0.1194E+02  0.1184E+02
     12.864  0.7465E-01  0.7992E-01  0.1195E+02  0.1186E+02
     13.033  0.2778E-01  0.9841E-01  0.1195E+02  0.1187E+02
     13.202  0.5932E-01  0.1428E+00  0.1196E+02  0.1190E+02
     13.371  0.2603E+00  0.1079E+00  0.1201E+02  0.1192E+02
     13.541  0.4964E+00  0.8267E-01  0.1209E+02  0.1193E+02
     13.710  0.5295E+00  0.7637E-01  0.1218E+02  0.1194E+02
     13.879  0.5092E+00  0.5331E-01  0.1227E+02  0.1195E+02
     14.048  0.4100E+00  0.4037E-01  0.1234E+02  0.1196E+02
     14.218  0.3420E+00  0.5651E-01  0.1240E+02  0.1197E+02
     14.387  0.3646E+00  0.6852E-01  0.1246E+02  0.1198E+02
     14.556  0.3858E+00  0.1705E+00  0.1252E+02  0.1201E+02
     14.725  0.3487E+00  0.5509E+00  0.1258E+02  0.1210E+02
     14.894  0.2960E+00  0.6817E+00  0.1263E+02  0.1222E+02
     15.064  0.2726E+00  0.5178E+00  0.1268E+02  0.1231E+02
     15.233  0.3120E+00  0.5192E+00  0.1273E+02  0.1239E+02
     15.402  0.3571E+00  0.4286E+00  0.1279E+02  0.1247E+02
     15.571  0.3592E+00  0.3761E+00  0.1285E+02  0.1253E+02
     15.741  0.2991E+00  0.3873E+00  0.1290E+02  0.1259E+02
     15.910  0.3955E+00  0.3477E+00  0.1297E+02  0.1265E+02
     16.079  0.4563E+00  0.3348E+00  0.1305E+02  0.1271E+02
     16.248  0.3810E+00  0.3470E+00  0.1311E+02  0.1277E+02
     16.417  0.3734E+00  0.4264E+00  0.1317E+02  0.1284E+02
     16.587  0.3863E+00  0.4328E+00  0.1324E+02  0.1291E+02
     16.756  0.3423E+00  0.4045E+00  0.1330E+02  0.1298E+02
     16.925  0.3680E+00  0.4197E+00  0.1336E+02  0.1305E+02
     17.094  0.4220E+00  0.4046E+00  0.1343E+02  0.1312E+02
     17.264  0.3695E+00  0.4304E+00  0.1349E+02  0.1320E+02
     17.433  0.3761E+00  0.3896E+00  0.1356E+02  0.1326E+02
     17.602  0.3313E+00  0.3843E+00  0.1361E+02  0.1333E+02
     17.771  0.3802E+00  0.3772E+00  0.1368E+02  0.1339E+02
     17.940  0.3708E+00  0.4211E+00  0.1374E+02  0.1346E+02
     18.110  0.3740E+00  0.3860E+00  0.1380E+02  0.1353E+02
     18.279  0.3318E+00  0.3761E+00  0.1386E+02  0.1359E+02
     18.448  0.3574E+00  0.3884E+00  0.1392E+02  0.1366E+02
     18.617  0.4504E+00  0.4121E+00  0.1400E+02  0.1373E+02
     18.787  0.3070E+00  0.3420E+00  0.1405E+02  0.1378E+02
     18.956  0.2975E+00  0.3603E+00  0.1410E+02  0.1384E+02
     19.125  0.3425E+00  0.3713E+00  0.1416E+02  0.1391E+02
     19.294  0.3628E+00  0.4490E+00  0.1422E+02  0.1398E+02
     19.463  0.4349E+00  0.3842E+00  0.1429E+02  0.1405E+02
     19.633  0.3715E+00  0.2991E+00  0.1435E+02  0.1410E+02
     19.802  0.3089E+00  0.3263E+00  0.1441E+02  0.1415E+02
     19.971  0.2322E+00  0.3649E+00  0.1445E+02  0.1422E+02
     20.140  0.3150E+00  0.4544E+00  0.1450E+02  0.1429E+02
     20.310  0.4293E+00  0.4177E+00  0.1457E+02  0.1436E+02
     20.479  0.4310E+00  0.2978E+00  0.1464E+02  0.1441E+02
     20.648  0.3445E+00  0.2728E+00  0.1470E+02  0.1446E+02
     20.817  0.2634E+00  0.3178E+00  0.1475E+02  0.1451E+02
     20.986  0.2445E+00  0.4400E+00  0.1479E+02  0.1459E+02
     21.156  0.2837E+00  0.4428E+00  0.1484E+02  0.1466E+02
     21.325  0.4216E+00  0.3380E+00  0.1491E+02  0.1472E+02
     21.494  0.4386E+00  0.2955E+00  0.1498E+02  0.1477E+02
     21.663  0.3482E+00  0.2480E+00  0.1504E+02  0.1481E+02
     21.833  0.2751E+00  0.3403E+00  0.1509E+02  0.1487E+02
     22.002  0.2835E+00  0.4411E+00  0.1514E+02  0.1494E+02
     22.171  0.3550E+00  0.4247E+00  0.1520E+02  0.1502E+02
     22.340  0.4207E+00  0.3022E+00  0.1527E+02  0.1507E+02
     22.509  0.5039E+00  0.2557E+00  0.1535E+02  0.1511E+02
     22.679  0.4362E+00  0.3226E+00  0.1543E+02  0.1517E+02
     22.848  0.3635E+00  0.3682E+00  0.1549E+02  0.1523E+02
     23.017  0.3625E+00  0.4627E+00  0.1555E+02  0.1531E+02
     23.186  0.3968E+00  0.4740E+00  0.1562E+02  0.1539E+02
     23.356  0.5042E+00  0.3995E+00  0.1570E+02  0.1545E+02
     23.525  0.5340E+00  0.4089E+00  0.1579E+02  0.1552E+02
     23.694  0.5015E+00  0.4263E+00  0.1588E+02  0.1560E+02
     23.863  0.4977E+00  0.4863E+00  0.1596E+02  0.1568E+02
     24.032  0.4485E+00  0.6223E+00  0.1604E+02  0.1578E+02
     24.202  0.4657E+00  0.5982E+00  0.1612E+02  0.1588E+02
     24.371  0.4994E+00  0.5021E+00  0.1620E+02  0.1597E+02
     24.540  0.5467E+00  0.5199E+00  0.1629E+02  0.1606E+02
     24.709  0.5690E+00  0.4914E+00  0.1639E+02  0.1614E+02
     24.879  0.4821E+00  0.4671E+00  0.1647E+02  0.1622E+02
     25.048  0.3939E+00  0.5593E+00  0.1654E+02  0.1631E+02
     25.217  0.4569E+00  0.5620E+00  0.1661E+02  0.1641E+02
     25.386  0.5402E+00  0.4220E+00  0.1671E+02  0.1648E+02
     25.555  0.5149E+00  0.4325E+00  0.1679E+02  0.1655E+02
     25.725  0.5593E+00  0.5444E+00  0.1689E+02  0.1665E+02
     25.894  0.5704E+00  0.5719E+00  0.1698E+02  0.1674E+02
     26.063  0.5835E+00  0.5130E+00  0.1708E+02  0.1683E+02
     26.232  0.4807E+00  0.5332E+00  0.1716E+02  0.1692E+02
     26.402  0.3896E+00  0.5784E+00  0.1723E+02  0.1702E+02
     26.571  0.5016E+00  0.5729E+00  0.1732E+02  0.1711E+02
     26.740  0.5134E+00  0.4638E+00  0.1740E+02  0.1719E+02
     26.909  0.4057E+00  0.4907E+00  0.1747E+02  0.1728E+02
     27.078  0.4728E+00  0.5559E+00  0.1755E+02  0.1737E+02
     27.248  0.4615E+00  0.3495E+00  0.1763E+02  0.1743E+02
     27.417  0.3884E+00  0.3957E+00  0.1769E+02  0.1750E+02
     27.586  0.3913E+00  0.5222E+00  0.1776E+02  0.1758E+02
     27.755  0.2808E+00  0.4751E+00  0.1781E+02  0.1766E+02
     27.925  0.3586E+00  0.4488E+00  0.1787E+02  0.1774E+02
     28.094  0.4260E+00  0.2930E+00  0.1794E+02  0.1779E+02
     28.263  0.3704E+00  0.2364E+00  0.1800E+02  0.1783E+02
     28.432  0.3364E+00  0.3695E+00  0.1806E+02  0.1789E+02
     28.601  0.2901E+00  0.4469E+00  0.1811E+02  0.1797E+02
     28.771  0.2675E+00  0.4527E+00  0.1816E+02  0.1804E+02
     28.940  0.2129E+00  0.2781E+00  0.1819E+02  0.1809E+02
     29.109  0.3118E+00  0.2206E+00  0.1824E+02  0.1813E+02
     29.278  0.3186E+00  0.2467E+00  0.1830E+02  0.1817E+02
     29.448  0.2653E+00  0.3047E+00  0.1834E+02  0.1822E+02
     29.617  0.2927E+00  0.3134E+00  0.1839E+02  0.1828E+02
     29.786  0.3095E+00  0.3227E+00  0.1844E+02  0.1833E+02
     29.955  0.3519E+00  0.2733E+00  0.1850E+02  0.1838E+02
     30.124  0.4037E+00  0.3167E+00  0.1857E+02  0.1843E+02
     30.294  0.4087E+00  0.3866E+00  0.1864E+02  0.1850E+02
     30.463  0.3736E+00  0.4151E+00  0.1871E+02  0.1857E+02
     30.632  0.6149E+00  0.4188E+00  0.1881E+02  0.1864E+02
     30.801  0.8382E+00  0.4314E+00  0.1895E+02  0.1871E+02
     30.971  0.6678E+00  0.5440E+00  0.1906E+02  0.1880E+02
     31.140  0.4581E+00  0.7847E+00  0.1914E+02  0.1893E+02
     31.309  0.4462E+00  0.7550E+00  0.1922E+02  0.1906E+02
     31.478  0.5269E+00  0.5003E+00  0.1931E+02  0.1915E+02
     31.647  0.4180E+00  0.4394E+00  0.1938E+02  0.1922E+02
     31.817  0.2899E+00  0.3762E+00  0.1943E+02  0.1928E+02
     31.986  0.3893E+00  0.4118E+00  0.1949E+02  0.1935E+02
     32.155  0.2986E+00  0.4438E+00  0.1954E+02  0.1943E+02
     32.324  0.1713E+00  0.4153E+00  0.1957E+02  0.1950E+02
     32.494  0.1940E+00  0.3156E+00  0.1960E+02  0.1955E+02
     32.663  0.1612E+00  0.2154E+00  0.1963E+02  0.1959E+02
     32.832  0.1172E+00  0.1741E+00  0.1965E+02  0.1962E+02
     33.001  0.1272E+00  0.1181E+00  0.1967E+02  0.1964E+02
     33.170  0.1208E+00  0.1713E+00  0.1969E+02  0.1967E+02
     33.340  0.1408E+00  0.1620E+00  0.1972E+02  0.1970E+02
     33.509  0.1007E+00  0.1440E+00  0.1973E+02  0.1972E+02
     33.678  0.6235E-01  0.8386E-01  0.1974E+02  0.1973E+02
     33.847  0.7579E-01  0.7437E-01  0.1976E+02  0.1975E+02
     34.017  0.6521E-01  0.8587E-01  0.1977E+02  0.1976E+02
     34.186  0.3611E-01  0.5089E-01  0.1977E+02  0.1977E+02
     34.355  0.7004E-01  0.5093E-01  0.1979E+02  0.1978E+02
     34.524  0.6168E-01  0.8392E-01  0.1980E+02  0.1979E+02
     34.693  0.5821E-01  0.5358E-01  0.1981E+02  0.1980E+02
     34.863  0.1234E+00  0.1137E+00  0.1983E+02  0.1982E+02
     35.032  0.6837E-01  0.9742E-01  0.1984E+02  0.1984E+02
     35.201  0.3150E-01  0.2299E-01  0.1984E+02  0.1984E+02
     35.370  0.5193E-01  0.4587E-01  0.1985E+02  0.1985E+02
     35.540  0.3549E-01  0.4909E-01  0.1986E+02  0.1986E+02
     35.709  0.1831E-01  0.2434E-01  0.1986E+02  0.1986E+02
     35.878  0.5731E-01  0.4903E-01  0.1987E+02  0.1987E+02
     36.047  0.5547E-01  0.6053E-01  0.1988E+02  0.1988E+02
     36.216  0.1765E-01  0.2609E-01  0.1988E+02  0.1988E+02
     36.386  0.7358E-01  0.6898E-01  0.1990E+02  0.1990E+02
     36.555  0.7564E-01  0.7965E-01  0.1991E+02  0.1991E+02
     36.724  0.1705E-01  0.1431E-01  0.1991E+02  0.1991E+02
     36.893  0.1804E-01  0.1807E-01  0.1992E+02  0.1992E+02
     37.063  0.3587E-01  0.4023E-01  0.1992E+02  0.1992E+02
     37.232  0.2072E-01  0.1695E-01  0.1993E+02  0.1992E+02
     37.401  0.1205E-01  0.1646E-01  0.1993E+02  0.1993E+02
     37.570  0.2757E-01  0.2827E-01  0.1993E+02  0.1993E+02
     37.739  0.2984E-01  0.3459E-01  0.1994E+02  0.1994E+02
     37.909  0.3181E-01  0.3838E-01  0.1994E+02  0.1994E+02
     38.078  0.4208E-01  0.4198E-01  0.1995E+02  0.1995E+02
     38.247  0.3957E-01  0.3362E-01  0.1996E+02  0.1996E+02
     38.416  0.2093E-01  0.1338E-01  0.1996E+02  0.1996E+02
     38.586  0.3370E-02  0.1861E-02  0.1996E+02  0.1996E+02
     38.755  0.1691E-01  0.1922E-01  0.1996E+02  0.1996E+02
     38.924  0.2427E-01  0.2490E-01  0.1997E+02  0.1997E+02
     39.093  0.4114E-02  0.2047E-02  0.1997E+02  0.1997E+02
     39.262  0.6449E-02  0.1071E-01  0.1997E+02  0.1997E+02
     39.432  0.1905E-01  0.1656E-01  0.1997E+02  0.1997E+02
     39.601  0.5087E-02  0.1087E-01  0.1997E+02  0.1997E+02
     39.770  0.1787E-01  0.3335E-01  0.1998E+02  0.1998E+02
     39.939  0.3618E-01  0.2606E-01  0.1998E+02  0.1998E+02
     40.109  0.1884E-01  0.9089E-02  0.1999E+02  0.1999E+02
     40.278  0.5586E-02  0.2454E-02  0.1999E+02  0.1999E+02
     40.447  0.5881E-02  0.6045E-02  0.1999E+02  0.1999E+02
     40.616  0.2338E-02  0.1928E-02  0.1999E+02  0.1999E+02
     40.785  0.1849E-02  0.5206E-02  0.1999E+02  0.1999E+02
     40.955  0.9448E-02  0.8900E-02  0.1999E+02  0.1999E+02
     41.124  0.4422E-02  0.7018E-02  0.1999E+02  0.1999E+02
     41.293  0.6336E-02  0.8540E-02  0.1999E+02  0.1999E+02
     41.462  0.7889E-02  0.9853E-03  0.1999E+02  0.1999E+02
     41.632  0.2253E-02  0.6598E-02  0.1999E+02  0.1999E+02
     41.801  0.9892E-02  0.1541E-01  0.2000E+02  0.2000E+02
     41.970  0.1304E-01  0.8821E-02  0.2000E+02  0.2000E+02
     42.139  0.6609E-02  0.2101E-03  0.2000E+02  0.2000E+02
     42.308 -0.9893E-04 -0.3305E-03  0.2000E+02  0.2000E+02
     42.478 -0.2380E-03 -0.1940E-04  0.2000E+02  0.2000E+02
     42.647 -0.1080E-04 -0.2130E-06  0.2000E+02  0.2000E+02
     42.816 -0.1038E-06 -0.1423E-05  0.2000E+02  0.2000E+02
     42.985 -0.2310E-05 -0.5729E-04  0.2000E+02  0.2000E+02
     43.155 -0.8211E-04 -0.2771E-03  0.2000E+02  0.2000E+02
     43.324 -0.2658E-03  0.2164E-02  0.2000E+02  0.2000E+02
     43.493  0.3008E-02  0.6471E-02  0.2000E+02  0.2000E+02
     43.662  0.6487E-02  0.2247E-02  0.2000E+02  0.2000E+02
     43.831  0.1392E-02 -0.2747E-03  0.2000E+02  0.2000E+02
     44.001 -0.2915E-03 -0.5987E-04  0.2000E+02  0.2000E+02
     44.170 -0.3418E-04 -0.1526E-05  0.2000E+02  0.2000E+02
     44.339 -0.5802E-06 -0.8023E-08  0.2000E+02  0.2000E+02
     44.508 -0.2035E-08 -0.9509E-11  0.2000E+02  0.2000E+02
     44.678 -0.1591E-11 -0.2612E-14  0.2000E+02  0.2000E+02
     44.847 -0.2856E-15  0.0000E+00  0.2000E+02  0.2000E+02
     45.016  0.0000E+00  0.0000E+00  0.2000E+02  0.2000E+02
     45.185  0.0000E+00  0.0000E+00  0.2000E+02  0.2000E+02
     45.354  0.0000E+00  0.0000E+00  0.2000E+02  0.2000E+02
     45.524  0.0000E+00  0.0000E+00  0.2000E+02  0.2000E+02
     45.693  0.0000E+00  0.0000E+00  0.2000E+02  0.2000E+02
     45.862  0.0000E+00  0.0000E+00  0.2000E+02  0.2000E+02
     45.86209271     -4.90452662  301      5.84804502      1.00000000
     -4.905  0.0000E+00  0.0000E+00  0.0000E+00  0.0000E+00  0.0000E+00  0.0000E+00  0.0000E+00  0.0000E+00  0.0000E+00  0.0000E+00  0.0000E+00  0.0000E+00  0.0000E+00  0.0000E+00  0.0000E+00  0.0000E+00  0.0000E+00  0.0000E+00
     -4.735  0.0000E+00  0.0000E+00  0.0000E+00  0.0000E+00  0.0000E+00  0.0000E+00  0.0000E+00  0.0000E+00  0.0000E+00  0.0000E+00  0.0000E+00  0.0000E+00  0.0000E+00  0.0000E+00  0.0000E+00  0.0000E+00  0.0000E+00  0.0000E+00
     -4.566  0.0000E+00  0.0000E+00  0.0000E+00  0.0000E+00  0.0000E+00  0.0000E+00  0.0000E+00  0.0000E+00  0.0000E+00  0.0000E+00  0.0000E+00  0.0000E+00  0.0000E+00  0.0000E+00  0.0000E+00  0.0000E+00  0.0000E+00  0.0000E+00
     -4.397  0.0000E+00  0.0000E+00  0.0000E+00  0.0000E+00  0.0000E+00  0.0000E+00  0.0000E+00  0.0000E+00  0.0000E+00  0.0000E+00  0.0000E+00  0.0000E+00  0.0000E+00  0.0000E+00  0.0000E+00  0.0000E+00  0.0000E+00  0.0000E+00
     -4.228 -0.8165E-32  0.0000E+00 -0.1477E-35  0.0000E+00 -0.1477E-35  0.0000E+00 -0.1477E-35  0.0000E+00 -0.7694E-39  0.0000E+00 -0.7694E-39  0.0000E+00 -0.8043E-38  0.0000E+00 -0.7694E-39  0.0000E+00 -0.8043E-38  0.0000E+00
     -4.058 -0.3721E-26 -0.1169E-31 -0.9857E-30 -0.2118E-35 -0.9857E-30 -0.2118E-35 -0.9857E-30 -0.2118E-35 -0.7774E-33 -0.8107E-39 -0.7774E-33 -0.8107E-39 -0.5274E-32 -0.8117E-38 -0.7774E-33 -0.8107E-39 -0.5274E-32 -0.8117E-38
     -3.889 -0.4103E-21 -0.5129E-26 -0.1576E-24 -0.1361E-29 -0.1576E-24 -0.1361E-29 -0.1576E-24 -0.1361E-29 -0.1808E-27 -0.7656E-33 -0.1808E-27 -0.7656E-33 -0.8228E-27 -0.5131E-32 -0.1808E-27 -0.7656E-33 -0.8228E-27 -0.5131E-32
     -3.720 -0.1072E-16 -0.5446E-21 -0.5941E-20 -0.2098E-24 -0.5941E-20 -0.2098E-24 -0.5941E-20 -0.2098E-24 -0.1000E-22 -0.1719E-27 -0.1000E-22 -0.1719E-27 -0.2991E-22 -0.7715E-27 -0.1000E-22 -0.1719E-27 -0.2991E-22 -0.7715E-27
     -3.551 -0.6985E-13 -0.1372E-16 -0.5421E-16 -0.7659E-20 -0.5421E-16 -0.7659E-20 -0.5421E-16 -0.7659E-20 -0.1272E-18 -0.9188E-23 -0.1272E-18 -0.9188E-23 -0.2612E-18 -0.2716E-22 -0.1272E-18 -0.9188E-23 -0.2612E-18 -0.2716E-22
     -3.382 -0.1124E-09 -0.8595E-13 -0.1206E-12 -0.6707E-16 -0.1206E-12 -0.6707E-16 -0.1206E-12 -0.6707E-16 -0.3942E-15 -0.1128E-18 -0.3942E-15 -0.1128E-18 -0.5508E-15 -0.2273E-18 -0.3942E-15 -0.1128E-18 -0.5508E-15 -0.2273E-18
     -3.212 -0.4447E-07 -0.1332E-09 -0.6505E-10 -0.1439E-12 -0.6505E-10 -0.1439E-12 -0.6505E-10 -0.1439E-12 -0.2910E-12 -0.3375E-15 -0.2910E-12 -0.3375E-15 -0.2865E-12 -0.4616E-15 -0.2910E-12 -0.3375E-15 -0.2865E-12 -0.4616E-15
     -3.043 -0.4244E-05 -0.5076E-07 -0.8513E-08 -0.7479E-10 -0.8513E-08 -0.7479E-10 -0.8513E-08 -0.7479E-10 -0.5191E-10 -0.2404E-12 -0.5191E-10 -0.2404E-12 -0.4007E-10 -0.2311E-12 -0.5191E-10 -0.2404E-12 -0.4007E-10 -0.2311E-12
     -2.874 -0.8928E-04 -0.4661E-05 -0.2697E-06 -0.9432E-08 -0.2697E-06 -0.9432E-08 -0.2697E-06 -0.9432E-08 -0.2351E-08 -0.4135E-10 -0.2351E-08 -0.4135E-10 -0.1750E-08 -0.3109E-10 -0.2351E-08 -0.4135E-10 -0.1750E-08 -0.3109E-10
     -2.705 -0.1961E-03 -0.9388E-04 -0.1845E-05 -0.2876E-06 -0.1845E-05 -0.2876E-06 -0.1845E-05 -0.2876E-06 -0.2894E-07 -0.1802E-08 -0.2894E-07 -0.1802E-08 -0.2310E-07 -0.1308E-08 -0.2894E-07 -0.1802E-08 -0.2310E-07 -0.1308E-08
     -2.535  0.2261E-02 -0.1817E-03  0.3473E-05 -0.1871E-05  0.3473E-05 -0.1871E-05  0.3473E-05 -0.1871E-05 -0.6159E-07 -0.2123E-07 -0.6159E-07 -0.2123E-07 -0.4003E-07 -0.1654E-07 -0.6159E-07 -0.2123E-07 -0.4003E-07 -0.1654E-07
     -2.366  0.8516E-02  0.2377E-02  0.4739E-04  0.3980E-05  0.4739E-04  0.3980E-05  0.4739E-04  0.3980E-05  0.5176E-06 -0.3980E-07  0.5176E-06 -0.3980E-07  0.3458E-06 -0.2406E-07  0.5176E-06 -0.3980E-07  0.3458E-06 -0.2406E-07
     -2.197  0.1343E-01  0.8608E-02  0.1421E-03  0.4887E-04  0.1421E-03  0.4887E-04  0.1421E-03  0.4887E-04  0.3099E-05  0.3948E-06  0.3099E-05  0.3948E-06  0.2570E-05  0.2583E-06  0.3099E-05  0.3948E-06  0.2570E-05  0.2583E-06
     -2.028  0.1701E-01  0.1338E-01  0.2757E-03  0.1436E-03  0.2757E-03  0.1436E-03  0.2757E-03  0.1436E-03  0.9681E-05  0.2234E-05  0.9681E-05  0.2234E-05  0.7090E-05  0.1804E-05  0.9681E-05  0.2234E-05  0.7090E-05  0.1804E-05
     -1.859  0.1900E-01  0.1686E-01  0.4227E-03  0.2760E-03  0.4227E-03  0.2760E-03  0.4227E-03  0.2760E-03  0.2058E-04  0.6791E-05  0.2058E-04  0.6791E-05  0.1646E-04  0.4832E-05  0.2058E-04  0.6791E-05  0.1646E-04  0.4832E-05
     -1.689  0.2285E-01  0.1869E-01  0.6471E-03  0.4185E-03  0.6471E-03  0.4185E-03  0.6471E-03  0.4185E-03  0.4078E-04  0.1406E-04  0.4078E-04  0.1406E-04  0.3371E-04  0.1080E-04  0.4078E-04  0.1406E-04  0.3371E-04  0.1080E-04
     -1.520  0.2284E-01  0.2249E-01  0.7782E-03  0.6417E-03  0.7782E-03  0.6417E-03  0.7782E-03  0.6417E-03  0.6665E-04  0.2729E-04  0.6665E-04  0.2729E-04  0.4656E-04  0.2207E-04  0.6665E-04  0.2729E-04  0.4656E-04  0.2207E-04
     -1.351  0.2717E-01  0.2226E-01  0.1122E-02  0.7607E-03  0.1122E-02  0.7607E-03  0.1122E-02  0.7607E-03  0.1081E-03  0.4347E-04  0.1081E-03  0.4347E-04  0.9887E-04  0.2863E-04  0.1081E-03  0.4347E-04  0.9887E-04  0.2863E-04
     -1.182  0.2816E-01  0.2627E-01  0.1315E-02  0.1091E-02  0.1315E-02  0.1091E-02  0.1315E-02  0.1091E-02  0.1636E-03  0.6901E-04  0.1636E-03  0.6901E-04  0.1257E-03  0.6026E-04  0.1636E-03  0.6901E-04  0.1257E-03  0.6026E-04
     -1.012  0.2873E-01  0.2748E-01  0.1550E-02  0.1288E-02  0.1550E-02  0.1288E-02  0.1550E-02  0.1288E-02  0.2395E-03  0.1003E-03  0.2395E-03  0.1003E-03  0.1773E-03  0.7682E-04  0.2395E-03  0.1003E-03  0.1773E-03  0.7682E-04
     -0.843  0.3293E-01  0.2741E-01  0.2017E-02  0.1484E-02  0.2017E-02  0.1484E-02  0.2017E-02  0.1484E-02  0.3301E-03  0.1472E-03  0.3301E-03  0.1472E-03  0.3210E-03  0.9706E-04  0.3301E-03  0.1472E-03  0.3210E-03  0.9706E-04
     -0.674  0.3449E-01  0.3081E-01  0.2309E-02  0.1888E-02  0.2309E-02  0.1888E-02  0.2309E-02  0.1888E-02  0.4960E-03  0.1858E-03  0.4960E-03  0.1858E-03  0.3769E-03  0.1753E-03  0.4960E-03  0.1858E-03  0.3769E-03  0.1753E-03
     -0.505  0.3248E-01  0.3370E-01  0.2433E-02  0.2278E-02  0.2433E-02  0.2278E-02  0.2433E-02  0.2278E-02  0.6273E-03  0.2856E-03  0.6273E-03  0.2856E-03  0.4850E-03  0.2172E-03  0.6273E-03  0.2856E-03  0.4850E-03  0.2172E-03
     -0.336  0.4019E-01  0.2982E-01  0.3328E-02  0.2217E-02  0.3328E-02  0.2217E-02  0.3328E-02  0.2217E-02  0.9131E-03  0.3321E-03  0.9131E-03  0.3321E-03  0.8781E-03  0.2234E-03  0.9131E-03  0.3321E-03  0.8781E-03  0.2234E-03
     -0.166  0.3927E-01  0.3580E-01  0.3502E-02  0.2986E-02  0.3502E-02  0.2986E-02  0.3502E-02  0.2986E-02  0.1216E-02  0.4711E-03  0.1216E-02  0.4711E-03  0.1007E-02  0.4083E-03  0.1216E-02  0.4711E-03  0.1007E-02  0.4083E-03
      0.003  0.3943E-01  0.3794E-01  0.3808E-02  0.3396E-02  0.3808E-02  0.3396E-02  0.3808E-02  0.3396E-02  0.1677E-02  0.5851E-03  0.1677E-02  0.5851E-03  0.1286E-02  0.5183E-03  0.1677E-02  0.5851E-03  0.1286E-02  0.5183E-03
      0.172  0.4524E-01  0.3492E-01  0.4821E-02  0.3388E-02  0.4821E-02  0.3388E-02  0.4821E-02  0.3388E-02  0.2252E-02  0.7696E-03  0.2252E-02  0.7696E-03  0.2174E-02  0.5141E-03  0.2252E-02  0.7696E-03  0.2174E-02  0.5141E-03
      0.341  0.4803E-01  0.3755E-01  0.5396E-02  0.3965E-02  0.5396E-02  0.3965E-02  0.5396E-02  0.3965E-02  0.3229E-02  0.9583E-03  0.3229E-02  0.9583E-03  0.2817E-02  0.7546E-03  0.3229E-02  0.9583E-03  0.2817E-02  0.7546E-03
      0.511  0.4753E-01  0.4203E-01  0.5691E-02  0.4822E-02  0.5691E-02  0.4822E-02  0.5691E-02  0.4822E-02  0.4463E-02  0.1190E-02  0.4463E-02  0.1190E-02  0.3542E-02  0.1118E-02  0.4463E-02  0.1190E-02  0.3542E-02  0.1118E-02
      0.680  0.5530E-01  0.4192E-01  0.7187E-02  0.5070E-02  0.7187E-02  0.5070E-02  0.7187E-02  0.5070E-02  0.6201E-02  0.1603E-02  0.6201E-02  0.1603E-02  0.5588E-02  0.1245E-02  0.6201E-02  0.1603E-02  0.5588E-02  0.1245E-02
      0.849  0.6651E-01  0.3937E-01  0.8451E-02  0.5096E-02  0.8451E-02  0.5096E-02  0.8451E-02  0.5096E-02  0.1445E-01  0.1900E-02  0.1445E-01  0.1900E-02  0.1137E-01  0.1320E-02  0.1445E-01  0.1900E-02  0.1137E-01  0.1320E-02
      1.018  0.8456E-01  0.4484E-01  0.9604E-02  0.6274E-02  0.9604E-02  0.6274E-02  0.9604E-02  0.6274E-02  0.3700E-01  0.2456E-02  0.3700E-01  0.2456E-02  0.3872E-01  0.2178E-02  0.3700E-01  0.2456E-02  0.3872E-01  0.2178E-02
      1.187  0.9621E-01  0.4835E-01  0.1196E-01  0.7183E-02  0.1196E-01  0.7183E-02  0.1196E-01  0.7183E-02  0.5340E-01  0.3147E-02  0.5340E-01  0.3147E-02  0.8275E-01  0.2751E-02  0.5340E-01  0.3147E-02  0.8275E-01  0.2751E-02
      1.357  0.8598E-01  0.4538E-01  0.1311E-01  0.6970E-02  0.1311E-01  0.6970E-02  0.1311E-01  0.6970E-02  0.5685E-01  0.4033E-02  0.5685E-01  0.4033E-02  0.1181E+00  0.2962E-02  0.5685E-01  0.4033E-02  0.1181E+00  0.2962E-02
      1.526  0.8106E-01  0.4793E-01  0.1687E-01  0.7878E-02  0.1687E-01  0.7878E-02  0.1687E-01  0.7878E-02  0.6202E-01  0.5177E-02  0.6202E-01  0.5177E-02  0.1707E+00  0.4019E-02  0.6202E-01  0.5177E-02  0.1707E+00  0.4019E-02
      1.695  0.7553E-01  0.5406E-01  0.2179E-01  0.9404E-02  0.2179E-01  0.9404E-02  0.2179E-01  0.9404E-02  0.6923E-01  0.6823E-02  0.6923E-01  0.6823E-02  0.2367E+00  0.6078E-02  0.6923E-01  0.6823E-02  0.2367E+00  0.6078E-02
      1.864  0.5424E-01  0.5508E-01  0.1883E-01  0.9798E-02  0.1883E-01  0.9798E-02  0.1883E-01  0.9798E-02  0.6976E-01  0.9355E-02  0.6976E-01  0.9355E-02  0.2026E+00  0.7265E-02  0.6976E-01  0.9355E-02  0.2026E+00  0.7265E-02
      2.034  0.3117E-01  0.5801E-01  0.1223E-01  0.1022E-01  0.1223E-01  0.1022E-01  0.1223E-01  0.1022E-01  0.7213E-01  0.1394E-01  0.7213E-01  0.1394E-01  0.1265E+00  0.1050E-01  0.7213E-01  0.1394E-01  0.1265E+00  0.1050E-01
      2.203  0.1580E-01  0.7158E-01  0.8650E-02  0.1217E-01  0.8650E-02  0.1217E-01  0.8650E-02  0.1217E-01  0.5474E-01  0.2489E-01  0.5474E-01  0.2489E-01  0.9529E-01  0.1965E-01  0.5474E-01  0.2489E-01  0.9529E-01  0.1965E-01
      2.372  0.5781E-02  0.7826E-01  0.1023E-01  0.1265E-01  0.1023E-01  0.1265E-01  0.1023E-01  0.1265E-01  0.8433E-01  0.3646E-01  0.8433E-01  0.3646E-01  0.9687E-01  0.2817E-01  0.8433E-01  0.3646E-01  0.9687E-01  0.2817E-01
      2.541  0.2728E-02  0.7251E-01  0.2021E-01  0.1291E-01  0.2021E-01  0.1291E-01  0.2021E-01  0.1291E-01  0.2803E+00  0.3954E-01  0.2803E+00  0.3954E-01  0.1419E+00  0.3078E-01  0.2803E+00  0.3954E-01  0.1419E+00  0.3078E-01
      2.710  0.4449E-02  0.6669E-01  0.2013E-01  0.1404E-01  0.2013E-01  0.1404E-01  0.2013E-01  0.1404E-01  0.3241E+00  0.4037E-01  0.3241E+00  0.4037E-01  0.1514E+00  0.3458E-01  0.3241E+00  0.4037E-01  0.1514E+00  0.3458E-01
      2.880  0.7163E-02  0.5993E-01  0.1552E-01  0.1456E-01  0.1552E-01  0.1456E-01  0.1552E-01  0.1456E-01  0.2383E+00  0.4209E-01  0.2383E+00  0.4209E-01  0.1147E+00  0.5025E-01  0.2383E+00  0.4209E-01  0.1147E+00  0.5025E-01
      3.049  0.1056E-01  0.5374E-01  0.2087E-01  0.1687E-01  0.2087E-01  0.1687E-01  0.2087E-01  0.1687E-01  0.2257E+00  0.4401E-01  0.2257E+00  0.4401E-01  0.9898E-01  0.9433E-01  0.2257E+00  0.4401E-01  0.9898E-01  0.9433E-01
      3.218  0.1596E-01  0.4772E-01  0.3090E-01  0.1995E-01  0.3090E-01  0.1995E-01  0.3090E-01  0.1995E-01  0.2762E+00  0.4725E-01  0.2762E+00  0.4725E-01  0.1175E+00  0.1415E+00  0.2762E+00  0.4725E-01  0.1175E+00  0.1415E+00
      3.387  0.1964E-01  0.3660E-01  0.3389E-01  0.1825E-01  0.3389E-01  0.1825E-01  0.3389E-01  0.1825E-01  0.3204E+00  0.5078E-01  0.3204E+00  0.5078E-01  0.1368E+00  0.1462E+00  0.3204E+00  0.5078E-01  0.1368E+00  0.1462E+00
      3.557  0.1525E-01  0.2281E-01  0.2505E-01  0.1312E-01  0.2505E-01  0.1312E-01  0.2505E-01  0.1312E-01  0.2531E+00  0.5072E-01  0.2531E+00  0.5072E-01  0.9391E-01  0.1044E+00  0.2531E+00  0.5072E-01  0.9391E-01  0.1044E+00