    2    2    1    2
  0.1133275E+02  0.2830013E-09  0.2830013E-09  0.2830013E-09  0.5000000E-15
  1.000000000000000E-004
  CAR 
 unknown system                          
     16    286     20
 
  0.0000000E+00  0.0000000E+00  0.0000000E+00  0.1079797E-03
    1       -2.596953     -2.432183   1.000000   1.000000
    2        0.988640      2.804403   1.000000   1.000000
    3        0.988641      2.804543   1.000000   1.000000
    4        3.543748      5.443346   1.000000   1.007405
    5        3.543749      5.443479   1.000000   1.007421
    6        3.543749      5.443489   1.000000   1.007422
    7        4.757575      7.503945   1.000000  -0.000000
    8        4.757576      7.504109   1.000000  -0.000000
    9        5.971148      8.144197   0.073145  -0.000000
   10        5.971150      8.144321   0.073141  -0.000000
   11        5.971150      8.144333   0.073141  -0.000000
   12       15.803730     16.071313   0.000000   0.000000
   13       15.803730     16.071314   0.000000   0.000000
   14       15.803730     16.071316   0.000000   0.000000
   15       21.522561     22.577555   0.000000   0.000000
   16       21.522563     22.577567   0.000000   0.000000
   17       26.668383     27.769810   0.000000   0.000000
   18       30.896489     30.643413   0.000000   0.000000
   19       30.896489     30.643413   0.000000   0.000000
   20       30.896489     30.643413   0.000000   0.000000
 
  0.4761905E-01  0.3081488E-32  0.0000000E+00  0.6478782E-03
    1       -2.549673     -2.384738   1.000000   1.000000
    2        1.008833      2.821744   1.000000   1.000000
    3        1.009837      2.828408   1.000000   1.000000
    4        3.543153      5.440922   1.000000   1.007113
    5        3.543154      5.441066   1.000000   1.007131
    6        3.556579      5.457569   1.000000   1.009296
    7        4.736357      7.476371   1.000000  -0.000000
    8        4.765865      7.514632   1.000000  -0.000000
    9        5.930673      8.090585   0.181263  -0.000000
   10        5.930674      8.090720   0.181258  -0.000000
   11        5.957018      8.128440   0.106262  -0.000000
   12       15.443270     15.776508   0.000000   0.000000
   13       15.893789     16.174878   0.000000   0.000000
   14       15.893790     16.174879   0.000000   0.000000
   15       21.536103     22.586938   0.000000   0.000000
   16       21.802056     22.800283   0.000000   0.000000
   17       26.818384     27.912638   0.000000   0.000000
   18       30.549917     30.344527   0.000000   0.000000
   19       30.857970     30.624525   0.000000   0.000000
   20       30.857970     30.624525   0.000000   0.000000
 
  0.9523810E-01  0.6162976E-32  0.0000000E+00  0.6478782E-03
    1       -2.408688     -2.243041   1.000000   1.000000
    2        1.069052      2.870404   1.000000   1.000000
    3        1.071488      2.899983   1.000000   1.000000
    4        3.542503      5.435133   1.000000   1.006453
    5        3.542504      5.435277   1.000000   1.006469
    6        3.595209      5.500124   1.000000   1.016856
    7        4.673376      7.394314   1.000000  -0.000000
    8        4.790691      7.545768   1.000000  -0.000000
    9        5.814695      7.939140   0.638963  -0.000000
   10        5.814697      7.939273   0.638956  -0.000000
   11        5.915008      8.081235   0.233495  -0.000000
   12       14.554507     15.024193   0.000000   0.000000
   13       16.158337     16.475979   0.000000   0.000000
   14       16.158338     16.475981   0.000000   0.000000
   15       21.577143     22.615502   0.000000   0.000000
   16       22.414874     23.308740   0.000000   0.000000
   17       27.303824     28.372282   0.000000   0.000000
   18       29.749991     29.634710   0.000000   0.000000
   19       30.709870     30.543114   0.000000   0.000000
   20       30.709870     30.543115   0.000000   0.000000
 
  0.1428571E+00  0.6162976E-32  0.0000000E+00  0.6478782E-03
    1       -2.176932     -2.009563   1.000000   1.000000
    2        1.167576      2.941087   1.000000   1.000000
    3        1.168199      3.018039   1.000000   1.000000
    4        3.543651      5.428320   1.000000   1.005739
    5        3.543652      5.428463   1.000000   1.005753
    6        3.658781      5.570184   1.000000   1.032156
    7        4.569757      7.259494   1.000000  -0.000000
    8        4.831141      7.595410   1.000000  -0.000000
    9        5.637378      7.713191   1.029814  -0.000000
   10        5.637379      7.713323   1.029813  -0.000000
   11        5.846151      8.003899   0.508012  -0.000000
   12       13.423314     14.039965   0.000000   0.000000
   13       16.582373     16.950386   0.000000   0.000000
   14       16.582373     16.950389   0.000000   0.000000
   15       21.646914     22.664475   0.000000   0.000000
   16       23.021019     23.832249   0.000000   0.000000
   17       28.186270     28.778969   0.000000   0.000000
   18       28.804760     29.204931   0.000000   0.000000
   19       30.369265     30.329672   0.000000   0.000000
   20       30.369265     30.329675   0.000000   0.000000
 
  0.1904762E+00  0.1232595E-31  0.0000000E+00  0.6478782E-03
    1       -1.859665     -1.688571   1.000000   1.000000
    2        1.288132      3.017865   1.000000   1.000000
    3        1.304407      3.180710   1.000000   1.000000
    4        3.549765      5.424472   1.000000   1.005363
    5        3.549766      5.424614   1.000000   1.005377
    6        3.746051      5.666423   1.000000   1.012776
    7        4.427605      7.074936   1.000000  -0.000000
    8        4.886348      7.440960   1.000000  -0.000000
    9        5.417522      7.441092   1.004735  -0.000000
   10        5.417523      7.660486   1.004735  -0.000000
   11        5.752134      7.898373   0.858662  -0.000000
   12       12.212958     12.980473   0.000000   0.000000
   13       17.145887     17.568564   0.000000   0.000000
   14       17.145887     17.568568   0.000000   0.000000
   15       21.747450     22.735916   0.000000   0.000000
   16       23.477085     24.232043   0.000000   0.000000
   17       27.855907     27.915557   0.000000   0.000000
   18       29.458343     29.901870   0.000000   0.000000
   19       29.768180     29.901875   0.000000   0.000000
   20       29.768180     30.411688   0.000000   0.000000
 
  0.2380952E+00  0.1232595E-31  0.0000000E+00  0.6478782E-03
    1       -1.464863     -1.286225   1.000000   1.000000
    2        1.418469      3.077103   1.000000   1.000000
    3        1.475185      3.385448   1.000000   1.000000
    4        3.564716      5.428451   1.000000   1.005752
    5        3.564716      5.428592   1.000000   1.005766
    6        3.855300      5.787002   1.000000   0.745439
    7        4.249850      6.844882   1.000000  -0.000000
    8        4.956137      7.148176   1.000000  -0.000000
    9        5.174166      7.148307   1.000010  -0.000000
   10        5.174167      7.737209   1.000010  -0.000000
   11        5.635264      7.767310   1.030551  -0.000000
   12       11.004072     11.937702  -0.000000   0.000000
   13       17.828082     18.302867   0.000000   0.000000
   14       17.828082     18.302871   0.000000   0.000000
   15       21.881620     22.832752   0.000000   0.000000
   16       23.806238     24.513440   0.000000   0.000000
   17       26.958364     27.102432   0.000000   0.000000
   18       28.928211     29.230237   0.000000   0.000000
   19       28.928211     29.230243   0.000000   0.000000
   20       30.840632     31.269482   0.000000   0.000000
 
  0.2857143E+00  0.1232595E-31  0.0000000E+00  0.6478782E-03
    1       -1.004512     -0.811279   1.000000   1.000000
    2        1.538927      3.087758   1.000000   1.000000
    3        1.677189      3.628764   1.000000   1.000000
    4        3.592750      5.445636   1.000000   1.007688
    5        3.592751      5.445775   1.000000   1.007705
    6        3.984340      5.929555   1.000000   0.184810
    7        4.040349      6.574852   1.000000  -0.000002
    8        4.923882      6.855022   1.000000  -0.000000
    9        4.923883      6.855153   1.000000  -0.000000
   10        5.043168      7.614003   1.000000  -0.000000
   11        5.498417      7.822853   1.016502  -0.000000
   12        9.842929     10.972046  -0.000000  -0.000000
   13       18.609865     19.130334   0.000000   0.000000
   14       18.609866     19.130338   0.000000   0.000000
   15       22.053039     22.958710   0.000000   0.000000
   16       24.077984     24.735694   0.000000   0.000000
   17       26.133834     26.363059   0.000000   0.000000
   18       27.931444     28.361129   0.000000   0.000000
   19       27.931445     28.361135   0.000000   0.000000
   20       29.703901     30.124401   0.000000   0.000000
 
  0.3333333E+00  0.0000000E+00  0.0000000E+00  0.6478782E-03
    1       -0.496280     -0.275711   1.000000   1.000000
    2        1.623969      3.013526   1.000000   1.000000
    3        1.906372      3.906355   1.000000   1.000000
    4        3.638638      5.481945   1.000000   1.013287
    5        3.638639      5.482083   1.000000   1.013312
    6        3.803893      6.091397   1.000000  -0.035448
    7        4.130636      6.271683   1.000000  -0.005357
    8        4.679877      6.576114   1.000000  -0.000002
    9        4.679878      6.576244   1.000000  -0.000002
   10        5.154701      7.442203   1.000005  -0.000000
   11        5.344882      7.916286   1.001079  -0.000000
   12        8.763624     10.129219  -0.000000  -0.000000
   13       19.474915     20.032833   0.000000   0.000000
   14       19.474916     20.032837   0.000000   0.000000
   15       22.266095     23.118403   0.000000   0.000000
   16       24.351222     24.956689   0.000000   0.000000
   17       25.390279     25.705659   0.000000   0.000000
   18       26.852660     27.367579   0.000000   0.000000
   19       26.852661     27.367585   0.000000   0.000000
   20       28.651325     29.064498   0.000000   0.000000
 
  0.3809524E+00  0.2465190E-31  0.0000000E+00  0.6478782E-03
    1        0.033986      0.304037   1.000000   1.000000
    2        1.642614      2.821207   1.000000   1.000000
    3        2.157964      4.213036   1.000000   1.000000
    4        3.545815      5.542041   1.000000   1.026295
    5        3.705993      5.542178   1.000000   1.026327
    6        3.705994      5.942858   1.000000   0.144477
    7        4.291006      6.268995   1.000000  -0.005617
    8        4.451978      6.321543   1.000000  -0.002051
    9        4.451979      6.321674   1.000000  -0.002045
   10        5.178317      7.256089   1.000012  -0.000000
   11        5.306244      8.020702   1.000433  -0.000000
   12        7.798076      9.442698  -0.000000  -0.000000
   13       20.409481     20.995894   0.000000   0.000000
   14       20.409481     20.995896   0.000000   0.000000
   15       22.525824     23.317235   0.000000   0.000000
   16       24.668332     25.130889   0.000000   0.000000
   17       24.729077     25.221792   0.000000   0.000000
   18       25.740052     26.308280   0.000000   0.000000
   19       25.740053     26.308285   0.000000   0.000000
   20       27.700668     28.112045   0.000000   0.000000
 
  0.4285714E+00  0.0000000E+00  0.0000000E+00  0.6478782E-03
    1        0.549486      0.905305   1.000000   1.000000
    2        1.560337      2.493694   1.000000   1.000000
    3        2.426550      4.542712   1.000000   1.000000
    4        3.272495      5.597006   1.000000   1.035321
    5        3.798653      5.630854   1.000000   1.031901
    6        3.798654      5.630990   1.000000   1.031864
    7        4.246802      6.097365   1.000000  -0.035386
    8        4.246803      6.097497   1.000000  -0.035382
    9        4.462212      6.458874   1.000000  -0.000069
   10        5.002700      7.060127   1.000000  -0.000000
   11        5.525367      8.146792   1.022448  -0.000000
   12        6.977656      8.924983  -0.000000  -0.000000
   13       21.401861     22.007439   0.000000   0.000000
   14       21.401862     22.007440   0.000000   0.000000
   15       22.837835     23.561378   0.000000   0.000000
   16       24.148004     24.635276   0.000000   0.000000
   17       24.622569     25.221584   0.000000   0.000000
   18       24.622570     25.221588   0.000000   0.000000
   19       25.059805     25.565496   0.000000   0.000000
   20       26.863790     27.282198   0.000000   0.000000
 
  0.4761905E+00  0.0000000E+00  0.0000000E+00  0.6478782E-03
    1        1.003348      1.497367   1.000000   1.000000
    2        1.349061      2.041115   1.000000   1.000000
    3        2.706158      4.888487   1.000000   1.000000
    4        2.990371      5.242684   1.000000   1.000080
    5        3.919107      5.751859   1.000000   0.859444
    6        3.919108      5.751994   1.000000   0.859062
    7        4.068510      5.907078   1.000000   0.261865
    8        4.068511      5.907211   1.000000   0.261379
    9        4.640601      6.657003   1.000000  -0.000000
   10        4.822088      6.858897   1.000000  -0.000000
   11        5.851827      8.315952   0.483999  -0.000000
   12        6.327559      8.561489  -0.001808  -0.000000
   13       22.441602     23.056510   0.000000   0.000000
   14       22.441603     23.056511   0.000000   0.000000
   15       23.208112     23.857609   0.000000   0.000000
   16       23.518727     24.132109   0.000000   0.000000
   17       23.518728     24.132111   0.000000   0.000000
   18       23.642824     24.213141   0.000000   0.000000
   19       25.547613     26.013414   0.000000   0.000000
   20       26.146388     26.582746   0.000000   0.000000
 
  0.4761905E-01  0.4761905E-01  0.0000000E+00  0.1295756E-02
    1       -2.502526     -2.337373   1.000000   1.000000
    2        1.029106      2.842778   1.000000   1.000000
    3        1.030790      2.848410   1.000000   1.000000
    4        3.517762      5.412146   1.000000   1.004291
    5        3.542065      5.438063   1.000000   1.006781
    6        3.594462      5.498569   1.000000   1.016533
    7        4.731114      7.469044   1.000000  -0.000000
    8        4.759548      7.506313   1.000000  -0.000000
    9        5.857524      8.001233   0.459939  -0.000000
   10        5.890217      8.037064   0.325878  -0.000000
   11        5.977094      8.150954   0.060715  -0.000000
   12       15.450275     15.806932   0.000000   0.000000
   13       15.610748     15.947417   0.000000   0.000000
   14       15.982392     16.276008   0.000000   0.000000
   15       21.681136     22.701289   0.000000   0.000000
   16       21.961921     22.928953   0.000000   0.000000
   17       26.961900     28.049985   0.000000   0.000000
   18       30.248655     30.100544   0.000000   0.000000
   19       30.762477     30.538886   0.000000   0.000000
   20       30.827631     30.610793   0.000000   0.000000
 
  0.9523810E-01  0.4761905E-01  0.0000000E+00  0.2591513E-02
    1       -2.362122     -2.196174   1.000000   1.000000
    2        1.088302      2.893239   1.000000   1.000000
    3        1.092930      2.917612   1.000000   1.000000
    4        3.496443      5.384647   1.000000   1.002522
    5        3.539495      5.430351   1.000000   1.005945
    6        3.653549      5.562721   1.000000   1.030759
    7        4.676636      7.397319   1.000000  -0.000000
    8        4.779315      7.530866   1.000000  -0.000000
    9        5.718693      7.827090   0.939896  -0.000000
   10        5.774338      7.886061   0.789642  -0.000000
   11        5.962085      8.133101   0.093807  -0.000000
   12       14.617983     15.102154   0.000000   0.000000
   13       15.804643     16.186176   0.000000   0.000000
   14       16.242900     16.570591   0.000000   0.000000
   15       21.773448     22.771460   0.000000   0.000000
   16       22.555840     23.425498   0.000000   0.000000
   17       27.428277     28.493462   0.000000   0.000000
   18       29.460088     29.407031   0.000000   0.000000
   19       30.568939     30.406502   0.000000   0.000000
   20       30.702662     30.544384   0.000000   0.000000
 
  0.1428571E+00  0.4761905E-01  0.0000000E+00  0.2591513E-02
    1       -2.131355     -1.963521   1.000000   1.000000
    2        1.184406      2.964570   1.000000   1.000000
    3        1.191076      3.033889   1.000000   1.000000
    4        3.483797      5.363917   1.000000   1.001639
    5        3.537402      5.420351   1.000000   1.004983
    6        3.730516      5.646434   1.000000   1.025943
    7        4.578483      7.268249   1.000000  -0.000000
    8        4.820020      7.580857   1.000000  -0.000000
    9        5.531101      7.593695   1.023773  -0.000000
   10        5.597596      7.661620   1.035346  -0.000000
   11        5.909467      8.072244   0.253190  -0.000000
   12       13.486007     14.114793   0.000000   0.000000
   13       16.208489     16.641973   0.000000   0.000000
   14       16.661139     17.036181   0.000000   0.000000
   15       21.860015     22.834365   0.000000   0.000000
   16       23.190948     23.977224   0.000000   0.000000
   17       28.284047     28.540050   0.000000   0.000000
   18       28.500915     29.302853   0.000000   0.000000
   19       30.188797     30.147191   0.000000   0.000000
   20       30.391634     30.352279   0.000000   0.000000
 
  0.1904762E+00  0.4761905E-01  0.0000000E+00  0.2591513E-02
    1       -1.815593     -1.643738   1.000000   1.000000
    2        1.307278      3.041779   1.000000   1.000000
    3        1.323394      3.194158   1.000000   1.000000
    4        3.480700      5.351165   1.000000   1.001241
    5        3.538520      5.411940   1.000000   1.004275
    6        3.826439      5.751213   1.000000   0.861274
    7        4.443919      7.090811   1.000000  -0.000000
    8        4.876073      7.321592   1.000000  -0.000000
    9        5.308163      7.392953   1.000454  -0.000000
   10        5.379332      7.647261   1.002263  -0.000000
   11        5.825416      7.976322   0.595076  -0.000000
   12       12.273530     13.050786   0.000000   0.000000
   13       16.745034     17.234715   0.000000   0.000000
   14       17.218027     17.644953   0.000000   0.000000
   15       21.976641     22.919408   0.000000   0.000000
   16       23.681098     24.410809   0.000000   0.000000
   17       27.523477     27.652197   0.000000   0.000000
   18       29.531591     29.672158   0.000000   0.000000
   19       29.558526     29.942813   0.000000   0.000000
   20       29.810629     30.486888   0.000000   0.000000
 
  0.2380952E+00  0.4761905E-01  0.0000000E+00  0.2591513E-02
    1       -1.422973     -1.243072   1.000000   1.000000
    2        1.438349      3.101032   1.000000   1.000000
    3        1.491000      3.395573   1.000000   1.000000
    4        3.489324      5.349261   1.000000   1.001190
    5        3.544986      5.409351   1.000000   1.004074
    6        3.941229      5.877101   1.000000   0.378482
    7        4.278276      6.870539   1.000000  -0.000000
    8        4.946606      7.032115   1.000000  -0.000000
    9        5.065425      7.106889   1.000000  -0.000000
   10        5.139148      7.725444   1.000003  -0.000000
   11        5.714975      7.851271   0.947190  -0.000000
   12       11.062185     12.002547  -0.000000   0.000000
   13       17.389911     17.933330   0.000000   0.000000
   14       17.893516     18.370366   0.000000   0.000000
   15       22.131113     23.033621   0.000000   0.000000
   16       24.042069     24.725143   0.000000   0.000000
   17       26.580890     26.800453   0.000000   0.000000
   18       28.722413     28.973831   0.000000   0.000000
   19       28.975940     29.278732   0.000000   0.000000
   20       31.088556     31.841855   0.000000   0.000000
 
  0.2857143E+00  0.4761905E-01  0.0000000E+00  0.2591513E-02
    1       -0.965628     -0.770304   1.000000   1.000000
    2        1.558504      3.110970   1.000000   1.000000
    3        1.689641      3.634377   1.000000   1.000000
    4        3.512850      5.362389   1.000000   1.001586
    5        3.555169      5.416436   1.000000   1.004642
    6        4.073826      6.023015   1.000000  -0.006797
    7        4.091679      6.614882   1.000000  -0.000000
    8        4.817482      6.743287   1.000000  -0.000000
    9        4.894390      6.824969   1.000000  -0.000000
   10        5.034248      7.701963   1.000000  -0.000000
   11        5.582459      7.812484   1.034038  -0.000000
   12        9.897835     11.029528  -0.000000  -0.000000
   13       18.121009     18.711698   0.000000   0.000000
   14       18.669014     19.190006   0.000000   0.000000
   15       22.329736     23.183191   0.000000   0.000000
   16       24.345137     24.980820   0.000000   0.000000
   17       25.688313     26.002085   0.000000   0.000000
   18       27.779300     28.125026   0.000000   0.000000
   19       27.977112     28.408721   0.000000   0.000000
   20       30.322474     30.743463   0.000000   0.000000
 
  0.3333333E+00  0.4761905E-01  0.0000000E+00  0.2591513E-02
    1       -0.461487     -0.237571   1.000000   1.000000
    2        1.642305      3.035283   1.000000   1.000000
    3        1.914810      3.905878   1.000000   1.000000
    4        3.547397      5.395449   1.000000   1.003124
    5        3.555103      5.433028   1.000000   1.006225
    6        3.914285      6.186662   1.000000  -0.018850
    7        4.222157      6.335744   1.000000  -0.001517
    8        4.576480      6.468753   1.000000  -0.000052
    9        4.659317      6.562964   1.000000  -0.000003
   10        5.146541      7.533016   1.000004  -0.000000
   11        5.432010      7.907194   1.006118  -0.000000
   12        8.813868     10.176544  -0.000000  -0.000000
   13       18.918012     19.547299   0.000000   0.000000
   14       19.528463     20.085918   0.000000   0.000000
   15       22.580098     23.375931   0.000000   0.000000
   16       24.652412     25.238942   0.000000   0.000000
   17       24.841790     25.252806   0.000000   0.000000
   18       26.815861     27.219134   0.000000   0.000000
   19       26.895075     27.411590   0.000000   0.000000
   20       29.266693     29.694239   0.000000   0.000000
 
  0.3809524E+00  0.4761905E-01  0.0000000E+00  0.2591513E-02
    1        0.063539      0.338705   1.000000   1.000000
    2        1.658892      2.841551   1.000000   1.000000
    3        2.161449      4.204091   1.000000   1.000000
    4        3.443121      5.445505   1.000000   1.007671
    5        3.619626      5.453053   1.000000   1.008661
    6        3.833575      6.059527   1.000000  -0.030105
    7        4.351735      6.218196   1.000000  -0.012558
    8        4.383663      6.330507   1.000000  -0.001698
    9        4.444574      6.365269   1.000000  -0.000781
   10        5.267736      7.349050   1.000160  -0.000000
   11        5.300105      8.013210   1.000372  -0.000000
   12        7.841198      9.477030  -0.000000  -0.000000
   13       19.761566     20.419194   0.000000   0.000000
   14       20.458258     21.043665   0.000000   0.000000
   15       22.892073     23.622509   0.000000   0.000000
   16       24.023897     24.530805   0.000000   0.000000
   17       25.008625     25.547650   0.000000   0.000000
   18       25.780305     26.335127   0.000000   0.000000
   19       25.894676     26.349273   0.000000   0.000000
   20       28.288962     28.719679   0.000000   0.000000
 
  0.4285714E+00  0.4761905E-01  0.0000000E+00  0.2591513E-02
    1        0.572979      0.935911   1.000000   1.000000
    2        1.574710      2.514032   1.000000   1.000000
    3        2.423724      4.521195   1.000000   1.000000
    4        3.225858      5.382586   1.000000   1.002419
    5        3.709618      5.539426   1.000000   1.025696
    6        3.873415      5.869261   1.000000   0.410785
    7        4.149593      5.997564   1.000000   0.024600
    8        4.256818      6.132062   1.000000  -0.031015
    9        4.555302      6.555480   1.000000  -0.000003
   10        5.093747      7.154638   1.000001  -0.000000
   11        5.524097      8.141944   1.022155  -0.000000
   12        7.010580      8.945387  -0.000000  -0.000000
   13       20.632113     21.305600   0.000000   0.000000
   14       21.446770     22.051151   0.000000   0.000000
   15       23.208409     23.798762   0.000000   0.000000
   16       23.278857     23.938182   0.000000   0.000000
   17       24.662110     25.261032   0.000000   0.000000
   18       25.062063     25.537192   0.000000   0.000000
   19       25.445483     25.943062   0.000000   0.000000
   20       27.408165     27.843140   0.000000   0.000000
 
  0.4761905E+00  0.4761905E-01  0.0000000E+00  0.2591513E-02
    1        1.021158      1.523635   1.000000   1.000000
    2        1.363541      2.063607   1.000000   1.000000
    3        2.694844      4.845791   1.000000   1.000000
    4        2.966426      5.155141   1.000000   1.000006
    5        3.827404      5.657852   1.000000   1.019261
    6        3.969331      5.810384   1.000000   0.656267
    7        3.974162      5.864527   1.000000   0.430522
    8        4.098463      5.971819   1.000000   0.071697
    9        4.733412      6.753272   1.000000  -0.000000
   10        4.914253      6.954499   1.000000  -0.000000
   11        5.859589      8.315958   0.451244  -0.000000
   12        6.347789      8.569870  -0.001165  -0.000000
   13       21.509056     22.181567   0.000000   0.000000
   14       22.372044     23.019116   0.000000   0.000000
   15       22.483613     23.097432   0.000000   0.000000
   16       23.558892     24.171563   0.000000   0.000000
   17       23.757599     24.344860   0.000000   0.000000
   18       24.347626     24.870627   0.000000   0.000000
   19       25.984555     26.450392   0.000000   0.000000
   20       26.637923     27.083314   0.000000   0.000000
 
  0.9523810E-01  0.9523810E-01  0.0000000E+00  0.1295756E-02
    1       -2.223420     -2.056400   1.000000   1.000000
    2        1.143656      2.957621   1.000000   1.000000
    3        1.157206      2.970998   1.000000   1.000000
    4        3.442874      5.322055   1.000000   1.000635
    5        3.531345      5.416994   1.000000   1.004690
    6        3.744322      5.661690   1.000000   1.016521
    7        4.665248      7.378279   1.000000  -0.000000
    8        4.766103      7.513750   1.000000  -0.000000
    9        5.544073      7.615935   1.026758  -0.000000
   10        5.659113      7.737073   1.018390  -0.000000
   11        5.994440      8.170295   0.029458  -0.000000
   12       14.599803     15.133705   0.000000   0.000000
   13       15.152940     15.653387   0.000000   0.000000
   14       16.492159     16.847554   0.000000   0.000000
   15       22.030138     22.978460   0.000000   0.000000
   16       23.071829     23.865042   0.000000   0.000000
   17       27.836657     28.751111   0.000000   0.000000
   18       28.689544     28.887806   0.000000   0.000000
   19       30.291406     30.159139   0.000000   0.000000
   20       30.647436     30.523485   0.000000   0.000000
 
  0.1428571E+00  0.9523810E-01  0.0000000E+00  0.2591513E-02
    1       -1.995763     -1.826303   1.000000   1.000000
    2        1.232785      3.033907   1.000000   1.000000
    3        1.259279      3.078728   1.000000   1.000000
    4        3.400315      5.269199   1.000000   1.000167
    5        3.520465      5.398053   1.000000   1.003287
    6        3.850087      5.776862   1.000000   0.781094
    7        4.597381      7.284616   1.000000  -0.000000
    8        4.792830      7.358752   1.000000  -0.000000
    9        5.330512      7.518287   1.000776  -0.000000
   10        5.484802      7.545973   1.013816  -0.000000
   11        5.984643      8.158179   0.046206  -0.000000
   12       13.636307     14.296142   0.000000   0.000000
   13       15.348196     15.912433   0.000000   0.000000
   14       16.894104     17.288890   0.000000   0.000000
   15       22.183947     23.098186   0.000000   0.000000
   16       23.759571     24.471652   0.000000   0.000000
   17       27.707750     27.871405   0.000000   0.000000
   18       28.606357     29.622930   0.000000   0.000000
   19       29.868904     29.820186   0.000000   0.000000
   20       30.436509     30.401235   0.000000   0.000000
 
  0.1904762E+00  0.9523810E-01  0.0000000E+00  0.2591513E-02
    1       -1.684688     -1.510219   1.000000   1.000000
    2        1.349483      3.110753   1.000000   1.000000
    3        1.392862      3.233127   1.000000   1.000000
    4        3.371379      5.229313   1.000000   1.000055
    5        3.509337      5.377443   1.000000   1.002177
    6        3.970185      5.907682   1.000000   0.259663
    7        4.486770      7.075705   1.000000  -0.000000
    8        4.847591      7.132271   1.000000  -0.000000
    9        5.092243      7.261212   1.000001  -0.000000
   10        5.271983      7.611039   1.000180  -0.000000
   11        5.935499      8.100518   0.166275  -0.000000
   12       12.435136     13.236092   0.000000   0.000000
   13       15.823975     16.442055   0.000000   0.000000
   14       17.432157     17.871288   0.000000   0.000000
   15       22.326137     23.204768   0.000000   0.000000
   16       24.346038     25.002167   0.000000   0.000000
   17       26.679675     26.936248   0.000000   0.000000
   18       29.243342     29.307680   0.000000   0.000000
   19       29.770250     30.057257   0.000000   0.000000
   20       29.931196     30.730758   0.000000   0.000000
 
  0.2380952E+00  0.9523810E-01  0.0000000E+00  0.2591513E-02
    1       -1.298916     -1.114727   1.000000   1.000000
    2        1.479560      3.167989   1.000000   1.000000
    3        1.553958      3.426374   1.000000   1.000000
    4        3.358277      5.205105   1.000000   1.000027
    5        3.498239      5.358702   1.000000   1.001464
    6        4.104283      6.054081   1.000000  -0.027982