       N       E                     dE             d eps       ncg     rms          rms(c)
DAV:   1     0.751451295233E+02    0.75145E+02   -0.71848E+03 25080   0.100E+03
DAV:   2    -0.124236988090E+02   -0.87569E+02   -0.77771E+02 23124   0.186E+02
DAV:   3    -0.159198141873E+02   -0.34961E+01   -0.34137E+01 25968   0.471E+01
DAV:   4    -0.159476619347E+02   -0.27848E-01   -0.27838E-01 24784   0.398E+00
DAV:   5    -0.159479765695E+02   -0.31463E-03   -0.31463E-03 25760   0.397E-01    0.205E+01
DAV:   6    -0.165552265622E+02   -0.60725E+00   -0.48645E+00 25336   0.436E+01    0.559E+00
DAV:   7    -0.165144233045E+02    0.40803E-01   -0.32279E-01 27184   0.823E+00    0.404E+00
DAV:   8    -0.164965314210E+02    0.17892E-01   -0.82317E-03 28420   0.909E-01    0.160E+00
DAV:   9    -0.164851765541E+02    0.11355E-01   -0.23025E-03 35860   0.772E-01    0.365E-01
DAV:  10    -0.164848926235E+02    0.28393E-03   -0.11577E-03 27396   0.560E-01    0.621E-02
DAV:  11    -0.164849044408E+02   -0.11817E-04   -0.45671E-05 27508   0.575E-02    0.417E-02
DAV:  12    -0.164849010571E+02    0.33837E-05   -0.43567E-06 24748   0.154E-02    0.179E-02
DAV:  13    -0.164849006897E+02    0.36737E-06   -0.14714E-06 21376   0.100E-02
   1 F= -.16484901E+02 E0= -.16484620E+02  d E =-.842421E-03  mag=     4.3620
