PROCAR lm decomposed
# of k-points:  286         # of bands:   20         # of ions:    2

 k-point     1 :    0.00000000 0.00000000 0.00000000     weight = 0.00010798

band     1 # energy   -2.59695302 # occ.  1.00000000
 
ion      s     py     pz     px    dxy    dyz    dz2    dxz  x2-y2    tot
    1  0.367  0.000  0.000  0.000  0.000  0.000  0.000  0.000  0.000  0.367
    2  0.367  0.000  0.000  0.000  0.000  0.000  0.000  0.000  0.000  0.367
tot    0.733  0.000  0.000  0.000  0.000  0.000  0.000  0.000  0.000  0.733
 
band     2 # energy    0.98864043 # occ.  1.00000000
 
ion      s     py     pz     px    dxy    dyz    dz2    dxz  x2-y2    tot
    1  0.000  0.000  0.000  0.000  0.000  0.000  0.145  0.000  0.294  0.439
    2  0.000  0.000  0.000  0.000  0.000  0.000  0.145  0.000  0.294  0.439
tot    0.000  0.000  0.000  0.000  0.000  0.000  0.290  0.000  0.587  0.877
 
band     3 # energy    0.98864059 # occ.  1.00000000
 
ion      s     py     pz     px    dxy    dyz    dz2    dxz  x2-y2    tot
    1  0.000  0.000  0.000  0.000  0.000  0.000  0.294  0.000  0.145  0.439
    2  0.000  0.000  0.000  0.000  0.000  0.000  0.294  0.000  0.145  0.439
tot    0.000  0.000  0.000  0.000  0.000  0.000  0.587  0.000  0.290  0.877
 
band     4 # energy    3.54374807 # occ.  1.00000000
 
ion      s     py     pz     px    dxy    dyz    dz2    dxz  x2-y2    tot
    1  0.000  0.000  0.000  0.000  0.489  0.000  0.000  0.000  0.000  0.489
    2  0.000  0.000  0.000  0.000  0.489  0.000  0.000  0.000  0.000  0.489
tot    0.000  0.000  0.000  0.000  0.979  0.000  0.000  0.000  0.000  0.979
 
band     5 # energy    3.54374896 # occ.  1.00000000
 
ion      s     py     pz     px    dxy    dyz    dz2    dxz  x2-y2    tot
    1  0.000  0.000  0.000  0.000  0.000  0.005  0.000  0.485  0.000  0.489
    2  0.000  0.000  0.000  0.000  0.000  0.005  0.000  0.485  0.000  0.489
tot    0.000  0.000  0.000  0.000  0.000  0.009  0.000  0.970  0.000  0.979
 
band     6 # energy    3.54374898 # occ.  1.00000000
 
ion      s     py     pz     px    dxy    dyz    dz2    dxz  x2-y2    tot
    1  0.000  0.000  0.000  0.000  0.000  0.485  0.000  0.005  0.000  0.489
    2  0.000  0.000  0.000  0.000  0.000  0.485  0.000  0.005  0.000  0.489
tot    0.000  0.000  0.000  0.000  0.000  0.970  0.000  0.009  0.000  0.979
 
band     7 # energy    4.75757468 # occ.  1.00000000
 
ion      s     py     pz     px    dxy    dyz    dz2    dxz  x2-y2    tot
    1  0.000  0.000  0.000  0.000  0.000  0.000  0.482  0.000  0.004  0.485
    2  0.000  0.000  0.000  0.000  0.000  0.000  0.482  0.000  0.004  0.485
tot    0.000  0.000  0.000  0.000  0.000  0.000  0.963  0.000  0.007  0.971
 
band     8 # energy    4.75757567 # occ.  1.00000000
 
ion      s     py     pz     px    dxy    dyz    dz2    dxz  x2-y2    tot
    1  0.000  0.000  0.000  0.000  0.000  0.000  0.004  0.000  0.482  0.485
    2  0.000  0.000  0.000  0.000  0.000  0.000  0.004  0.000  0.482  0.485
tot    0.000  0.000  0.000  0.000  0.000  0.000  0.007  0.000  0.963  0.971
 
band     9 # energy    5.97114806 # occ.  0.07314491
 
ion      s     py     pz     px    dxy    dyz    dz2    dxz  x2-y2    tot
    1  0.000  0.000  0.000  0.000  0.494  0.000  0.000  0.000  0.000  0.494
    2  0.000  0.000  0.000  0.000  0.494  0.000  0.000  0.000  0.000  0.494
tot    0.000  0.000  0.000  0.000  0.988  0.000  0.000  0.000  0.000  0.988
 
band    10 # energy    5.97114969 # occ.  0.07314137
 
ion      s     py     pz     px    dxy    dyz    dz2    dxz  x2-y2    tot
    1  0.000  0.000  0.000  0.000  0.000  0.002  0.000  0.492  0.000  0.494
    2  0.000  0.000  0.000  0.000  0.000  0.002  0.000  0.492  0.000  0.494
tot    0.000  0.000  0.000  0.000  0.000  0.003  0.000  0.985  0.000  0.988
 
band    11 # energy    5.97114971 # occ.  0.07314132
 
ion      s     py     pz     px    dxy    dyz    dz2    dxz  x2-y2    tot
    1  0.000  0.000  0.000  0.000  0.000  0.492  0.000  0.002  0.000  0.494
    2  0.000  0.000  0.000  0.000  0.000  0.492  0.000  0.002  0.000  0.494
tot    0.000  0.000  0.000  0.000  0.000  0.985  0.000  0.003  0.000  0.988
 
band    12 # energy   15.80372952 # occ.  0.00000000
 
ion      s     py     pz     px    dxy    dyz    dz2    dxz  x2-y2    tot
    1  0.000  0.003  0.000  0.373  0.000  0.000  0.000  0.000  0.000  0.376
    2  0.000  0.003  0.000  0.373  0.000  0.000  0.000  0.000  0.000  0.376
tot    0.000  0.005  0.000  0.746  0.000  0.000  0.000  0.000  0.000  0.752
 
band    13 # energy   15.80372962 # occ.  0.00000000
 
ion      s     py     pz     px    dxy    dyz    dz2    dxz  x2-y2    tot
    1  0.000  0.373  0.000  0.003  0.000  0.000  0.000  0.000  0.000  0.376
    2  0.000  0.373  0.000  0.003  0.000  0.000  0.000  0.000  0.000  0.376
tot    0.000  0.746  0.000  0.005  0.000  0.000  0.000  0.000  0.000  0.752
 
band    14 # energy   15.80372972 # occ.  0.00000000
 
ion      s     py     pz     px    dxy    dyz    dz2    dxz  x2-y2    tot
    1  0.000  0.000  0.376  0.000  0.000  0.000  0.000  0.000  0.000  0.376
    2  0.000  0.000  0.376  0.000  0.000  0.000  0.000  0.000  0.000  0.376
tot    0.000  0.000  0.752  0.000  0.000  0.000  0.000  0.000  0.000  0.752
 
band    15 # energy   21.52256110 # occ.  0.00000000
 
ion      s     py     pz     px    dxy    dyz    dz2    dxz  x2-y2    tot
    1  0.000  0.000  0.000  0.000  0.000  0.000  0.476  0.000  0.000  0.476
    2  0.000  0.000  0.000  0.000  0.000  0.000  0.476  0.000  0.000  0.476
tot    0.000  0.000  0.000  0.000  0.000  0.000  0.951  0.000  0.000  0.951
 
band    16 # energy   21.52256284 # occ.  0.00000000
 
ion      s     py     pz     px    dxy    dyz    dz2    dxz  x2-y2    tot
    1  0.000  0.000  0.000  0.000  0.000  0.000  0.000  0.000  0.476  0.476
    2  0.000  0.000  0.000  0.000  0.000  0.000  0.000  0.000  0.476  0.476
tot    0.000  0.000  0.000  0.000  0.000  0.000  0.000  0.000  0.951  0.951
 
band    17 # energy   26.66838314 # occ.  0.00000000
 
ion      s     py     pz     px    dxy    dyz    dz2    dxz  x2-y2    tot
    1  0.391  0.000  0.000  0.000  0.000  0.000  0.000  0.000  0.000  0.391
    2  0.391  0.000  0.000  0.000  0.000  0.000  0.000  0.000  0.000  0.391
tot    0.782  0.000  0.000  0.000  0.000  0.000  0.000  0.000  0.000  0.782
 
band    18 # energy   30.89648881 # occ.  0.00000000
 
ion      s     py     pz     px    dxy    dyz    dz2    dxz  x2-y2    tot
    1  0.000  0.000  0.000  0.000  0.000  0.000  0.000  0.000  0.000  0.000
    2  0.000  0.000  0.000  0.000  0.000  0.000  0.000  0.000  0.000  0.000
tot    0.000  0.000  0.000  0.000  0.000  0.000  0.000  0.000  0.000  0.000
 
band    19 # energy   30.89648882 # occ.  0.00000000
 
ion      s     py     pz     px    dxy    dyz    dz2    dxz  x2-y2    tot
    1  0.000  0.000  0.000  0.000  0.000  0.000  0.000  0.000  0.000  0.000
    2  0.000  0.000  0.000  0.000  0.000  0.000  0.000  0.000  0.000  0.000
tot    0.000  0.000  0.000  0.000  0.000  0.000  0.000  0.000  0.000  0.000
 
band    20 # energy   30.89648882 # occ.  0.00000000
 
ion      s     py     pz     px    dxy    dyz    dz2    dxz  x2-y2    tot
    1  0.000  0.000  0.000  0.000  0.000  0.000  0.000  0.000  0.000  0.000
    2  0.000  0.000  0.000  0.000  0.000  0.000  0.000  0.000  0.000  0.000
tot    0.000  0.000  0.000  0.000  0.000  0.000  0.000  0.000  0.000  0.000
 

 k-point     2 :    0.04761905 0.00000000 0.00000000     weight = 0.00064788

band     1 # energy   -2.54967272 # occ.  1.00000000
 
ion      s     py     pz     px    dxy    dyz    dz2    dxz  x2-y2    tot
    1  0.365  0.000  0.000  0.002  0.000  0.000  0.000  0.000  0.000  0.367
    2  0.365  0.000  0.000  0.002  0.000  0.000  0.000  0.000  0.000  0.367
tot    0.730  0.000  0.000  0.003  0.000  0.000  0.000  0.000  0.000  0.734
 
band     2 # energy    1.00883285 # occ.  1.00000000
 
ion      s     py     pz     px    dxy    dyz    dz2    dxz  x2-y2    tot
    1  0.000  0.000  0.000  0.000  0.000  0.000  0.329  0.000  0.110  0.439
    2  0.000  0.000  0.000  0.000  0.000  0.000  0.329  0.000  0.110  0.439
tot    0.000  0.000  0.000  0.000  0.000  0.000  0.658  0.000  0.219  0.877
 
band     3 # energy    1.00983682 # occ.  1.00000000
 
ion      s     py     pz     px    dxy    dyz    dz2    dxz  x2-y2    tot
    1  0.000  0.000  0.000  0.001  0.000  0.000  0.109  0.000  0.328  0.438
    2  0.000  0.000  0.000  0.001  0.000  0.000  0.109  0.000  0.328  0.438
tot    0.000  0.000  0.000  0.003  0.000  0.000  0.219  0.000  0.656  0.877
 
band     4 # energy    3.54315327 # occ.  1.00000000
 
ion      s     py     pz     px    dxy    dyz    dz2    dxz  x2-y2    tot
    1  0.000  0.000  0.000  0.000  0.489  0.000  0.000  0.000  0.000  0.489
    2  0.000  0.000  0.000  0.000  0.489  0.000  0.000  0.000  0.000  0.489
tot    0.000  0.000  0.000  0.000  0.978  0.000  0.000  0.000  0.000  0.979
 
band     5 # energy    3.54315416 # occ.  1.00000000
 
ion      s     py     pz     px    dxy    dyz    dz2    dxz  x2-y2    tot
    1  0.000  0.000  0.000  0.000  0.000  0.000  0.000  0.489  0.000  0.489
    2  0.000  0.000  0.000  0.000  0.000  0.000  0.000  0.489  0.000  0.489
tot    0.000  0.000  0.000  0.000  0.000  0.000  0.000  0.978  0.000  0.979
 
band     6 # energy    3.55657894 # occ.  1.00000000
 
ion      s     py     pz     px    dxy    dyz    dz2    dxz  x2-y2    tot
    1  0.000  0.000  0.000  0.000  0.000  0.489  0.000  0.000  0.000  0.489
    2  0.000  0.000  0.000  0.000  0.000  0.489  0.000  0.000  0.000  0.489
tot    0.000  0.000  0.000  0.000  0.000  0.979  0.000  0.000  0.000  0.979
 
band     7 # energy    4.73635681 # occ.  1.00000000
 
ion      s     py     pz     px    dxy    dyz    dz2    dxz  x2-y2    tot
    1  0.000  0.000  0.000  0.000  0.000  0.000  0.364  0.000  0.121  0.485
    2  0.000  0.000  0.000  0.000  0.000  0.000  0.364  0.000  0.121  0.485
tot    0.000  0.000  0.000  0.000  0.000  0.000  0.727  0.000  0.242  0.970
 
band     8 # energy    4.76586537 # occ.  1.00000000
 
ion      s     py     pz     px    dxy    dyz    dz2    dxz  x2-y2    tot
    1  0.000  0.000  0.000  0.000  0.000  0.000  0.121  0.000  0.364  0.485
    2  0.000  0.000  0.000  0.000  0.000  0.000  0.121  0.000  0.364  0.485
tot    0.000  0.000  0.000  0.000  0.000  0.000  0.243  0.000  0.728  0.971
 
band     9 # energy    5.93067286 # occ.  0.18126312
 
ion      s     py     pz     px    dxy    dyz    dz2    dxz  x2-y2    tot
    1  0.000  0.001  0.000  0.000  0.492  0.000  0.000  0.000  0.000  0.493
    2  0.000  0.001  0.000  0.000  0.492  0.000  0.000  0.000  0.000  0.493
tot    0.000  0.002  0.000  0.000  0.984  0.000  0.000  0.000  0.000  0.987
 
band    10 # energy    5.93067448 # occ.  0.18125800
 
ion      s     py     pz     px    dxy    dyz    dz2    dxz  x2-y2    tot
    1  0.000  0.000  0.001  0.000  0.000  0.000  0.000  0.492  0.000  0.493
    2  0.000  0.000  0.001  0.000  0.000  0.000  0.000  0.492  0.000  0.493
tot    0.000  0.000  0.002  0.000  0.000  0.000  0.000  0.984  0.000  0.987
 
band    11 # energy    5.95701832 # occ.  0.10626200
 
ion      s     py     pz     px    dxy    dyz    dz2    dxz  x2-y2    tot
    1  0.000  0.000  0.000  0.000  0.000  0.494  0.000  0.000  0.000  0.494
    2  0.000  0.000  0.000  0.000  0.000  0.494  0.000  0.000  0.000  0.494
tot    0.000  0.000  0.000  0.000  0.000  0.988  0.000  0.000  0.000  0.988
 
band    12 # energy   15.44327000 # occ.  0.00000000
 
ion      s     py     pz     px    dxy    dyz    dz2    dxz  x2-y2    tot
    1  0.009  0.000  0.000  0.355  0.000  0.000  0.004  0.000  0.013  0.382
    2  0.009  0.000  0.000  0.355  0.000  0.000  0.004  0.000  0.013  0.382
tot    0.018  0.000  0.000  0.710  0.000  0.000  0.009  0.000  0.026  0.763
 
band    13 # energy   15.89378941 # occ.  0.00000000
 
ion      s     py     pz     px    dxy    dyz    dz2    dxz  x2-y2    tot
    1  0.000  0.374  0.000  0.000  0.004  0.000  0.000  0.000  0.000  0.377
    2  0.000  0.374  0.000  0.000  0.004  0.000  0.000  0.000  0.000  0.377
tot    0.000  0.747  0.000  0.000  0.007  0.000  0.000  0.000  0.000  0.755
 
band    14 # energy   15.89378953 # occ.  0.00000000
 
ion      s     py     pz     px    dxy    dyz    dz2    dxz  x2-y2    tot
    1  0.000  0.000  0.374  0.000  0.000  0.000  0.000  0.004  0.000  0.377
    2  0.000  0.000  0.374  0.000  0.000  0.000  0.000  0.004  0.000  0.377
tot    0.000  0.000  0.747  0.000  0.000  0.000  0.000  0.007  0.000  0.755
 
band    15 # energy   21.53610294 # occ.  0.00000000
 
ion      s     py     pz     px    dxy    dyz    dz2    dxz  x2-y2    tot
    1  0.000  0.000  0.000  0.000  0.000  0.000  0.356  0.000  0.119  0.475
    2  0.000  0.000  0.000  0.000  0.000  0.000  0.356  0.000  0.119  0.475
tot    0.000  0.000  0.000  0.000  0.000  0.000  0.712  0.000  0.237  0.949
 
band    16 # energy   21.80205571 # occ.  0.00000000
 
ion      s     py     pz     px    dxy    dyz    dz2    dxz  x2-y2    tot
    1  0.001  0.000  0.000  0.010  0.000  0.000  0.114  0.000  0.342  0.468
    2  0.001  0.000  0.000  0.010  0.000  0.000  0.114  0.000  0.342  0.468
tot    0.003  0.000  0.000  0.019  0.000  0.000  0.228  0.000  0.685  0.935
 
band    17 # energy   26.81838353 # occ.  0.00000000
 
ion      s     py     pz     px    dxy    dyz    dz2    dxz  x2-y2    tot
    1  0.380  0.000  0.000  0.010  0.000  0.000  0.000  0.000  0.000  0.391
    2  0.380  0.000  0.000  0.010  0.000  0.000  0.000  0.000  0.000  0.391
tot    0.760  0.000  0.000  0.021  0.000  0.000  0.000  0.000  0.001  0.782
 
band    18 # energy   30.54991710 # occ.  0.00000000
 
ion      s     py     pz     px    dxy    dyz    dz2    dxz  x2-y2    tot
    1  0.000  0.000  0.000  0.000  0.000  0.000  0.027  0.000  0.009  0.036
    2  0.000  0.000  0.000  0.000  0.000  0.000  0.027  0.000  0.009  0.036
tot    0.000  0.000  0.000  0.000  0.000  0.000  0.055  0.000  0.018  0.073
 
band    19 # energy   30.85796993 # occ.  0.00000000
 
ion      s     py     pz     px    dxy    dyz    dz2    dxz  x2-y2    tot
    1  0.000  0.000  0.000  0.000  0.019  0.000  0.000  0.000  0.000  0.019
    2  0.000  0.000  0.000  0.000  0.019  0.000  0.000  0.000  0.000  0.019
tot    0.000  0.001  0.000  0.000  0.037  0.000  0.000  0.000  0.000  0.038
 
band    20 # energy   30.85796997 # occ.  0.00000000
 
ion      s     py     pz     px    dxy    dyz    dz2    dxz  x2-y2    tot
    1  0.000  0.000  0.000  0.000  0.000  0.000  0.000  0.019  0.000  0.019
    2  0.000  0.000  0.000  0.000  0.000  0.000  0.000  0.019  0.000  0.019
tot    0.000  0.000  0.001  0.000  0.000  0.000  0.000  0.037  0.000  0.038
 

 k-point     3 :    0.09523810 0.00000000 0.00000000     weight = 0.00064788

band     1 # energy   -2.40868761 # occ.  1.00000000
 
ion      s     py     pz     px    dxy    dyz    dz2    dxz  x2-y2    tot
    1  0.360  0.000  0.000  0.007  0.000  0.000  0.000  0.000  0.000  0.367
    2  0.360  0.000  0.000  0.007  0.000  0.000  0.000  0.000  0.000  0.367
tot    0.720  0.000  0.000  0.013  0.000  0.000  0.000  0.000  0.000  0.734
 
band     2 # energy    1.06905186 # occ.  1.00000000
 
ion      s     py     pz     px    dxy    dyz    dz2    dxz  x2-y2    tot
    1  0.000  0.000  0.000  0.000  0.000  0.000  0.329  0.000  0.110  0.439
    2  0.000  0.000  0.000  0.000  0.000  0.000  0.329  0.000  0.110  0.439
tot    0.000  0.000  0.000  0.000  0.000  0.000  0.658  0.000  0.219  0.878
 
band     3 # energy    1.07148833 # occ.  1.00000000
 
ion      s     py     pz     px    dxy    dyz    dz2    dxz  x2-y2    tot
    1  0.000  0.000  0.000  0.005  0.000  0.000  0.108  0.000  0.325  0.438
    2  0.000  0.000  0.000  0.005  0.000  0.000  0.108  0.000  0.325  0.438
tot    0.000  0.000  0.000  0.010  0.000  0.000  0.217  0.000  0.650  0.876
 
band     4 # energy    3.54250265 # occ.  1.00000000
 
ion      s     py     pz     px    dxy    dyz    dz2    dxz  x2-y2    tot
    1  0.000  0.001  0.000  0.000  0.488  0.000  0.000  0.000  0.000  0.489
    2  0.000  0.001  0.000  0.000  0.488  0.000  0.000  0.000  0.000  0.489
tot    0.000  0.001  0.000  0.000  0.976  0.000  0.000  0.000  0.000  0.977
 
band     5 # energy    3.54250354 # occ.  1.00000000
 
ion      s     py     pz     px    dxy    dyz    dz2    dxz  x2-y2    tot
    1  0.000  0.000  0.001  0.000  0.000  0.000  0.000  0.488  0.000  0.489
    2  0.000  0.000  0.001  0.000  0.000  0.000  0.000  0.488  0.000  0.489
tot    0.000  0.000  0.001  0.000  0.000  0.000  0.000  0.976  0.000  0.977
 
band     6 # energy    3.59520942 # occ.  1.00000000
 
ion      s     py     pz     px    dxy    dyz    dz2    dxz  x2-y2    tot
    1  0.000  0.000  0.000  0.000  0.000  0.489  0.000  0.000  0.000  0.489
    2  0.000  0.000  0.000  0.000  0.000  0.489  0.000  0.000  0.000  0.489
tot    0.000  0.000  0.000  0.000  0.000  0.978  0.000  0.000  0.000  0.978
 
band     7 # energy    4.67337566 # occ.  1.00000000
 
ion      s     py     pz     px    dxy    dyz    dz2    dxz  x2-y2    tot
    1  0.000  0.000  0.000  0.000  0.000  0.000  0.363  0.000  0.121  0.484
    2  0.000  0.000  0.000  0.000  0.000  0.000  0.363  0.000  0.121  0.484
tot    0.000  0.000  0.000  0.000  0.000  0.000  0.725  0.000  0.242  0.967
 
band     8 # energy    4.79069084 # occ.  1.00000000
 
ion      s     py     pz     px    dxy    dyz    dz2    dxz  x2-y2    tot
    1  0.000  0.000  0.000  0.000  0.000  0.000  0.121  0.000  0.364  0.486
    2  0.000  0.000  0.000  0.000  0.000  0.000  0.121  0.000  0.364  0.486
tot    0.000  0.000  0.000  0.000  0.000  0.000  0.243  0.000  0.729  0.972
 
band     9 # energy    5.81469512 # occ.  0.63896282
 
ion      s     py     pz     px    dxy    dyz    dz2    dxz  x2-y2    tot
    1  0.000  0.004  0.000  0.000  0.487  0.000  0.000  0.000  0.000  0.492
    2  0.000  0.004  0.000  0.000  0.487  0.000  0.000  0.000  0.000  0.492
tot    0.000  0.008  0.000  0.000  0.975  0.000  0.000  0.000  0.000  0.983
 
band    10 # energy    5.81469669 # occ.  0.63895648
 
ion      s     py     pz     px    dxy    dyz    dz2    dxz  x2-y2    tot
    1  0.000  0.000  0.004  0.000  0.000  0.000  0.000  0.487  0.000  0.492
    2  0.000  0.000  0.004  0.000  0.000  0.000  0.000  0.487  0.000  0.492
tot    0.000  0.000  0.008  0.000  0.000  0.000  0.000  0.975  0.000  0.983
 
band    11 # energy    5.91500803 # occ.  0.23349466
 
ion      s     py     pz     px    dxy    dyz    dz2    dxz  x2-y2    tot
    1  0.000  0.000  0.000  0.000  0.000  0.494  0.000  0.000  0.000  0.494
    2  0.000  0.000  0.000  0.000  0.000  0.494  0.000  0.000  0.000  0.494
tot    0.000  0.000  0.000  0.000  0.000  0.987  0.000  0.000  0.000  0.987
 
band    12 # energy   14.55450676 # occ.  0.00000000
 
ion      s     py     pz     px    dxy    dyz    dz2    dxz  x2-y2    tot
    1  0.028  0.000  0.000  0.316  0.000  0.000  0.012  0.000  0.035  0.392
    2  0.028  0.000  0.000  0.316  0.000  0.000  0.012  0.000  0.035  0.392
tot    0.057  0.000  0.000  0.632  0.000  0.000  0.024  0.000  0.071  0.783
 
band    13 # energy   16.15833746 # occ.  0.00000000
 
ion      s     py     pz     px    dxy    dyz    dz2    dxz  x2-y2    tot
    1  0.000  0.368  0.000  0.000  0.014  0.000  0.000  0.000  0.000  0.382
    2  0.000  0.368  0.000  0.000  0.014  0.000  0.000  0.000  0.000  0.382
tot    0.000  0.735  0.000  0.000  0.028  0.000  0.000  0.000  0.000  0.763
 
band    14 # energy   16.15833763 # occ.  0.00000000
 
ion      s     py     pz     px    dxy    dyz    dz2    dxz  x2-y2    tot
    1  0.000  0.000  0.368  0.000  0.000  0.000  0.000  0.014  0.000  0.382
    2  0.000  0.000  0.368  0.000  0.000  0.000  0.000  0.014  0.000  0.382
tot    0.000  0.000  0.735  0.000  0.000  0.000  0.000  0.028  0.000  0.763
 
band    15 # energy   21.57714291 # occ.  0.00000000
 
ion      s     py     pz     px    dxy    dyz    dz2    dxz  x2-y2    tot
    1  0.000  0.000  0.000  0.000  0.000  0.000  0.354  0.000  0.118  0.472
    2  0.000  0.000  0.000  0.000  0.000  0.000  0.354  0.000  0.118  0.472
tot    0.000  0.000  0.000  0.000  0.000  0.000  0.707  0.000  0.236  0.943
 
band    16 # energy   22.41487434 # occ.  0.00000000
 
ion      s     py     pz     px    dxy    dyz    dz2    dxz  x2-y2    tot
    1  0.017  0.000  0.000  0.016  0.000  0.000  0.104  0.000  0.312  0.449
    2  0.017  0.000  0.000  0.016  0.000  0.000  0.104  0.000  0.312  0.449
tot    0.034  0.000  0.000  0.033  0.000  0.000  0.208  0.000  0.623  0.898
 
band    17 # energy   27.30382433 # occ.  0.00000000
 
ion      s     py     pz     px    dxy    dyz    dz2    dxz  x2-y2    tot
    1  0.344  0.000  0.000  0.040  0.000  0.000  0.002  0.000  0.007  0.393
    2  0.344  0.000  0.000  0.040  0.000  0.000  0.002  0.000  0.007  0.393
tot    0.688  0.000  0.000  0.080  0.000  0.000  0.005  0.000  0.014  0.787
 
band    18 # energy   29.74999150 # occ.  0.00000000
 
ion      s     py     pz     px    dxy    dyz    dz2    dxz  x2-y2    tot
    1  0.000  0.000  0.000  0.000  0.000  0.000  0.074  0.000  0.025  0.098
    2  0.000  0.000  0.000  0.000  0.000  0.000  0.074  0.000  0.025  0.098
tot    0.000  0.000  0.000  0.000  0.000  0.000  0.147  0.000  0.049  0.196
 
band    19 # energy   30.70987018 # occ.  0.00000000
 
ion      s     py     pz     px    dxy    dyz    dz2    dxz  x2-y2    tot
    1  0.000  0.004  0.000  0.000  0.075  0.000  0.000  0.000  0.000  0.079
    2  0.000  0.004  0.000  0.000  0.075  0.000  0.000  0.000  0.000  0.079
tot    0.000  0.008  0.000  0.000  0.150  0.000  0.000  0.000  0.000  0.158
 
band    20 # energy   30.70987033 # occ.  0.00000000
 
ion      s     py     pz     px    dxy    dyz    dz2    dxz  x2-y2    tot
    1  0.000  0.000  0.004  0.000  0.000  0.000  0.000  0.075  0.000  0.079
    2  0.000  0.000  0.004  0.000  0.000  0.000  0.000  0.075  0.000  0.079
tot    0.000  0.000  0.008  0.000  0.000  0.000  0.000  0.150  0.000  0.158
 

 k-point     4 :    0.14285714 0.00000000 0.00000000     weight = 0.00064788

band     1 # energy   -2.17693247 # occ.  1.00000000
 
ion      s     py     pz     px    dxy    dyz    dz2    dxz  x2-y2    tot
    1  0.352  0.000  0.000  0.015  0.000  0.000  0.000  0.000  0.000  0.367
    2  0.352  0.000  0.000  0.015  0.000  0.000  0.000  0.000  0.000  0.367
tot    0.703  0.000  0.000  0.030  0.000  0.000  0.000  0.000  0.001  0.734
 
band     2 # energy    1.16757565 # occ.  1.00000000
 
ion      s     py     pz     px    dxy    dyz    dz2    dxz  x2-y2    tot
    1  0.001  0.000  0.000  0.011  0.000  0.000  0.106  0.000  0.319  0.438
    2  0.001  0.000  0.000  0.011  0.000  0.000  0.106  0.000  0.319  0.438
tot    0.001  0.000  0.000  0.022  0.000  0.000  0.213  0.000  0.639  0.875
 
band     3 # energy    1.16819850 # occ.  1.00000000
 
ion      s     py     pz     px    dxy    dyz    dz2    dxz  x2-y2    tot
    1  0.000  0.000  0.000  0.000  0.000  0.000  0.330  0.000  0.110  0.439
    2  0.000  0.000  0.000  0.000  0.000  0.000  0.330  0.000  0.110  0.439
tot    0.000  0.000  0.000  0.000  0.000  0.000  0.659  0.000  0.220  0.879
 
band     4 # energy    3.54365107 # occ.  1.00000000
 
ion      s     py     pz     px    dxy    dyz    dz2    dxz  x2-y2    tot
    1  0.000  0.001  0.000  0.000  0.486  0.000  0.000  0.000  0.000  0.488
    2  0.000  0.001  0.000  0.000  0.486  0.000  0.000  0.000  0.000  0.488
tot    0.000  0.003  0.000  0.000  0.973  0.000  0.000  0.000  0.000  0.976
 
band     5 # energy    3.54365195 # occ.  1.00000000
 
ion      s     py     pz     px    dxy    dyz    dz2    dxz  x2-y2    tot
    1  0.000  0.000  0.001  0.000  0.000  0.000  0.000  0.486  0.000  0.488
    2  0.000  0.000  0.001  0.000  0.000  0.000  0.000  0.486  0.000  0.488
tot    0.000  0.000  0.003  0.000  0.000  0.000  0.000  0.973  0.000  0.976
 
band     6 # energy    3.65878084 # occ.  1.00000000
 
ion      s     py     pz     px    dxy    dyz    dz2    dxz  x2-y2    tot
    1  0.000  0.000  0.000  0.000  0.000  0.489  0.000  0.000  0.000  0.489
    2  0.000  0.000  0.000  0.000  0.000  0.489  0.000  0.000  0.000  0.489
tot    0.000  0.000  0.000  0.000  0.000  0.978  0.000  0.000  0.000  0.978
 
band     7 # energy    4.56975736 # occ.  1.00000000
 
ion      s     py     pz     px    dxy    dyz    dz2    dxz  x2-y2    tot
    1  0.000  0.000  0.000  0.000  0.000  0.000  0.361  0.000  0.120  0.481
    2  0.000  0.000  0.000  0.000  0.000  0.000  0.361  0.000  0.120  0.481
tot    0.000  0.000  0.000  0.000  0.000  0.000  0.722  0.000  0.241  0.963
 
band     8 # energy    4.83114143 # occ.  1.00000000
 
ion      s     py     pz     px    dxy    dyz    dz2    dxz  x2-y2    tot
    1  0.000  0.000  0.000  0.000  0.000  0.000  0.122  0.000  0.365  0.487
    2  0.000  0.000  0.000  0.000  0.000  0.000  0.122  0.000  0.365  0.487
tot    0.001  0.000  0.000  0.000  0.000  0.000  0.243  0.000  0.729  0.974
 
band     9 # energy    5.63737765 # occ.  1.02981355
 
ion      s     py     pz     px    dxy    dyz    dz2    dxz  x2-y2    tot
    1  0.000  0.008  0.000  0.000  0.481  0.000  0.000  0.000  0.000  0.489
    2  0.000  0.008  0.000  0.000  0.481  0.000  0.000  0.000  0.000  0.489
tot    0.000  0.016  0.000  0.000  0.962  0.000  0.000  0.000  0.000  0.978
 
band    10 # energy    5.63737915 # occ.  1.02981301
 
ion      s     py     pz     px    dxy    dyz    dz2    dxz  x2-y2    tot
    1  0.000  0.000  0.008  0.000  0.000  0.000  0.000  0.481  0.000  0.489
    2  0.000  0.000  0.008  0.000  0.000  0.000  0.000  0.481  0.000  0.489
tot    0.000  0.000  0.016  0.000  0.000  0.000  0.000  0.962  0.000  0.978
 
band    11 # energy    5.84615148 # occ.  0.50801194
 
ion      s     py     pz     px    dxy    dyz    dz2    dxz  x2-y2    tot
    1  0.000  0.000  0.000  0.000  0.000  0.493  0.000  0.000  0.000  0.493
    2  0.000  0.000  0.000  0.000  0.000  0.493  0.000  0.000  0.000  0.493
tot    0.000  0.000  0.000  0.000  0.000  0.986  0.000  0.000  0.000  0.986
 
band    12 # energy   13.42331439 # occ.  0.00000000
 
ion      s     py     pz     px    dxy    dyz    dz2    dxz  x2-y2    tot
    1  0.050  0.000  0.000  0.280  0.000  0.000  0.018  0.000  0.053  0.400
    2  0.050  0.000  0.000  0.280  0.000  0.000  0.018  0.000  0.053  0.400
tot    0.100  0.000  0.000  0.559  0.000  0.000  0.035  0.000  0.106  0.800
 
band    13 # energy   16.58237288 # occ.  0.00000000
 
ion      s     py     pz     px    dxy    dyz    dz2    dxz  x2-y2    tot
    1  0.000  0.359  0.000  0.000  0.029  0.000  0.000  0.000  0.000  0.388
    2  0.000  0.359  0.000  0.000  0.029  0.000  0.000  0.000  0.000  0.388
tot    0.000  0.717  0.000  0.000  0.059  0.000  0.000  0.000  0.000  0.776
 
band    14 # energy   16.58237313 # occ.  0.00000000
 
ion      s     py     pz     px    dxy    dyz    dz2    dxz  x2-y2    tot
    1  0.000  0.000  0.359  0.000  0.000  0.000  0.000  0.029  0.000  0.388
    2  0.000  0.000  0.359  0.000  0.000  0.000  0.000  0.029  0.000  0.388
tot    0.000  0.000  0.717  0.000  0.000  0.000  0.000  0.059  0.000  0.776
 
band    15 # energy   21.64691356 # occ.  0.00000000
 
ion      s     py     pz     px    dxy    dyz    dz2    dxz  x2-y2    tot
    1  0.000  0.000  0.000  0.000  0.000  0.000  0.350  0.000  0.117  0.467
    2  0.000  0.000  0.000  0.000  0.000  0.000  0.350  0.000  0.117  0.467
tot    0.000  0.000  0.000  0.000  0.000  0.000  0.700  0.000  0.233  0.933
 
band    16 # energy   23.02101902 # occ.  0.00000000
 
ion      s     py     pz     px    dxy    dyz    dz2    dxz  x2-y2    tot
    1  0.054  0.000  0.000  0.009  0.000  0.000  0.090  0.000  0.271  0.425
    2  0.054  0.000  0.000  0.009  0.000  0.000  0.090  0.000  0.271  0.425
tot    0.108  0.000  0.000  0.018  0.000  0.000  0.181  0.000  0.543  0.850
 
band    17 # energy   28.18626982 # occ.  0.00000000
 
ion      s     py     pz     px    dxy    dyz    dz2    dxz  x2-y2    tot
    1  0.283  0.000  0.000  0.080  0.000  0.000  0.009  0.000  0.028  0.399
    2  0.283  0.000  0.000  0.080  0.000  0.000  0.009  0.000  0.028  0.399
tot    0.565  0.000  0.000  0.160  0.000  0.000  0.018  0.000  0.055  0.799
 
band    18 # energy   28.80475967 # occ.  0.00000000
 
ion      s     py     pz     px    dxy    dyz    dz2    dxz  x2-y2    tot
    1  0.000  0.000  0.000  0.000  0.000  0.000  0.112  0.000  0.037  0.150
    2  0.000  0.000  0.000  0.000  0.000  0.000  0.112  0.000  0.037  0.150
tot    0.000  0.000  0.000  0.000  0.000  0.000  0.225  0.000  0.075  0.300
 
band    19 # energy   30.36926451 # occ.  0.00000000
 
ion      s     py     pz     px    dxy    dyz    dz2    dxz  x2-y2    tot
    1  0.000  0.020  0.000  0.000  0.161  0.000  0.000  0.000  0.000  0.181
    2  0.000  0.020  0.000  0.000  0.161  0.000  0.000  0.000  0.000  0.181
tot    0.000  0.040  0.000  0.000  0.321  0.000  0.000  0.000  0.000  0.362
 
band    20 # energy   30.36926486 # occ.  0.00000000
 
ion      s     py     pz     px    dxy    dyz    dz2    dxz  x2-y2    tot
    1  0.000  0.000  0.020  0.000  0.000  0.000  0.000  0.161  0.000  0.181
    2  0.000  0.000  0.020  0.000  0.000  0.000  0.000  0.161  0.000  0.181
tot    0.000  0.000  0.040  0.000  0.000  0.000  0.000  0.321  0.000  0.362
 

 k-point     5 :    0.19047619 0.00000000 0.00000000     weight = 0.00064788

band     1 # energy   -1.85966451 # occ.  1.00000000
 
ion      s     py     pz     px    dxy    dyz    dz2    dxz  x2-y2    tot
    1  0.340  0.000  0.000  0.026  0.000  0.000  0.000  0.000  0.001  0.367
    2  0.340  0.000  0.000  0.026  0.000  0.000  0.000  0.000  0.001  0.367
tot    0.679  0.000  0.000  0.052  0.000  0.000  0.001  0.000  0.003  0.735
 
band     2 # energy    1.28813170 # occ.  1.00000000
 
ion      s     py     pz     px    dxy    dyz    dz2    dxz  x2-y2    tot
    1  0.002  0.000  0.000  0.019  0.000  0.000  0.104  0.000  0.311  0.437
    2  0.002  0.000  0.000  0.019  0.000  0.000  0.104  0.000  0.311  0.437
tot    0.005  0.000  0.000  0.039  0.000  0.000  0.207  0.000  0.622  0.873
 
band     3 # energy    1.30440684 # occ.  1.00000000
 