<?xml version="1.0" encoding="ISO-8859-1"?>
<modeling>
 <generator>
  <i name="program" type="string">vasp </i>
  <i name="version" type="string">6.2.0  </i>
  <i name="subversion" type="string">18Jan21 (build Aug 12 2022 13:00:08) complex                          parallel </i>
  <i name="platform" type="string">LinuxIFC </i>
  <i name="date" type="string">2024 11 04 </i>
  <i name="time" type="string">07:43:19 </i>
 </generator>
 <incar>
  <i type="int" name="ISTART">     0</i>
  <i type="string" name="PREC">Accurate      (Accurate strictly avoids</i>
  <i type="logical" name="ADDGRID"> T  </i>
  <i type="int" name="ISPIN">     2</i>
  <i type="int" name="NELM">    90</i>
  <i type="int" name="NELMIN">     6</i>
  <i type="int" name="IBRION">    -1</i>
  <i name="EDIFF">      0.00000100</i>
  <i name="EDIFFG">     -0.00200000</i>
  <i type="int" name="NSW">     0</i>
  <i type="int" name="ISIF">     3</i>
  <i type="int" name="ISYM">     2</i>
  <i name="ENCUT">    450.00000000</i>
  <v name="MAGMOM">      5.00000000      5.00000000</v>
  <i type="logical" name="LREAL"> F  </i>
  <i type="int" name="ISMEAR">     1</i>
  <i name="SIGMA">      0.20000000</i>
  <i type="int" name="LMAXMIX">     4</i>
  <i type="logical" name="LWAVE"> T  </i>
  <i type="logical" name="LCHARG"> T  </i>
  <i type="int" name="LORBIT">    11</i>
  <i type="logical" name="LASPH"> T  </i>
  <i type="logical" name="GGA_COMPAT"> F  </i>
  <i type="int" name="VOSKOWN">     1</i>
 </incar>
 <primitive_cell>
  <structure name="primitive_cell" >
   <crystal>
    <varray name="basis" >
     <v>       1.41500639       1.41500639      -1.41500639 </v>
     <v>      -1.41500639       1.41500639       1.41500639 </v>
     <v>       1.41500639      -1.41500639       1.41500639 </v>
    </varray>
    <i name="volume">     11.33274695 </i>
    <varray name="rec_basis" >
     <v>       0.35335530       0.35335530       0.00000000 </v>
     <v>       0.00000000       0.35335530       0.35335530 </v>
     <v>       0.35335530      -0.00000000       0.35335530 </v>
    </varray>
   </crystal>
   <varray name="positions" >
    <v>       0.00000000       0.00000000       0.00000000 </v>
   </varray>
  </structure>
  <varray name="primitive_index" >
   <v type="int" >        1 </v>
  </varray>
 </primitive_cell>
 <kpoints>
  <generation param="Monkhorst-Pack">
   <v type="int" name="divisions">      21       21       21 </v>
   <v name="usershift">      0.00000000       0.00000000       0.00000000 </v>
   <v name="genvec1">      0.04761905       0.00000000       0.00000000 </v>
   <v name="genvec2">      0.00000000       0.04761905       0.00000000 </v>
   <v name="genvec3">      0.00000000       0.00000000       0.04761905 </v>
   <v name="shift">      0.00000000       0.00000000       0.00000000 </v>
  </generation>
  <varray name="kpointlist" >
   <v>       0.00000000       0.00000000       0.00000000 </v>
   <v>       0.04761905       0.00000000       0.00000000 </v>
   <v>       0.09523810       0.00000000       0.00000000 </v>
   <v>       0.14285714       0.00000000       0.00000000 </v>
   <v>       0.19047619       0.00000000       0.00000000 </v>
   <v>       0.23809524       0.00000000       0.00000000 </v>
   <v>       0.28571429       0.00000000       0.00000000 </v>
   <v>       0.33333333       0.00000000       0.00000000 </v>
   <v>       0.38095238       0.00000000       0.00000000 </v>
   <v>       0.42857143       0.00000000       0.00000000 </v>
   <v>       0.47619048       0.00000000       0.00000000 </v>
   <v>       0.04761905       0.04761905       0.00000000 </v>
   <v>       0.09523810       0.04761905       0.00000000 </v>
   <v>       0.14285714       0.04761905       0.00000000 </v>
   <v>       0.19047619       0.04761905       0.00000000 </v>
   <v>       0.23809524       0.04761905       0.00000000 </v>
   <v>       0.28571429       0.04761905       0.00000000 </v>
   <v>       0.33333333       0.04761905       0.00000000 </v>
   <v>       0.38095238       0.04761905       0.00000000 </v>
   <v>       0.42857143       0.04761905       0.00000000 </v>
   <v>       0.47619048       0.04761905       0.00000000 </v>
   <v>       0.09523810       0.09523810       0.00000000 </v>
   <v>       0.14285714       0.09523810       0.00000000 </v>
   <v>       0.19047619       0.09523810       0.00000000 </v>
   <v>       0.23809524       0.09523810       0.00000000 </v>
   <v>       0.28571429       0.09523810       0.00000000 </v>
   <v>       0.33333333       0.09523810       0.00000000 </v>
   <v>       0.38095238       0.09523810       0.00000000 </v>
   <v>       0.42857143       0.09523810       0.00000000 </v>
   <v>       0.47619048       0.09523810       0.00000000 </v>
   <v>       0.14285714       0.14285714       0.00000000 </v>
   <v>       0.19047619       0.14285714       0.00000000 </v>
   <v>       0.23809524       0.14285714       0.00000000 </v>
   <v>       0.28571429       0.14285714       0.00000000 </v>
   <v>       0.33333333       0.14285714       0.00000000 </v>
   <v>       0.38095238       0.14285714       0.00000000 </v>
   <v>       0.42857143       0.14285714       0.00000000 </v>
   <v>       0.47619048       0.14285714       0.00000000 </v>
   <v>       0.19047619       0.19047619       0.00000000 </v>
   <v>       0.23809524       0.19047619       0.00000000 </v>
   <v>       0.28571429       0.19047619       0.00000000 </v>
   <v>       0.33333333       0.19047619       0.00000000 </v>
   <v>       0.38095238       0.19047619       0.00000000 </v>
   <v>       0.42857143       0.19047619       0.00000000 </v>
   <v>       0.47619048       0.19047619       0.00000000 </v>
   <v>       0.23809524       0.23809524       0.00000000 </v>
   <v>       0.28571429       0.23809524       0.00000000 </v>
   <v>       0.33333333       0.23809524       0.00000000 </v>
   <v>       0.38095238       0.23809524       0.00000000 </v>
   <v>       0.42857143       0.23809524       0.00000000 </v>
   <v>       0.47619048       0.23809524       0.00000000 </v>
   <v>       0.28571429       0.28571429       0.00000000 </v>
   <v>       0.33333333       0.28571429       0.00000000 </v>
   <v>       0.38095238       0.28571429       0.00000000 </v>
   <v>       0.42857143       0.28571429       0.00000000 </v>
   <v>       0.47619048       0.28571429       0.00000000 </v>
   <v>       0.33333333       0.33333333       0.00000000 </v>
   <v>       0.38095238       0.33333333       0.00000000 </v>
   <v>       0.42857143       0.33333333       0.00000000 </v>
   <v>       0.47619048       0.33333333       0.00000000 </v>
   <v>       0.38095238       0.38095238       0.00000000 </v>
   <v>       0.42857143       0.38095238       0.00000000 </v>
   <v>       0.47619048       0.38095238       0.00000000 </v>
   <v>       0.42857143       0.42857143       0.00000000 </v>
   <v>       0.47619048       0.42857143       0.00000000 </v>
   <v>       0.47619048       0.47619048       0.00000000 </v>
   <v>       0.04761905       0.04761905       0.04761905 </v>
   <v>       0.09523810       0.04761905       0.04761905 </v>
   <v>       0.14285714       0.04761905       0.04761905 </v>
   <v>       0.19047619       0.04761905       0.04761905 </v>
   <v>       0.23809524       0.04761905       0.04761905 </v>
   <v>       0.28571429       0.04761905       0.04761905 </v>
   <v>       0.33333333       0.04761905       0.04761905 </v>
   <v>       0.38095238       0.04761905       0.04761905 </v>
   <v>       0.42857143       0.04761905       0.04761905 </v>
   <v>       0.47619048       0.04761905       0.04761905 </v>
   <v>       0.09523810       0.09523810       0.04761905 </v>
   <v>       0.14285714       0.09523810       0.04761905 </v>
   <v>       0.19047619       0.09523810       0.04761905 </v>
   <v>       0.23809524       0.09523810       0.04761905 </v>
   <v>       0.28571429       0.09523810       0.04761905 </v>
   <v>       0.33333333       0.09523810       0.04761905 </v>
   <v>       0.38095238       0.09523810       0.04761905 </v>
   <v>       0.42857143       0.09523810       0.04761905 </v>
   <v>       0.47619048       0.09523810       0.04761905 </v>
   <v>       0.14285714       0.14285714       0.04761905 </v>
   <v>       0.19047619       0.14285714       0.04761905 </v>
   <v>       0.23809524       0.14285714       0.04761905 </v>
   <v>       0.28571429       0.14285714       0.04761905 </v>
   <v>       0.33333333       0.14285714       0.04761905 </v>
   <v>       0.38095238       0.14285714       0.04761905 </v>
   <v>       0.42857143       0.14285714       0.04761905 </v>
   <v>       0.47619048       0.14285714       0.04761905 </v>
   <v>       0.19047619       0.19047619       0.04761905 </v>
   <v>       0.23809524       0.19047619       0.04761905 </v>
   <v>       0.28571429       0.19047619       0.04761905 </v>
   <v>       0.33333333       0.19047619       0.04761905 </v>
   <v>       0.38095238       0.19047619       0.04761905 </v>
   <v>       0.42857143       0.19047619       0.04761905 </v>
   <v>       0.47619048       0.19047619       0.04761905 </v>
   <v>       0.23809524       0.23809524       0.04761905 </v>
   <v>       0.28571429       0.23809524       0.04761905 </v>
   <v>       0.33333333       0.23809524       0.04761905 </v>
   <v>       0.38095238       0.23809524       0.04761905 </v>
   <v>       0.42857143       0.23809524       0.04761905 </v>
   <v>       0.47619048       0.23809524       0.04761905 </v>
   <v>       0.28571429       0.28571429       0.04761905 </v>
   <v>       0.33333333       0.28571429       0.04761905 </v>
   <v>       0.38095238       0.28571429       0.04761905 </v>
   <v>       0.42857143       0.28571429       0.04761905 </v>
   <v>       0.47619048       0.28571429       0.04761905 </v>
   <v>       0.33333333       0.33333333       0.04761905 </v>
   <v>       0.38095238       0.33333333       0.04761905 </v>
   <v>       0.42857143       0.33333333       0.04761905 </v>
   <v>       0.47619048       0.33333333       0.04761905 </v>
   <v>       0.38095238       0.38095238       0.04761905 </v>
   <v>       0.42857143       0.38095238       0.04761905 </v>
   <v>       0.47619048       0.38095238       0.04761905 </v>
   <v>       0.42857143       0.42857143       0.04761905 </v>
   <v>       0.47619048       0.42857143       0.04761905 </v>
   <v>       0.47619048       0.47619048       0.04761905 </v>
   <v>       0.09523810       0.09523810       0.09523810 </v>
   <v>       0.14285714       0.09523810       0.09523810 </v>
   <v>       0.19047619       0.09523810       0.09523810 </v>
   <v>       0.23809524       0.09523810       0.09523810 </v>
   <v>       0.28571429       0.09523810       0.09523810 </v>
   <v>       0.33333333       0.09523810       0.09523810 </v>
   <v>       0.38095238       0.09523810       0.09523810 </v>
   <v>       0.42857143       0.09523810       0.09523810 </v>
   <v>       0.47619048       0.09523810       0.09523810 </v>
   <v>       0.14285714       0.14285714       0.09523810 </v>
   <v>       0.19047619       0.14285714       0.09523810 </v>
   <v>       0.23809524       0.14285714       0.09523810 </v>
   <v>       0.28571429       0.14285714       0.09523810 </v>
   <v>       0.33333333       0.14285714       0.09523810 </v>
   <v>       0.38095238       0.14285714       0.09523810 </v>
   <v>       0.42857143       0.14285714       0.09523810 </v>
   <v>       0.47619048       0.14285714       0.09523810 </v>
   <v>       0.19047619       0.19047619       0.09523810 </v>
   <v>       0.23809524       0.19047619       0.09523810 </v>
   <v>       0.28571429       0.19047619       0.09523810 </v>
   <v>       0.33333333       0.19047619       0.09523810 </v>
   <v>       0.38095238       0.19047619       0.09523810 </v>
   <v>       0.42857143       0.19047619       0.09523810 </v>
   <v>       0.47619048       0.19047619       0.09523810 </v>
   <v>       0.23809524       0.23809524       0.09523810 </v>
   <v>       0.28571429       0.23809524       0.09523810 </v>
   <v>       0.33333333       0.23809524       0.09523810 </v>
   <v>       0.38095238       0.23809524       0.09523810 </v>
   <v>       0.42857143       0.23809524       0.09523810 </v>
   <v>       0.47619048       0.23809524       0.09523810 </v>
   <v>       0.28571429       0.28571429       0.09523810 </v>
   <v>       0.33333333       0.28571429       0.09523810 </v>
   <v>       0.38095238       0.28571429       0.09523810 </v>
   <v>       0.42857143       0.28571429       0.09523810 </v>
   <v>       0.47619048       0.28571429       0.09523810 </v>
   <v>       0.33333333       0.33333333       0.09523810 </v>
   <v>       0.38095238       0.33333333       0.09523810 </v>
   <v>       0.42857143       0.33333333       0.09523810 </v>
   <v>       0.47619048       0.33333333       0.09523810 </v>
   <v>       0.38095238       0.38095238       0.09523810 </v>
   <v>       0.42857143       0.38095238       0.09523810 </v>
   <v>       0.47619048       0.38095238       0.09523810 </v>
   <v>       0.42857143       0.42857143       0.09523810 </v>
   <v>       0.47619048       0.42857143       0.09523810 </v>
   <v>       0.47619048       0.47619048       0.09523810 </v>
   <v>       0.14285714       0.14285714       0.14285714 </v>
   <v>       0.19047619       0.14285714       0.14285714 </v>
   <v>       0.23809524       0.14285714       0.14285714 </v>
   <v>       0.28571429       0.14285714       0.14285714 </v>
   <v>       0.33333333       0.14285714       0.14285714 </v>
   <v>       0.38095238       0.14285714       0.14285714 </v>
   <v>       0.42857143       0.14285714       0.14285714 </v>
   <v>       0.47619048       0.14285714       0.14285714 </v>
   <v>       0.19047619       0.19047619       0.14285714 </v>
   <v>       0.23809524       0.19047619       0.14285714 </v>
   <v>       0.28571429       0.19047619       0.14285714 </v>
   <v>       0.33333333       0.19047619       0.14285714 </v>
   <v>       0.38095238       0.19047619       0.14285714 </v>
   <v>       0.42857143       0.19047619       0.14285714 </v>
   <v>       0.47619048       0.19047619       0.14285714 </v>
   <v>       0.23809524       0.23809524       0.14285714 </v>
   <v>       0.28571429       0.23809524       0.14285714 </v>
   <v>       0.33333333       0.23809524       0.14285714 </v>
   <v>       0.38095238       0.23809524       0.14285714 </v>
   <v>       0.42857143       0.23809524       0.14285714 </v>
   <v>       0.47619048       0.23809524       0.14285714 </v>
   <v>       0.28571429       0.28571429       0.14285714 </v>
   <v>       0.33333333       0.28571429       0.14285714 </v>
   <v>       0.38095238       0.28571429       0.14285714 </v>
   <v>       0.42857143       0.28571429       0.14285714 </v>
   <v>       0.47619048       0.28571429       0.14285714 </v>
   <v>       0.33333333       0.33333333       0.14285714 </v>
   <v>       0.38095238       0.33333333       0.14285714 </v>
   <v>       0.42857143       0.33333333       0.14285714 </v>
   <v>       0.47619048       0.33333333       0.14285714 </v>
   <v>       0.38095238       0.38095238       0.14285714 </v>
   <v>       0.42857143       0.38095238       0.14285714 </v>
   <v>       0.47619048       0.38095238       0.14285714 </v>
   <v>       0.42857143       0.42857143       0.14285714 </v>
   <v>       0.47619048       0.42857143       0.14285714 </v>
   <v>       0.47619048       0.47619048       0.14285714 </v>
   <v>       0.19047619       0.19047619       0.19047619 </v>
   <v>       0.23809524       0.19047619       0.19047619 </v>
   <v>       0.28571429       0.19047619       0.19047619 </v>
   <v>       0.33333333       0.19047619       0.19047619 </v>
   <v>       0.38095238       0.19047619       0.19047619 </v>
   <v>       0.42857143       0.19047619       0.19047619 </v>
   <v>       0.47619048       0.19047619       0.19047619 </v>
   <v>       0.23809524       0.23809524       0.19047619 </v>
   <v>       0.28571429       0.23809524       0.19047619 </v>
   <v>       0.33333333       0.23809524       0.19047619 </v>
   <v>       0.38095238       0.23809524       0.19047619 </v>
   <v>       0.42857143       0.23809524       0.19047619 </v>
   <v>       0.47619048       0.23809524       0.19047619 </v>
   <v>       0.28571429       0.28571429       0.19047619 </v>
   <v>       0.33333333       0.28571429       0.19047619 </v>
   <v>       0.38095238       0.28571429       0.19047619 </v>
   <v>       0.42857143       0.28571429       0.19047619 </v>
   <v>       0.47619048       0.28571429       0.19047619 </v>
   <v>       0.33333333       0.33333333       0.19047619 </v>
   <v>       0.38095238       0.33333333       0.19047619 </v>
   <v>       0.42857143       0.33333333       0.19047619 </v>
   <v>       0.47619048       0.33333333       0.19047619 </v>
   <v>       0.38095238       0.38095238       0.19047619 </v>
   <v>       0.42857143       0.38095238       0.19047619 </v>
   <v>       0.47619048       0.38095238       0.19047619 </v>
   <v>       0.42857143       0.42857143       0.19047619 </v>
   <v>       0.47619048       0.42857143       0.19047619 </v>
   <v>       0.47619048       0.47619048       0.19047619 </v>
   <v>       0.23809524       0.23809524       0.23809524 </v>
   <v>       0.28571429       0.23809524       0.23809524 </v>
   <v>       0.33333333       0.23809524       0.23809524 </v>
   <v>       0.38095238       0.23809524       0.23809524 </v>
   <v>       0.42857143       0.23809524       0.23809524 </v>
   <v>       0.47619048       0.23809524       0.23809524 </v>
   <v>       0.28571429       0.28571429       0.23809524 </v>
   <v>       0.33333333       0.28571429       0.23809524 </v>
   <v>       0.38095238       0.28571429       0.23809524 </v>
   <v>       0.42857143       0.28571429       0.23809524 </v>
   <v>       0.47619048       0.28571429       0.23809524 </v>
   <v>       0.33333333       0.33333333       0.23809524 </v>
   <v>       0.38095238       0.33333333       0.23809524 </v>
   <v>       0.42857143       0.33333333       0.23809524 </v>
   <v>       0.47619048       0.33333333       0.23809524 </v>
   <v>       0.38095238       0.38095238       0.23809524 </v>
   <v>       0.42857143       0.38095238       0.23809524 </v>
   <v>       0.47619048       0.38095238       0.23809524 </v>
   <v>       0.42857143       0.42857143       0.23809524 </v>
   <v>       0.47619048       0.42857143       0.23809524 </v>
   <v>       0.47619048       0.47619048       0.23809524 </v>
   <v>       0.28571429       0.28571429       0.28571429 </v>
   <v>       0.33333333       0.28571429       0.28571429 </v>
   <v>       0.38095238       0.28571429       0.28571429 </v>
   <v>       0.42857143       0.28571429       0.28571429 </v>
   <v>       0.47619048       0.28571429       0.28571429 </v>
   <v>       0.33333333       0.33333333       0.28571429 </v>
   <v>       0.38095238       0.33333333       0.28571429 </v>
   <v>       0.42857143       0.33333333       0.28571429 </v>
   <v>       0.47619048       0.33333333       0.28571429 </v>
   <v>       0.38095238       0.38095238       0.28571429 </v>
   <v>       0.42857143       0.38095238       0.28571429 </v>
   <v>       0.47619048       0.38095238       0.28571429 </v>
   <v>       0.42857143       0.42857143       0.28571429 </v>
   <v>       0.47619048       0.42857143       0.28571429 </v>
   <v>       0.47619048       0.47619048       0.28571429 </v>
   <v>       0.33333333       0.33333333       0.33333333 </v>
   <v>       0.38095238       0.33333333       0.33333333 </v>
   <v>       0.42857143       0.33333333       0.33333333 </v>
   <v>       0.47619048       0.33333333       0.33333333 </v>
   <v>       0.38095238       0.38095238       0.33333333 </v>
   <v>       0.42857143       0.38095238       0.33333333 </v>
   <v>       0.47619048       0.38095238       0.33333333 </v>
   <v>       0.42857143       0.42857143       0.33333333 </v>
   <v>       0.47619048       0.42857143       0.33333333 </v>
   <v>       0.47619048       0.47619048       0.33333333 </v>
   <v>       0.38095238       0.38095238       0.38095238 </v>
   <v>       0.42857143       0.38095238       0.38095238 </v>
   <v>       0.47619048       0.38095238       0.38095238 </v>
   <v>       0.42857143       0.42857143       0.38095238 </v>
   <v>       0.47619048       0.42857143       0.38095238 </v>
   <v>       0.47619048       0.47619048       0.38095238 </v>
   <v>       0.42857143       0.42857143       0.42857143 </v>
   <v>       0.47619048       0.42857143       0.42857143 </v>
   <v>       0.47619048       0.47619048       0.42857143 </v>
   <v>       0.47619048       0.47619048       0.47619048 </v>
  </varray>
  <varray name="weights" >
   <v>       0.00010798 </v>
   <v>       0.00064788 </v>
   <v>       0.00064788 </v>
   <v>       0.00064788 </v>
   <v>       0.00064788 </v>
   <v>       0.00064788 </v>
   <v>       0.00064788 </v>
   <v>       0.00064788 </v>
   <v>       0.00064788 </v>
   <v>       0.00064788 </v>
   <v>       0.00064788 </v>
   <v>       0.00129576 </v>
   <v>       0.00259151 </v>
   <v>       0.00259151 </v>
   <v>       0.00259151 </v>
   <v>       0.00259151 </v>
   <v>       0.00259151 </v>
   <v>       0.00259151 </v>
   <v>       0.00259151 </v>
   <v>       0.00259151 </v>
   <v>       0.00259151 </v>
   <v>       0.00129576 </v>
   <v>       0.00259151 </v>
   <v>       0.00259151 </v>
   <v>       0.00259151 </v>
   <v>       0.00259151 </v>
   <v>       0.00259151 </v>
   <v>       0.00259151 </v>
   <v>       0.00259151 </v>
   <v>       0.00259151 </v>
   <v>       0.00129576 </v>
   <v>       0.00259151 </v>
   <v>       0.00259151 </v>
   <v>       0.00259151 </v>
   <v>       0.00259151 </v>
   <v>       0.00259151 </v>
   <v>       0.00259151 </v>
   <v>       0.00259151 </v>
   <v>       0.00129576 </v>
   <v>       0.00259151 </v>
   <v>       0.00259151 </v>
   <v>       0.00259151 </v>
   <v>       0.00259151 </v>
   <v>       0.00259151 </v>
   <v>       0.00259151 </v>
   <v>       0.00129576 </v>
   <v>       0.00259151 </v>
   <v>       0.00259151 </v>
   <v>       0.00259151 </v>
   <v>       0.00259151 </v>
   <v>       0.00259151 </v>
   <v>       0.00129576 </v>
   <v>       0.00259151 </v>
   <v>       0.00259151 </v>
   <v>       0.00259151 </v>
   <v>       0.00259151 </v>
   <v>       0.00129576 </v>
   <v>       0.00259151 </v>
   <v>       0.00259151 </v>
   <v>       0.00259151 </v>
   <v>       0.00129576 </v>
   <v>       0.00259151 </v>
   <v>       0.00259151 </v>
   <v>       0.00129576 </v>
   <v>       0.00259151 </v>
   <v>       0.00129576 </v>
   <v>       0.00086384 </v>
   <v>       0.00259151 </v>
   <v>       0.00259151 </v>
   <v>       0.00259151 </v>
   <v>       0.00259151 </v>
   <v>       0.00259151 </v>
   <v>       0.00259151 </v>
   <v>       0.00259151 </v>
   <v>       0.00259151 </v>
   <v>       0.00259151 </v>
   <v>       0.00259151 </v>
   <v>       0.00518303 </v>
   <v>       0.00518303 </v>
   <v>       0.00518303 </v>
   <v>       0.00518303 </v>
   <v>       0.00518303 </v>
   <v>       0.00518303 </v>
   <v>       0.00518303 </v>
   <v>       0.00518303 </v>
   <v>       0.00259151 </v>
   <v>       0.00518303 </v>
   <v>       0.00518303 </v>
   <v>       0.00518303 </v>
   <v>       0.00518303 </v>
   <v>       0.00518303 </v>
   <v>       0.00518303 </v>
   <v>       0.00518303 </v>
   <v>       0.00259151 </v>
   <v>       0.00518303 </v>
   <v>       0.00518303 </v>
   <v>       0.00518303 </v>
   <v>       0.00518303 </v>
   <v>       0.00518303 </v>
   <v>       0.00518303 </v>
   <v>       0.00259151 </v>
   <v>       0.00518303 </v>
   <v>       0.00518303 </v>
   <v>       0.00518303 </v>
   <v>       0.00518303 </v>
   <v>       0.00518303 </v>
   <v>       0.00259151 </v>
   <v>       0.00518303 </v>
   <v>       0.00518303 </v>
   <v>       0.00518303 </v>
   <v>       0.00518303 </v>
   <v>       0.00259151 </v>
   <v>       0.00518303 </v>
   <v>       0.00518303 </v>
   <v>       0.00518303 </v>
   <v>       0.00259151 </v>
   <v>       0.00518303 </v>
   <v>       0.00518303 </v>
   <v>       0.00259151 </v>
   <v>       0.00518303 </v>
   <v>       0.00259151 </v>
   <v>       0.00086384 </v>
   <v>       0.00259151 </v>
   <v>       0.00259151 </v>
   <v>       0.00259151 </v>
   <v>       0.00259151 </v>
   <v>       0.00259151 </v>
   <v>       0.00259151 </v>
   <v>       0.00259151 </v>
   <v>       0.00259151 </v>
   <v>       0.00259151 </v>
   <v>       0.00518303 </v>
   <v>       0.00518303 </v>
   <v>       0.00518303 </v>
   <v>       0.00518303 </v>
   <v>       0.00518303 </v>
   <v>       0.00518303 </v>
   <v>       0.00518303 </v>
   <v>       0.00259151 </v>
   <v>       0.00518303 </v>
   <v>       0.00518303 </v>
   <v>       0.00518303 </v>
   <v>       0.00518303 </v>
   <v>       0.00518303 </v>
   <v>       0.00518303 </v>
   <v>       0.00259151 </v>
   <v>       0.00518303 </v>
   <v>       0.00518303 </v>
   <v>       0.00518303 </v>
   <v>       0.00518303 </v>
   <v>       0.00518303 </v>
   <v>       0.00259151 </v>
   <v>       0.00518303 </v>
   <v>       0.00518303 </v>
   <v>       0.00518303 </v>
   <v>       0.00518303 </v>
   <v>       0.00259151 </v>
   <v>       0.00518303 </v>
   <v>       0.00518303 </v>
   <v>       0.00518303 </v>
   <v>       0.00259151 </v>
   <v>       0.00518303 </v>
   <v>       0.00518303 </v>
   <v>       0.00259151 </v>
   <v>       0.00518303 </v>
   <v>       0.00259151 </v>
   <v>       0.00086384 </v>
   <v>       0.00259151 </v>
   <v>       0.00259151 </v>
   <v>       0.00259151 </v>
   <v>       0.00259151 </v>
   <v>       0.00259151 </v>
   <v>       0.00259151 </v>
   <v>       0.00259151 </v>
   <v>       0.00259151 </v>
   <v>       0.00518303 </v>
   <v>       0.00518303 </v>
   <v>       0.00518303 </v>
   <v>       0.00518303 </v>
   <v>       0.00518303 </v>
   <v>       0.00518303 </v>
   <v>       0.00259151 </v>
   <v>       0.00518303 </v>
   <v>       0.00518303 </v>
   <v>       0.00518303 </v>
   <v>       0.00518303 </v>
   <v>       0.00518303 </v>
   <v>       0.00259151 </v>
   <v>       0.00518303 </v>
   <v>       0.00518303 </v>
   <v>       0.00518303 </v>
   <v>       0.00518303 </v>
   <v>       0.00259151 </v>
   <v>       0.00518303 </v>
   <v>       0.00518303 </v>
   <v>       0.00518303 </v>
   <v>       0.00259151 </v>
   <v>       0.00518303 </v>
   <v>       0.00518303 </v>
   <v>       0.00259151 </v>
   <v>       0.00518303 </v>
   <v>       0.00259151 </v>
   <v>       0.00086384 </v>
   <v>       0.00259151 </v>
   <v>       0.00259151 </v>
   <v>       0.00259151 </v>
   <v>       0.00259151 </v>
   <v>       0.00259151 </v>
   <v>       0.00259151 </v>
   <v>       0.00259151 </v>
   <v>       0.00518303 </v>
   <v>       0.00518303 </v>
   <v>       0.00518303 </v>
   <v>       0.00518303 </v>
   <v>       0.00518303 </v>
   <v>       0.00259151 </v>
   <v>       0.00518303 </v>
   <v>       0.00518303 </v>
   <v>       0.00518303 </v>
   <v>       0.00518303 </v>
   <v>       0.00259151 </v>
   <v>       0.00518303 </v>
   <v>       0.00518303 </v>
   <v>       0.00518303 </v>
   <v>       0.00259151 </v>
   <v>       0.00518303 </v>
   <v>       0.00518303 </v>
   <v>       0.00259151 </v>
   <v>       0.00518303 </v>
   <v>       0.00259151 </v>
   <v>       0.00086384 </v>
   <v>       0.00259151 </v>
   <v>       0.00259151 </v>
   <v>       0.00259151 </v>
   <v>       0.00259151 </v>
   <v>       0.00259151 </v>
   <v>       0.00259151 </v>
   <v>       0.00518303 </v>
   <v>       0.00518303 </v>
   <v>       0.00518303 </v>
   <v>       0.00518303 </v>
   <v>       0.00259151 </v>
   <v>       0.00518303 </v>
   <v>       0.00518303 </v>
   <v>       0.00518303 </v>
   <v>       0.00259151 </v>
   <v>       0.00518303 </v>
   <v>       0.00518303 </v>
   <v>       0.00259151 </v>
   <v>       0.00518303 </v>
   <v>       0.00259151 </v>
   <v>       0.00086384 </v>
   <v>       0.00259151 </v>
   <v>       0.00259151 </v>
   <v>       0.00259151 </v>
   <v>       0.00259151 </v>
   <v>       0.00259151 </v>
   <v>       0.00518303 </v>
   <v>       0.00518303 </v>
   <v>       0.00518303 </v>
   <v>       0.00259151 </v>
   <v>       0.00518303 </v>
   <v>       0.00518303 </v>
   <v>       0.00259151 </v>
   <v>       0.00518303 </v>
   <v>       0.00259151 </v>
   <v>       0.00086384 </v>
   <v>       0.00259151 </v>
   <v>       0.00259151 </v>
   <v>       0.00259151 </v>
   <v>       0.00259151 </v>
   <v>       0.00518303 </v>
   <v>       0.00518303 </v>
   <v>       0.00259151 </v>
   <v>       0.00518303 </v>
   <v>       0.00259151 </v>
   <v>       0.00086384 </v>
   <v>       0.00259151 </v>
   <v>       0.00259151 </v>
   <v>       0.00259151 </v>
   <v>       0.00518303 </v>
   <v>       0.00259151 </v>
   <v>       0.00086384 </v>
   <v>       0.00259151 </v>
   <v>       0.00259151 </v>
   <v>       0.00086384 </v>
  </varray>
 </kpoints>
 <parameters>
  <separator name="general" >
   <i type="string" name="SYSTEM">unknown system</i>
   <i type="logical" name="LCOMPAT"> F  </i>
  </separator>
  <separator name="electronic" >
   <i type="string" name="PREC">accura</i>
   <i name="ENMAX">    450.00000000</i>
   <i name="ENAUG">    511.36800000</i>
   <i name="EDIFF">      0.00000100</i>
   <i type="int" name="IALGO">    38</i>
   <i type="int" name="IWAVPR">    10</i>
   <i type="int" name="NBANDS">    20</i>
   <i type="int" name="NBANDSLOW">    -1</i>
   <i type="int" name="NBANDSHIGH">    -1</i>
   <i name="NELECT">     16.00000000</i>
   <i type="int" name="TURBO">     0</i>
   <i type="int" name="IRESTART">     0</i>
   <i type="int" name="NREBOOT">     0</i>
   <i type="int" name="NMIN">     0</i>
   <i name="EREF">      0.00000000</i>
   <separator name="electronic smearing" >
    <i type="int" name="ISMEAR">     1</i>
    <i name="SIGMA">      0.20000000</i>
    <i name="KSPACING">      0.50000000</i>
    <i type="logical" name="KGAMMA"> T  </i>
    <i type="logical" name="KBLOWUP"> T  </i>
   </separator>
   <separator name="electronic projectors" >
    <i type="logical" name="LREAL"> F  </i>
    <v name="ROPT">      0.00000000</v>
    <i type="int" name="LMAXPAW">  -100</i>
    <i type="int" name="LMAXMIX">     4</i>
    <i type="logical" name="NLSPLINE"> F  </i>
   </separator>
   <separator name="electronic startup" >
    <i type="int" name="ISTART">     0</i>
    <i type="int" name="ICHARG">     2</i>
    <i type="int" name="INIWAV">     1</i>
   </separator>
   <separator name="electronic spin" >
    <i type="int" name="ISPIN">     2</i>
    <i type="logical" name="LNONCOLLINEAR"> F  </i>
    <v name="MAGMOM">      5.00000000      5.00000000</v>
    <i name="NUPDOWN">     -1.00000000</i>
    <i type="logical" name="LSORBIT"> F  </i>
    <v name="SAXIS">      0.00000000      0.00000000      1.00000000</v>
    <i type="logical" name="LSPIRAL"> F  </i>
    <v name="QSPIRAL">      0.00000000      0.00000000      0.00000000</v>
    <i type="logical" name="LZEROZ"> F  </i>
   </separator>
   <separator name="electronic exchange-correlation" >
    <i type="logical" name="LASPH"> T  </i>
    <i type="logical" name="LMETAGGA"> F  </i>
   </separator>
   <separator name="electronic convergence" >
    <i type="int" name="NELM">    90</i>
    <i type="int" name="NELMDL">    -5</i>
    <i type="int" name="NELMIN">     6</i>
    <i name="ENINI">    450.00000000</i>
    <separator name="electronic convergence detail" >
     <i type="logical" name="LDIAG"> T  </i>
     <i type="logical" name="LSUBROT"> F  </i>
     <i name="WEIMIN">      0.00000000</i>
     <i name="EBREAK">      0.00000001</i>
     <i name="DEPER">      0.30000000</i>
     <i type="int" name="NRMM">     4</i>
     <i name="TIME">      0.40000000</i>
    </separator>
   </separator>
   <separator name="electronic mixer" >
    <i name="AMIX">      0.40000000</i>
    <i name="BMIX">      1.00000000</i>
    <i name="AMIN">      0.10000000</i>
    <i name="AMIX_MAG">      1.60000000</i>
    <i name="BMIX_MAG">      1.00000000</i>
    <separator name="electronic mixer details" >
     <i type="int" name="IMIX">     4</i>
     <i type="logical" name="MIXFIRST"> F  </i>
     <i type="int" name="MAXMIX">   -45</i>
     <i name="WC">    100.00000000</i>
     <i type="int" name="INIMIX">     1</i>
     <i type="int" name="MIXPRE">     1</i>
     <i type="int" name="MREMOVE">     5</i>
    </separator>
   </separator>
   <separator name="electronic dipolcorrection" >
    <i type="logical" name="LDIPOL"> F  </i>
    <i type="logical" name="LMONO"> F  </i>
    <i type="int" name="IDIPOL">     0</i>
    <i name="EPSILON">      1.00000000</i>
    <v name="DIPOL">   -100.00000000   -100.00000000   -100.00000000</v>
    <i name="EFIELD">      0.00000000</i>
   </separator>
  </separator>
  <separator name="grids" >
   <i type="int" name="NGX">    20</i>
   <i type="int" name="NGY">    20</i>
   <i type="int" name="NGZ">    20</i>
   <i type="int" name="NGXF">    40</i>
   <i type="int" name="NGYF">    40</i>
   <i type="int" name="NGZF">    40</i>
   <i type="logical" name="ADDGRID"> T  </i>
  </separator>
  <separator name="ionic" >
   <i type="int" name="NSW">     0</i>
   <i type="int" name="IBRION">    -1</i>
   <i type="int" name="MDALGO">     0</i>
   <i type="int" name="ISIF">     3</i>
   <i name="PSTRESS">      0.00000000</i>
   <i name="EDIFFG">     -0.00200000</i>
   <i type="int" name="NFREE">     0</i>
   <i name="POTIM">      0.50000000</i>
   <i name="SMASS">     -3.00000000</i>
   <i name="SCALEE">      1.00000000</i>
  </separator>
  <separator name="ionic md" >
   <i name="TEBEG">      0.00010000</i>
   <i name="TEEND">      0.00010000</i>
   <i type="int" name="NBLOCK">     1</i>
   <i type="int" name="KBLOCK">     1</i>
   <i type="int" name="NPACO">   256</i>
   <i name="APACO">     16.00000000</i>
  </separator>
  <separator name="symmetry" >
   <i type="int" name="ISYM">     2</i>
   <i name="SYMPREC">      0.00001000</i>
  </separator>
  <separator name="dos" >
   <i type="int" name="LORBIT">    11</i>
   <v name="RWIGS">     -1.00000000</v>
   <i type="int" name="NEDOS">   301</i>
   <i name="EMIN">     10.00000000</i>
   <i name="EMAX">    -10.00000000</i>
   <i name="EFERMI">      0.00000000</i>
  </separator>
  <separator name="writing" >
   <i type="int" name="NWRITE">     2</i>
   <i type="logical" name="LWAVE"> T  </i>
   <i type="logical" name="LDOWNSAMPLE"> F  </i>
   <i type="logical" name="LCHARG"> T  </i>
   <i type="logical" name="LPARD"> F  </i>
   <i type="logical" name="LVTOT"> F  </i>
   <i type="logical" name="LVHAR"> F  </i>
   <i type="logical" name="LELF"> F  </i>
   <i type="logical" name="LOPTICS"> F  </i>
   <v name="STM">      0.00000000      0.00000000      0.00000000      0.00000000      0.00000000      0.00000000      0.00000000</v>
  </separator>
  <separator name="performance" >
   <i type="int" name="NPAR">     4</i>
   <i type="int" name="NSIM">     4</i>
   <i type="int" name="NBLK">    -1</i>
   <i type="logical" name="LPLANE"> T  </i>
   <i type="logical" name="LSCALAPACK"> T  </i>
   <i type="logical" name="LSCAAWARE"> F  </i>
   <i type="logical" name="LSCALU"> F  </i>
   <i type="logical" name="LASYNC"> F  </i>
   <i type="logical" name="LORBITALREAL"> F  </i>
  </separator>
  <separator name="miscellaneous" >
   <i type="int" name="IDIOT">     3</i>
   <i type="int" name="PHON_NSTRUCT">    -1</i>
   <i type="logical" name="LMUSIC"> F  </i>
   <v name="POMASS">     55.84700000</v>
   <v name="DARWINR">      0.00000000</v>
   <v name="DARWINV">      1.00000000</v>
   <i type="logical" name="LCORR"> T  </i>
  </separator>
  <i type="logical" name="GGA_COMPAT"> F  </i>
  <i type="logical" name="LBERRY"> F  </i>
  <i type="int" name="ICORELEVEL">     0</i>
  <i type="logical" name="LDAU"> F  </i>
  <i type="int" name="I_CONSTRAINED_M">     0</i>
  <separator name="electronic exchange-correlation" >
   <i type="string" name="GGA">--</i>
   <i type="int" name="VOSKOWN">     1</i>
   <i type="logical" name="LHFCALC"> F  </i>
   <i type="string" name="PRECFOCK"></i>
   <i type="logical" name="LSYMGRAD"> F  </i>
   <i type="logical" name="LHFONE"> F  </i>
   <i type="logical" name="LRHFCALC"> F  </i>
   <i type="logical" name="LTHOMAS"> F  </i>
   <i type="logical" name="LMODELHF"> F  </i>
   <i type="logical" name="LFOCKACE"> F  </i>
   <i name="ENCUT4O">     -1.00000000</i>
   <i type="int" name="EXXOEP">     0</i>
   <i type="int" name="FOURORBIT">     0</i>
   <i name="AEXX">      0.00000000</i>
   <i name="HFALPHA">      0.00000000</i>
   <i name="MCALPHA">      0.00000000</i>
   <i name="ALDAX">      1.00000000</i>
   <i name="AGGAX">      1.00000000</i>
   <i name="ALDAC">      1.00000000</i>
   <i name="AGGAC">      1.00000000</i>
   <i type="int" name="NKREDX">     1</i>
   <i type="int" name="NKREDY">     1</i>
   <i type="int" name="NKREDZ">     1</i>
   <i type="logical" name="SHIFTRED"> F  </i>
   <i type="logical" name="ODDONLY"> F  </i>
   <i type="logical" name="EVENONLY"> F  </i>
   <i type="int" name="LMAXFOCK">     0</i>
   <i type="int" name="NMAXFOCKAE">     0</i>
   <i type="logical" name="LFOCKAEDFT"> F  </i>
   <i name="HFSCREEN">      0.00000000</i>
   <i name="HFSCREENC">      0.00000000</i>
   <i type="int" name="NBANDSGWLOW">     0</i>
  </separator>
  <separator name="vdW DFT" >
   <i type="logical" name="LUSE_VDW"> F  </i>
   <i name="Zab_VDW">     -0.84910000</i>
   <i name="PARAM1">      0.12340000</i>
   <i name="PARAM2">      1.00000000</i>
   <i name="PARAM3">      0.00000000</i>
  </separator>
  <separator name="model GW" >
   <i type="int" name="MODEL_GW">     0</i>
   <i name="MODEL_EPS0">      6.79964817</i>
   <i name="MODEL_ALPHA">      1.00000000</i>
  </separator>
  <separator name="linear response parameters" >
   <i type="logical" name="LEPSILON"> F  </i>
   <i type="logical" name="LRPA"> F  </i>
   <i type="logical" name="LNABLA"> F  </i>
   <i type="logical" name="LVEL"> F  </i>
   <i type="int" name="KINTER">     0</i>
   <i name="CSHIFT">      0.10000000</i>
   <i name="OMEGAMAX">     -1.00000000</i>
   <i name="DEG_THRESHOLD">      0.00200000</i>
   <i name="RTIME">     -0.10000000</i>
   <i name="WPLASMAI">      0.00000000</i>
   <v name="DFIELD">      0.00000000      0.00000000      0.00000000</v>
   <v name="WPLASMA">      0.00000000      0.00000000      0.00000000      0.00000000      0.00000000      0.00000000      0.00000000      0.00000000      0.00000000</v>
  </separator>
  <separator name="orbital magnetization" >
   <i type="logical" name="NUCIND"> F  </i>
   <v name="MAGPOS">      0.00000000      0.00000000      0.00000000</v>
   <i type="logical" name="LNICSALL"> T  </i>
   <i type="logical" name="ORBITALMAG"> F  </i>
   <i type="logical" name="LMAGBLOCH"> F  </i>
   <i type="logical" name="LCHIMAG"> F  </i>
   <i type="logical" name="LGAUGE"> T  </i>
   <i type="int" name="MAGATOM">     0</i>
   <v name="MAGDIPOL">      0.00000000      0.00000000      0.00000000</v>
   <v name="AVECCONST">      0.00000000      0.00000000      0.00000000</v>
  </separator>
  <separator name="response functions" >
   <i type="logical" name="LFINITE_TEMPERATURE"> F  </i>
   <i type="logical" name="LADDER"> F  </i>
   <i type="logical" name="LRPAFORCE"> F  </i>
   <i type="logical" name="LFXC"> F  </i>
   <i type="logical" name="LHARTREE"> T  </i>
   <i type="int" name="IBSE">     0</i>
   <v type="int" name="KPOINT">    -1     0     0     0</v>
   <i type="logical" name="LTCTC"> F  </i>
   <i type="logical" name="LTCTE"> F  </i>
   <i type="logical" name="LTETE"> F  </i>
   <i type="logical" name="LTRIPLET"> F  </i>
   <i type="logical" name="LFXCEPS"> F  </i>
   <i type="logical" name="LFXHEG"> F  </i>
   <i type="int" name="NATURALO">     2</i>
   <i type="logical" name="LHOLEGF"> F  </i>
   <i type="logical" name="L2ORDER"> F  </i>
   <i type="logical" name="LDMP1"> F  </i>
   <i type="logical" name="LMP2LT"> F  </i>
   <i type="logical" name="LSMP2LT"> F  </i>
   <i type="logical" name="LGWLF"> F  </i>
   <i name="ENCUTGW">     -2.00000000</i>
   <i name="ENCUTGWSOFT">     -2.00000000</i>
   <i name="ENCUTLF">     -1.00000000</i>
   <i type="logical" name="LESF_SPLINES"> F  </i>
   <i type="int" name="LMAXMP2">    -1</i>
   <i name="SCISSOR">      0.00000000</i>
   <i type="int" name="NOMEGA">     0</i>
   <i type="int" name="NOMEGAR">     0</i>
   <i type="int" name="NBANDSGW">    -1</i>
   <i type="int" name="NBANDSO">    -1</i>
   <i type="int" name="NBANDSV">    -1</i>
   <i type="int" name="NELM">    90</i>
   <i type="int" name="NELMHF">     1</i>
   <i type="int" name="DIM">     3</i>
   <i type="int" name="IESPILON">     4</i>
   <i type="int" name="ANTIRES">     0</i>
   <i name="OMEGAMAX">    -30.00000000</i>
   <i name="OMEGAMIN">    -30.00000000</i>
   <i name="OMEGATL">   -200.00000000</i>
   <i type="int" name="OMEGAGRID">     0</i>
   <i name="CSHIFT">     -0.10000000</i>
   <i type="logical" name="LSELFENERGY"> F  </i>
   <i type="logical" name="LSPECTRAL"> F  </i>
   <i type="logical" name="LSPECTRALGW"> F  </i>
   <i type="logical" name="LSINGLES"> F  </i>
   <i type="logical" name="LFERMIGW"> F  </i>
   <i type="logical" name="ODDONLYGW"> F  </i>
   <i type="logical" name="EVENONLYGW"> F  </i>
   <i type="int" name="NKREDLFX">     1</i>
   <i type="int" name="NKREDLFY">     1</i>
   <i type="int" name="NKREDLFZ">     1</i>
   <i type="int" name="MAXMEM">  2800</i>
   <i type="int" name="TELESCOPE">     0</i>
   <i type="int" name="NTAUPAR">    -1</i>
   <i type="int" name="NOMEGAPAR">    -1</i>
   <i name="DAMP_NEWTON">      0.80000001</i>
   <i name="LAMBDA">      1.00000000</i>
  </separator>
  <separator name="External order field" >
   <i name="OFIELD_KAPPA">      0.00000000</i>
   <v name="OFIELD_K">      0.00000000      0.00000000      0.00000000</v>
   <i name="OFIELD_Q6_NEAR">      0.00000000</i>
   <i name="OFIELD_Q6_FAR">      0.00000000</i>
   <i name="OFIELD_A">      0.00000000</i>
  </separator>
 </parameters>
 <atominfo>
  <atoms>       2 </atoms>
  <types>       1 </types>
  <array name="atoms" >
   <dimension dim="1">ion</dimension>
   <field type="string">element</field>
   <field type="int">atomtype</field>
   <set>
    <rc><c>Fe</c><c>   1</c></rc>
    <rc><c>Fe</c><c>   1</c></rc>
   </set>
  </array>
  <array name="atomtypes" >
   <dimension dim="1">type</dimension>
   <field type="int">atomspertype</field>
   <field type="string">element</field>
   <field>mass</field>
   <field>valence</field>
   <field type="string">pseudopotential</field>
   <set>
    <rc><c>   2</c><c>Fe</c><c>     55.84700000</c><c>      8.00000000</c><c>  PAW_PBE Fe 06Sep2000                  </c></rc>
   </set>
  </array>
 </atominfo>
 <structure name="initialpos" >
  <crystal>
   <varray name="basis" >
    <v>       2.83001277       0.00000000       0.00000000 </v>
    <v>       0.00000000       2.83001277       0.00000000 </v>
    <v>       0.00000000       0.00000000       2.83001277 </v>
   </varray>
   <i name="volume">     22.66549390 </i>
   <varray name="rec_basis" >
    <v>       0.35335530      -0.00000000       0.00000000 </v>
    <v>       0.00000000       0.35335530       0.00000000 </v>
    <v>      -0.00000000      -0.00000000       0.35335530 </v>
   </varray>
  </crystal>
  <varray name="positions" >
   <v>       0.00000000       0.00000000       0.00000000 </v>
   <v>       0.50000000       0.50000000       0.50000000 </v>
  </varray>
 </structure>
 <calculation>
  <scstep>
   <time name="dav">   12.32   12.33</time>
   <time name="total">   13.94   13.96</time>
   <energy>
    <i name="alphaZ">    121.97179784 </i>
    <i name="ewald">  -1185.10701661 </i>
    <i name="hartreedc">   -222.69935925 </i>
    <i name="XCdc">     14.48935776 </i>
    <i name="pawpsdc">   1103.49540010 </i>
    <i name="pawaedc">  -1119.11610375 </i>
    <i name="eentropy">      0.00156238 </i>
    <i name="bandstr">    173.48562824 </i>
    <i name="atom">   1188.62386280 </i>
    <i name="e_fr_energy">     75.14512952 </i>
    <i name="e_wo_entrp">     75.14356714 </i>
    <i name="e_0_energy">     75.14460873 </i>
   </energy>
  </scstep>
  <scstep>
   <time name="dav">   11.58   11.61</time>
   <time name="total">   11.61   11.63</time>
   <energy>
    <i name="e_fr_energy">    -12.42369881 </i>
    <i name="e_wo_entrp">    -12.42381738 </i>
    <i name="e_0_energy">    -12.42373833 </i>
   </energy>
  </scstep>
  <scstep>
   <time name="dav">   12.60   12.67</time>
   <time name="total">   12.63   12.70</time>
   <energy>
    <i name="e_fr_energy">    -15.91981419 </i>
    <i name="e_wo_entrp">    -15.92091785 </i>
    <i name="e_0_energy">    -15.92018207 </i>
   </energy>
  </scstep>
  <scstep>
   <time name="dav">   12.17   12.20</time>
   <time name="total">   12.20   12.22</time>
   <energy>
    <i name="e_fr_energy">    -15.94766193 </i>
    <i name="e_wo_entrp">    -15.94875824 </i>
    <i name="e_0_energy">    -15.94802737 </i>
   </energy>
  </scstep>
  <scstep>
   <time name="dav">   12.53   12.55</time>
   <time name="total">   13.30   13.33</time>
   <energy>
    <i name="e_fr_energy">    -15.94797657 </i>
    <i name="e_wo_entrp">    -15.94907282 </i>
    <i name="e_0_energy">    -15.94834199 </i>
   </energy>
  </scstep>
  <scstep>
   <time name="dav">   12.38   12.39</time>
   <time name="total">   14.75   14.77</time>
   <energy>
    <i name="e_fr_energy">    -16.55522656 </i>
    <i name="e_wo_entrp">    -16.55427186 </i>
    <i name="e_0_energy">    -16.55490833 </i>
   </energy>
  </scstep>
  <scstep>
   <time name="dav">   13.07   13.08</time>
   <time name="total">   15.44   15.47</time>
   <energy>
    <i name="e_fr_energy">    -16.51442330 </i>
    <i name="e_wo_entrp">    -16.51362577 </i>
    <i name="e_0_energy">    -16.51415746 </i>
   </energy>
  </scstep>
  <scstep>
   <time name="dav">   13.55   13.56</time>
   <time name="total">   15.91   15.95</time>
   <energy>
    <i name="e_fr_energy">    -16.49653142 </i>
    <i name="e_wo_entrp">    -16.49573946 </i>
    <i name="e_0_energy">    -16.49626743 </i>
   </energy>
  </scstep>
  <scstep>
   <time name="dav">   16.43   16.44</time>
   <time name="total">   18.80   18.83</time>
   <energy>
    <i name="e_fr_energy">    -16.48517655 </i>
    <i name="e_wo_entrp">    -16.48434182 </i>
    <i name="e_0_energy">    -16.48489831 </i>
   </energy>
  </scstep>
  <scstep>
   <time name="dav">   13.15   13.16</time>
   <time name="total">   15.51   15.54</time>
   <energy>
    <i name="e_fr_energy">    -16.48489262 </i>
    <i name="e_wo_entrp">    -16.48405850 </i>
    <i name="e_0_energy">    -16.48461458 </i>
   </energy>
  </scstep>
  <scstep>
   <time name="dav">   13.24   13.26</time>
   <time name="total">   15.61   15.64</time>
   <energy>
    <i name="e_fr_energy">    -16.48490444 </i>
    <i name="e_wo_entrp">    -16.48406626 </i>
    <i name="e_0_energy">    -16.48462505 </i>
   </energy>
  </scstep>
  <scstep>
   <time name="dav">   12.23   12.25</time>
   <time name="total">   14.60   14.63</time>
   <energy>
    <i name="e_fr_energy">    -16.48490106 </i>
    <i name="e_wo_entrp">    -16.48405813 </i>
    <i name="e_0_energy">    -16.48462008 </i>
   </energy>
  </scstep>
  <scstep>
   <time name="dav">   11.07   11.08</time>
   <time name="total">   12.68   12.71</time>
   <energy>
    <i name="alphaZ">    121.97179784 </i>
    <i name="ewald">  -1185.10701661 </i>
    <i name="hartreedc">   -189.74062070 </i>
    <i name="XCdc">      8.60595883 </i>
    <i name="pawpsdc">   1442.34875053 </i>
    <i name="pawaedc">  -1460.46735578 </i>
    <i name="eentropy">     -0.00084242 </i>
    <i name="bandstr">     57.28056481 </i>
    <i name="atom">   1188.62386280 </i>
    <i name="e_fr_energy">    -16.48490069 </i>
    <i name="e_wo_entrp">    -16.48405827 </i>
    <i name="e_0_energy">    -16.48461988 </i>
   </energy>
  </scstep>
  <structure>
   <crystal>
    <varray name="basis" >
     <v>       2.83001277       0.00000000       0.00000000 </v>
     <v>       0.00000000       2.83001277       0.00000000 </v>
     <v>       0.00000000       0.00000000       2.83001277 </v>
    </varray>
    <i name="volume">     22.66549390 </i>
    <varray name="rec_basis" >
     <v>       0.35335530      -0.00000000       0.00000000 </v>
     <v>       0.00000000       0.35335530       0.00000000 </v>
     <v>      -0.00000000      -0.00000000       0.35335530 </v>
    </varray>
   </crystal>
   <varray name="positions" >
    <v>       0.00000000       0.00000000       0.00000000 </v>
    <v>       0.50000000       0.50000000       0.50000000 </v>
   </varray>
  </structure>
  <varray name="forces" >
   <v>       0.00000000       0.00000000      -0.00000000 </v>
   <v>      -0.00000000      -0.00000000       0.00000000 </v>
  </varray>
  <varray name="stress" >
   <v>      -0.61703485       0.00000000      -0.00000000 </v>
   <v>       0.00000000      -0.61703485      -0.00000000 </v>
   <v>      -0.00000000      -0.00000000      -0.61703485 </v>
  </varray>
  <energy>
   <i name="e_fr_energy">    -16.48490069 </i>
   <i name="e_wo_entrp">    -16.48405827 </i>
   <i name="e_0_energy">    -16.48461988 </i>
  </energy>
  <time name="totalsc">  197.26  202.36</time>
  <eigenvalues>
   <array>
    <dimension dim="1">band</dimension>
    <dimension dim="2">kpoint</dimension>
    <dimension dim="3">spin</dimension>
    <field>eigene</field>
    <field>occ</field>
    <set>
     <set comment="spin 1">
      <set comment="kpoint 1">
       <r>   -2.5970    1.0000 </r>
       <r>    0.9886    1.0000 </r>
       <r>    0.9886    1.0000 </r>
       <r>    3.5437    1.0000 </r>
       <r>    3.5437    1.0000 </r>
       <r>    3.5437    1.0000 </r>
       <r>    4.7576    1.0000 </r>
       <r>    4.7576    1.0000 </r>
       <r>    5.9711    0.0731 </r>
       <r>    5.9711    0.0731 </r>
       <r>    5.9711    0.0731 </r>
       <r>   15.8037    0.0000 </r>
       <r>   15.8037    0.0000 </r>
       <r>   15.8037    0.0000 </r>
       <r>   21.5226    0.0000 </r>
       <r>   21.5226    0.0000 </r>
       <r>   26.6684    0.0000 </r>
       <r>   30.8965    0.0000 </r>
       <r>   30.8965    0.0000 </r>
       <r>   30.8965    0.0000 </r>
      </set>
      <set comment="kpoint 2">
       <r>   -2.5497    1.0000 </r>
       <r>    1.0088    1.0000 </r>
       <r>    1.0098    1.0000 </r>
       <r>    3.5432    1.0000 </r>
       <r>    3.5432    1.0000 </r>
       <r>    3.5566    1.0000 </r>
       <r>    4.7364    1.0000 </r>
       <r>    4.7659    1.0000 </r>
       <r>    5.9307    0.1813 </r>
       <r>    5.9307    0.1813 </r>
       <r>    5.9570    0.1063 </r>
       <r>   15.4433    0.0000 </r>
       <r>   15.8938    0.0000 </r>
       <r>   15.8938    0.0000 </r>
       <r>   21.5361    0.0000 </r>
       <r>   21.8021    0.0000 </r>
       <r>   26.8184    0.0000 </r>
       <r>   30.5499    0.0000 </r>
       <r>   30.8580    0.0000 </r>
       <r>   30.8580    0.0000 </r>
      </set>
      <set comment="kpoint 3">
       <r>   -2.4087    1.0000 </r>
       <r>    1.0691    1.0000 </r>
       <r>    1.0715    1.0000 </r>
       <r>    3.5425    1.0000 </r>
       <r>    3.5425    1.0000 </r>
       <r>    3.5952    1.0000 </r>
       <r>    4.6734    1.0000 </r>
       <r>    4.7907    1.0000 </r>
       <r>    5.8147    0.6390 </r>
       <r>    5.8147    0.6390 </r>
       <r>    5.9150    0.2335 </r>
       <r>   14.5545    0.0000 </r>
       <r>   16.1583    0.0000 </r>
       <r>   16.1583    0.0000 </r>
       <r>   21.5771    0.0000 </r>
       <r>   22.4149    0.0000 </r>
       <r>   27.3038    0.0000 </r>
       <r>   29.7500    0.0000 </r>
       <r>   30.7099    0.0000 </r>
       <r>   30.7099    0.0000 </r>
      </set>
      <set comment="kpoint 4">
       <r>   -2.1769    1.0000 </r>
       <r>    1.1676    1.0000 </r>
       <r>    1.1682    1.0000 </r>
       <r>    3.5437    1.0000 </r>
       <r>    3.5437    1.0000 </r>
       <r>    3.6588    1.0000 </r>
       <r>    4.5698    1.0000 </r>
       <r>    4.8311    1.0000 </r>
       <r>    5.6374    1.0298 </r>
       <r>    5.6374    1.0298 </r>
       <r>    5.8462    0.5080 </r>
       <r>   13.4233    0.0000 </r>
       <r>   16.5824    0.0000 </r>
       <r>   16.5824    0.0000 </r>
       <r>   21.6469    0.0000 </r>
       <r>   23.0210    0.0000 </r>
       <r>   28.1863    0.0000 </r>
       <r>   28.8048    0.0000 </r>
       <r>   30.3693    0.0000 </r>
       <r>   30.3693    0.0000 </r>
      </set>
      <set comment="kpoint 5">
       <r>   -1.8597    1.0000 </r>
       <r>    1.2881    1.0000 </r>
       <r>    1.3044    1.0000 </r>
       <r>    3.5498    1.0000 </r>
       <r>    3.5498    1.0000 </r>
       <r>    3.7461    1.0000 </r>
       <r>    4.4276    1.0000 </r>
       <r>    4.8863    1.0000 </r>
       <r>    5.4175    1.0047 </r>
       <r>    5.4175    1.0047 </r>
       <r>    5.7521    0.8587 </r>
       <r>   12.2130    0.0000 </r>
       <r>   17.1459    0.0000 </r>
       <r>   17.1459    0.0000 </r>
       <r>   21.7475    0.0000 </r>
       <r>   23.4771    0.0000 </r>
       <r>   27.8559    0.0000 </r>
       <r>   29.4583    0.0000 </r>
       <r>   29.7682    0.0000 </r>
       <r>   29.7682    0.0000 </r>
      </set>
      <set comment="kpoint 6">
       <r>   -1.4649    1.0000 </r>
       <r>    1.4185    1.0000 </r>
       <r>    1.4752    1.0000 </r>
       <r>    3.5647    1.0000 </r>
       <r>    3.5647    1.0000 </r>
       <r>    3.8553    1.0000 </r>
       <r>    4.2498    1.0000 </r>
       <r>    4.9561    1.0000 </r>
       <r>    5.1742    1.0000 </r>
       <r>    5.1742    1.0000 </r>
       <r>    5.6353    1.0306 </r>
       <r>   11.0041   -0.0000 </r>
       <r>   17.8281    0.0000 </r>
       <r>   17.8281    0.0000 </r>
       <r>   21.8816    0.0000 </r>
       <r>   23.8062    0.0000 </r>
       <r>   26.9584    0.0000 </r>
       <r>   28.9282    0.0000 </r>
       <r>   28.9282    0.0000 </r>
       <r>   30.8406    0.0000 </r>
      </set>
      <set comment="kpoint 7">
       <r>   -1.0045    1.0000 </r>
       <r>    1.5389    1.0000 </r>
       <r>    1.6772    1.0000 </r>
       <r>    3.5928    1.0000 </r>
       <r>    3.5928    1.0000 </r>
       <r>    3.9843    1.0000 </r>
       <r>    4.0403    1.0000 </r>
       <r>    4.9239    1.0000 </r>
       <r>    4.9239    1.0000 </r>
       <r>    5.0432    1.0000 </r>
       <r>    5.4984    1.0165 </r>
       <r>    9.8429   -0.0000 </r>
       <r>   18.6099    0.0000 </r>
       <r>   18.6099    0.0000 </r>
       <r>   22.0530    0.0000 </r>
       <r>   24.0780    0.0000 </r>
       <r>   26.1338    0.0000 </r>
       <r>   27.9314    0.0000 </r>
       <r>   27.9314    0.0000 </r>
       <r>   29.7039    0.0000 </r>
      </set>
      <set comment="kpoint 8">
       <r>   -0.4963    1.0000 </r>
       <r>    1.6240    1.0000 </r>
       <r>    1.9064    1.0000 </r>
       <r>    3.6386    1.0000 </r>
       <r>    3.6386    1.0000 </r>
       <r>    3.8039    1.0000 </r>
       <r>    4.1306    1.0000 </r>
       <r>    4.6799    1.0000 </r>
       <r>    4.6799    1.0000 </r>
       <r>    5.1547    1.0000 </r>
       <r>    5.3449    1.0011 </r>
       <r>    8.7636   -0.0000 </r>
       <r>   19.4749    0.0000 </r>
       <r>   19.4749    0.0000 </r>
       <r>   22.2661    0.0000 </r>
       <r>   24.3512    0.0000 </r>
       <r>   25.3903    0.0000 </r>
       <r>   26.8527    0.0000 </r>
       <r>   26.8527    0.0000 </r>
       <r>   28.6513    0.0000 </r>
      </set>
      <set comment="kpoint 9">
       <r>    0.0340    1.0000 </r>
       <r>    1.6426    1.0000 </r>
       <r>    2.1580    1.0000 </r>
       <r>    3.5458    1.0000 </r>
       <r>    3.7060    1.0000 </r>
       <r>    3.7060    1.0000 </r>
       <r>    4.2910    1.0000 </r>
       <r>    4.4520    1.0000 </r>
       <r>    4.4520    1.0000 </r>
       <r>    5.1783    1.0000 </r>
       <r>    5.3062    1.0004 </r>
       <r>    7.7981   -0.0000 </r>
       <r>   20.4095    0.0000 </r>
       <r>   20.4095    0.0000 </r>
       <r>   22.5258    0.0000 </r>
       <r>   24.6683    0.0000 </r>
       <r>   24.7291    0.0000 </r>
       <r>   25.7401    0.0000 </r>
       <r>   25.7401    0.0000 </r>
       <r>   27.7007    0.0000 </r>
      </set>
      <set comment="kpoint 10">
       <r>    0.5495    1.0000 </r>
       <r>    1.5603    1.0000 </r>
       <r>    2.4266    1.0000 </r>
       <r>    3.2725    1.0000 </r>
       <r>    3.7987    1.0000 </r>
       <r>    3.7987    1.0000 </r>
       <r>    4.2468    1.0000 </r>
       <r>    4.2468    1.0000 </r>
       <r>    4.4622    1.0000 </r>
       <r>    5.0027    1.0000 </r>
       <r>    5.5254    1.0224 </r>
       <r>    6.9777   -0.0000 </r>
       <r>   21.4019    0.0000 </r>
       <r>   21.4019    0.0000 </r>
       <r>   22.8378    0.0000 </r>
       <r>   24.1480    0.0000 </r>
       <r>   24.6226    0.0000 </r>
       <r>   24.6226    0.0000 </r>
       <r>   25.0598    0.0000 </r>
       <r>   26.8638    0.0000 </r>
      </set>
      <set comment="kpoint 11">
       <r>    1.0033    1.0000 </r>
       <r>    1.3491    1.0000 </r>
       <r>    2.7062    1.0000 </r>
       <r>    2.9904    1.0000 </r>
       <r>    3.9191    1.0000 </r>
       <r>    3.9191    1.0000 </r>
       <r>    4.0685    1.0000 </r>
       <r>    4.0685    1.0000 </r>
       <r>    4.6406    1.0000 </r>
       <r>    4.8221    1.0000 </r>
       <r>    5.8518    0.4840 </r>
       <r>    6.3276   -0.0018 </r>
       <r>   22.4416    0.0000 </r>
       <r>   22.4416    0.0000 </r>
       <r>   23.2081    0.0000 </r>
       <r>   23.5187    0.0000 </r>
       <r>   23.5187    0.0000 </r>
       <r>   23.6428    0.0000 </r>
       <r>   25.5476    0.0000 </r>
       <r>   26.1464    0.0000 </r>
      </set>
      <set comment="kpoint 12">
       <r>   -2.5025    1.0000 </r>
       <r>    1.0291    1.0000 </r>
       <r>    1.0308    1.0000 </r>
       <r>    3.5178    1.0000 </r>
       <r>    3.5421    1.0000 </r>
       <r>    3.5945    1.0000 </r>
       <r>    4.7311    1.0000 </r>
       <r>    4.7595    1.0000 </r>
       <r>    5.8575    0.4599 </r>
       <r>    5.8902    0.3259 </r>
       <r>    5.9771    0.0607 </r>
       <r>   15.4503    0.0000 </r>
       <r>   15.6107    0.0000 </r>
       <r>   15.9824    0.0000 </r>
       <r>   21.6811    0.0000 </r>
       <r>   21.9619    0.0000 </r>
       <r>   26.9619    0.0000 </r>
       <r>   30.2487    0.0000 </r>
       <r>   30.7625    0.0000 </r>
       <r>   30.8276    0.0000 </r>
      </set>
      <set comment="kpoint 13">
       <r>   -2.3621    1.0000 </r>
       <r>    1.0883    1.0000 </r>
       <r>    1.0929    1.0000 </r>
       <r>    3.4964    1.0000 </r>
       <r>    3.5395    1.0000 </r>
       <r>    3.6535    1.0000 </r>
       <r>    4.6766    1.0000 </r>
       <r>    4.7793    1.0000 </r>
       <r>    5.7187    0.9399 </r>
       <r>    5.7743    0.7896 </r>
       <r>    5.9621    0.0938 </r>
       <r>   14.6180    0.0000 </r>
       <r>   15.8046    0.0000 </r>
       <r>   16.2429    0.0000 </r>
       <r>   21.7734    0.0000 </r>
       <r>   22.5558    0.0000 </r>
       <r>   27.4283    0.0000 </r>
       <r>   29.4601    0.0000 </r>
       <r>   30.5689    0.0000 </r>
       <r>   30.7027    0.0000 </r>
      </set>
      <set comment="kpoint 14">
       <r>   -2.1314    1.0000 </r>
       <r>    1.1844    1.0000 </r>
       <r>    1.1911    1.0000 </r>
       <r>    3.4838    1.0000 </r>
       <r>    3.5374    1.0000 </r>
       <r>    3.7305    1.0000 </r>
       <r>    4.5785    1.0000 </r>
       <r>    4.8200    1.0000 </r>
       <r>    5.5311    1.0238 </r>
       <r>    5.5976    1.0353 </r>
       <r>    5.9095    0.2532 </r>
       <r>   13.4860    0.0000 </r>
       <r>   16.2085    0.0000 </r>
       <r>   16.6611    0.0000 </r>
       <r>   21.8600    0.0000 </r>
       <r>   23.1909    0.0000 </r>
       <r>   28.2840    0.0000 </r>
       <r>   28.5009    0.0000 </r>
       <r>   30.1888    0.0000 </r>
       <r>   30.3916    0.0000 </r>
      </set>
      <set comment="kpoint 15">
       <r>   -1.8156    1.0000 </r>
       <r>    1.3073    1.0000 </r>
       <r>    1.3234    1.0000 </r>
       <r>    3.4807    1.0000 </r>
       <r>    3.5385    1.0000 </r>
       <r>    3.8264    1.0000 </r>
       <r>    4.4439    1.0000 </r>
       <r>    4.8761    1.0000 </r>
       <r>    5.3082    1.0005 </r>
       <r>    5.3793    1.0023 </r>
       <r>    5.8254    0.5951 </r>
       <r>   12.2735    0.0000 </r>
       <r>   16.7450    0.0000 </r>
       <r>   17.2180    0.0000 </r>
       <r>   21.9766    0.0000 </r>
       <r>   23.6811    0.0000 </r>
       <r>   27.5235    0.0000 </r>
       <r>   29.5316    0.0000 </r>
       <r>   29.5585    0.0000 </r>
       <r>   29.8106    0.0000 </r>
      </set>
      <set comment="kpoint 16">
       <r>   -1.4230    1.0000 </r>
       <r>    1.4383    1.0000 </r>
       <r>    1.4910    1.0000 </r>
       <r>    3.4893    1.0000 </r>
       <r>    3.5450    1.0000 </r>
       <r>    3.9412    1.0000 </r>
       <r>    4.2783    1.0000 </r>
       <r>    4.9466    1.0000 </r>
       <r>    5.0654    1.0000 </r>
       <r>    5.1391    1.0000 </r>
       <r>    5.7150    0.9472 </r>
       <r>   11.0622   -0.0000 </r>
       <r>   17.3899    0.0000 </r>
       <r>   17.8935    0.0000 </r>
       <r>   22.1311    0.0000 </r>
       <r>   24.0421    0.0000 </r>
       <r>   26.5809    0.0000 </r>
       <r>   28.7224    0.0000 </r>
       <r>   28.9759    0.0000 </r>
       <r>   31.0886    0.0000 </r>
      </set>
      <set comment="kpoint 17">
       <r>   -0.9656    1.0000 </r>
       <r>    1.5585    1.0000 </r>
       <r>    1.6896    1.0000 </r>
       <r>    3.5128    1.0000 </r>
       <r>    3.5552    1.0000 </r>
       <r>    4.0738    1.0000 </r>
       <r>    4.0917    1.0000 </r>
       <r>    4.8175    1.0000 </r>
       <r>    4.8944    1.0000 </r>
       <r>    5.0342    1.0000 </r>
       <r>    5.5825    1.0340 </r>
       <r>    9.8978   -0.0000 </r>
       <r>   18.1210    0.0000 </r>
       <r>   18.6690    0.0000 </r>
       <r>   22.3297    0.0000 </r>
       <r>   24.3451    0.0000 </r>
       <r>   25.6883    0.0000 </r>
       <r>   27.7793    0.0000 </r>
       <r>   27.9771    0.0000 </r>
       <r>   30.3225    0.0000 </r>
      </set>
      <set comment="kpoint 18">
       <r>   -0.4615    1.0000 </r>
       <r>    1.6423    1.0000 </r>
       <r>    1.9148    1.0000 </r>
       <r>    3.5474    1.0000 </r>
       <r>    3.5551    1.0000 </r>
       <r>    3.9143    1.0000 </r>
       <r>    4.2222    1.0000 </r>
       <r>    4.5765    1.0000 </r>
       <r>    4.6593    1.0000 </r>
       <r>    5.1465    1.0000 </r>
       <r>    5.4320    1.0061 </r>
       <r>    8.8139   -0.0000 </r>
       <r>   18.9180    0.0000 </r>
       <r>   19.5285    0.0000 </r>
       <r>   22.5801    0.0000 </r>
       <r>   24.6524    0.0000 </r>
       <r>   24.8418    0.0000 </r>
       <r>   26.8159    0.0000 </r>
       <r>   26.8951    0.0000 </r>
       <r>   29.2667    0.0000 </r>
      </set>
      <set comment="kpoint 19">
       <r>    0.0635    1.0000 </r>
       <r>    1.6589    1.0000 </r>
       <r>    2.1614    1.0000 </r>
       <r>    3.4431    1.0000 </r>
       <r>    3.6196    1.0000 </r>
       <r>    3.8336    1.0000 </r>
       <r>    4.3517    1.0000 </r>
       <r>    4.3837    1.0000 </r>
       <r>    4.4446    1.0000 </r>
       <r>    5.2677    1.0002 </r>
       <r>    5.3001    1.0004 </r>
       <r>    7.8412   -0.0000 </r>
       <r>   19.7616    0.0000 </r>
       <r>   20.4583    0.0000 </r>
       <r>   22.8921    0.0000 </r>
       <r>   24.0239    0.0000 </r>
       <r>   25.0086    0.0000 </r>
       <r>   25.7803    0.0000 </r>
       <r>   25.8947    0.0000 </r>
       <r>   28.2890    0.0000 </r>
      </set>
      <set comment="kpoint 20">
       <r>    0.5730    1.0000 </r>
       <r>    1.5747    1.0000 </r>
       <r>    2.4237    1.0000 </r>
       <r>    3.2259    1.0000 </r>
       <r>    3.7096    1.0000 </r>
       <r>    3.8734    1.0000 </r>
       <r>    4.1496    1.0000 </r>
       <r>    4.2568    1.0000 </r>
       <r>    4.5553    1.0000 </r>
       <r>    5.0937    1.0000 </r>
       <r>    5.5241    1.0222 </r>
       <r>    7.0106   -0.0000 </r>
       <r>   20.6321    0.0000 </r>
       <r>   21.4468    0.0000 </r>
       <r>   23.2084    0.0000 </r>
       <r>   23.2789    0.0000 </r>
       <r>   24.6621    0.0000 </r>
       <r>   25.0621    0.0000 </r>
       <r>   25.4455    0.0000 </r>
       <r>   27.4082    0.0000 </r>
      </set>
      <set comment="kpoint 21">
       <r>    1.0212    1.0000 </r>
       <r>    1.3635    1.0000 </r>
       <r>    2.6948    1.0000 </r>
       <r>    2.9664    1.0000 </r>
       <r>    3.8274    1.0000 </r>
       <r>    3.9693    1.0000 </r>
       <r>    3.9742    1.0000 </r>
       <r>    4.0985    1.0000 </r>
       <r>    4.7334    1.0000 </r>
       <r>    4.9143    1.0000 </r>
       <r>    5.8596    0.4512 </r>
       <r>    6.3478   -0.0012 </r>
       <r>   21.5091    0.0000 </r>
       <r>   22.3720    0.0000 </r>
       <r>   22.4836    0.0000 </r>
       <r>   23.5589    0.0000 </r>
       <r>   23.7576    0.0000 </r>
       <r>   24.3476    0.0000 </r>
       <r>   25.9846    0.0000 </r>
       <r>   26.6379    0.0000 </r>
      </set>
      <set comment="kpoint 22">
       <r>   -2.2234    1.0000 </r>
       <r>    1.1437    1.0000 </r>
       <r>    1.1572    1.0000 </r>
       <r>    3.4429    1.0000 </r>
       <r>    3.5313    1.0000 </r>
       <r>    3.7443    1.0000 </r>
       <r>    4.6652    1.0000 </r>
       <r>    4.7661    1.0000 </r>
       <r>    5.5441    1.0268 </r>
       <r>    5.6591    1.0184 </r>
       <r>    5.9944    0.0295 </r>
       <r>   14.5998    0.0000 </r>
       <r>   15.1529    0.0000 </r>
       <r>   16.4922    0.0000 </r>
       <r>   22.0301    0.0000 </r>
       <r>   23.0718    0.0000 </r>
       <r>   27.8367    0.0000 </r>
       <r>   28.6895    0.0000 </r>
       <r>   30.2914    0.0000 </r>
       <r>   30.6474    0.0000 </r>
      </set>
      <set comment="kpoint 23">
       <r>   -1.9958    1.0000 </r>
       <r>    1.2328    1.0000 </r>
       <r>    1.2593    1.0000 </r>
       <r>    3.4003    1.0000 </r>
       <r>    3.5205    1.0000 </r>
       <r>    3.8501    1.0000 </r>
       <r>    4.5974    1.0000 </r>
       <r>    4.7928    1.0000 </r>
       <r>    5.3305    1.0008 </r>
       <r>    5.4848    1.0138 </r>
       <r>    5.9846    0.0462 </r>
       <r>   13.6363    0.0000 </r>
       <r>   15.3482    0.0000 </r>
       <r>   16.8941    0.0000 </r>
       <r>   22.1839    0.0000 </r>
       <r>   23.7596    0.0000 </r>
       <r>   27.7077    0.0000 </r>
       <r>   28.6064    0.0000 </r>
       <r>   29.8689    0.0000 </r>
       <r>   30.4365    0.0000 </r>
      </set>
      <set comment="kpoint 24">
       <r>   -1.6847    1.0000 </r>
       <r>    1.3495    1.0000 </r>
       <r>    1.3929    1.0000 </r>
       <r>    3.3714    1.0000 </r>
       <r>    3.5093    1.0000 </r>
       <r>    3.9702    1.0000 </r>
       <r>    4.4868    1.0000 </r>
       <r>    4.8476    1.0000 </r>
       <r>    5.0922    1.0000 </r>
       <r>    5.2720    1.0002 </r>
       <r>    5.9355    0.1663 </r>
       <r>   12.4351    0.0000 </r>
       <r>   15.8240    0.0000 </r>
       <r>   17.4322    0.0000 </r>
       <r>   22.3261    0.0000 </r>
       <r>   24.3460    0.0000 </r>
       <r>   26.6797    0.0000 </r>
       <r>   29.2433    0.0000 </r>
       <r>   29.7703    0.0000 </r>
       <r>   29.9312    0.0000 </r>
      </set>
      <set comment="kpoint 25">
       <r>   -1.2989    1.0000 </r>
       <r>    1.4796    1.0000 </r>
       <r>    1.5540    1.0000 </r>
       <r>    3.3583    1.0000 </r>
       <r>    3.4982    1.0000 </r>
       <r>    4.1043    1.0000 </r>
       <r>    4.3510    1.0000 </r>
       <r>    4.8425    1.0000 </r>
       <r>    4.9192    1.0000 </r>
       <r>    5.0419    1.0000 </r>
       <r>    5.8523    0.4820 </r>
       <r>   11.2217   -0.0000 </r>
       <r>   16.4101    0.0000 </r>
       <r>   18.0884    0.0000 </r>
       <r>   22.4922    0.0000 </r>
       <r>   24.8008    0.0000 </r>
       <r>   25.6648    0.0000 </r>
       <r>   28.4572    0.0000 </r>
       <r>   29.1179    0.0000 </r>
       <r>   31.2643    0.0000 </r>
      </set>
      <set comment="kpoint 26">
       <r>   -0.8511    1.0000 </r>
       <r>    1.5993    1.0000 </r>
       <r>    1.7420    1.0000 </r>
       <r>    3.3639    1.0000 </r>
       <r>    3.4806    1.0000 </r>
       <r>    4.2076    1.0000 </r>
       <r>    4.2515    1.0000 </r>
       <r>    4.5932    1.0000 </r>
       <r>    4.8141    1.0000 </r>
       <r>    5.0080    1.0000 </r>
       <r>    5.7406    0.8899 </r>
       <r>   10.0503   -0.0000 </r>
       <r>   17.0749    0.0000 </r>
       <r>   18.8456    0.0000 </r>
       <r>   22.6956    0.0000 </r>
       <r>   24.6814    0.0000 </r>
       <r>   25.1908    0.0000 </r>
       <r>   27.5997    0.0000 </r>
       <r>   28.1131    0.0000 </r>
       <r>   31.5471    0.0000 </r>
      </set>
      <set comment="kpoint 27">
       <r>   -0.3600    1.0000 </r>
       <r>    1.6803    1.0000 </r>
       <r>    1.9547    1.0000 </r>
       <r>    3.3912    1.0000 </r>
       <r>    3.4347    1.0000 </r>
       <r>    4.0865    1.0000 </r>
       <r>    4.3545    1.0000 </r>
       <r>    4.4105    1.0000 </r>
       <r>    4.6051    1.0000 </r>
       <r>    5.1223    1.0000 </r>
       <r>    5.6057    1.0354 </r>
       <r>    8.9542   -0.0000 </r>
       <r>   17.7986    0.0000 </r>
       <r>   19.6886    0.0000 </r>
       <r>   22.9454    0.0000 </r>
       <r>   23.7319    0.0000 </r>
       <r>   25.5825    0.0000 </r>
       <r>   26.7466    0.0000 </r>
       <r>   27.0211    0.0000 </r>
       <r>   30.5211    0.0000 </r>
      </set>
      <set comment="kpoint 28">
       <r>    0.1480    1.0000 </r>
       <r>    1.6918    1.0000 </r>
       <r>    2.1870    1.0000 </r>
       <r>    3.3271    1.0000 </r>
       <r>    3.4433    1.0000 </r>
       <r>    4.0268    1.0000 </r>
       <r>    4.1343    1.0000 </r>
       <r>    4.4270    1.0000 </r>
       <r>    4.5789    1.0000 </r>
       <r>    5.2816    1.0002 </r>
       <r>    5.4528    1.0086 </r>
       <r>    7.9625   -0.0000 </r>
       <r>   18.5667    0.0000 </r>
       <r>   20.6042    0.0000 </r>
       <r>   22.8127    0.0000 </r>
       <r>   23.2508    0.0000 </r>
       <r>   25.8998    0.0000 </r>
       <r>   25.9473    0.0000 </r>
       <r>   26.0218    0.0000 </r>
       <r>   29.5521    0.0000 </r>
      </set>
      <set comment="kpoint 29">
       <r>    0.6376    1.0000 </r>
       <r>    1.6039    1.0000 </r>
       <r>    2.4323    1.0000 </r>
       <r>    3.1495    1.0000 </r>
       <r>    3.5226    1.0000 </r>
       <r>    3.9382    1.0000 </r>
       <r>    4.0380    1.0000 </r>
       <r>    4.2856    1.0000 </r>
       <r>    4.7543    1.0000 </r>
       <r>    5.2867    1.0003 </r>
       <r>    5.5202    1.0213 </r>
       <r>    7.1043   -0.0000 </r>
       <r>   19.3684    0.0000 </r>
       <r>   21.5811    0.0000 </r>
       <r>   21.9189    0.0000 </r>
       <r>   23.6220    0.0000 </r>
       <r>   24.7797    0.0000 </r>
       <r>   25.2290    0.0000 </r>
       <r>   26.5377    0.0000 </r>
       <r>   28.6587    0.0000 </r>
      </set>
      <set comment="kpoint 30">
       <r>    1.0664    1.0000 </r>
       <r>    1.3959    1.0000 </r>
       <r>    2.6823    1.0000 </r>
       <r>    2.9266    1.0000 </r>
       <r>    3.6312    1.0000 </r>
       <r>    3.7698    1.0000 </r>
       <r>    4.0947    1.0000 </r>
       <r>    4.1774    1.0000 </r>
       <r>    4.9332    1.0000 </r>
       <r>    5.1120    1.0000 </r>
       <r>    5.8826    0.3562 </r>
       <r>    6.4064   -0.0003 </r>
       <r>   20.1966    0.0000 </r>
       <r>   21.0472    0.0000 </r>
       <r>   22.6091    0.0000 </r>
       <r>   23.6787    0.0000 </r>
       <r>   24.0694    0.0000 </r>
       <r>   24.6030    0.0000 </r>
       <r>   27.1464    0.0000 </r>
       <r>   27.8540    0.0000 </r>
      </set>
      <set comment="kpoint 31">
       <r>   -1.7736    1.0000 </r>
       <r>    1.3101    1.0000 </r>
       <r>    1.3676    1.0000 </r>
       <r>    3.3270    1.0000 </r>
       <r>    3.4974    1.0000 </r>
       <r>    3.9848    1.0000 </r>
       <r>    4.5959    1.0000 </r>
       <r>    4.7780    1.0000 </r>
       <r>    5.0951    1.0000 </r>
       <r>    5.3162    1.0006 </r>
       <r>    6.0216   -0.0054 </r>
       <r>   13.5402    0.0000 </r>
       <r>   14.6341    0.0000 </r>
       <r>   17.2720    0.0000 </r>
       <r>   22.3896    0.0000 </r>
       <r>   24.5695    0.0000 </r>
       <r>   26.6911    0.0000 </r>
       <r>   29.2315    0.0000 </r>
       <r>   29.4586    0.0000 </r>
       <r>   30.4111    0.0000 </r>
      </set>
      <set comment="kpoint 32">
       <r>   -1.4710    1.0000 </r>
       <r>    1.4103    1.0000 </r>
       <r>    1.5089    1.0000 </r>
       <r>    3.2688    1.0000 </r>
       <r>    3.4724    1.0000 </r>
       <r>    4.1311    1.0000 </r>
       <r>    4.5382    1.0000 </r>
       <r>    4.8111    1.0000 </r>
       <r>    4.8424    1.0000 </r>
       <r>    5.1144    1.0000 </r>
       <r>    6.0164    0.0000 </r>
       <r>   12.6038    0.0000 </r>
       <r>   14.8005    0.0000 </r>
       <r>   17.7818    0.0000 </r>
       <r>   22.5468    0.0000 </r>
       <r>   25.3263    0.0000 </r>
       <r>   25.6168    0.0000 </r>
       <r>   28.8930    0.0000 </r>
       <r>   30.0979    0.0000 </r>
       <r>   30.2329    0.0000 </r>
      </set>
      <set comment="kpoint 33">
       <r>   -1.0977    1.0000 </r>
       <r>    1.5221    1.0000 </r>
       <r>    1.6753    1.0000 </r>
       <r>    3.2291    1.0000 </r>
       <r>    3.4474    1.0000 </r>
       <r>    4.2875    1.0000 </r>
       <r>    4.4438    1.0000 </r>
       <r>    4.5852    1.0000 </r>
       <r>    4.8783    1.0000 </r>
       <r>    4.9031    1.0000 </r>
       <r>    5.9717    0.0719 </r>
       <r>   11.4310    0.0000 </r>
       <r>   15.2968    0.0000 </r>
       <r>   18.4084    0.0000 </r>
       <r>   22.7084    0.0000 </r>
       <r>   24.5483    0.0000 </r>
       <r>   25.9338    0.0000 </r>
       <r>   28.1888    0.0000 </r>
       <r>   29.3501    0.0000 </r>
       <r>   31.5939    0.0000 </r>
      </set>
      <set comment="kpoint 34">
       <r>   -0.6677    1.0000 </r>
       <r>    1.6264    1.0000 </r>
       <r>    1.8606    1.0000 </r>
       <r>    3.2111    1.0000 </r>
       <r>    3.4166    1.0000 </r>
       <r>    4.3340    1.0000 </r>
       <r>    4.3428    1.0000 </r>
       <r>    4.4528    1.0000 </r>
       <r>    4.7040    1.0000 </r>
       <r>    4.9667    1.0000 </r>
       <r>    5.8923    0.3176 </r>
       <r>   10.2630   -0.0000 </r>
       <r>   15.9032    0.0000 </r>
       <r>   19.1369    0.0000 </r>
       <r>   22.8966    0.0000 </r>
       <r>   23.5085    0.0000 </r>
       <r>   26.4411    0.0000 </r>
       <r>   27.4146    0.0000 </r>
       <r>   28.3360    0.0000 </r>
       <r>   32.8249    0.0000 </r>
      </set>
      <set comment="kpoint 35">
       <r>   -0.2011    1.0000 </r>
       <r>    1.6956    1.0000 </r>
       <r>    2.0614    1.0000 </r>
       <r>    3.2175    1.0000 </r>
       <r>    3.3640    1.0000 </r>
       <r>    4.0977    1.0000 </r>
       <r>    4.2620    1.0000 </r>
       <r>    4.5357    1.0000 </r>
       <r>    4.6252    1.0000 </r>
       <r>    5.0825    1.0000 </r>
       <r>    5.7836    0.7575 </r>
       <r>    9.1553   -0.0000 </r>
       <r>   16.5778    0.0000 </r>
       <r>   19.9536    0.0000 </r>
       <r>   22.5054    0.0000 </r>
       <r>   23.1251    0.0000 </r>
       <r>   26.6377    0.0000 </r>
       <r>   26.9222    0.0000 </r>
       <r>   27.2262    0.0000 </r>
       <r>   31.9073    0.0000 </r>
      </set>
      <set comment="kpoint 36">
       <r>    0.2748    1.0000 </r>
       <r>    1.6987    1.0000 </r>
       <r>    2.2751    1.0000 </r>
       <r>    3.2514    1.0000 </r>
       <r>    3.2684    1.0000 </r>
       <r>    3.8830    1.0000 </r>
       <r>    4.2238    1.0000 </r>
       <r>    4.4105    1.0000 </r>
       <r>    4.8025    1.0000 </r>
       <r>    5.2504    1.0001 </r>
       <r>    5.6509    1.0236 </r>
       <r>    8.1397   -0.0000 </r>
       <r>   17.3042    0.0000 </r>
       <r>   20.8462    0.0000 </r>
       <r>   21.5414    0.0000 </r>
       <r>   23.4052    0.0000 </r>
       <r>   25.9043    0.0000 </r>
       <r>   26.0946    0.0000 </r>
       <r>   27.4296    0.0000 </r>
       <r>   31.0006    0.0000 </r>
      </set>
      <set comment="kpoint 37">
       <r>    0.7258    1.0000 </r>
       <r>    1.6102    1.0000 </r>
       <r>    2.4972    1.0000 </r>
       <r>    3.1210    1.0000 </r>
       <r>    3.3149    1.0000 </r>
       <r>    3.6948    1.0000 </r>
       <r>    4.2273    1.0000 </r>
       <r>    4.3300    1.0000 </r>
       <r>    4.9822    1.0000 </r>
       <r>    5.4997    1.0168 </r>
       <r>    5.5133    1.0197 </r>
       <r>    7.2443   -0.0000 </r>
       <r>   18.0740    0.0000 </r>
       <r>   20.6166    0.0000 </r>
       <r>   21.8038    0.0000 </r>
       <r>   23.7480    0.0000 </r>
       <r>   24.9723    0.0000 </r>
       <r>   25.2410    0.0000 </r>
       <r>   27.9942    0.0000 </r>
       <r>   30.1414    0.0000 </r>
      </set>
      <set comment="kpoint 38">
       <r>    1.1158    1.0000 </r>
       <r>    1.4157    1.0000 </r>
       <r>    2.7199    1.0000 </r>
       <r>    2.9326    1.0000 </r>
       <r>    3.4097    1.0000 </r>
       <r>    3.5365    1.0000 </r>
       <r>    4.2512    1.0000 </r>
       <r>    4.2826    1.0000 </r>
       <r>    5.1608    1.0000 </r>
       <r>    5.3347    1.0009 </r>
       <r>    5.9193    0.2185 </r>
       <r>    6.4970   -0.0000 </r>
       <r>   18.8832    0.0000 </r>
       <r>   19.7307    0.0000 </r>
       <r>   22.8167    0.0000 </r>
       <r>   23.8759    0.0000 </r>
       <r>   24.1636    0.0000 </r>
       <r>   24.6599    0.0000 </r>
       <r>   28.6320    0.0000 </r>
       <r>   29.3486    0.0000 </r>
      </set>
      <set comment="kpoint 39">
       <r>   -1.1819    1.0000 </r>
       <r>    1.4858    1.0000 </r>
       <r>    1.6616    1.0000 </r>
       <r>    3.1820    1.0000 </r>
       <r>    3.4378    1.0000 </r>
       <r>    4.3018    1.0000 </r>
       <r>    4.5636    1.0000 </r>
       <r>    4.5804    1.0000 </r>
       <r>    4.7959    1.0000 </r>
       <r>    4.9315    1.0000 </r>
       <r>    6.0563   -0.0289 </r>
       <r>   12.4152    0.0000 </r>
       <r>   14.1778    0.0000 </r>
       <r>   18.2572    0.0000 </r>
       <r>   22.7029    0.0000 </r>
       <r>   24.5001    0.0000 </r>
       <r>   26.3188    0.0000 </r>
       <r>   28.4281    0.0000 </r>
       <r>   30.1666    0.0000 </r>
       <r>   31.0057    0.0000 </r>
      </set>
      <set comment="kpoint 40">
       <r>   -0.8285    1.0000 </r>
       <r>    1.5657    1.0000 </r>
       <r>    1.8411    1.0000 </r>
       <r>    3.1151    1.0000 </r>
       <r>    3.4107    1.0000 </r>
       <r>    4.3192    1.0000 </r>
       <r>    4.4791    1.0000 </r>
       <r>    4.5324    1.0000 </r>
       <r>    4.7488    1.0000 </r>
[...]
       </set>
       <set comment="band 16">
        <r>  0.0000  0.0858  0.0000  0.0858  0.0000  0.1106  0.0000  0.1106  0.0008 </r>
        <r>  0.0000  0.0858  0.0000  0.0858  0.0000  0.1106  0.0000  0.1106  0.0008 </r>
       </set>
       <set comment="band 17">
        <r>  0.2751  0.0007  0.0965  0.0007  0.0221  0.0003  0.0033  0.0003  0.0000 </r>
        <r>  0.2751  0.0007  0.0965  0.0007  0.0221  0.0003  0.0033  0.0003  0.0000 </r>
       </set>
       <set comment="band 18">
        <r>  0.1954  0.0237  0.0810  0.0237  0.0236  0.0225  0.0021  0.0225  0.0000 </r>
        <r>  0.1954  0.0237  0.0810  0.0237  0.0236  0.0225  0.0021  0.0225  0.0000 </r>
       </set>
       <set comment="band 19">
        <r>  0.0001  0.0002  0.0025  0.0002  0.0036  0.0521  0.0137  0.0521  0.0000 </r>
        <r>  0.0001  0.0002  0.0025  0.0002  0.0036  0.0521  0.0137  0.0521  0.0000 </r>
       </set>
       <set comment="band 20">
        <r>  0.0000  0.0001  0.0000  0.0001  0.0000  0.0548  0.0000  0.0548  0.0006 </r>
        <r>  0.0000  0.0001  0.0000  0.0001  0.0000  0.0548  0.0000  0.0548  0.0006 </r>
       </set>
      </set>
      <set comment="kpoint 283">
       <set comment="band 1">
        <r>  0.0121  0.0119  0.0119  0.0119  0.1366  0.1366  0.0000  0.1366  0.0000 </r>
        <r>  0.0121  0.0119  0.0119  0.0119  0.1366  0.1366  0.0000  0.1366  0.0000 </r>
       </set>
       <set comment="band 2">
        <r>  0.0000  0.0082  0.0362  0.0098  0.2607  0.0707  0.0095  0.0594  0.0000 </r>
        <r>  0.0000  0.0082  0.0362  0.0098  0.2607  0.0707  0.0095  0.0594  0.0000 </r>
       </set>
       <set comment="band 3">
        <r>  0.0000  0.0279  0.0000  0.0263  0.0002  0.1897  0.0000  0.2010  0.0095 </r>
        <r>  0.0000  0.0279  0.0000  0.0263  0.0002  0.1897  0.0000  0.2010  0.0095 </r>
       </set>
       <set comment="band 4">
        <r>  0.0233  0.0382  0.0381  0.0382  0.0965  0.0969  0.0000  0.0970  0.0000 </r>
        <r>  0.0233  0.0382  0.0381  0.0382  0.0965  0.0969  0.0000  0.0970  0.0000 </r>
       </set>
       <set comment="band 5">
        <r>  0.0000  0.0147  0.0628  0.0168  0.2188  0.0584  0.0181  0.0512  0.0000 </r>
        <r>  0.0000  0.0147  0.0628  0.0168  0.2188  0.0584  0.0181  0.0512  0.0000 </r>
       </set>
       <set comment="band 6">
        <r>  0.0000  0.0481  0.0000  0.0461  0.0001  0.1605  0.0000  0.1678  0.0181 </r>
        <r>  0.0000  0.0481  0.0000  0.0461  0.0001  0.1605  0.0000  0.1678  0.0181 </r>
       </set>
       <set comment="band 7">
        <r>  0.0000  0.0000  0.0001  0.0000  0.0172  0.0031  0.4640  0.0056  0.0032 </r>
        <r>  0.0000  0.0000  0.0001  0.0000  0.0172  0.0031  0.4640  0.0056  0.0032 </r>
       </set>
       <set comment="band 8">
        <r>  0.0000  0.0001  0.0000  0.0001  0.0001  0.0141  0.0032  0.0117  0.4640 </r>
        <r>  0.0000  0.0001  0.0000  0.0001  0.0001  0.0141  0.0032  0.0117  0.4640 </r>
       </set>
       <set comment="band 9">
        <r>  0.0000  0.0000  0.0000  0.0000  0.0085  0.0016  0.4770  0.0028  0.0034 </r>
        <r>  0.0000  0.0000  0.0000  0.0000  0.0085  0.0016  0.4770  0.0028  0.0034 </r>
       </set>
       <set comment="band 10">
        <r>  0.0000  0.0000  0.0000  0.0000  0.0001  0.0070  0.0034  0.0058  0.4770 </r>
        <r>  0.0000  0.0000  0.0000  0.0000  0.0001  0.0070  0.0034  0.0058  0.4770 </r>
       </set>
       <set comment="band 11">
        <r>  0.0367  0.0439  0.0439  0.0439  0.0886  0.0886  0.0000  0.0886  0.0000 </r>
        <r>  0.0367  0.0439  0.0439  0.0439  0.0886  0.0886  0.0000  0.0886  0.0000 </r>
       </set>
       <set comment="band 12">
        <r>  0.0000  0.0275  0.1218  0.0335  0.1480  0.0407  0.0124  0.0334  0.0000 </r>
        <r>  0.0000  0.0275  0.1218  0.0335  0.1480  0.0407  0.0124  0.0334  0.0000 </r>
       </set>
       <set comment="band 13">
        <r>  0.0000  0.0944  0.0001  0.0884  0.0001  0.1074  0.0000  0.1147  0.0124 </r>
        <r>  0.0000  0.0944  0.0001  0.0884  0.0001  0.1074  0.0000  0.1147  0.0124 </r>
       </set>
       <set comment="band 14">
        <r>  0.2487  0.0101  0.0101  0.0101  0.0451  0.0451  0.0000  0.0451  0.0000 </r>
        <r>  0.2487  0.0101  0.0101  0.0101  0.0451  0.0451  0.0000  0.0451  0.0000 </r>
       </set>
       <set comment="band 15">
        <r>  0.0000  0.0250  0.1173  0.0340  0.1451  0.0421  0.0078  0.0309  0.0000 </r>
        <r>  0.0000  0.0250  0.1173  0.0340  0.1451  0.0421  0.0078  0.0309  0.0000 </r>
       </set>
       <set comment="band 16">
        <r>  0.0000  0.0925  0.0002  0.0835  0.0003  0.1033  0.0000  0.1145  0.0078 </r>
        <r>  0.0000  0.0925  0.0002  0.0835  0.0003  0.1033  0.0000  0.1145  0.0078 </r>
       </set>
       <set comment="band 17">
        <r>  0.3413  0.0199  0.0199  0.0199  0.0003  0.0003  0.0000  0.0003  0.0000 </r>
        <r>  0.3413  0.0199  0.0199  0.0199  0.0003  0.0003  0.0000  0.0003  0.0000 </r>
       </set>
       <set comment="band 18">
        <r>  0.1382  0.0506  0.0506  0.0506  0.0335  0.0335  0.0000  0.0335  0.0000 </r>
        <r>  0.1382  0.0506  0.0506  0.0506  0.0335  0.0335  0.0000  0.0335  0.0000 </r>
       </set>
       <set comment="band 19">
        <r>  0.0000  0.0066  0.0033  0.0035  0.0135  0.0141  0.0227  0.0269  0.0384 </r>
        <r>  0.0000  0.0066  0.0033  0.0035  0.0135  0.0141  0.0227  0.0269  0.0384 </r>
       </set>
       <set comment="band 20">
        <r>  0.0000  0.0023  0.0056  0.0055  0.0229  0.0223  0.0385  0.0094  0.0227 </r>
        <r>  0.0000  0.0023  0.0056  0.0055  0.0229  0.0223  0.0385  0.0094  0.0227 </r>
       </set>
      </set>
      <set comment="kpoint 284">
       <set comment="band 1">
        <r>  0.0091  0.0192  0.0192  0.0071  0.1485  0.1021  0.0004  0.1484  0.0011 </r>
        <r>  0.0091  0.0192  0.0192  0.0071  0.1485  0.1021  0.0004  0.1484  0.0011 </r>
       </set>
       <set comment="band 2">
        <r>  0.0071  0.0254  0.0254  0.0058  0.1462  0.0919  0.0010  0.1460  0.0031 </r>
        <r>  0.0071  0.0254  0.0254  0.0058  0.1462  0.0919  0.0010  0.1460  0.0031 </r>
       </set>
       <set comment="band 3">
        <r>  0.0000  0.0332  0.0332  0.0000  0.1859  0.0000  0.0089  0.1861  0.0030 </r>
        <r>  0.0000  0.0332  0.0332  0.0000  0.1859  0.0000  0.0089  0.1861  0.0030 </r>
       </set>
       <set comment="band 4">
        <r>  0.0000  0.0399  0.0399  0.0000  0.1756  0.0000  0.0110  0.1756  0.0036 </r>
        <r>  0.0000  0.0399  0.0399  0.0000  0.1756  0.0000  0.0110  0.1756  0.0036 </r>
       </set>
       <set comment="band 5">
        <r>  0.0073  0.0147  0.0147  0.0727  0.0265  0.2751  0.0000  0.0265  0.0001 </r>
        <r>  0.0073  0.0147  0.0147  0.0727  0.0265  0.2751  0.0000  0.0265  0.0001 </r>
       </set>
       <set comment="band 6">
        <r>  0.0014  0.0143  0.0143  0.0715  0.0340  0.2643  0.0014  0.0340  0.0043 </r>
        <r>  0.0014  0.0143  0.0143  0.0715  0.0340  0.2643  0.0014  0.0340  0.0043 </r>
       </set>
       <set comment="band 7">
        <r>  0.0000  0.0000  0.0000  0.0000  0.0103  0.0000  0.3556  0.0102  0.1172 </r>
        <r>  0.0000  0.0000  0.0000  0.0000  0.0103  0.0000  0.3556  0.0102  0.1172 </r>
       </set>
       <set comment="band 8">
        <r>  0.0000  0.0000  0.0000  0.0000  0.0081  0.0000  0.3588  0.0081  0.1182 </r>
        <r>  0.0000  0.0000  0.0000  0.0000  0.0081  0.0000  0.3588  0.0081  0.1182 </r>
       </set>
       <set comment="band 9">
        <r>  0.0000  0.0000  0.0000  0.0000  0.0035  0.0034  0.1198  0.0036  0.3633 </r>
        <r>  0.0000  0.0000  0.0000  0.0000  0.0035  0.0034  0.1198  0.0036  0.3633 </r>
       </set>
       <set comment="band 10">
        <r>  0.0000  0.0000  0.0000  0.0000  0.0028  0.0003  0.1209  0.0028  0.3668 </r>
        <r>  0.0000  0.0000  0.0000  0.0000  0.0028  0.0003  0.1209  0.0028  0.3668 </r>
       </set>
       <set comment="band 11">
        <r>  0.0294  0.0407  0.0407  0.0662  0.0744  0.1008  0.0002  0.0744  0.0007 </r>
        <r>  0.0294  0.0407  0.0407  0.0662  0.0744  0.1008  0.0002  0.0744  0.0007 </r>
       </set>
       <set comment="band 12">
        <r>  0.0136  0.0369  0.0369  0.0943  0.0583  0.1181  0.0012  0.0583  0.0036 </r>
        <r>  0.0136  0.0369  0.0369  0.0943  0.0583  0.1181  0.0012  0.0583  0.0036 </r>
       </set>
       <set comment="band 13">
        <r>  0.0000  0.0913  0.0913  0.0000  0.1101  0.0000  0.0079  0.1101  0.0026 </r>
        <r>  0.0000  0.0913  0.0913  0.0000  0.1101  0.0000  0.0079  0.1101  0.0026 </r>
       </set>
       <set comment="band 14">
        <r>  0.0000  0.0901  0.0901  0.0000  0.1095  0.0000  0.0067  0.1095  0.0022 </r>
        <r>  0.0000  0.0901  0.0901  0.0000  0.1095  0.0000  0.0067  0.1095  0.0022 </r>
       </set>
       <set comment="band 15">
        <r>  0.1948  0.0066  0.0066  0.0531  0.0343  0.0802  0.0000  0.0343  0.0000 </r>
        <r>  0.1948  0.0066  0.0066  0.0531  0.0343  0.0802  0.0000  0.0343  0.0000 </r>
       </set>
       <set comment="band 16">
        <r>  0.0900  0.0112  0.0112  0.1062  0.0345  0.1149  0.0004  0.0345  0.0013 </r>
        <r>  0.0900  0.0112  0.0112  0.1062  0.0345  0.1149  0.0004  0.0345  0.0013 </r>
       </set>
       <set comment="band 17">
        <r>  0.2686  0.0416  0.0416  0.0048  0.0124  0.0169  0.0002  0.0124  0.0006 </r>
        <r>  0.2686  0.0416  0.0416  0.0048  0.0124  0.0169  0.0002  0.0124  0.0006 </r>
       </set>
       <set comment="band 18">
        <r>  0.1826  0.0492  0.0492  0.0302  0.0256  0.0316  0.0001  0.0256  0.0003 </r>
        <r>  0.1826  0.0492  0.0492  0.0302  0.0256  0.0316  0.0001  0.0256  0.0003 </r>
       </set>
       <set comment="band 19">
        <r>  0.0000  0.0041  0.0041  0.0000  0.0277  0.0000  0.0277  0.0277  0.0093 </r>
        <r>  0.0000  0.0041  0.0041  0.0000  0.0277  0.0000  0.0277  0.0277  0.0093 </r>
       </set>
       <set comment="band 20">
        <r>  0.0000  0.0014  0.0014  0.0000  0.0186  0.0000  0.0095  0.0186  0.0031 </r>
        <r>  0.0000  0.0014  0.0014  0.0000  0.0186  0.0000  0.0094  0.0186  0.0032 </r>
       </set>
      </set>
      <set comment="kpoint 285">
       <set comment="band 1">
        <r>  0.0056  0.0114  0.0323  0.0114  0.1920  0.0989  0.0025  0.0989  0.0000 </r>
        <r>  0.0056  0.0114  0.0323  0.0114  0.1920  0.0989  0.0025  0.0989  0.0000 </r>
       </set>
       <set comment="band 2">
        <r>  0.0056  0.0000  0.0710  0.0000  0.3593  0.0013  0.0085  0.0013  0.0000 </r>
        <r>  0.0056  0.0000  0.0710  0.0000  0.3593  0.0013  0.0085  0.0013  0.0000 </r>
       </set>
       <set comment="band 3">
        <r>  0.0000  0.0281  0.0000  0.0281  0.0000  0.1986  0.0000  0.1986  0.0011 </r>
        <r>  0.0000  0.0281  0.0000  0.0281  0.0000  0.1986  0.0000  0.1986  0.0011 </r>
       </set>
       <set comment="band 4">
        <r>  0.0009  0.0168  0.0399  0.0168  0.1678  0.0993  0.0071  0.0993  0.0000 </r>
        <r>  0.0009  0.0168  0.0399  0.0168  0.1678  0.0993  0.0071  0.0993  0.0000 </r>
       </set>
       <set comment="band 5">
        <r>  0.0023  0.0492  0.0012  0.0492  0.0007  0.1686  0.0002  0.1686  0.0000 </r>
        <r>  0.0023  0.0492  0.0012  0.0492  0.0007  0.1686  0.0002  0.1686  0.0000 </r>
       </set>
       <set comment="band 6">
        <r>  0.0000  0.0492  0.0000  0.0492  0.0000  0.1702  0.0000  0.1702  0.0021 </r>
        <r>  0.0000  0.0492  0.0000  0.0492  0.0000  0.1702  0.0000  0.1702  0.0021 </r>
       </set>
       <set comment="band 7">
        <r>  0.0000  0.0000  0.0000  0.0000  0.0126  0.0005  0.4800  0.0005  0.0000 </r>
        <r>  0.0000  0.0000  0.0000  0.0000  0.0126  0.0005  0.4800  0.0005  0.0000 </r>
       </set>
       <set comment="band 8">
        <r>  0.0000  0.0000  0.0000  0.0000  0.0116  0.0002  0.4815  0.0002  0.0000 </r>
        <r>  0.0000  0.0000  0.0000  0.0000  0.0116  0.0002  0.4815  0.0002  0.0000 </r>
       </set>
       <set comment="band 9">
        <r>  0.0000  0.0000  0.0000  0.0000  0.0000  0.0015  0.0000  0.0015  0.4909 </r>
        <r>  0.0000  0.0000  0.0000  0.0000  0.0000  0.0015  0.0000  0.0015  0.4909 </r>
       </set>
       <set comment="band 10">
        <r>  0.0000  0.0000  0.0000  0.0000  0.0000  0.0007  0.0000  0.0007  0.4924 </r>
        <r>  0.0000  0.0000  0.0000  0.0000  0.0000  0.0007  0.0000  0.0007  0.4924 </r>
       </set>
       <set comment="band 11">
        <r>  0.0181  0.0697  0.0242  0.0697  0.0424  0.0985  0.0003  0.0985  0.0000 </r>
        <r>  0.0181  0.0697  0.0242  0.0697  0.0424  0.0985  0.0003  0.0985  0.0000 </r>
       </set>
       <set comment="band 12">
        <r>  0.0000  0.0907  0.0000  0.0907  0.0000  0.1169  0.0000  0.1169  0.0015 </r>
        <r>  0.0000  0.0907  0.0000  0.0907  0.0000  0.1169  0.0000  0.1169  0.0015 </r>
       </set>
       <set comment="band 13">
        <r>  0.0406  0.0076  0.1364  0.0076  0.2035  0.0070  0.0066  0.0070  0.0000 </r>
        <r>  0.0406  0.0076  0.1364  0.0076  0.2035  0.0070  0.0066  0.0070  0.0000 </r>
       </set>
       <set comment="band 14">
        <r>  0.0396  0.0198  0.1142  0.0198  0.1736  0.0201  0.0057  0.0201  0.0000 </r>
        <r>  0.0396  0.0198  0.1142  0.0198  0.1736  0.0201  0.0057  0.0201  0.0000 </r>
       </set>
       <set comment="band 15">
        <r>  0.0999  0.0610  0.0000  0.0610  0.0052  0.0894  0.0001  0.0894  0.0000 </r>
        <r>  0.0999  0.0610  0.0000  0.0610  0.0052  0.0894  0.0001  0.0894  0.0000 </r>
       </set>
       <set comment="band 16">
        <r>  0.0000  0.0884  0.0000  0.0884  0.0000  0.1120  0.0000  0.1120  0.0009 </r>
        <r>  0.0000  0.0884  0.0000  0.0884  0.0000  0.1120  0.0000  0.1120  0.0009 </r>
       </set>
       <set comment="band 17">
        <r>  0.3383  0.0014  0.0473  0.0014  0.0130  0.0000  0.0006  0.0000  0.0000 </r>
        <r>  0.3383  0.0014  0.0473  0.0014  0.0130  0.0000  0.0006  0.0000  0.0000 </r>
       </set>
       <set comment="band 18">
        <r>  0.2566  0.0201  0.0494  0.0201  0.0195  0.0164  0.0004  0.0164  0.0000 </r>
        <r>  0.2566  0.0201  0.0494  0.0201  0.0195  0.0164  0.0004  0.0164  0.0000 </r>
       </set>
       <set comment="band 19">
        <r>  0.0000  0.0007  0.0026  0.0007  0.0085  0.0290  0.0135  0.0290  0.0000 </r>
        <r>  0.0000  0.0007  0.0026  0.0007  0.0085  0.0290  0.0135  0.0290  0.0000 </r>
       </set>
       <set comment="band 20">
        <r>  0.0000  0.0005  0.0000  0.0005  0.0000  0.0284  0.0000  0.0284  0.0008 </r>
        <r>  0.0000  0.0004  0.0000  0.0004  0.0000  0.0286  0.0000  0.0286  0.0007 </r>
       </set>
      </set>
      <set comment="kpoint 286">
       <set comment="band 1">
        <r>  0.0018  0.0207  0.0207  0.0207  0.1295  0.1293  0.0000  0.1293  0.0000 </r>
        <r>  0.0018  0.0207  0.0207  0.0207  0.1295  0.1293  0.0000  0.1293  0.0000 </r>
       </set>
       <set comment="band 2">
        <r>  0.0000  0.0104  0.0460  0.0126  0.2532  0.0696  0.0013  0.0571  0.0000 </r>
        <r>  0.0000  0.0104  0.0460  0.0126  0.2532  0.0696  0.0013  0.0571  0.0000 </r>
       </set>
       <set comment="band 3">
        <r>  0.0000  0.0356  0.0000  0.0333  0.0002  0.1836  0.0000  0.1961  0.0013 </r>
        <r>  0.0000  0.0356  0.0000  0.0333  0.0002  0.1836  0.0000  0.1961  0.0013 </r>
       </set>
       <set comment="band 4">
        <r>  0.0000  0.0125  0.0553  0.0152  0.2403  0.0662  0.0017  0.0545  0.0000 </r>
        <r>  0.0000  0.0125  0.0553  0.0152  0.2403  0.0662  0.0017  0.0545  0.0000 </r>
       </set>
       <set comment="band 5">
        <r>  0.0000  0.0428  0.0000  0.0402  0.0002  0.1745  0.0000  0.1862  0.0017 </r>
        <r>  0.0000  0.0428  0.0000  0.0402  0.0002  0.1745  0.0000  0.1862  0.0017 </r>
       </set>
       <set comment="band 6">
        <r>  0.0022  0.0301  0.0300  0.0301  0.1166  0.1169  0.0000  0.1169  0.0000 </r>
        <r>  0.0022  0.0301  0.0300  0.0301  0.1166  0.1169  0.0000  0.1169  0.0000 </r>
       </set>
       <set comment="band 7">
        <r>  0.0000  0.0000  0.0000  0.0000  0.0016  0.0003  0.4880  0.0005  0.0036 </r>
        <r>  0.0000  0.0000  0.0000  0.0000  0.0016  0.0003  0.4880  0.0005  0.0036 </r>
       </set>
       <set comment="band 8">
        <r>  0.0000  0.0000  0.0000  0.0000  0.0000  0.0013  0.0036  0.0011  0.4880 </r>
        <r>  0.0000  0.0000  0.0000  0.0000  0.0000  0.0013  0.0036  0.0011  0.4880 </r>
       </set>
       <set comment="band 9">
        <r>  0.0000  0.0000  0.0000  0.0000  0.0012  0.0002  0.4885  0.0004  0.0036 </r>
        <r>  0.0000  0.0000  0.0000  0.0000  0.0012  0.0002  0.4885  0.0004  0.0036 </r>
       </set>
       <set comment="band 10">
        <r>  0.0000  0.0000  0.0000  0.0000  0.0000  0.0010  0.0036  0.0008  0.4885 </r>
        <r>  0.0000  0.0000  0.0000  0.0000  0.0000  0.0010  0.0036  0.0008  0.4885 </r>
       </set>
       <set comment="band 11">
        <r>  0.0140  0.0567  0.0567  0.0567  0.0775  0.0775  0.0000  0.0775  0.0000 </r>
        <r>  0.0140  0.0567  0.0567  0.0567  0.0775  0.0775  0.0000  0.0775  0.0000 </r>
       </set>
       <set comment="band 12">
        <r>  0.0000  0.0254  0.1210  0.0356  0.1526  0.0449  0.0012  0.0320  0.0000 </r>
        <r>  0.0000  0.0254  0.1210  0.0356  0.1526  0.0449  0.0012  0.0320  0.0000 </r>
       </set>
       <set comment="band 13">
        <r>  0.0000  0.0959  0.0003  0.0857  0.0004  0.1081  0.0000  0.1210  0.0012 </r>
        <r>  0.0000  0.0959  0.0003  0.0857  0.0004  0.1081  0.0000  0.1210  0.0012 </r>
       </set>
       <set comment="band 14">
        <r>  0.0000  0.0247  0.1198  0.0358  0.1506  0.0449  0.0010  0.0310  0.0000 </r>
        <r>  0.0000  0.0247  0.1198  0.0358  0.1506  0.0449  0.0010  0.0310  0.0000 </r>
       </set>
       <set comment="band 15">
        <r>  0.0000  0.0955  0.0003  0.0844  0.0004  0.1061  0.0000  0.1200  0.0010 </r>
        <r>  0.0000  0.0955  0.0003  0.0844  0.0004  0.1061  0.0000  0.1200  0.0010 </r>
       </set>
       <set comment="band 16">
        <r>  0.0585  0.0478  0.0478  0.0478  0.0689  0.0690  0.0000  0.0690  0.0000 </r>
        <r>  0.0585  0.0478  0.0478  0.0478  0.0689  0.0690  0.0000  0.0690  0.0000 </r>
       </set>
       <set comment="band 17">
        <r>  0.3894  0.0044  0.0044  0.0044  0.0008  0.0008  0.0000  0.0008  0.0000 </r>
        <r>  0.3894  0.0044  0.0044  0.0044  0.0008  0.0008  0.0000  0.0008  0.0000 </r>
       </set>
       <set comment="band 18">
        <r>  0.3452  0.0123  0.0123  0.0123  0.0071  0.0071  0.0000  0.0071  0.0000 </r>
        <r>  0.3452  0.0123  0.0123  0.0123  0.0071  0.0071  0.0000  0.0071  0.0000 </r>
       </set>
       <set comment="band 19">
        <r>  0.0000  0.0001  0.0004  0.0006  0.0028  0.0037  0.0010  0.0008  0.0008 </r>
        <r>  0.0000  0.0001  0.0004  0.0005  0.0028  0.0036  0.0010  0.0007  0.0008 </r>
       </set>
       <set comment="band 20">
        <r>  0.0000  0.0029  0.0015  0.0008  0.0110  0.0061  0.0039  0.0220  0.0054 </r>
        <r>  0.0000  0.0030  0.0015  0.0008  0.0109  0.0062  0.0039  0.0219  0.0054 </r>
       </set>
      </set>
     </set>
    </set>
   </array>
  </projected>
 </calculation>
 <structure name="finalpos" >
  <crystal>
   <varray name="basis" >
    <v>       2.83001277       0.00000000       0.00000000 </v>
    <v>       0.00000000       2.83001277       0.00000000 </v>
    <v>       0.00000000       0.00000000       2.83001277 </v>
   </varray>
   <i name="volume">     22.66549390 </i>
   <varray name="rec_basis" >
    <v>       0.35335530      -0.00000000       0.00000000 </v>
    <v>       0.00000000       0.35335530       0.00000000 </v>
    <v>      -0.00000000      -0.00000000       0.35335530 </v>
   </varray>
  </crystal>
  <varray name="positions" >
   <v>       0.00000000       0.00000000       0.00000000 </v>
   <v>       0.50000000       0.50000000       0.50000000 </v>
  </varray>
 </structure>
</modeling>
