unknown system                          
           1
     2.830013    0.000000    0.000000
     0.000000    2.830013    0.000000
     0.000000    0.000000    2.830013
   Fe
     2
Direct configuration=     1
   0.00000000  0.00000000  0.00000000
   0.50000000  0.50000000  0.50000000
