   1   1   0   0
  0.1386300E+02  0.2621157E-09  0.2621157E-09  0.2621157E-09  0.5000000E-15
  1.000000000000000E-004
  CAR 
 unknown system                          
     36.23535737     -6.15693729  301      9.88819692      1.00000000
     -6.157  0.0000E+00  0.0000E+00
     -6.016  0.0000E+00  0.0000E+00
     -5.874  0.0000E+00  0.0000E+00
     -5.733  0.0000E+00  0.0000E+00
     -5.592  0.0000E+00  0.0000E+00
     -5.450  0.0000E+00  0.0000E+00
     -5.309  0.0000E+00  0.0000E+00
     -5.168  0.0000E+00  0.0000E+00
     -5.026  0.0000E+00  0.0000E+00
     -4.885  0.0000E+00  0.0000E+00
     -4.744  0.0000E+00  0.0000E+00
     -4.603  0.0000E+00  0.0000E+00
     -4.461  0.9507E-14  0.1343E-14
     -4.320  0.1699E-05  0.2400E-06
     -4.179  0.2858E-03  0.4062E-04
     -4.037  0.3723E-03  0.9323E-04
     -3.896  0.9628E-03  0.2293E-03
     -3.755  0.3374E-03  0.2770E-03
     -3.613  0.6329E-03  0.3664E-03
     -3.472  0.1236E-02  0.5411E-03
     -3.331  0.1097E-02  0.6961E-03
     -3.189  0.1055E-02  0.8452E-03
     -3.048  0.7972E-04  0.8565E-03
     -2.907  0.2372E-02  0.1192E-02
     -2.766  0.1223E-02  0.1364E-02
     -2.624  0.2294E-02  0.1689E-02
     -2.483  0.2228E-03  0.1720E-02
     -2.342  0.1102E-02  0.1876E-02
     -2.200  0.1383E-02  0.2071E-02
     -2.059  0.2264E-02  0.2391E-02
     -1.918  0.2162E-02  0.2697E-02
     -1.776  0.4164E-03  0.2756E-02
     -1.635  0.2282E-02  0.3078E-02
     -1.494  0.2298E-02  0.3403E-02
     -1.352  0.1180E-02  0.3569E-02
     -1.211  0.5088E-04  0.3577E-02
     -1.070  0.4626E-02  0.4230E-02
     -0.929  0.1389E-02  0.4427E-02
     -0.787  0.3119E-02  0.4867E-02
     -0.646  0.7327E-03  0.4971E-02
     -0.505  0.1555E-02  0.5191E-02
     -0.363  0.2276E-02  0.5512E-02
     -0.222  0.2532E-02  0.5870E-02
     -0.081  0.2612E-02  0.6239E-02
      0.061  0.2777E-03  0.6278E-02
      0.202  0.2421E-02  0.6620E-02
      0.343  0.3582E-02  0.7126E-02
      0.485  0.3563E-02  0.7630E-02
      0.626  0.9118E-04  0.7643E-02
      0.767  0.4588E-02  0.8291E-02
      0.908  0.1423E-02  0.8492E-02
      1.050  0.4127E-02  0.9075E-02
      1.191  0.9724E-03  0.9213E-02
      1.332  0.1510E-02  0.9426E-02
      1.474  0.2398E-02  0.9765E-02
      1.615  0.3220E-02  0.1022E-01
      1.756  0.3187E-02  0.1067E-01
      1.898  0.9439E-03  0.1080E-01
      2.039  0.4728E-02  0.1147E-01
      2.180  0.3507E-02  0.1197E-01
      2.322  0.2261E-02  0.1229E-01
      2.463  0.2117E-03  0.1232E-01
      2.604  0.7102E-02  0.1332E-01
      2.745  0.2510E-02  0.1368E-01
      2.887  0.2432E-02  0.1402E-01
      3.028  0.1476E-03  0.1404E-01
      3.169  0.2644E-02  0.1441E-01
      3.311  0.3420E-02  0.1490E-01
      3.452  0.5071E-02  0.1561E-01
      3.593  0.2557E-02  0.1597E-01
      3.735  0.4928E-02  0.1667E-01
      3.876  0.3801E-02  0.1721E-01
      4.017  0.9453E-03  0.1734E-01
      4.159  0.2588E-02  0.1771E-01
      4.300  0.2403E-02  0.1805E-01
      4.441  0.5260E-02  0.1879E-01
      4.582  0.1060E-02  0.1894E-01
      4.724  0.4566E-02  0.1959E-01
      4.865  0.1615E-02  0.1981E-01
      5.006  0.4483E-02  0.2045E-01
      5.148  0.3849E-02  0.2099E-01
      5.289  0.2588E-02  0.2136E-01
      5.430  0.2479E-02  0.2171E-01
      5.572  0.7249E-02  0.2273E-01
      5.713  0.3799E-02  0.2327E-01
      5.854  0.3498E-02  0.2376E-01
      5.996  0.2340E-02  0.2409E-01
      6.137  0.2266E-02  0.2441E-01
      6.278  0.3775E-02  0.2495E-01
      6.419  0.4302E-02  0.2555E-01
      6.561  0.2066E-02  0.2585E-01
      6.702  0.2754E-02  0.2624E-01
      6.843  0.4733E-02  0.2690E-01
      6.985  0.3745E-02  0.2743E-01
      7.126  0.4619E-02  0.2809E-01
      7.267  0.2414E-02  0.2843E-01
      7.409  0.9022E-02  0.2970E-01
      7.550  0.1449E-02  0.2991E-01
      7.691  0.4028E-02  0.3048E-01
      7.833  0.1552E-02  0.3070E-01
      7.974  0.8673E-02  0.3192E-01
      8.115  0.2766E-02  0.3231E-01
      8.256  0.2583E-02  0.3268E-01
      8.398  0.1974E-02  0.3296E-01
      8.539  0.4120E-02  0.3354E-01
      8.680  0.7245E-02  0.3456E-01
      8.822  0.4834E-02  0.3524E-01
      8.963  0.3873E-02  0.3579E-01
      9.104  0.2503E-02  0.3615E-01
      9.246  0.2982E-02  0.3657E-01
      9.387  0.4822E-02  0.3725E-01
      9.528  0.3549E-02  0.3775E-01
      9.670  0.8275E-02  0.3892E-01
      9.811  0.6154E-02  0.3979E-01
      9.952  0.5289E-02  0.4054E-01
     10.093  0.4530E-02  0.4118E-01
     10.235  0.2682E-02  0.4156E-01
     10.376  0.6003E-02  0.4240E-01
     10.517  0.2079E-02  0.4270E-01
     10.659  0.3137E-02  0.4314E-01
     10.800  0.4875E-02  0.4383E-01
     10.941  0.5386E-02  0.4459E-01
     11.083  0.3343E-02  0.4506E-01
     11.224  0.4074E-02  0.4564E-01
     11.365  0.6492E-02  0.4656E-01
     11.507  0.4368E-02  0.4717E-01
     11.648  0.1423E-02  0.4737E-01
     11.789  0.4053E-02  0.4795E-01
     11.930  0.3980E-02  0.4851E-01
     12.072  0.9192E-02  0.4981E-01
     12.213  0.2779E-02  0.5020E-01
     12.354  0.2179E-02  0.5051E-01
     12.496  0.6560E-02  0.5144E-01
     12.637  0.6602E-02  0.5237E-01
     12.778  0.2950E-02  0.5279E-01
     12.920  0.3468E-02  0.5328E-01
     13.061  0.5669E-02  0.5408E-01
     13.202  0.4517E-02  0.5472E-01
     13.344  0.1399E-02  0.5491E-01
     13.485  0.2614E-02  0.5528E-01
     13.626  0.7919E-02  0.5640E-01
     13.767  0.4807E-02  0.5708E-01
     13.909  0.4097E-02  0.5766E-01
     14.050  0.9188E-02  0.5896E-01
     14.191  0.4905E-03  0.5903E-01
     14.333  0.5422E-02  0.5979E-01
     14.474  0.9712E-02  0.6117E-01
     14.615  0.4066E-02  0.6174E-01
     14.757  0.3682E-02  0.6226E-01
     14.898  0.6841E-02  0.6323E-01
     15.039  0.1248E-02  0.6340E-01
     15.181  0.5232E-02  0.6414E-01
     15.322  0.5131E-02  0.6487E-01
     15.463  0.7262E-02  0.6589E-01
     15.604  0.5332E-02  0.6665E-01
     15.746  0.5617E-02  0.6744E-01
     15.887  0.5614E-02  0.6823E-01
     16.028  0.5717E-02  0.6904E-01
     16.170  0.1556E-02  0.6926E-01
     16.311  0.2072E-02  0.6956E-01
     16.452  0.6830E-02  0.7052E-01
     16.594  0.8492E-02  0.7172E-01
     16.735  0.9893E-02  0.7312E-01
     16.876  0.4545E-02  0.7376E-01
     17.018  0.5082E-02  0.7448E-01
     17.159  0.8894E-02  0.7574E-01
     17.300  0.2465E-02  0.7608E-01
     17.441  0.7774E-03  0.7619E-01
     17.583  0.7949E-02  0.7732E-01
     17.724  0.7084E-02  0.7832E-01
     17.865  0.7894E-02  0.7943E-01
     18.007  0.7054E-02  0.8043E-01
     18.148  0.6615E-02  0.8137E-01
     18.289  0.6966E-02  0.8235E-01
     18.431  0.1434E-02  0.8255E-01
     18.572  0.3156E-02  0.8300E-01
     18.713  0.2370E-02  0.8333E-01
     18.855  0.2419E-02  0.8367E-01
     18.996  0.6021E-02  0.8453E-01
     19.137  0.5937E-02  0.8536E-01
     19.278  0.3443E-02  0.8585E-01
     19.420  0.8610E-03  0.8597E-01
     19.561  0.3052E-02  0.8640E-01
     19.702  0.1702E-02  0.8664E-01
     19.844  0.5815E-02  0.8747E-01
     19.985  0.9602E-02  0.8882E-01
     20.126  0.6955E-02  0.8981E-01
     20.268  0.1066E-01  0.9131E-01
     20.409  0.5728E-02  0.9212E-01
     20.550  0.3226E-02  0.9258E-01
     20.692  0.6045E-02  0.9343E-01
     20.833  0.5835E-02  0.9426E-01
     20.974  0.7448E-02  0.9531E-01
     21.115  0.4338E-02  0.9592E-01
     21.257  0.7082E-02  0.9692E-01
     21.398  0.5134E-02  0.9765E-01
     21.539  0.7209E-02  0.9867E-01
     21.681  0.7522E-02  0.9973E-01
     21.822  0.5723E-02  0.1005E+00
     21.963  0.3186E-02  0.1010E+00
     22.105  0.6278E-02  0.1019E+00
     22.246  0.1015E-01  0.1033E+00
     22.387  0.9098E-02  0.1046E+00
     22.529  0.6785E-02  0.1056E+00
     22.670  0.1139E-01  0.1072E+00
     22.811  0.4702E-02  0.1078E+00
     22.952  0.3697E-02  0.1084E+00
     23.094  0.4449E-02  0.1090E+00
     23.235  0.9388E-02  0.1103E+00
     23.376  0.8903E-02  0.1116E+00
     23.518  0.4926E-02  0.1123E+00
     23.659  0.8919E-03  0.1124E+00
     23.800  0.4565E-02  0.1130E+00
     23.942  0.7185E-02  0.1140E+00
     24.083  0.8169E-02  0.1152E+00
     24.224  0.3071E-02  0.1156E+00
     24.366  0.4553E-02  0.1163E+00
     24.507  0.3295E-02  0.1167E+00
     24.648  0.7475E-02  0.1178E+00
     24.789  0.3347E-02  0.1183E+00
     24.931  0.7693E-02  0.1194E+00
     25.072  0.7686E-02  0.1204E+00
     25.213  0.5908E-02  0.1213E+00
     25.355  0.6746E-02  0.1222E+00
     25.496  0.7703E-02  0.1233E+00
     25.637  0.5892E-02  0.1242E+00
     25.779  0.4500E-02  0.1248E+00
     25.920  0.6566E-02  0.1257E+00
     26.061  0.1097E-01  0.1273E+00
     26.203  0.4619E-02  0.1279E+00
     26.344  0.4330E-02  0.1285E+00
     26.485  0.8889E-02  0.1298E+00
     26.626  0.7902E-02  0.1309E+00
     26.768  0.7538E-02  0.1320E+00
     26.909  0.5296E-02  0.1327E+00
     27.050  0.4102E-02  0.1333E+00
     27.192  0.1898E-02  0.1336E+00
     27.333  0.2249E-02  0.1339E+00
     27.474  0.4411E-02  0.1345E+00
     27.616  0.9881E-02  0.1359E+00
     27.757  0.7164E-02  0.1369E+00
     27.898  0.5329E-02  0.1377E+00
     28.040  0.6996E-02  0.1387E+00
     28.181  0.4823E-02  0.1393E+00
     28.322  0.1137E-01  0.1409E+00
     28.463  0.8672E-02  0.1422E+00
     28.605  0.3732E-02  0.1427E+00
     28.746  0.4359E-02  0.1433E+00
     28.887  0.1178E-01  0.1450E+00
     29.029  0.8077E-02  0.1461E+00
     29.170  0.5762E-02  0.1469E+00
     29.311  0.5190E-02  0.1477E+00
     29.453  0.7198E-02  0.1487E+00
     29.594  0.6227E-02  0.1496E+00
     29.735  0.6069E-02  0.1504E+00
     29.877  0.3789E-02  0.1510E+00
     30.018  0.5660E-02  0.1518E+00
     30.159  0.3193E-02  0.1522E+00
     30.300  0.6403E-02  0.1531E+00
     30.442  0.9542E-02  0.1545E+00
     30.583  0.1102E-01  0.1560E+00
     30.724  0.3653E-02  0.1565E+00
     30.866  0.5165E-02  0.1573E+00
     31.007  0.3481E-02  0.1578E+00
     31.148  0.6048E-03  0.1578E+00
     31.290  0.6299E-03  0.1579E+00
     31.431  0.2898E-02  0.1583E+00
     31.572  0.3082E-02  0.1588E+00
     31.714  0.1116E-02  0.1589E+00
     31.855  0.9520E-04  0.1589E+00
     31.996  0.3494E-03  0.1590E+00
     32.137  0.5741E-03  0.1591E+00
     32.279  0.9438E-03  0.1592E+00
     32.420  0.2702E-05  0.1592E+00
     32.561  0.1200E-02  0.1594E+00
     32.703  0.1161E-02  0.1595E+00
     32.844  0.1468E-02  0.1598E+00
     32.985  0.2948E-03  0.1598E+00
     33.127  0.2519E-03  0.1598E+00
     33.268  0.1607E-03  0.1599E+00
     33.409  0.3894E-08  0.1599E+00
     33.551  0.0000E+00  0.1599E+00
     33.692  0.0000E+00  0.1599E+00
     33.833  0.3545E-11  0.1599E+00
     33.974  0.1725E-04  0.1599E+00
     34.116  0.2969E-03  0.1599E+00
     34.257  0.3280E-03  0.1599E+00
     34.398  0.3872E-03  0.1600E+00
     34.540  0.2265E-05  0.1600E+00
     34.681  0.1268E-13  0.1600E+00
     34.822  0.0000E+00  0.1600E+00
     34.964  0.0000E+00  0.1600E+00
     35.105  0.0000E+00  0.1600E+00
     35.246  0.0000E+00  0.1600E+00
     35.388  0.0000E+00  0.1600E+00
     35.529  0.0000E+00  0.1600E+00
     35.670  0.0000E+00  0.1600E+00
     35.811  0.0000E+00  0.1600E+00
     35.953  0.0000E+00  0.1600E+00
     36.094  0.0000E+00  0.1600E+00
     36.235  0.0000E+00  0.1600E+00
