    1    1  100    1
  0.1386300E+02  0.2621157E-09  0.2621157E-09  0.2621157E-09  0.5000000E-15
  1.000000000000000E-004
  CAR 
 unknown system                          
      4    100      8
 
  0.3571429E-01  0.3571429E-01  0.3571429E-01  0.2915452E-02
    1       -4.073654   1.000000
    2       19.114183   0.000000
    3       20.020151   0.000000
    4       20.020151   0.000000
    5       22.873166   0.000000
    6       22.873166   0.000000
    7       24.553287   0.000000
    8       25.525366   0.000000
 
  0.1071429E+00  0.3571429E-01  0.3571429E-01  0.8746356E-02
    1       -3.605272   1.000000
    2       16.727340   0.000000
    3       18.130848   0.000000
    4       19.038059   0.000000
    5       22.303983   0.000000
    6       23.365647   0.000000
    7       25.196227   0.000000
    8       25.942667   0.000000
 
  0.1785714E+00  0.3571429E-01  0.3571429E-01  0.8746356E-02
    1       -2.827024   1.000000
    2       13.745912   0.000000
    3       16.880633   0.000000
    4       17.986904   0.000000
    5       21.595160   0.000000
    6       22.557860   0.000000
    7       26.246379   0.000000
    8       26.420948   0.000000
 
  0.2500000E+00  0.3571429E-01  0.3571429E-01  0.8746356E-02
    1       -1.742467   1.000000
    2       10.810842   0.000000
    3       15.937608   0.000000
    4       17.084930   0.000000
    5       20.893935   0.000000
    6       21.738470   0.000000
    7       27.184349   0.000000
    8       27.496549   0.000000
 
  0.3214286E+00  0.3571429E-01  0.3571429E-01  0.8746356E-02
    1       -0.356810   1.000000
    2        8.064080   1.000000
    3       15.267129   0.000000
    4       16.411232   0.000000
    5       20.330328   0.000000
    6       21.113546   0.000000
    7       28.239761   0.000000
    8       28.860730   0.000000
 
  0.3928571E+00  0.3571429E-01  0.3571429E-01  0.8746356E-02
    1        1.321354   1.000000
    2        5.557859   1.000000
    3       14.864727   0.000000
    4       15.998837   0.000000
    5       19.973311   0.000000
    6       20.724961   0.000000
    7       29.460768   0.000000
    8       30.192974   0.000000
 
  0.4642857E+00  0.3571429E-01  0.3571429E-01  0.4373178E-02
    1        3.103868   1.000000
    2        3.498079   1.000000
    3       14.730585   0.000000
    4       15.859508   0.000000
    5       19.851243   0.000000
    6       20.593791   0.000000
    7       30.274932   0.000000
    8       30.892718   0.000000
 
 -0.3571429E-01  0.3571429E-01  0.3571429E-01  0.2186589E-02
    1       -4.230015   1.000000
    2       20.465308   0.000000
    3       20.465308   0.000000
    4       21.005394   0.000000
    5       22.579883   0.000000
    6       23.157135   0.000000
    7       23.157135   0.000000
    8       25.172707   0.000000
 
  0.1071429E+00  0.1071429E+00  0.3571429E-01  0.8746356E-02
    1       -2.982427   1.000000
    2       15.198788   0.000000
    3       15.783491   0.000000
    4       17.480168   0.000000
    5       22.820642   0.000000
    6       23.903939   0.000000
    7       25.271459   0.000000
    8       26.448117   0.000000
 
  0.1785714E+00  0.1071429E+00  0.3571429E-01  0.1749271E-01
    1       -2.051711   1.000000
    2       12.488715   0.000000
    3       14.427157   0.000000
    4       16.429882   0.000000
    5       22.536544   0.000000
    6       23.720848   0.000000
    7       25.958101   0.000000
    8       27.658574   0.000000
 
  0.2500000E+00  0.1071429E+00  0.3571429E-01  0.1749271E-01
    1       -0.817374   1.000000
    2        9.660509   1.000000
    3       13.578289   0.000000
    4       15.624942   0.000000
    5       21.989759   0.000000
    6       23.426450   0.000000
    7       26.763971   0.000000
    8       29.177745   0.000000
 
  0.3214286E+00  0.1071429E+00  0.3571429E-01  0.1749271E-01
    1        0.714118   1.000000
    2        7.035951   1.000000
    3       13.015884   0.000000
    4       15.079221   0.000000
    5       21.541589   0.000000
    6       23.132768   0.000000
    7       27.910457   0.000000
    8       30.411633   0.000000
 
  0.3928571E+00  0.1071429E+00  0.3571429E-01  0.1749271E-01
    1        2.527714   1.000000
    2        4.670484   1.000000
    3       12.734018   0.000000
    4       14.803384   0.000000
    5       21.302134   0.000000
    6       22.957919   0.000000
    7       29.253456   0.000000
    8       30.515827   0.000000
 
 -0.1071429E+00  0.1071429E+00  0.3571429E-01  0.8746356E-02
    1       -3.917407   1.000000
    2       18.173492   0.000000
    3       19.042119   0.000000
    4       20.553787   0.000000
    5       21.860491   0.000000
    6       23.382401   0.000000
    7       24.277351   0.000000
    8       24.934392   0.000000
 
  0.1785714E+00  0.1785714E+00  0.3571429E-01  0.8746356E-02
    1       -0.971161   1.000000
    2       11.334197   0.000000
    3       11.716730   0.000000
    4       15.480712   0.000000
    5       23.070737   0.000000
    6       24.072264   0.000000
    7       27.087857   0.000000
    8       28.197867   0.000000
 
  0.2500000E+00  0.1785714E+00  0.3571429E-01  0.1749271E-01
    1        0.409399   1.000000
    2        8.784326   1.000000
    3       10.824190   0.000000
    4       14.802067   0.000000
    5       22.966077   0.000000
    6       24.583433   0.000000
    7       27.536100   0.000000
    8       29.670317   0.000000
 
  0.3214286E+00  0.1785714E+00  0.3571429E-01  0.1749271E-01
    1        2.081548   1.000000
    2        6.297445   1.000000
    3       10.385180   0.000000
    4       14.390541   0.000000
    5       22.698503   0.000000
    6       25.147634   0.000000
    7       27.978448   0.000000
    8       30.187337   0.000000
 
  0.3928571E+00  0.1785714E+00  0.3571429E-01  0.8746356E-02
    1        3.864891   1.000000
    2        4.239665   1.000000
    3       10.240044   0.000000
    4       14.252640   0.000000
    5       22.593886   0.000000
    6       25.332888   0.000000
    7       28.645983   0.000000
    8       29.553436   0.000000
 
 -0.1785714E+00  0.1785714E+00  0.3571429E-01  0.8746356E-02
    1       -3.293612   1.000000
    2       15.219710   0.000000
    3       17.743920   0.000000
    4       19.894017   0.000000
    5       20.738051   0.000000
    6       22.422644   0.000000
    7       24.716465   0.000000
    8       27.245482   0.000000
 
 -0.1071429E+00  0.1785714E+00  0.3571429E-01  0.8746356E-02
    1       -3.449367   1.000000
    2       16.611898   0.000000
    3       17.009185   0.000000
    4       19.724077   0.000000
    5       21.729959   0.000000
    6       22.555848   0.000000
    7       24.743073   0.000000
    8       25.776912   0.000000
 
  0.2500000E+00  0.2500000E+00  0.3571429E-01  0.8746356E-02
    1        1.931397   1.000000
    2        8.058262   1.000000
    3        8.370217   1.000000
    4       14.257311   0.000000
    5       23.851061   0.000000
    6       24.863928   0.000000
    7       28.869835   0.000000
    8       29.591644   0.000000
 
  0.3214286E+00  0.2500000E+00  0.3571429E-01  0.1749271E-01
    1        3.733664   1.000000
    2        5.854010   1.000000
    3        7.934351   1.000000
    4       13.982801   0.000000
    5       24.007973   0.000000
    6       25.837199   0.000000
    7       27.808505   0.000000
    8       30.569436   0.000000
 
 -0.2500000E+00  0.2500000E+00  0.3571429E-01  0.8746356E-02
    1       -2.361496   1.000000
    2       12.222483   0.000000
    3       16.686395   0.000000
    4       19.121332   0.000000
    5       19.698052   0.000000
    6       21.604327   0.000000
    7       25.358532   0.000000
    8       28.213711   0.000000
 
 -0.1785714E+00  0.2500000E+00  0.3571429E-01  0.1749271E-01
    1       -2.671688   1.000000
    2       13.850744   0.000000
    3       15.635554   0.000000
    4       18.935750   0.000000
    5       20.979348   0.000000
    6       22.223965   0.000000
    7       24.919619   0.000000
    8       27.522109   0.000000
 
  0.3214286E+00  0.3214286E+00  0.3571429E-01  0.2915452E-02
    1        5.369272   1.000000
    2        5.867096   1.000000
    3        5.867096   1.000000
    4       13.846263   0.000000
    5       24.823665   0.000000
    6       26.432460   0.000000
    7       26.432461   0.000000
    8       32.575450   0.000000
 
 -0.3214286E+00  0.3214286E+00  0.3571429E-01  0.8746356E-02
    1       -1.125371   1.000000
    2        9.372524   1.000000
    3       15.889507   0.000000
    4       18.443704   0.000000
    5       18.874647   0.000000
    6       20.941310   0.000000
    7       26.318227   0.000000
    8       29.362300   0.000000
 
 -0.2500000E+00  0.3214286E+00  0.3571429E-01  0.1749271E-01
    1       -1.587891   1.000000
    2       10.943514   0.000000
    3       14.669467   0.000000
    4       18.162561   0.000000
    5       20.117883   0.000000
    6       22.268677   0.000000
    7       25.004993   0.000000
    8       29.443803   0.000000
 
 -0.1785714E+00  0.3214286E+00  0.3571429E-01  0.8746356E-02
    1       -1.742326   1.000000
    2       12.575950   0.000000
    3       12.937461   0.000000
    4       18.194856   0.000000
    5       21.155960   0.000000
    6       21.761340   0.000000
    7       26.456765   0.000000
    8       27.578341   0.000000
 
 -0.3928571E+00  0.3928571E+00  0.3571429E-01  0.8746356E-02
    1        0.408249   1.000000
    2        6.740717   1.000000
    3       15.356505   0.000000
    4       17.959906   0.000000
    5       18.310105   0.000000
    6       20.466039   0.000000
    7       27.564918   0.000000
    8       30.402455   0.000000
 
 -0.3214286E+00  0.3928571E+00  0.3571429E-01  0.1749271E-01
    1       -0.203330   1.000000
    2        8.205958   1.000000
    3       13.977251   0.000000
    4       17.556668   0.000000
    5       19.445328   0.000000
    6       22.169480   0.000000
    7       25.683732   0.000000
    8       30.473995   0.000000
 
 -0.2500000E+00  0.3928571E+00  0.3571429E-01  0.1749271E-01
    1       -0.509858   1.000000
    2        9.931417   0.110771
    3       11.922265   0.000000
    4       17.524268   0.000000
    5       20.683315   0.000000
    6       22.306130   0.000000
    7       26.511450   0.000000
    8       29.167445   0.000000
 
 -0.4642857E+00  0.4642857E+00  0.3571429E-01  0.8746356E-02
    1        2.224081   1.000000
    2        4.371480   1.000000
    3       15.089862   0.000000
    4       17.710687   0.000000
    5       18.025451   0.000000
    6       20.221017   0.000000
    7       28.994450   0.000000
    8       30.348334   0.000000
 
 -0.3928571E+00  0.4642857E+00  0.3571429E-01  0.1749271E-01
    1        1.473568   1.000000
    2        5.704805   1.000000
    3       13.560480   0.000000
    4       17.179360   0.000000
    5       19.030014   0.000000
    6       22.005085   0.000000
    7       26.884043   0.000000
    8       29.915835   0.000000
 
 -0.3214286E+00  0.4642857E+00  0.3571429E-01  0.1749271E-01
    1        1.019204   1.000000
    2        7.324381   1.000000
    3       11.344991   0.000000
    4       17.038505   0.000000
    5       20.187241   0.000000
    6       23.212603   0.000000
    7       26.357462   0.000000
    8       29.467879   0.000000
 
 -0.2500000E+00  0.4642857E+00  0.3571429E-01  0.8746356E-02
    1        0.867329   1.000000
    2        9.068611   1.000000
    3        9.371168   1.000000
    4       16.972214   0.000000
    5       21.467932   0.000000
    6       22.093681   0.000000
    7       27.996836   0.000000
    8       28.747168   0.000000
 
 -0.4642857E+00 -0.4642857E+00  0.3571429E-01  0.8746356E-02
    1        3.256966   1.000000
    2        3.644990   1.000000
    3       13.421727   0.000000
    4       17.052084   0.000000
    5       18.890392   0.000000
    6       21.934173   0.000000
    7       28.220309   0.000000
    8       28.593941   0.000000
 
 -0.3928571E+00 -0.4642857E+00  0.3571429E-01  0.1749271E-01
    1        2.830038   1.000000
    2        4.966068   1.000000
    3       11.057409   0.000000
    4       16.787872   0.000000
    5       19.925546   0.000000
    6       23.869158   0.000000
    7       26.638877   0.000000
    8       28.387569   0.000000
 
 -0.3214286E+00 -0.4642857E+00  0.3571429E-01  0.1749271E-01
    1        2.535061   1.000000
    2        6.730747   1.000000
    3        8.793931   1.000000
    4       16.611876   0.000000
    5       21.362718   0.000000
    6       23.173433   0.000000
    7       26.621561   0.000000
    8       29.601809   0.000000
 
 -0.3928571E+00 -0.3928571E+00  0.3571429E-01  0.8746356E-02
    1        4.317700   1.000000
    2        4.679339   1.000000
    3        8.644377   1.000000
    4       16.488182   0.000000
    5       21.257742   0.000000
    6       24.242381   0.000000
    7       25.460480   0.000000
    8       29.673811   0.000000
 
 -0.3214286E+00 -0.3928571E+00  0.3571429E-01  0.8746356E-02
    1        4.326428   1.000000
    2        6.308803   1.000000
    3        6.594509   1.000000
    4       16.378605   0.000000
    5       22.508427   0.000000
    6       23.354645   0.000000
    7       24.942715   0.000000
    8       31.614220   0.000000
 
  0.1071429E+00  0.1071429E+00  0.1071429E+00  0.2915452E-02
    1       -2.206551   1.000000
    2       13.827690   0.000000
    3       14.611515   0.000000
    4       14.611515   0.000000
    5       24.476109   0.000000
    6       24.476109   0.000000
    7       26.482297   0.000000
    8       26.482297   0.000000
 
  0.1785714E+00  0.1071429E+00  0.1071429E+00  0.8746356E-02
    1       -1.125172   1.000000
    2       11.359412   0.000000
    3       13.174734   0.000000
    4       13.651544   0.000000
    5       24.505307   0.000000
    6       24.914325   0.000000
    7       27.431420   0.000000
    8       27.650643   0.000000
 
  0.2500000E+00  0.1071429E+00  0.1071429E+00  0.8746356E-02
    1        0.256503   1.000000
    2        8.646361   1.000000
    3       12.446744   0.000000
    4       12.948640   0.000000
    5       24.324475   0.000000
    6       24.601128   0.000000
    7       28.744056   0.000000
    8       28.994650   0.000000
 
  0.3214286E+00  0.1071429E+00  0.1071429E+00  0.8746356E-02
    1        1.930050   1.000000
    2        6.151727   1.000000
    3       12.019366   0.000000
    4       12.521168   0.000000
    5       24.137888   0.000000
    6       24.323313   0.000000
    7       29.886619   0.000000
    8       30.437844   0.000000
 
  0.3928571E+00  0.1071429E+00  0.1071429E+00  0.4373178E-02
    1        3.713274   1.000000
    2        4.092876   1.000000
    3       11.877489   0.000000
    4       12.378126   0.000000
    5       24.064315   0.000000
    6       24.222864   0.000000
    7       30.555622   0.000000
    8       31.150848   0.000000
 
 -0.1071429E+00  0.1071429E+00  0.1071429E+00  0.2186589E-02
    1       -3.605237   1.000000
    2       17.679347   0.000000
    3       17.679347   0.000000
    4       19.128377   0.000000
    5       21.747283   0.000000
    6       23.182364   0.000000
    7       24.619459   0.000000
    8       24.619459   0.000000
 
  0.1785714E+00  0.1785714E+00  0.1071429E+00  0.8746356E-02
    1        0.103652   1.000000
    2       10.336197   0.000000
    3       10.729150   0.000000
    4       12.596480   0.000000
    5       25.366382   0.000000
    6       26.139721   0.000000
    7       28.055704   0.000000
    8       28.793832   0.000000
 
  0.2500000E+00  0.1785714E+00  0.1071429E+00  0.1749271E-01
    1        1.628435   1.000000
    2        7.911887   1.000000
    3        9.971049   0.009554
    4       12.022238   0.000000
    5       25.551381   0.000000
    6       26.578083   0.000000
    7       29.068448   0.000000
    8       30.150134   0.000000
 
  0.3214286E+00  0.1785714E+00  0.1071429E+00  0.1749271E-01
    1        3.434558   1.000000
    2        5.563575   1.000000
    3        9.674964   1.000000
    4       11.736516   0.000000
    5       25.495100   0.000000
    6       26.754811   0.000000
    7       29.990674   0.000000
    8       30.937694   0.000000
 
 -0.1785714E+00  0.1785714E+00  0.1071429E+00  0.8746356E-02
    1       -2.982340   1.000000
    2       15.350127   0.000000
    3       16.371667   0.000000
    4       18.492541   0.000000
    5       20.692212   0.000000
    6       22.592873   0.000000
    7       24.848722   0.000000
    8       26.459299   0.000000
 
  0.2500000E+00  0.2500000E+00  0.1071429E+00  0.8746356E-02
    1        3.289608   1.000000
    2        7.328270   1.000000
    3        7.646675   1.000000
    4       11.588690   0.000000
    5       26.453368   0.000000
    6       27.587583   0.000000
    7       29.881351   0.000000
    8       30.586314   0.000000
 
  0.3214286E+00  0.2500000E+00  0.1071429E+00  0.8746356E-02
    1        5.058886   1.000000
    2        5.428407   1.000000
    3        7.357131   1.000000
    4       11.445304   0.000000
    5       26.700566   0.000000
    6       28.224302   0.000000
    7       29.369941   0.000000
    8       31.499522   0.000000
 
 -0.2500000E+00  0.2500000E+00  0.1071429E+00  0.8746356E-02
    1       -2.051589   1.000000
    2       12.464966   0.000000
    3       15.294069   0.000000
    4       17.778975   0.000000
    5       20.732423   0.000000
    6       21.632885   0.000000
    7       24.566544   0.000000
    8       29.039854   0.000000
 
 -0.1785714E+00  0.2500000E+00  0.1071429E+00  0.8746356E-02
    1       -2.206374   1.000000
    2       14.002232   0.000000
    3       14.263634   0.000000
    4       18.035895   0.000000
    5       19.703056   0.000000
    6       22.338105   0.000000
    7       26.087569   0.000000
    8       26.927452   0.000000
 
 -0.3214286E+00  0.3214286E+00  0.1071429E+00  0.8746356E-02
    1       -0.817304   1.000000
    2        9.648075   1.000000
    3       14.476993   0.000000
    4       17.056302   0.000000
    5       20.844261   0.000000
    6       21.158458   0.000000
    7       24.460279   0.000000
    8       30.275306   0.000000
 
 -0.2500000E+00  0.3214286E+00  0.1071429E+00  0.1749271E-01
    1       -1.124982   1.000000
    2       11.326302   0.000000
    3       13.173924   0.000000
    4       17.600977   0.000000
    5       19.798506   0.000000
    6       21.664446   0.000000
    7       25.938153   0.000000
    8       28.744310   0.000000
 
 -0.3928571E+00  0.3928571E+00  0.1071429E+00  0.8746356E-02
    1        0.713996   1.000000
    2        7.030244   1.000000
    3       13.929628   0.000000
    4       16.531782   0.000000
    5       20.302134   0.000000
    6       21.449386   0.000000
    7       24.959069   0.000000
    8       29.372393   0.000000
 
 -0.3214286E+00  0.3928571E+00  0.1071429E+00  0.1749271E-01
    1        0.256398   1.000000
    2        8.628566   1.000000
    3       12.467879   0.000000
    4       17.042760   0.000000
    5       20.239965   0.000000
    6       21.474316   0.000000
    7       25.451474   0.000000
    8       28.880269   0.000000
 
 -0.2500000E+00  0.3928571E+00  0.1071429E+00  0.8746356E-02
    1        0.103611   1.000000
    2       10.337086   0.000000
    3       10.618902   0.000000
    4       17.902164   0.000000
    5       19.504895   0.000000
    6       21.182998   0.000000
    7       27.345436   0.000000
    8       28.124038   0.000000
 
 -0.4642857E+00  0.4642857E+00  0.1071429E+00  0.8746356E-02
    1        2.527171   1.000000
    2        4.667758   1.000000
    3       13.654447   0.000000
    4       16.261704   0.000000
    5       20.024857   0.000000
    6       21.523201   0.000000
    7       26.071713   0.000000
    8       27.796646   0.000000
 
 -0.3928571E+00  0.4642857E+00  0.1071429E+00  0.1749271E-01
    1        1.929247   1.000000
    2        6.143577   1.000000
    3       12.043785   0.000000
    4       16.664350   0.000000
    5       20.179159   0.000000
    6       22.177028   0.000000
    7       25.091991   0.000000
    8       27.651725   0.000000
 
 -0.3214286E+00  0.4642857E+00  0.1071429E+00  0.1749271E-01
    1        1.627594   1.000000
    2        7.892758   1.000000
    3        9.911397   0.255850
    4       17.756074   0.000000
    5       19.907768   0.000000
    6       21.166459   0.000000
    7       25.769912   0.000000
    8       28.842847   0.000000
 
 -0.4642857E+00 -0.4642857E+00  0.1071429E+00  0.8746356E-02
    1        3.714637   1.000000
    2        4.085084   1.000000
    3       11.902376   0.000000
    4       16.534042   0.000000
    5       20.095066   0.000000
    6       22.689343   0.000000
    7       24.941667   0.000000
    8       26.984014   0.000000
 
 -0.3928571E+00 -0.4642857E+00  0.1071429E+00  0.1749271E-01
    1        3.432331   1.000000
    2        5.553930   1.000000
    3        9.617652   1.000000
    4       17.574254   0.000000
    5       19.965849   0.000000
    6       22.219753   0.000000
    7       24.047344   0.000000
    8       28.812390   0.000000
 
 -0.3214286E+00 -0.4642857E+00  0.1071429E+00  0.8746356E-02
    1        3.287077   1.000000
    2        7.324073   1.000000
    3        7.602360   1.000000
    4       18.135284   0.000000
    5       20.417861   0.000000
    6       20.975045   0.000000
    7       23.955978   0.000000
    8       30.789284   0.000000
 
 -0.3928571E+00 -0.3928571E+00  0.1071429E+00  0.8746356E-02
    1        5.062194   1.000000
    2        5.408769   1.000000
    3        7.329931   1.000000
    4       18.171589   0.000000
    5       20.604090   0.000000
    6       21.997455   0.000000
    7       22.261157   0.000000
    8       31.423360   0.000000
 
  0.1785714E+00  0.1785714E+00  0.1785714E+00  0.2915452E-02
    1        1.476928   1.000000
    2        9.482183   1.000000
    3       10.012476   0.000220
    4       10.012476   0.000220
    5       27.370867   0.000000
    6       27.370867   0.000000
    7       29.373338   0.000000
    8       29.373338   0.000000
 
  0.2500000E+00  0.1785714E+00  0.1785714E+00  0.8746356E-02
    1        3.140260   1.000000
    2        7.321832   1.000000
    3        9.254761   1.000000
    4        9.579191   1.000000
    5       27.903526   0.000000
    6       28.210115   0.000000
    7       30.495703   0.000000
    8       30.598827   0.000000
 
  0.3214286E+00  0.1785714E+00  0.1785714E+00  0.4373178E-02
    1        4.915796   1.000000
    2        5.281934   1.000000
    3        9.098961   1.000000
    4        9.434280   1.000000
    5       28.043686   0.000000
    6       28.318790   0.000000
    7       30.976751   0.000000
    8       31.473523   0.000000
 
 -0.1785714E+00  0.1785714E+00  0.1785714E+00  0.2186589E-02
    1       -2.361279   1.000000
    2       15.047084   0.000000
    3       15.047084   0.000000
    4       16.902643   0.000000
    5       18.666885   0.000000
    6       24.398070   0.000000
    7       25.965444   0.000000
    8       25.965444   0.000000
 
  0.2500000E+00  0.2500000E+00  0.1785714E+00  0.8746356E-02
    1        4.925821   1.000000
    2        6.892020   1.000000
    3        7.209395   1.000000
    4        9.139889   1.000000
    5       28.970643   0.000000
    6       29.832053   0.000000
    7       30.797347   0.000000
    8       31.370915   0.000000
 
 -0.2500000E+00  0.2500000E+00  0.1785714E+00  0.8746356E-02
    1       -1.433207   1.000000
    2       12.876559   0.000000
    3       13.956296   0.000000
    4       16.314010   0.000000
    5       18.039280   0.000000
    6       24.018989   0.000000
    7       26.086147   0.000000
    8       28.041919   0.000000
 
 -0.3214286E+00  0.3214286E+00  0.1785714E+00  0.8746356E-02
    1       -0.202717   1.000000
    2       10.182557   0.000000
    3       13.129167   0.000000
    4       15.675494   0.000000
    5       18.682967   0.000000
    6       23.296755   0.000000
    7       25.462040   0.000000
    8       28.430799   0.000000
 
 -0.2500000E+00  0.3214286E+00  0.1785714E+00  0.8746356E-02
    1       -0.355966   1.000000
    2       11.796461   0.000000
    3       12.000598   0.000000
    4       16.127232   0.000000
    5       17.297490   0.000000
    6       23.909690   0.000000
    7       26.951751   0.000000
    8       27.746839   0.000000
 
 -0.3928571E+00  0.3928571E+00  0.1785714E+00  0.8746356E-02
    1        1.323637   1.000000
    2        7.603281   1.000000
    3       12.575491   0.000000
    4       15.146390   0.000000
    5       19.808260   0.000000
    6       22.777406   0.000000
    7       24.544626   0.000000
    8       27.418374   0.000000
 
 -0.3214286E+00  0.3928571E+00  0.1785714E+00  0.1749271E-01
    1        1.019854   1.000000
    2        9.311700   1.000000
    3       11.198392   0.000000
    4       15.845467   0.000000
    5       17.905736   0.000000
    6       23.313040   0.000000
    7       25.242228   0.000000
    8       28.356987   0.000000
 
 -0.4642857E+00  0.4642857E+00  0.1785714E+00  0.8746356E-02
    1        3.131154   1.000000
    2        5.257426   1.000000
    3       12.297727   0.000000
    4       14.869941   0.000000
    5       20.978195   0.000000
    6       22.510055   0.000000
    7       23.482038   0.000000
    8       26.774205   0.000000
 
 -0.3928571E+00  0.4642857E+00  0.1785714E+00  0.1749271E-01
    1        2.685496   1.000000
    2        6.867212   1.000000
    3       10.768707   0.000000
    4       15.485604   0.000000
    5       19.183503   0.000000
    6       22.617015   0.000000
    7       23.684312   0.000000
    8       28.272996   0.000000
 
 -0.3214286E+00  0.4642857E+00  0.1785714E+00  0.8746356E-02
    1        2.535647   1.000000
    2        8.612695   1.000000
    3        8.864498   1.000000
    4       16.648904   0.000000
    5       17.740532   0.000000
    6       22.424330   0.000000
    7       23.838934   0.000000
    8       30.174007   0.000000
 
 -0.4642857E+00 -0.4642857E+00  0.1785714E+00  0.8746356E-02
    1        4.471715   1.000000
    2        4.815433   1.000000
    3       10.625110   0.000000
    4       15.354507   0.000000
    5       20.215647   0.000000
    6       21.698123   0.000000
    7       23.235782   0.000000
    8       28.200338   0.000000
 
 -0.3928571E+00 -0.4642857E+00  0.1785714E+00  0.1749271E-01
    1        4.329078   1.000000
    2        6.424944   1.000000
    3        8.457329   1.000000
    4       16.723759   0.000000
    5       18.848775   0.000000
    6       20.873009   0.000000
    7       23.246944   0.000000
    8       30.801919   0.000000
 
 -0.3928571E+00 -0.3928571E+00  0.1785714E+00  0.2915452E-02
    1        5.977549   1.000000
    2        6.420293   1.000000
    3        6.420294   1.000000
    4       17.583256   0.000000
    5       19.261548   0.000000
    6       19.261548   0.000000
    7       23.110590   0.000000
    8       33.116654   0.000000
 
  0.2500000E+00  0.2500000E+00  0.2500000E+00  0.7288630E-03
    1        6.409768   1.000000
    2        7.063351   1.000000
    3        7.063351   1.000000
    4        7.063351   1.000000
    5       31.159784   0.000000
    6       31.159784   0.000000
    7       31.159793   0.000000
    8       31.186883   0.000000
 
 -0.2500000E+00  0.2500000E+00  0.2500000E+00  0.2186589E-02
    1       -0.509408   1.000000
    2       12.856414   0.000000
    3       12.856415   0.000000
    4       14.874859   0.000000
    5       16.162677   0.000000
    6       26.204772   0.000000
    7       26.919646   0.000000
    8       27.618323   0.000000
 
 -0.3214286E+00  0.3214286E+00  0.2500000E+00  0.8746356E-02
    1        0.715239   1.000000
    2       10.900275   0.000000
    3       12.023761   0.000000
    4       14.434076   0.000000
    5       15.942399   0.000000
    6       24.793784   0.000000
    7       26.023065   0.000000
    8       28.342199   0.000000
 
 -0.3928571E+00  0.3928571E+00  0.2500000E+00  0.8746356E-02
    1        2.233683   1.000000
    2        8.441739   1.000000
    3       11.465783   0.000000
    4       13.976514   0.000000
    5       17.017167   0.000000
    6       22.622405   0.000000
    7       25.547694   0.000000
    8       28.478952   0.000000
 
 -0.3214286E+00  0.3928571E+00  0.2500000E+00  0.8746356E-02
    1        2.082698   1.000000
    2       10.100505   0.000000
    3       10.280064   0.000000
    4       14.552680   0.000000
    5       15.466522   0.000000
    6       22.505319   0.000000
    7       26.279865   0.000000
    8       29.799850   0.000000
 
 -0.4642857E+00  0.4642857E+00  0.2500000E+00  0.8746356E-02
    1        4.030814   1.000000
    2        6.133006   1.000000
    3       11.186306   0.000000
    4       13.704624   0.000000
    5       18.498519   0.000000
    6       20.647308   0.000000
    7       25.291411   0.000000
    8       28.435982   0.000000
 
 -0.3928571E+00  0.4642857E+00  0.2500000E+00  0.1749271E-01
    1        3.736411   1.000000
    2        7.855043   1.000000
    3        9.768011   0.999662
    4       14.467503   0.000000
    5       16.477668   0.000000
    6       20.306792   0.000000
    7       26.020303   0.000000
    8       30.363887   0.000000
 
 -0.4642857E+00 -0.4642857E+00  0.2500000E+00  0.8746356E-02
    1        5.517852   1.000000
    2        5.828750   1.000000
    3        9.622817   1.000000
    4       14.354027   0.000000
    5       17.810565   0.000000
    6       18.675635   0.000000
    7       25.909405   0.000000
    8       30.432291   0.000000
 
 -0.3928571E+00 -0.4642857E+00  0.2500000E+00  0.8746356E-02
    1        5.508305   1.000000
    2        7.455315   1.000000
    3        7.690860   1.000000
    4       15.593266   0.000000
    5       16.546710   0.000000
    6       18.205204   0.000000
    7       25.937592   0.000000
    8       32.523809   0.000000
 