 vasp.6.2.0 18Jan21 (build Aug 12 2022 13:00:08) complex                        
  
 executed on             LinuxIFC date 2024.11.03  21:52:22
 running on    4 total cores
 distrk:  each k-point on    4 cores,    1 groups
 distr:  one band on NCORE=   1 cores,    4 groups


--------------------------------------------------------------------------------------------------------


 INCAR:
   ISTART = 0            (Read existing wavefunction, if there)
   ISPIN = 1            (Non-Spin polarised DFT)
   LREAL = .FALSE.       (Projection operators: automatic)
   LWAVE = .FALSE.        (Write WAVECAR or not)
   LCHARG = .FALSE.        (Write CHGCAR or not)
   ADDGRID = .TRUE.        (Increase grid, helps GGA convergence)
   LASPH = .TRUE.        (Give more accurate total energies and band structure calculations)
   PREC = Accurate      (Accurate strictly avoids any aliasing or wrap around errors)
   ENCUT = 350          (Cut-off energy for plane wave basis set, in eV)
   ISMEAR = 0            (Gaussian smearing, metals:1)
   SIGMA = 0.05         (Smearing value in eV, metals:0.2)
   NELM = 90           (Max electronic SCF steps)
   NELMIN = 6            (Min electronic SCF steps)
   EDIFF = 1E-06        (SCF energy convergence, in eV)
   NSW = 100          (Max ionic steps)
   IBRION = 2            (Algorithm: 0-MD, 1-Quasi-New, 2-CG)
   ISIF = 3            (Stress/relaxation: 2-Ions, 3-Shape/Ions/V, 4-Shape/Ions)
   EDIFFG = -2E-03        (Ionic convergence, eV/AA)
   ISYM = 2              (Symmetry: 0\=none, 2\=GGA, 3\=hybrids)

 POTCAR:    PAW_PBE Si 05Jan2001                  
 POTCAR:    PAW_PBE Si 05Jan2001                  
   VRHFIN =Si: s2p2                                                                                 
   LEXCH  = PE                                                                                      
   EATOM  =   103.0669 eV,    7.5752 Ry                                                             
                                                                                                    
   TITEL  = PAW_PBE Si 05Jan2001                                                                    
   LULTRA =        F    use ultrasoft PP ?                                                          
   IUNSCR =        1    unscreen: 0-lin 1-nonlin 2-no                                               
   RPACOR =    1.500    partial core radius                                                         
   POMASS =   28.085; ZVAL   =    4.000    mass and valenz                                          
   RCORE  =    1.900    outmost cutoff radius                                                       
   RWIGS  =    2.480; RWIGS  =    1.312    wigner-seitz radius (au A)                               
   ENMAX  =  245.345; ENMIN  =  184.009 eV                                                          
   ICORE  =        2    local potential                                                             
   LCOR   =        T    correct aug charges                                                         
   LPAW   =        T    paw PP                                                                      
   EAUG   =  322.069                                                                                
   DEXC   =    0.000                                                                                
   RMAX   =    1.950    core radius for proj-oper                                                   
   RAUG   =    1.300    factor for augmentation sphere                                              
   RDEP   =    1.993    radius for radial grids                                                     
   RDEPT  =    1.837    core radius for aug-charge                                                  
                                                                                                    
   Atomic configuration                                                                             
    6 entries                                                                                       
     n  l   j            E        occ.                                                              
     1  0  0.50     -1785.8828   2.0000                                                             
     2  0  0.50      -139.4969   2.0000                                                             
     2  1  1.50       -95.5546   6.0000                                                             
     3  0  0.50       -10.8127   2.0000                                                             
     3  1  0.50        -4.0811   2.0000                                                             
     3  2  1.50        -4.0817   0.0000                                                             
   Description                                                                                      
     l       E           TYP  RCUT    TYP  RCUT                                                     
     0    -10.8127223     23  1.900                                                                 
     0     -7.6451159     23  1.900                                                                 
     1     -4.0811372     23  1.900                                                                 
     1      2.4879257     23  1.900                                                                 
     2     -4.0817478      7  1.900                                                                 
  local pseudopotential read in
  partial core-charges read in
  partial kinetic energy density read in
  atomic valenz-charges read in
  non local Contribution for L=           0  read in
    real space projection operators read in
  non local Contribution for L=           0  read in
    real space projection operators read in
  non local Contribution for L=           1  read in
    real space projection operators read in
  non local Contribution for L=           1  read in
    real space projection operators read in
    PAW grid and wavefunctions read in
 
   number of l-projection  operators is LMAX  =           4
   number of lm-projection operators is LMMAX =           8
 
  PAW_PBE Si 05Jan2001                  :
 energy of atom  1       EATOM= -103.0669
 kinetic energy error for atom=    0.0013 (will be added to EATOM!!)
 
 
 POSCAR: Si1
  positions in direct lattice
  No initial velocities read in
 exchange correlation table for  LEXCH =        8
   RHO(1)=    0.500       N(1)  =     2000
   RHO(2)=  100.500       N(2)  =     4000
 


--------------------------------------------------------------------------------------------------------


 ion  position               nearest neighbor table
   1  0.000  0.000  0.000-
 
  LATTYP: Found a body centered cubic cell.
 ALAT       =     3.0266512600
  
  Lattice vectors:
  
 A1 = (   1.5133256300,   1.5133256300,   1.5133256300)
 A2 = (   1.5133256300,  -1.5133256300,  -1.5133256300)
 A3 = (  -1.5133256300,   1.5133256300,  -1.5133256300)


Analysis of symmetry for initial positions (statically):
=====================================================================
 Subroutine PRICEL returns:
 Original cell was already a primitive cell.
 

 Routine SETGRP: Setting up the symmetry group for a 
 body centered cubic supercell.


 Subroutine GETGRP returns: Found 48 space group operations
 (whereof 48 operations were pure point group operations)
 out of a pool of 48 trial point group operations.


The static configuration has the point symmetry O_h .


Analysis of symmetry for dynamics (positions and initial velocities):
=====================================================================
 Subroutine PRICEL returns:
 Original cell was already a primitive cell.
 

 Routine SETGRP: Setting up the symmetry group for a 
 body centered cubic supercell.


 Subroutine GETGRP returns: Found 48 space group operations
 (whereof 48 operations were pure point group operations)
 out of a pool of 48 trial point group operations.


The dynamic configuration has the point symmetry O_h .


 Subroutine INISYM returns: Found 48 space group operations
 (whereof 48 operations are pure point group operations),
 and found     1 'primitive' translations


----------------------------------------------------------------------------------------

                                     Primitive cell                                     

  volume of cell :      13.8630

  direct lattice vectors                    reciprocal lattice vectors
     1.513325630  1.513325630  1.513325630     0.330398158  0.330398158  0.000000000
     1.513325630 -1.513325630 -1.513325630     0.330398158  0.000000000 -0.330398158
    -1.513325630  1.513325630 -1.513325630     0.000000000  0.330398158 -0.330398158

  length of vectors
     2.621156880  2.621156880  2.621156880     0.467253555  0.467253555  0.467253555

  position of ions in fractional coordinates (direct lattice)
     0.000000000  0.000000000  0.000000000

  ion indices of the primitive-cell ions
   primitive index   ion index
                 1           1

----------------------------------------------------------------------------------------

 
 
 KPOINTS: Automatic                               

Automatic generation of k-mesh.
 Grid dimensions read from file:
 generate k-points for:   14   14   14

 Generating k-lattice:

  Cartesian coordinates                     Fractional coordinates (reciprocal lattice)
     0.023599868  0.023599868  0.000000000     0.071428571  0.000000000  0.000000000
     0.023599868  0.000000000 -0.023599868     0.000000000  0.071428571  0.000000000
     0.000000000  0.023599868 -0.023599868     0.000000000  0.000000000  0.071428571

  Length of vectors
     0.033375254  0.033375254  0.033375254

  Shift w.r.t. Gamma in fractional coordinates (k-lattice)
     0.500000000  0.500000000  0.500000000

 
 Subroutine IBZKPT returns following result:
 ===========================================
 
 Found    100 irreducible k-points:
 
 Following reciprocal coordinates:
            Coordinates               Weight
  0.035714  0.035714  0.035714      8.000000
  0.107143  0.035714  0.035714     24.000000
  0.178571  0.035714  0.035714     24.000000
  0.250000  0.035714  0.035714     24.000000
  0.321429  0.035714  0.035714     24.000000
  0.392857  0.035714  0.035714     24.000000
  0.464286  0.035714  0.035714     12.000000
 -0.035714  0.035714  0.035714      6.000000
  0.107143  0.107143  0.035714     24.000000
  0.178571  0.107143  0.035714     48.000000
  0.250000  0.107143  0.035714     48.000000
  0.321429  0.107143  0.035714     48.000000
  0.392857  0.107143  0.035714     48.000000
 -0.107143  0.107143  0.035714     24.000000
  0.178571  0.178571  0.035714     24.000000
  0.250000  0.178571  0.035714     48.000000
  0.321429  0.178571  0.035714     48.000000
  0.392857  0.178571  0.035714     24.000000
 -0.178571  0.178571  0.035714     24.000000
 -0.107143  0.178571  0.035714     24.000000
  0.250000  0.250000  0.035714     24.000000
  0.321429  0.250000  0.035714     48.000000
 -0.250000  0.250000  0.035714     24.000000
 -0.178571  0.250000  0.035714     48.000000
  0.321429  0.321429  0.035714      8.000000
 -0.321429  0.321429  0.035714     24.000000
 -0.250000  0.321429  0.035714     48.000000
 -0.178571  0.321429  0.035714     24.000000
 -0.392857  0.392857  0.035714     24.000000
 -0.321429  0.392857  0.035714     48.000000
 -0.250000  0.392857  0.035714     48.000000
 -0.464286  0.464286  0.035714     24.000000
 -0.392857  0.464286  0.035714     48.000000
 -0.321429  0.464286  0.035714     48.000000
 -0.250000  0.464286  0.035714     24.000000
 -0.464286 -0.464286  0.035714     24.000000
 -0.392857 -0.464286  0.035714     48.000000
 -0.321429 -0.464286  0.035714     48.000000
 -0.392857 -0.392857  0.035714     24.000000
 -0.321429 -0.392857  0.035714     24.000000
  0.107143  0.107143  0.107143      8.000000
  0.178571  0.107143  0.107143     24.000000
  0.250000  0.107143  0.107143     24.000000
  0.321429  0.107143  0.107143     24.000000
  0.392857  0.107143  0.107143     12.000000
 -0.107143  0.107143  0.107143      6.000000
  0.178571  0.178571  0.107143     24.000000
  0.250000  0.178571  0.107143     48.000000
  0.321429  0.178571  0.107143     48.000000
 -0.178571  0.178571  0.107143     24.000000
  0.250000  0.250000  0.107143     24.000000
  0.321429  0.250000  0.107143     24.000000
 -0.250000  0.250000  0.107143     24.000000
 -0.178571  0.250000  0.107143     24.000000
 -0.321429  0.321429  0.107143     24.000000
 -0.250000  0.321429  0.107143     48.000000
 -0.392857  0.392857  0.107143     24.000000
 -0.321429  0.392857  0.107143     48.000000
 -0.250000  0.392857  0.107143     24.000000
 -0.464286  0.464286  0.107143     24.000000
 -0.392857  0.464286  0.107143     48.000000
 -0.321429  0.464286  0.107143     48.000000
 -0.464286 -0.464286  0.107143     24.000000
 -0.392857 -0.464286  0.107143     48.000000
 -0.321429 -0.464286  0.107143     24.000000
 -0.392857 -0.392857  0.107143     24.000000
  0.178571  0.178571  0.178571      8.000000
  0.250000  0.178571  0.178571     24.000000
  0.321429  0.178571  0.178571     12.000000
 -0.178571  0.178571  0.178571      6.000000
  0.250000  0.250000  0.178571     24.000000
 -0.250000  0.250000  0.178571     24.000000
 -0.321429  0.321429  0.178571     24.000000
 -0.250000  0.321429  0.178571     24.000000
 -0.392857  0.392857  0.178571     24.000000
 -0.321429  0.392857  0.178571     48.000000
 -0.464286  0.464286  0.178571     24.000000
 -0.392857  0.464286  0.178571     48.000000
 -0.321429  0.464286  0.178571     24.000000
 -0.464286 -0.464286  0.178571     24.000000
 -0.392857 -0.464286  0.178571     48.000000
 -0.392857 -0.392857  0.178571      8.000000
  0.250000  0.250000  0.250000      2.000000
 -0.250000  0.250000  0.250000      6.000000
 -0.321429  0.321429  0.250000     24.000000
 -0.392857  0.392857  0.250000     24.000000
 -0.321429  0.392857  0.250000     24.000000
 -0.464286  0.464286  0.250000     24.000000
 -0.392857  0.464286  0.250000     48.000000
 -0.464286 -0.464286  0.250000     24.000000
 -0.392857 -0.464286  0.250000     24.000000
 -0.321429  0.321429  0.321429      6.000000
 -0.392857  0.392857  0.321429     24.000000
 -0.464286  0.464286  0.321429     24.000000
 -0.392857  0.464286  0.321429     24.000000
 -0.464286 -0.464286  0.321429     24.000000
 -0.392857  0.392857  0.392857      6.000000
 -0.464286  0.464286  0.392857     24.000000
 -0.464286 -0.464286  0.392857      8.000000
 -0.464286  0.464286  0.464286      6.000000
 
 Following cartesian coordinates:
            Coordinates               Weight
  0.023600  0.023600 -0.023600      8.000000
  0.047200  0.047200 -0.023600     24.000000
  0.070800  0.070800 -0.023600     24.000000
  0.094399  0.094399 -0.023600     24.000000
  0.117999  0.117999 -0.023600     24.000000
  0.141599  0.141599 -0.023600     24.000000
  0.165199  0.165199 -0.023600     12.000000
  0.000000  0.000000 -0.023600      6.000000
  0.070800  0.047200 -0.047200     24.000000
  0.094399  0.070800 -0.047200     48.000000
  0.117999  0.094399 -0.047200     48.000000
  0.141599  0.117999 -0.047200     48.000000
  0.165199  0.141599 -0.047200     48.000000
  0.000000 -0.023600 -0.047200     24.000000
  0.117999  0.070800 -0.070800     24.000000
  0.141599  0.094399 -0.070800     48.000000
  0.165199  0.117999 -0.070800     48.000000
  0.188799  0.141599 -0.070800     24.000000
  0.000000 -0.047200 -0.070800     24.000000
  0.023600 -0.023600 -0.070800     24.000000
  0.165199  0.094399 -0.094399     24.000000
  0.188799  0.117999 -0.094399     48.000000
  0.000000 -0.070800 -0.094399     24.000000
  0.023600 -0.047200 -0.094399     48.000000
  0.212399  0.117999 -0.117999      8.000000
  0.000000 -0.094399 -0.117999     24.000000
  0.023600 -0.070800 -0.117999     48.000000
  0.047200 -0.047200 -0.117999     24.000000
  0.000000 -0.117999 -0.141599     24.000000
  0.023600 -0.094399 -0.141599     48.000000
  0.047200 -0.070800 -0.141599     48.000000
  0.000000 -0.141599 -0.165199     24.000000
  0.023600 -0.117999 -0.165199     48.000000
  0.047200 -0.094399 -0.165199     48.000000
  0.070800 -0.070800 -0.165199     24.000000
 -0.306798 -0.141599  0.141599     24.000000
 -0.283198 -0.117999  0.141599     48.000000
 -0.259599 -0.094399  0.141599     48.000000
 -0.259599 -0.117999  0.117999     24.000000
 -0.235999 -0.094399  0.117999     24.000000
  0.070800  0.070800 -0.070800      8.000000
  0.094399  0.094399 -0.070800     24.000000
  0.117999  0.117999 -0.070800     24.000000
  0.141599  0.141599 -0.070800     24.000000
  0.165199  0.165199 -0.070800     12.000000
  0.000000  0.000000 -0.070800      6.000000
  0.117999  0.094399 -0.094399     24.000000
  0.141599  0.117999 -0.094399     48.000000
  0.165199  0.141599 -0.094399     48.000000
  0.000000 -0.023600 -0.094399     24.000000
  0.165199  0.117999 -0.117999     24.000000
  0.188799  0.141599 -0.117999     24.000000
  0.000000 -0.047200 -0.117999     24.000000
  0.023600 -0.023600 -0.117999     24.000000
  0.000000 -0.070800 -0.141599     24.000000
  0.023600 -0.047200 -0.141599     48.000000
  0.000000 -0.094399 -0.165199     24.000000
  0.023600 -0.070800 -0.165199     48.000000
  0.047200 -0.047200 -0.165199     24.000000
  0.000000 -0.117999 -0.188799     24.000000
  0.023600 -0.094399 -0.188799     48.000000
  0.047200 -0.070800 -0.188799     48.000000
 -0.306798 -0.117999  0.117999     24.000000
 -0.283198 -0.094399  0.117999     48.000000
 -0.259599 -0.070800  0.117999     24.000000
 -0.259599 -0.094399  0.094399     24.000000
  0.117999  0.117999 -0.117999      8.000000
  0.141599  0.141599 -0.117999     24.000000
  0.165199  0.165199 -0.117999     12.000000
  0.000000  0.000000 -0.117999      6.000000
  0.165199  0.141599 -0.141599     24.000000
  0.000000 -0.023600 -0.141599     24.000000
  0.000000 -0.047200 -0.165199     24.000000
  0.023600 -0.023600 -0.165199     24.000000
  0.000000 -0.070800 -0.188799     24.000000
  0.023600 -0.047200 -0.188799     48.000000
  0.000000 -0.094399 -0.212399     24.000000
  0.023600 -0.070800 -0.212399     48.000000
  0.047200 -0.047200 -0.212399     24.000000
 -0.306798 -0.094399  0.094399     24.000000
 -0.283198 -0.070800  0.094399     48.000000
 -0.259599 -0.070800  0.070800      8.000000
  0.165199  0.165199 -0.165199      2.000000
  0.000000  0.000000 -0.165199      6.000000
  0.000000 -0.023600 -0.188799     24.000000
  0.000000 -0.047200 -0.212399     24.000000
  0.023600 -0.023600 -0.212399     24.000000
  0.000000 -0.070800 -0.235999     24.000000
  0.023600 -0.047200 -0.235999     48.000000
 -0.306798 -0.070800  0.070800     24.000000
 -0.283198 -0.047200  0.070800     24.000000
  0.000000  0.000000 -0.212399      6.000000
  0.000000 -0.023600 -0.235999     24.000000
  0.000000 -0.047200 -0.259599     24.000000
  0.023600 -0.023600 -0.259599     24.000000
 -0.306798 -0.047200  0.047200     24.000000
  0.000000  0.000000 -0.259599      6.000000
  0.000000 -0.023600 -0.283198     24.000000
 -0.306798 -0.023600  0.023600      8.000000
  0.000000  0.000000 -0.306798      6.000000
 


--------------------------------------------------------------------------------------------------------




 Dimension of arrays:
   k-points           NKPTS =    100   k-points in BZ     NKDIM =    100   number of bands    NBANDS=      8
   number of dos      NEDOS =    301   number of ions     NIONS =      1
   non local maximal  LDIM  =      4   non local SUM 2l+1 LMDIM =      8
   total plane-waves  NPLWV =   4096
   max r-space proj   IRMAX =      1   max aug-charges    IRDMAX=  79220
   dimension x,y,z NGX =    16 NGY =   16 NGZ =   16
   dimension x,y,z NGXF=    32 NGYF=   32 NGZF=   32
   support grid    NGXF=    64 NGYF=   64 NGZF=   64
   ions per type =               1
   NGX,Y,Z   is equivalent  to a cutoff of  10.15, 10.15, 10.15 a.u.
   NGXF,Y,Z  is equivalent  to a cutoff of  20.30, 20.30, 20.30 a.u.

 SYSTEM =  unknown system                          
 POSCAR =  Si1                                     

 Startparameter for this run:
   NWRITE =      2    write-flag & timer
   PREC   = accura    normal or accurate (medium, high low for compatibility)
   ISTART =      0    job   : 0-new  1-cont  2-samecut
   ICHARG =      2    charge: 1-file 2-atom 10-const
   ISPIN  =      1    spin polarized calculation?
   LNONCOLLINEAR =      F non collinear calculations
   LSORBIT =      F    spin-orbit coupling
   INIWAV =      1    electr: 0-lowe 1-rand  2-diag
   LASPH  =      T    aspherical Exc in radial PAW
   METAGGA=      F    non-selfconsistent MetaGGA calc.

 Electronic Relaxation 1
   ENCUT  =  350.0 eV  25.72 Ry    5.07 a.u.   4.00  4.00  4.00*2*pi/ulx,y,z
   ENINI  =  350.0     initial cutoff
   ENAUG  =  322.1 eV  augmentation charge cutoff
   NELM   =     90;   NELMIN=  6; NELMDL= -5     # of ELM steps 
   EDIFF  = 0.1E-05   stopping-criterion for ELM
   LREAL  =      F    real-space projection
   NLSPLINE    = F    spline interpolate recip. space projectors
   LCOMPAT=      F    compatible to vasp.4.4
   GGA_COMPAT  = T    GGA compatible to vasp.4.4-vasp.4.6
   LMAXPAW     = -100 max onsite density
   LMAXMIX     =    2 max onsite mixed and CHGCAR
   VOSKOWN=      0    Vosko Wilk Nusair interpolation
   ROPT   =    0.00000
 Ionic relaxation
   EDIFFG = -.2E-02   stopping-criterion for IOM
   NSW    =    100    number of steps for IOM
   NBLOCK =      1;   KBLOCK =    100    inner block; outer block 
   IBRION =      2    ionic relax: 0-MD 1-quasi-New 2-CG
   NFREE  =      1    steps in history (QN), initial steepest desc. (CG)
   ISIF   =      3    stress and relaxation
   IWAVPR =     11    prediction:  0-non 1-charg 2-wave 3-comb
   ISYM   =      2    0-nonsym 1-usesym 2-fastsym
   LCORR  =      T    Harris-Foulkes like correction to forces

   POTIM  = 0.5000    time-step for ionic-motion
   TEIN   =    0.0    initial temperature
   TEBEG  =    0.0;   TEEND  =   0.0 temperature during run
   SMASS  =  -3.00    Nose mass-parameter (am)
   estimated Nose-frequenzy (Omega)   =  0.10E-29 period in steps = 0.13E+47 mass=  -0.157E-27a.u.
   SCALEE = 1.0000    scale energy and forces
   NPACO  =    256;   APACO  = 16.0  distance and # of slots for P.C.
   PSTRESS=    0.0 pullay stress

  Mass of Ions in am
   POMASS =  28.09
  Ionic Valenz
   ZVAL   =   4.00
  Atomic Wigner-Seitz radii
   RWIGS  =  -1.00
  virtual crystal weights 
   VCA    =   1.00
   NELECT =       4.0000    total number of electrons
   NUPDOWN=      -1.0000    fix difference up-down

 DOS related values:
   EMIN   =  10.00;   EMAX   =-10.00  energy-range for DOS
   EFERMI =   0.00
   ISMEAR =     0;   SIGMA  =   0.05  broadening in eV -4-tet -1-fermi 0-gaus

 Electronic relaxation 2 (details)
   IALGO  =     38    algorithm
   LDIAG  =      T    sub-space diagonalisation (order eigenvalues)
   LSUBROT=      F    optimize rotation matrix (better conditioning)
   TURBO    =      0    0=normal 1=particle mesh
   IRESTART =      0    0=no restart 2=restart with 2 vectors
   NREBOOT  =      0    no. of reboots
   NMIN     =      0    reboot dimension
   EREF     =   0.00    reference energy to select bands
   IMIX   =      4    mixing-type and parameters
     AMIX     =   0.40;   BMIX     =  1.00
     AMIX_MAG =   1.60;   BMIX_MAG =  1.00
     AMIN     =   0.10
     WC   =   100.;   INIMIX=   1;  MIXPRE=   1;  MAXMIX= -45

 Intra band minimization:
   WEIMIN = 0.0010     energy-eigenvalue tresh-hold
   EBREAK =  0.31E-07  absolut break condition
   DEPER  =   0.30     relativ break condition  

   TIME   =   0.40     timestep for ELM

  volume/ion in A,a.u.               =      13.86        93.55
  Fermi-wavevector in a.u.,A,eV,Ry     =   1.081789  2.044284 15.922447  1.170267
  Thomas-Fermi vector in A             =   2.217814
 
 Write flags
   LWAVE        =      F    write WAVECAR
   LDOWNSAMPLE  =      F    k-point downsampling of WAVECAR
   LCHARG       =      F    write CHGCAR
   LVTOT        =      F    write LOCPOT, total local potential
   LVHAR        =      F    write LOCPOT, Hartree potential only
   LELF         =      F    write electronic localiz. function (ELF)
   LORBIT       =      0    0 simple, 1 ext, 2 COOP (PROOUT), +10 PAW based schemes


 Dipole corrections
   LMONO  =      F    monopole corrections only (constant potential shift)
   LDIPOL =      F    correct potential (dipole corrections)
   IDIPOL =      0    1-x, 2-y, 3-z, 4-all directions 
   EPSILON=  1.0000000 bulk dielectric constant

 Exchange correlation treatment:
   GGA     =    --    GGA type
   LEXCH   =     8    internal setting for exchange type
   VOSKOWN=      0    Vosko Wilk Nusair interpolation
   LHFCALC =     F    Hartree Fock is set to
   LHFONE  =     F    Hartree Fock one center treatment
   AEXX    =    0.0000 exact exchange contribution

 Linear response parameters
   LEPSILON=     F    determine dielectric tensor
   LRPA    =     F    only Hartree local field effects (RPA)
   LNABLA  =     F    use nabla operator in PAW spheres
   LVEL    =     F    velocity operator in full k-point grid
   LINTERFAST=   F  fast interpolation
   KINTER  =     0    interpolate to denser k-point grid
   CSHIFT  =0.1000    complex shift for real part using Kramers Kronig
   OMEGAMAX=  -1.0    maximum frequency
   DEG_THRESHOLD= 0.2000000E-02 threshold for treating states as degnerate
   RTIME   =   -0.100 relaxation time in fs
  (WPLASMAI=    0.000 imaginary part of plasma frequency in eV, 0.658/RTIME)
   DFIELD  = 0.0000000 0.0000000 0.0000000 field for delta impulse in time
 
 Orbital magnetization related:
   ORBITALMAG=     F  switch on orbital magnetization
   LCHIMAG   =     F  perturbation theory with respect to B field
   DQ        =  0.001000  dq finite difference perturbation B field
   LLRAUG    =     F  two centre corrections for induced B field



--------------------------------------------------------------------------------------------------------


 conjugate gradient relaxation of ions
 charge density and potential will be updated during run
 non-spin polarized calculation
 Variant of blocked Davidson
 Davidson routine will perform the subspace rotation
 perform sub-space diagonalisation
    after iterative eigenvector-optimisation
 modified Broyden-mixing scheme, WC =      100.0
 initial mixing is a Kerker type mixing with AMIX =  0.4000 and BMIX =      1.0000
 Hartree-type preconditioning will be used
 using additional bands            6
 reciprocal scheme for non local part
 use partial core corrections
 calculate Harris-corrections to forces 
   (improved forces if not selfconsistent)
 use gradient corrections 
 use of overlap-Matrix (Vanderbilt PP)
 Gauss-broadening in eV      SIGMA  =   0.05


--------------------------------------------------------------------------------------------------------


  energy-cutoff  :      350.00
  volume of cell :       13.86
      direct lattice vectors                 reciprocal lattice vectors
     1.513325630  1.513325630  1.513325630     0.330398158  0.330398158  0.000000000
     1.513325630 -1.513325630 -1.513325630     0.330398158  0.000000000 -0.330398158
    -1.513325630  1.513325630 -1.513325630     0.000000000  0.330398158 -0.330398158

  length of vectors
     2.621156880  2.621156880  2.621156880     0.467253555  0.467253555  0.467253555


 
 k-points in units of 2pi/SCALE and weight: Automatic                               
   0.02359987  0.02359987 -0.02359987       0.003
   0.04719974  0.04719974 -0.02359987       0.009
   0.07079961  0.07079961 -0.02359987       0.009
   0.09439947  0.09439947 -0.02359987       0.009
   0.11799934  0.11799934 -0.02359987       0.009
   0.14159921  0.14159921 -0.02359987       0.009
   0.16519908  0.16519908 -0.02359987       0.004
   0.00000000  0.00000000 -0.02359987       0.002
   0.07079961  0.04719974 -0.04719974       0.009
   0.09439947  0.07079961 -0.04719974       0.017
   0.11799934  0.09439947 -0.04719974       0.017
   0.14159921  0.11799934 -0.04719974       0.017
   0.16519908  0.14159921 -0.04719974       0.017
   0.00000000 -0.02359987 -0.04719974       0.009
   0.11799934  0.07079961 -0.07079961       0.009
   0.14159921  0.09439947 -0.07079961       0.017
   0.16519908  0.11799934 -0.07079961       0.017
   0.18879895  0.14159921 -0.07079961       0.009
   0.00000000 -0.04719974 -0.07079961       0.009
   0.02359987 -0.02359987 -0.07079961       0.009
   0.16519908  0.09439947 -0.09439947       0.009
   0.18879895  0.11799934 -0.09439947       0.017
   0.00000000 -0.07079961 -0.09439947       0.009
   0.02359987 -0.04719974 -0.09439947       0.017
   0.21239882  0.11799934 -0.11799934       0.003
   0.00000000 -0.09439947 -0.11799934       0.009
   0.02359987 -0.07079961 -0.11799934       0.017
   0.04719974 -0.04719974 -0.11799934       0.009
   0.00000000 -0.11799934 -0.14159921       0.009
   0.02359987 -0.09439947 -0.14159921       0.017
   0.04719974 -0.07079961 -0.14159921       0.017
   0.00000000 -0.14159921 -0.16519908       0.009
   0.02359987 -0.11799934 -0.16519908       0.017
   0.04719974 -0.09439947 -0.16519908       0.017
   0.07079961 -0.07079961 -0.16519908       0.009
  -0.30679829 -0.14159921  0.14159921       0.009
  -0.28319842 -0.11799934  0.14159921       0.017
  -0.25959855 -0.09439947  0.14159921       0.017
  -0.25959855 -0.11799934  0.11799934       0.009
  -0.23599868 -0.09439947  0.11799934       0.009
   0.07079961  0.07079961 -0.07079961       0.003
   0.09439947  0.09439947 -0.07079961       0.009
   0.11799934  0.11799934 -0.07079961       0.009
   0.14159921  0.14159921 -0.07079961       0.009
   0.16519908  0.16519908 -0.07079961       0.004
   0.00000000  0.00000000 -0.07079961       0.002
   0.11799934  0.09439947 -0.09439947       0.009
   0.14159921  0.11799934 -0.09439947       0.017
   0.16519908  0.14159921 -0.09439947       0.017
   0.00000000 -0.02359987 -0.09439947       0.009
   0.16519908  0.11799934 -0.11799934       0.009
   0.18879895  0.14159921 -0.11799934       0.009
   0.00000000 -0.04719974 -0.11799934       0.009
   0.02359987 -0.02359987 -0.11799934       0.009
   0.00000000 -0.07079961 -0.14159921       0.009
   0.02359987 -0.04719974 -0.14159921       0.017
   0.00000000 -0.09439947 -0.16519908       0.009
   0.02359987 -0.07079961 -0.16519908       0.017
   0.04719974 -0.04719974 -0.16519908       0.009
   0.00000000 -0.11799934 -0.18879895       0.009
   0.02359987 -0.09439947 -0.18879895       0.017
   0.04719974 -0.07079961 -0.18879895       0.017
  -0.30679829 -0.11799934  0.11799934       0.009
  -0.28319842 -0.09439947  0.11799934       0.017
  -0.25959855 -0.07079961  0.11799934       0.009
  -0.25959855 -0.09439947  0.09439947       0.009
   0.11799934  0.11799934 -0.11799934       0.003
   0.14159921  0.14159921 -0.11799934       0.009
   0.16519908  0.16519908 -0.11799934       0.004
   0.00000000  0.00000000 -0.11799934       0.002
   0.16519908  0.14159921 -0.14159921       0.009
   0.00000000 -0.02359987 -0.14159921       0.009
   0.00000000 -0.04719974 -0.16519908       0.009
   0.02359987 -0.02359987 -0.16519908       0.009
   0.00000000 -0.07079961 -0.18879895       0.009
   0.02359987 -0.04719974 -0.18879895       0.017
   0.00000000 -0.09439947 -0.21239882       0.009
   0.02359987 -0.07079961 -0.21239882       0.017
   0.04719974 -0.04719974 -0.21239882       0.009
  -0.30679829 -0.09439947  0.09439947       0.009
  -0.28319842 -0.07079961  0.09439947       0.017
  -0.25959855 -0.07079961  0.07079961       0.003
   0.16519908  0.16519908 -0.16519908       0.001
   0.00000000  0.00000000 -0.16519908       0.002
   0.00000000 -0.02359987 -0.18879895       0.009
   0.00000000 -0.04719974 -0.21239882       0.009
   0.02359987 -0.02359987 -0.21239882       0.009
   0.00000000 -0.07079961 -0.23599868       0.009
   0.02359987 -0.04719974 -0.23599868       0.017
  -0.30679829 -0.07079961  0.07079961       0.009
  -0.28319842 -0.04719974  0.07079961       0.009
   0.00000000  0.00000000 -0.21239882       0.002
   0.00000000 -0.02359987 -0.23599868       0.009
   0.00000000 -0.04719974 -0.25959855       0.009
   0.02359987 -0.02359987 -0.25959855       0.009
  -0.30679829 -0.04719974  0.04719974       0.009
   0.00000000  0.00000000 -0.25959855       0.002
   0.00000000 -0.02359987 -0.28319842       0.009
  -0.30679829 -0.02359987  0.02359987       0.003
   0.00000000  0.00000000 -0.30679829       0.002
 
 k-points in reciprocal lattice and weights: Automatic                               
   0.03571429  0.03571429  0.03571429       0.003
   0.10714286  0.03571429  0.03571429       0.009
   0.17857143  0.03571429  0.03571429       0.009
   0.25000000  0.03571429  0.03571429       0.009
   0.32142857  0.03571429  0.03571429       0.009
   0.39285714  0.03571429  0.03571429       0.009
   0.46428571  0.03571429  0.03571429       0.004
  -0.03571429  0.03571429  0.03571429       0.002
   0.10714286  0.10714286  0.03571429       0.009
   0.17857143  0.10714286  0.03571429       0.017
   0.25000000  0.10714286  0.03571429       0.017
   0.32142857  0.10714286  0.03571429       0.017
   0.39285714  0.10714286  0.03571429       0.017
  -0.10714286  0.10714286  0.03571429       0.009
   0.17857143  0.17857143  0.03571429       0.009
   0.25000000  0.17857143  0.03571429       0.017
   0.32142857  0.17857143  0.03571429       0.017
   0.39285714  0.17857143  0.03571429       0.009
  -0.17857143  0.17857143  0.03571429       0.009
  -0.10714286  0.17857143  0.03571429       0.009
   0.25000000  0.25000000  0.03571429       0.009
   0.32142857  0.25000000  0.03571429       0.017
  -0.25000000  0.25000000  0.03571429       0.009
  -0.17857143  0.25000000  0.03571429       0.017
   0.32142857  0.32142857  0.03571429       0.003
  -0.32142857  0.32142857  0.03571429       0.009
  -0.25000000  0.32142857  0.03571429       0.017
  -0.17857143  0.32142857  0.03571429       0.009
  -0.39285714  0.39285714  0.03571429       0.009
  -0.32142857  0.39285714  0.03571429       0.017
  -0.25000000  0.39285714  0.03571429       0.017
  -0.46428571  0.46428571  0.03571429       0.009
  -0.39285714  0.46428571  0.03571429       0.017
  -0.32142857  0.46428571  0.03571429       0.017
  -0.25000000  0.46428571  0.03571429       0.009
  -0.46428571 -0.46428571  0.03571429       0.009
  -0.39285714 -0.46428571  0.03571429       0.017
  -0.32142857 -0.46428571  0.03571429       0.017
  -0.39285714 -0.39285714  0.03571429       0.009
  -0.32142857 -0.39285714  0.03571429       0.009
   0.10714286  0.10714286  0.10714286       0.003
   0.17857143  0.10714286  0.10714286       0.009
   0.25000000  0.10714286  0.10714286       0.009
   0.32142857  0.10714286  0.10714286       0.009
   0.39285714  0.10714286  0.10714286       0.004
  -0.10714286  0.10714286  0.10714286       0.002
   0.17857143  0.17857143  0.10714286       0.009
   0.25000000  0.17857143  0.10714286       0.017
   0.32142857  0.17857143  0.10714286       0.017
  -0.17857143  0.17857143  0.10714286       0.009
   0.25000000  0.25000000  0.10714286       0.009
   0.32142857  0.25000000  0.10714286       0.009
  -0.25000000  0.25000000  0.10714286       0.009
  -0.17857143  0.25000000  0.10714286       0.009
  -0.32142857  0.32142857  0.10714286       0.009
  -0.25000000  0.32142857  0.10714286       0.017
  -0.39285714  0.39285714  0.10714286       0.009
  -0.32142857  0.39285714  0.10714286       0.017
  -0.25000000  0.39285714  0.10714286       0.009
  -0.46428571  0.46428571  0.10714286       0.009
  -0.39285714  0.46428571  0.10714286       0.017
  -0.32142857  0.46428571  0.10714286       0.017
  -0.46428571 -0.46428571  0.10714286       0.009
  -0.39285714 -0.46428571  0.10714286       0.017
  -0.32142857 -0.46428571  0.10714286       0.009
  -0.39285714 -0.39285714  0.10714286       0.009
   0.17857143  0.17857143  0.17857143       0.003
   0.25000000  0.17857143  0.17857143       0.009
   0.32142857  0.17857143  0.17857143       0.004
  -0.17857143  0.17857143  0.17857143       0.002
   0.25000000  0.25000000  0.17857143       0.009
  -0.25000000  0.25000000  0.17857143       0.009
  -0.32142857  0.32142857  0.17857143       0.009
  -0.25000000  0.32142857  0.17857143       0.009
  -0.39285714  0.39285714  0.17857143       0.009
  -0.32142857  0.39285714  0.17857143       0.017
  -0.46428571  0.46428571  0.17857143       0.009
  -0.39285714  0.46428571  0.17857143       0.017
  -0.32142857  0.46428571  0.17857143       0.009
  -0.46428571 -0.46428571  0.17857143       0.009
  -0.39285714 -0.46428571  0.17857143       0.017
  -0.39285714 -0.39285714  0.17857143       0.003
   0.25000000  0.25000000  0.25000000       0.001
  -0.25000000  0.25000000  0.25000000       0.002
  -0.32142857  0.32142857  0.25000000       0.009
  -0.39285714  0.39285714  0.25000000       0.009
  -0.32142857  0.39285714  0.25000000       0.009
  -0.46428571  0.46428571  0.25000000       0.009
  -0.39285714  0.46428571  0.25000000       0.017
  -0.46428571 -0.46428571  0.25000000       0.009
  -0.39285714 -0.46428571  0.25000000       0.009
  -0.32142857  0.32142857  0.32142857       0.002
  -0.39285714  0.39285714  0.32142857       0.009
  -0.46428571  0.46428571  0.32142857       0.009
  -0.39285714  0.46428571  0.32142857       0.009
  -0.46428571 -0.46428571  0.32142857       0.009
  -0.39285714  0.39285714  0.39285714       0.002
  -0.46428571  0.46428571  0.39285714       0.009
  -0.46428571 -0.46428571  0.39285714       0.003
  -0.46428571  0.46428571  0.46428571       0.002
 
 position of ions in fractional coordinates (direct lattice) 
   0.00000000  0.00000000  0.00000000
 
 position of ions in cartesian coordinates  (Angst):
   0.00000000  0.00000000  0.00000000
 


--------------------------------------------------------------------------------------------------------


 k-point   1 :   0.0357 0.0357 0.0357  plane waves:     204
 k-point   2 :   0.1071 0.0357 0.0357  plane waves:     203
 k-point   3 :   0.1786 0.0357 0.0357  plane waves:     203
 k-point   4 :   0.2500 0.0357 0.0357  plane waves:     205
 k-point   5 :   0.3214 0.0357 0.0357  plane waves:     201
 k-point   6 :   0.3929 0.0357 0.0357  plane waves:     201
 k-point   7 :   0.4643 0.0357 0.0357  plane waves:     200
 k-point   8 :  -0.0357 0.0357 0.0357  plane waves:     201
 k-point   9 :   0.1071 0.1071 0.0357  plane waves:     206
 k-point  10 :   0.1786 0.1071 0.0357  plane waves:     205
 k-point  11 :   0.2500 0.1071 0.0357  plane waves:     202
 k-point  12 :   0.3214 0.1071 0.0357  plane waves:     200
 k-point  13 :   0.3929 0.1071 0.0357  plane waves:     204
 k-point  14 :  -0.1071 0.1071 0.0357  plane waves:     206
 k-point  15 :   0.1786 0.1786 0.0357  plane waves:     203
 k-point  16 :   0.2500 0.1786 0.0357  plane waves:     204
 k-point  17 :   0.3214 0.1786 0.0357  plane waves:     208
 k-point  18 :   0.3929 0.1786 0.0357  plane waves:     208
 k-point  19 :  -0.1786 0.1786 0.0357  plane waves:     203
 k-point  20 :  -0.1071 0.1786 0.0357  plane waves:     204
 k-point  21 :   0.2500 0.2500 0.0357  plane waves:     208
 k-point  22 :   0.3214 0.2500 0.0357  plane waves:     208
 k-point  23 :  -0.2500 0.2500 0.0357  plane waves:     206
 k-point  24 :  -0.1786 0.2500 0.0357  plane waves:     203
 k-point  25 :   0.3214 0.3214 0.0357  plane waves:     210
 k-point  26 :  -0.3214 0.3214 0.0357  plane waves:     199
 k-point  27 :  -0.2500 0.3214 0.0357  plane waves:     200
 k-point  28 :  -0.1786 0.3214 0.0357  plane waves:     206
 k-point  29 :  -0.3929 0.3929 0.0357  plane waves:     203
 k-point  30 :  -0.3214 0.3929 0.0357  plane waves:     204
 k-point  31 :  -0.2500 0.3929 0.0357  plane waves:     202
 k-point  32 :  -0.4643 0.4643 0.0357  plane waves:     200
 k-point  33 :  -0.3929 0.4643 0.0357  plane waves:     204
 k-point  34 :  -0.3214 0.4643 0.0357  plane waves:     205
 k-point  35 :  -0.2500 0.4643 0.0357  plane waves:     205
 k-point  36 :  -0.4643-0.4643 0.0357  plane waves:     202
 k-point  37 :  -0.3929-0.4643 0.0357  plane waves:     204
 k-point  38 :  -0.3214-0.4643 0.0357  plane waves:     208
 k-point  39 :  -0.3929-0.3929 0.0357  plane waves:     207
 k-point  40 :  -0.3214-0.3929 0.0357  plane waves:     209
 k-point  41 :   0.1071 0.1071 0.1071  plane waves:     210
 k-point  42 :   0.1786 0.1071 0.1071  plane waves:     199
 k-point  43 :   0.2500 0.1071 0.1071  plane waves:     198
 k-point  44 :   0.3214 0.1071 0.1071  plane waves:     204
 k-point  45 :   0.3929 0.1071 0.1071  plane waves:     206
 k-point  46 :  -0.1071 0.1071 0.1071  plane waves:     209
 k-point  47 :   0.1786 0.1786 0.1071  plane waves:     202
 k-point  48 :   0.2500 0.1786 0.1071  plane waves:     204
 k-point  49 :   0.3214 0.1786 0.1071  plane waves:     207
 k-point  50 :  -0.1786 0.1786 0.1071  plane waves:     206
 k-point  51 :   0.2500 0.2500 0.1071  plane waves:     206
 k-point  52 :   0.3214 0.2500 0.1071  plane waves:     208
 k-point  53 :  -0.2500 0.2500 0.1071  plane waves:     206
 k-point  54 :  -0.1786 0.2500 0.1071  plane waves:     209
 k-point  55 :  -0.3214 0.3214 0.1071  plane waves:     203
 k-point  56 :  -0.2500 0.3214 0.1071  plane waves:     203
 k-point  57 :  -0.3929 0.3929 0.1071  plane waves:     202
 k-point  58 :  -0.3214 0.3929 0.1071  plane waves:     206
 k-point  59 :  -0.2500 0.3929 0.1071  plane waves:     207
 k-point  60 :  -0.4643 0.4643 0.1071  plane waves:     208
 k-point  61 :  -0.3929 0.4643 0.1071  plane waves:     208
 k-point  62 :  -0.3214 0.4643 0.1071  plane waves:     210
 k-point  63 :  -0.4643-0.4643 0.1071  plane waves:     208
 k-point  64 :  -0.3929-0.4643 0.1071  plane waves:     209
 k-point  65 :  -0.3214-0.4643 0.1071  plane waves:     209
 k-point  66 :  -0.3929-0.3929 0.1071  plane waves:     210
 k-point  67 :   0.1786 0.1786 0.1786  plane waves:     204
 k-point  68 :   0.2500 0.1786 0.1786  plane waves:     202
 k-point  69 :   0.3214 0.1786 0.1786  plane waves:     206
 k-point  70 :  -0.1786 0.1786 0.1786  plane waves:     209
 k-point  71 :   0.2500 0.2500 0.1786  plane waves:     206
 k-point  72 :  -0.2500 0.2500 0.1786  plane waves:     205
 k-point  73 :  -0.3214 0.3214 0.1786  plane waves:     208
 k-point  74 :  -0.2500 0.3214 0.1786  plane waves:     205
 k-point  75 :  -0.3929 0.3929 0.1786  plane waves:     211
 k-point  76 :  -0.3214 0.3929 0.1786  plane waves:     209
 k-point  77 :  -0.4643 0.4643 0.1786  plane waves:     208
 k-point  78 :  -0.3929 0.4643 0.1786  plane waves:     207
 k-point  79 :  -0.3214 0.4643 0.1786  plane waves:     211
 k-point  80 :  -0.4643-0.4643 0.1786  plane waves:     212
 k-point  81 :  -0.3929-0.4643 0.1786  plane waves:     208
 k-point  82 :  -0.3929-0.3929 0.1786  plane waves:     209
 k-point  83 :   0.2500 0.2500 0.2500  plane waves:     216
 k-point  84 :  -0.2500 0.2500 0.2500  plane waves:     209
 k-point  85 :  -0.3214 0.3214 0.2500  plane waves:     205
 k-point  86 :  -0.3929 0.3929 0.2500  plane waves:     210
 k-point  87 :  -0.3214 0.3929 0.2500  plane waves:     210
 k-point  88 :  -0.4643 0.4643 0.2500  plane waves:     210
 k-point  89 :  -0.3929 0.4643 0.2500  plane waves:     211
 k-point  90 :  -0.4643-0.4643 0.2500  plane waves:     212
 k-point  91 :  -0.3929-0.4643 0.2500  plane waves:     214
 k-point  92 :  -0.3214 0.3214 0.3214  plane waves:     212
 k-point  93 :  -0.3929 0.3929 0.3214  plane waves:     214
 k-point  94 :  -0.4643 0.4643 0.3214  plane waves:     214
 k-point  95 :  -0.3929 0.4643 0.3214  plane waves:     216
 k-point  96 :  -0.4643-0.4643 0.3214  plane waves:     212
 k-point  97 :  -0.3929 0.3929 0.3929  plane waves:     212
 k-point  98 :  -0.4643 0.4643 0.3929  plane waves:     218
 k-point  99 :  -0.4643-0.4643 0.3929  plane waves:     218
 k-point 100 :  -0.4643 0.4643 0.4643  plane waves:     228

 maximum and minimum number of plane-waves per node :       228      198

 maximum number of plane-waves:       228
 maximum index in each direction: 
   IXMAX=    4   IYMAX=    4   IZMAX=    3
   IXMIN=   -4   IYMIN=   -4   IZMIN=   -4


 serial   3D FFT for wavefunctions
 parallel 3D FFT for charge:
    minimum data exchange during FFTs selected (reduces bandwidth)


 total amount of memory used by VASP MPI-rank0    34043. kBytes
=======================================================================

   base      :      30000. kBytes
   nonl-proj :       1462. kBytes
   fftplans  :       1246. kBytes
   grid      :        577. kBytes
   one-center:          3. kBytes
   wavefun   :        755. kBytes
 
     INWAV:  cpu time    0.0000: real time    0.0007
 Broyden mixing: mesh for mixing (old mesh)
   NGX =  7   NGY =  7   NGZ =  7
  (NGX  = 32   NGY  = 32   NGZ  = 32)
  gives a total of    343 points

 initial charge density was supplied:
 charge density of overlapping atoms calculated
 number of electron       4.0000000 magnetization 
 keeping initial charge density in first step


--------------------------------------------------------------------------------------------------------


 Maximum index for augmentation-charges        19203 (set IRDMAX)


--------------------------------------------------------------------------------------------------------


 First call to EWALD:  gamma=   0.738
 Maximum number of real-space cells 3x 3x 3
 Maximum number of reciprocal cells 3x 3x 3

    FEWALD:  cpu time    0.0030: real time    0.0034


--------------------------------------- Iteration      1(   1)  ---------------------------------------


    POTLOK:  cpu time    0.0090: real time    0.0127
    SETDIJ:  cpu time    0.1630: real time    0.1626
     EDDAV:  cpu time    0.2960: real time    0.2971
       DOS:  cpu time    0.0020: real time    0.0016
    --------------------------------------------
      LOOP:  cpu time    0.4699: real time    0.4743

 eigenvalue-minimisations  :  1768
 total energy-change (2. order) :-0.3226620E+01  (-0.1442294E+03)
 number of electron       4.0000000 magnetization 
 augmentation part        4.0000000 magnetization 

 Free energy of the ion-electron system (eV)
  ---------------------------------------------------
  alpha Z        PSCENC =         2.42827211
  Ewald energy   TEWEN  =      -138.51397499
  -Hartree energ DENC   =        -0.48179554
  -exchange      EXHF   =         0.00000000
  -V(xc)+E(xc)   XCENC  =        -8.69332224
  PAW double counting   =        88.12379961      -70.53051779
  entropy T*S    EENTRO =        -0.00025399
  eigenvalues    EBANDS =        21.37554625
  atomic energy  EATOM  =       103.06562707
  Solvation  Ediel_sol  =         0.00000000
  ---------------------------------------------------
  free energy    TOTEN  =        -3.22661951 eV

  energy without entropy =       -3.22636552  energy(sigma->0) =       -3.22649252


--------------------------------------------------------------------------------------------------------




--------------------------------------- Iteration      1(   2)  ---------------------------------------


     EDDAV:  cpu time    0.4119: real time    0.4269
       DOS:  cpu time    0.0010: real time    0.0016
    --------------------------------------------
      LOOP:  cpu time    0.4139: real time    0.4285

 eigenvalue-minimisations  :  2360
 total energy-change (2. order) :-0.1664489E+01  (-0.1521905E+01)
 number of electron       4.0000000 magnetization 
 augmentation part        4.0000000 magnetization 

 Free energy of the ion-electron system (eV)
  ---------------------------------------------------
  alpha Z        PSCENC =         2.42827211
  Ewald energy   TEWEN  =      -138.51397499
  -Hartree energ DENC   =        -0.48179554
  -exchange      EXHF   =         0.00000000
  -V(xc)+E(xc)   XCENC  =        -8.69332224
  PAW double counting   =        88.12379961      -70.53051779
  entropy T*S    EENTRO =        -0.00062639
  eigenvalues    EBANDS =        19.71142933
  atomic energy  EATOM  =       103.06562707
  Solvation  Ediel_sol  =         0.00000000
  ---------------------------------------------------
  free energy    TOTEN  =        -4.89110884 eV

  energy without entropy =       -4.89048244  energy(sigma->0) =       -4.89079564


--------------------------------------------------------------------------------------------------------




--------------------------------------- Iteration      1(   3)  ---------------------------------------


     EDDAV:  cpu time    0.2920: real time    0.2986
       DOS:  cpu time    0.0010: real time    0.0016
    --------------------------------------------
      LOOP:  cpu time    0.2920: real time    0.3002

 eigenvalue-minimisations  :  1736
 total energy-change (2. order) :-0.7337928E-02  (-0.7335934E-02)
 number of electron       4.0000000 magnetization 
 augmentation part        4.0000000 magnetization 

 Free energy of the ion-electron system (eV)
  ---------------------------------------------------
  alpha Z        PSCENC =         2.42827211
  Ewald energy   TEWEN  =      -138.51397499
  -Hartree energ DENC   =        -0.48179554
  -exchange      EXHF   =         0.00000000
  -V(xc)+E(xc)   XCENC  =        -8.69332224
  PAW double counting   =        88.12379961      -70.53051779
  entropy T*S    EENTRO =        -0.00061840
  eigenvalues    EBANDS =        19.70408340
  atomic energy  EATOM  =       103.06562707
  Solvation  Ediel_sol  =         0.00000000
  ---------------------------------------------------
  free energy    TOTEN  =        -4.89844676 eV

  energy without entropy =       -4.89782837  energy(sigma->0) =       -4.89813756


--------------------------------------------------------------------------------------------------------




--------------------------------------- Iteration      1(   4)  ---------------------------------------


     EDDAV:  cpu time    0.4639: real time    0.4718
       DOS:  cpu time    0.0020: real time    0.0016
    --------------------------------------------
      LOOP:  cpu time    0.4659: real time    0.4735

 eigenvalue-minimisations  :  2616
 total energy-change (2. order) :-0.5470492E-05  (-0.5470194E-05)
 number of electron       4.0000000 magnetization 
 augmentation part        4.0000000 magnetization 

 Free energy of the ion-electron system (eV)
  ---------------------------------------------------
  alpha Z        PSCENC =         2.42827211
  Ewald energy   TEWEN  =      -138.51397499
  -Hartree energ DENC   =        -0.48179554
  -exchange      EXHF   =         0.00000000
  -V(xc)+E(xc)   XCENC  =        -8.69332224
  PAW double counting   =        88.12379961      -70.53051779
  entropy T*S    EENTRO =        -0.00061839
  eigenvalues    EBANDS =        19.70407793
  atomic energy  EATOM  =       103.06562707
  Solvation  Ediel_sol  =         0.00000000
  ---------------------------------------------------
  free energy    TOTEN  =        -4.89845223 eV

  energy without entropy =       -4.89783384  energy(sigma->0) =       -4.89814304


--------------------------------------------------------------------------------------------------------




--------------------------------------- Iteration      1(   5)  ---------------------------------------


     EDDAV:  cpu time    0.3110: real time    0.3280
       DOS:  cpu time    0.0010: real time    0.0016
    CHARGE:  cpu time    0.0160: real time    0.0161
    MIXING:  cpu time    0.0010: real time    0.0009
    --------------------------------------------
      LOOP:  cpu time    0.3289: real time    0.3465

 eigenvalue-minimisations  :  1824
 total energy-change (2. order) :-0.1181462E-08  (-0.4355406E-09)
 number of electron       4.0000000 magnetization 
 augmentation part       -0.2399307 magnetization 

 Broyden mixing:
  rms(total) = 0.28650E+00    rms(broyden)= 0.28649E+00
  rms(prec ) = 0.41426E+00
  weight for this iteration     100.00

 Free energy of the ion-electron system (eV)
  ---------------------------------------------------
  alpha Z        PSCENC =         2.42827211
  Ewald energy   TEWEN  =      -138.51397499
  -Hartree energ DENC   =        -0.48179554
  -exchange      EXHF   =         0.00000000
  -V(xc)+E(xc)   XCENC  =        -8.69332224
  PAW double counting   =        88.12379961      -70.53051779
  entropy T*S    EENTRO =        -0.00061839
  eigenvalues    EBANDS =        19.70407793
  atomic energy  EATOM  =       103.06562707
  Solvation  Ediel_sol  =         0.00000000
  ---------------------------------------------------
  free energy    TOTEN  =        -4.89845223 eV

  energy without entropy =       -4.89783384  energy(sigma->0) =       -4.89814304


--------------------------------------------------------------------------------------------------------




--------------------------------------- Iteration      1(   6)  ---------------------------------------


    POTLOK:  cpu time    0.0120: real time    0.0199
    SETDIJ:  cpu time    0.1630: real time    0.1627
     EDDAV:  cpu time    0.2780: real time    0.2783
       DOS:  cpu time    0.0020: real time    0.0017
    CHARGE:  cpu time    0.0140: real time    0.0149
    MIXING:  cpu time    0.0010: real time    0.0008
    --------------------------------------------
      LOOP:  cpu time    0.4699: real time    0.4784

 eigenvalue-minimisations  :  1656
 total energy-change (2. order) : 0.1147026E-01  (-0.3590444E-03)
 number of electron       4.0000000 magnetization 
 augmentation part       -0.2418624 magnetization 

 Broyden mixing:
  rms(total) = 0.15918E+00    rms(broyden)= 0.15918E+00
  rms(prec ) = 0.23979E+00
  weight for this iteration     100.00

 eigenvalues of (default mixing * dielectric matrix)
  average eigenvalue GAMMA=   2.2399
  2.2399

 Free energy of the ion-electron system (eV)
  ---------------------------------------------------
  alpha Z        PSCENC =         2.42827211
  Ewald energy   TEWEN  =      -138.51397499
  -Hartree energ DENC   =        -0.41839661
  -exchange      EXHF   =         0.00000000
  -V(xc)+E(xc)   XCENC  =        -8.66807205
  PAW double counting   =       176.91527131     -159.32882372
  entropy T*S    EENTRO =        -0.00063317
  eigenvalues    EBANDS =        19.63374807
  atomic energy  EATOM  =       103.06562707
  Solvation  Ediel_sol  =         0.00000000
  ---------------------------------------------------
  free energy    TOTEN  =        -4.88698198 eV

  energy without entropy =       -4.88634880  energy(sigma->0) =       -4.88666539


--------------------------------------------------------------------------------------------------------




--------------------------------------- Iteration      1(   7)  ---------------------------------------


    POTLOK:  cpu time    0.0100: real time    0.0180
    SETDIJ:  cpu time    0.1630: real time    0.1623
     EDDAV:  cpu time    0.2900: real time    0.2907
       DOS:  cpu time    0.0020: real time    0.0018
    CHARGE:  cpu time    0.0140: real time    0.0148
    MIXING:  cpu time    0.0010: real time    0.0008
    --------------------------------------------
      LOOP:  cpu time    0.4799: real time    0.4882

 eigenvalue-minimisations  :  1728
 total energy-change (2. order) : 0.6559811E-02  (-0.7185203E-03)
 number of electron       4.0000000 magnetization 
 augmentation part       -0.2446639 magnetization 

 Broyden mixing:
  rms(total) = 0.13628E-01    rms(broyden)= 0.13628E-01
  rms(prec ) = 0.18384E-01
  weight for this iteration     100.00

 eigenvalues of (default mixing * dielectric matrix)
  average eigenvalue GAMMA=   2.4604
  2.4604  2.4604

 Free energy of the ion-electron system (eV)
  ---------------------------------------------------
  alpha Z        PSCENC =         2.42827211
  Ewald energy   TEWEN  =      -138.51397499
  -Hartree energ DENC   =        -0.35410748
  -exchange      EXHF   =         0.00000000
  -V(xc)+E(xc)   XCENC  =        -8.62819686
  PAW double counting   =       351.50002705     -333.92724148
  entropy T*S    EENTRO =        -0.00064401
  eigenvalues    EBANDS =        19.54981643
  atomic energy  EATOM  =       103.06562707
  Solvation  Ediel_sol  =         0.00000000
  ---------------------------------------------------
  free energy    TOTEN  =        -4.88042217 eV

  energy without entropy =       -4.87977816  energy(sigma->0) =       -4.88010016


--------------------------------------------------------------------------------------------------------




--------------------------------------- Iteration      1(   8)  ---------------------------------------


    POTLOK:  cpu time    0.0110: real time    0.0274
    SETDIJ:  cpu time    0.1620: real time    0.1617
     EDDAV:  cpu time    0.4099: real time    0.4110
       DOS:  cpu time    0.0020: real time    0.0018
    CHARGE:  cpu time    0.0150: real time    0.0149
    MIXING:  cpu time    0.0000: real time    0.0007
    --------------------------------------------
      LOOP:  cpu time    0.5999: real time    0.6176

 eigenvalue-minimisations  :  2336
 total energy-change (2. order) : 0.2103728E-04  (-0.3248779E-05)
 number of electron       4.0000000 magnetization 
 augmentation part       -0.2447473 magnetization 

 Broyden mixing:
  rms(total) = 0.10120E-02    rms(broyden)= 0.10119E-02
  rms(prec ) = 0.18336E-02
  weight for this iteration     100.00

 eigenvalues of (default mixing * dielectric matrix)
  average eigenvalue GAMMA=   2.0202
  0.9860  2.4062  2.6684

 Free energy of the ion-electron system (eV)
  ---------------------------------------------------
  alpha Z        PSCENC =         2.42827211
  Ewald energy   TEWEN  =      -138.51397499
  -Hartree energ DENC   =        -0.35600975
  -exchange      EXHF   =         0.00000000
  -V(xc)+E(xc)   XCENC  =        -8.62344973
  PAW double counting   =       336.44374363     -318.87769567
  entropy T*S    EENTRO =        -0.00064407
  eigenvalues    EBANDS =        19.55373028
  atomic energy  EATOM  =       103.06562707
  Solvation  Ediel_sol  =         0.00000000
  ---------------------------------------------------
  free energy    TOTEN  =        -4.88040113 eV

  energy without entropy =       -4.87975706  energy(sigma->0) =       -4.88007910


--------------------------------------------------------------------------------------------------------




--------------------------------------- Iteration      1(   9)  ---------------------------------------


    POTLOK:  cpu time    0.0110: real time    0.0178
    SETDIJ:  cpu time    0.1620: real time    0.1624
     EDDAV:  cpu time    0.3080: real time    0.3084
       DOS:  cpu time    0.0020: real time    0.0019
    --------------------------------------------
      LOOP:  cpu time    0.4829: real time    0.4904

 eigenvalue-minimisations  :  1800
 total energy-change (2. order) :-0.5186606E-06  (-0.3908606E-07)
 number of electron       4.0000000 magnetization 
 augmentation part       -0.2447473 magnetization 

 Free energy of the ion-electron system (eV)
  ---------------------------------------------------
  alpha Z        PSCENC =         2.42827211
  Ewald energy   TEWEN  =      -138.51397499
  -Hartree energ DENC   =        -0.35608371
  -exchange      EXHF   =         0.00000000
  -V(xc)+E(xc)   XCENC  =        -8.62292301
  PAW double counting   =       335.33343367     -317.76785334
  entropy T*S    EENTRO =        -0.00064408
  eigenvalues    EBANDS =        19.55374463
  atomic energy  EATOM  =       103.06562707
  Solvation  Ediel_sol  =         0.00000000
  ---------------------------------------------------
  free energy    TOTEN  =        -4.88040165 eV

  energy without entropy =       -4.87975757  energy(sigma->0) =       -4.88007961


--------------------------------------------------------------------------------------------------------




 average (electrostatic) potential at core
  the test charge radii are     0.9892
  (the norm of the test charge is              1.0000)
       1 -79.2891
 
 
 
 E-fermi :  10.5767     XC(G=0): -11.3700     alpha+bet :-17.3011

 Fermi energy:        10.5766669076

 k-point     1 :       0.0357    0.0357    0.0357
  band No.  band energies     occupation 
      1      -3.8557      2.00000
      2      20.2608      0.00000
      3      21.1082      0.00000
      4      21.1082      0.00000
      5      24.0222      0.00000
      6      24.0222      0.00000
      7      25.7135      0.00000
      8      26.5450      0.00000

 k-point     2 :       0.1071    0.0357    0.0357
  band No.  band energies     occupation 
      1      -3.3705      2.00000
      2      17.7198      0.00000
      3      19.1675      0.00000
      4      20.0150      0.00000
      5      23.4471      0.00000
      6      24.5545      0.00000
      7      26.2353      0.00000
      8      27.0179      0.00000

 k-point     3 :       0.1786    0.0357    0.0357
  band No.  band energies     occupation 
      1      -2.5644      2.00000
      2      14.5955      0.00000
      3      17.9021      0.00000
      4      18.8847      0.00000
      5      22.6908      0.00000
      6      23.6869      0.00000
      7      27.3742      0.00000
      8      27.5521      0.00000

 k-point     4 :       0.2500    0.0357    0.0357
  band No.  band energies     occupation 
      1      -1.4411      2.00000
      2      11.5465      0.00000
      3      16.9387      0.00000
      4      17.9288      0.00000
      5      21.9424      0.00000
      6      22.8449      0.00000
      7      28.3634      0.00000
      8      28.6857      0.00000

 k-point     5 :       0.3214    0.0357    0.0357
  band No.  band energies     occupation 
      1      -0.0058      2.00000
      2       8.6999      2.00000
      3      16.2522      0.00000
      4      17.2196      0.00000
      5      21.3450      0.00000
      6      22.2057      0.00000
      7      29.4556      0.00000
      8      30.1144      0.00000

 k-point     6 :       0.3929    0.0357    0.0357
  band No.  band energies     occupation 
      1       1.7344      2.00000
      2       6.1026      2.00000
      3      15.8399      0.00000
      4      16.7867      0.00000
      5      20.9682      0.00000
      6      21.8083      0.00000
      7      30.6973      0.00000
      8      31.5181      0.00000

 k-point     7 :       0.4643    0.0357    0.0357
  band No.  band energies     occupation 
      1       3.6794      2.00000
      2       3.8707      2.00000
      3      15.7025      0.00000
      4      16.6408      0.00000
      5      20.8398      0.00000
      6      21.6741      0.00000
      7      31.4978      0.00000
      8      32.2635      0.00000

 k-point     8 :      -0.0357    0.0357    0.0357
  band No.  band energies     occupation 
      1      -4.0177      2.00000
      2      21.6303      0.00000
      3      21.6303      0.00000
      4      22.3624      0.00000
      5      23.5015      0.00000
      6      24.2797      0.00000
      7      24.2797      0.00000
      8      26.1603      0.00000

 k-point     9 :       0.1071    0.1071    0.0357
  band No.  band energies     occupation 
      1      -2.7254      2.00000
      2      16.1981      0.00000
      3      16.6112      0.00000
      4      18.4131      0.00000
      5      24.0213      0.00000
      6      25.0884      0.00000
      7      26.3621      0.00000
      8      27.5515      0.00000

 k-point    10 :       0.1786    0.1071    0.0357
  band No.  band energies     occupation 
      1      -1.7614      2.00000
      2      13.2993      0.00000
      3      15.2856      0.00000
      4      17.3235      0.00000
      5      23.6934      0.00000
      6      24.8855      0.00000
      7      27.0889      0.00000
      8      28.8357      0.00000

 k-point    11 :       0.2500    0.1071    0.0357
  band No.  band energies     occupation 
      1      -0.4830      2.00000
      2      10.3566      2.00000
      3      14.4193      0.00000
      4      16.4879      0.00000
      5      23.0942      0.00000
      6      24.5932      0.00000
      7      27.9230      0.00000
      8      30.4226      0.00000

 k-point    12 :       0.3214    0.1071    0.0357
  band No.  band energies     occupation 
      1       1.1038      2.00000
      2       7.6357      2.00000
      3      13.8406      0.00000
      4      15.9222      0.00000
      5      22.6182      0.00000
      6      24.2861      0.00000
      7      29.1155      0.00000
      8      31.7087      0.00000

 k-point    13 :       0.3929    0.1071    0.0357
  band No.  band energies     occupation 
      1       2.9899      2.00000
      2       5.1781      2.00000
      3      13.5500      0.00000
      4      15.6366      0.00000
      5      22.3663      0.00000
      6      24.1024      0.00000
      7      30.4932      0.00000
      8      31.8405      0.00000

 k-point    14 :      -0.1071    0.1071    0.0357
  band No.  band energies     occupation 
      1      -3.6939      2.00000
      2      19.2107      0.00000
      3      20.1190      0.00000
      4      21.8453      0.00000
      5      22.7772      0.00000
      6      24.4698      0.00000
      7      25.3257      0.00000
      8      26.1262      0.00000

 k-point    15 :       0.1786    0.1786    0.0357
  band No.  band energies     occupation 
      1      -0.6423      2.00000
      2      12.1893      0.00000
      3      12.3769      0.00000
      4      16.3538      0.00000
      5      24.2924      0.00000
      6      25.1569      0.00000
      7      28.3398      0.00000
      8      29.3781      0.00000

 k-point    16 :       0.2500    0.1786    0.0357
  band No.  band energies     occupation 
      1       0.7877      2.00000
      2       9.4545      2.00000
      3      11.5452      0.00000
      4      15.6542      0.00000
      5      24.1343      0.00000
      6      25.7383      0.00000
      7      28.7534      0.00000
      8      30.9479      0.00000

 k-point    17 :       0.3214    0.1786    0.0357
  band No.  band energies     occupation 
      1       2.5216      2.00000
      2       6.8712      2.00000
      3      11.0974      0.00000
      4      15.2292      0.00000
      5      23.8327      0.00000
      6      26.3621      0.00000
      7      29.1765      0.00000
      8      31.5048      0.00000

 k-point    18 :       0.3929    0.1786    0.0357
  band No.  band energies     occupation 
      1       4.4712      2.00000
      2       4.6367      2.00000
      3      10.9483      0.00000
      4      15.0868      0.00000
      5      23.7191      0.00000
      6      26.5626      0.00000
      7      29.8278      0.00000
      8      30.8860      0.00000

 k-point    19 :      -0.1786    0.1786    0.0357
  band No.  band energies     occupation 
      1      -3.0477      2.00000
      2      16.1244      0.00000
      3      18.7724      0.00000
      4      21.0943      0.00000
      5      21.6145      0.00000
      6      23.5035      0.00000
      7      25.8036      0.00000
      8      28.4031      0.00000

 k-point    20 :      -0.1071    0.1786    0.0357
  band No.  band energies     occupation 
      1      -3.2090      2.00000
      2      17.6249      0.00000
      3      17.9217      0.00000
      4      20.9216      0.00000
      5      22.7235      0.00000
      6      23.5104      0.00000
      7      25.9497      0.00000
      8      26.9434      0.00000

 k-point    21 :       0.2500    0.2500    0.0357
  band No.  band energies     occupation 
      1       2.3650      2.00000
      2       8.7954      2.00000
      3       8.9085      2.00000
      4      15.0945      0.00000
      5      25.1134      0.00000
      6      25.9458      0.00000
      7      30.1007      0.00000
      8      30.9395      0.00000

 k-point    22 :       0.3214    0.2500    0.0357
  band No.  band energies     occupation 
      1       4.2402      2.00000
      2       6.4108      2.00000
      3       8.5506      2.00000
      4      14.8117      0.00000
      5      25.2313      0.00000
      6      27.0181      0.00000
      7      28.9906      0.00000
      8      31.9418      0.00000

 k-point    23 :      -0.2500    0.2500    0.0357
  band No.  band energies     occupation 
      1      -2.0822      2.00000
      2      13.0095      0.00000
      3      17.6801      0.00000
      4      20.2416      0.00000
      5      20.5383      0.00000
      6      22.6967      0.00000
      7      26.4750      0.00000
      8      29.4241      0.00000

 k-point    24 :      -0.1786    0.2500    0.0357
  band No.  band energies     occupation 
      1      -2.4035      2.00000
      2      14.7064      0.00000
      3      16.5371      0.00000
      4      20.0410      0.00000
      5      21.9591      0.00000
      6      23.2491      0.00000
      7      26.0818      0.00000
      8      28.7436      0.00000

 k-point    25 :       0.3214    0.3214    0.0357
  band No.  band energies     occupation 
      1       6.1305      2.00000
      2       6.3188      2.00000
      3       6.3188      2.00000
      4      14.6714      0.00000
      5      26.1745      0.00000
      6      27.5514      0.00000
      7      27.5514      0.00000
      8      34.0222      0.00000

 k-point    26 :      -0.3214    0.3214    0.0357
  band No.  band energies     occupation 
      1      -0.8019      2.00000
      2      10.0549      2.00000
      3      16.8579      0.00000
      4      19.5116      0.00000
      5      19.6869      0.00000
      6      22.0273      0.00000
      7      27.4776      0.00000
      8      30.6201      0.00000

 k-point    27 :      -0.2500    0.3214    0.0357
  band No.  band energies     occupation 
      1      -1.2811      2.00000
      2      11.6844      0.00000
      3      15.5428      0.00000
      4      19.2052      0.00000
      5      21.0634      0.00000
      6      23.3673      0.00000
      7      26.1309      0.00000
      8      30.7110      0.00000

 k-point    28 :      -0.1786    0.3214    0.0357
  band No.  band energies     occupation 
      1      -1.4410      2.00000
      2      13.4598      0.00000
      3      13.6546      0.00000
      4      19.2376      0.00000
      5      22.2433      0.00000
      6      22.7090      0.00000
      7      27.7209      0.00000
      8      28.7595      0.00000

 k-point    29 :      -0.3929    0.3929    0.0357
  band No.  band energies     occupation 
      1       0.7871      2.00000
      2       7.3288      2.00000
      3      16.3082      0.00000
      4      18.9967      0.00000
      5      19.1039      0.00000
      6      21.5428      0.00000
      7      28.7698      0.00000
      8      31.7007      0.00000

 k-point    30 :      -0.3214    0.3929    0.0357
  band No.  band energies     occupation 
      1       0.1531      2.00000
      2       8.8471      2.00000
      3      14.8283      0.00000
      4      18.5624      0.00000
      5      20.3682      0.00000
      6      23.2909      0.00000
      7      26.8222      0.00000
      8      31.7737      0.00000

 k-point    31 :      -0.2500    0.3929    0.0357
  band No.  band energies     occupation 
      1      -0.1646      2.00000
      2      10.6408      0.06957
      3      12.6813      0.00000
      4      18.5230      0.00000
      5      21.7054      0.00000
      6      23.3567      0.00000
      7      27.7226      0.00000
      8      30.4404      0.00000

 k-point    32 :      -0.4643    0.4643    0.0357
  band No.  band energies     occupation 
      1       2.6756      2.00000
      2       4.8677      2.00000
      3      16.0332      0.00000
      4      18.7329      0.00000
      5      18.8099      0.00000
      6      21.2918      0.00000
      7      30.2338      0.00000
      8      31.6620      0.00000

 k-point    33 :      -0.3929    0.4643    0.0357
  band No.  band energies     occupation 
      1       1.8918      2.00000
      2       6.2549      2.00000
      3      14.3978      0.00000
      4      18.1655      0.00000
      5      19.9391      0.00000
      6      23.1251      0.00000
      7      28.0621      0.00000
      8      31.2121      0.00000

 k-point    34 :      -0.3214    0.4643    0.0357
  band No.  band energies     occupation 
      1       1.4196      2.00000
      2       7.9353      2.00000
      3      12.0897      0.00000
      4      18.0114      0.00000
      5      21.1813      0.00000
      6      24.3375      0.00000
      7      27.5291      0.00000
      8      30.7636      0.00000

 k-point    35 :      -0.2500    0.4643    0.0357
  band No.  band energies     occupation 
      1       1.2619      2.00000
      2       9.8365      2.00000
      3       9.9491      2.00000
      4      17.9383      0.00000
      5      22.6146      0.00000
      6      23.0556      0.00000
      7      29.2061      0.00000
      8      30.0742      0.00000

 k-point    36 :      -0.4643   -0.4643    0.0357
  band No.  band energies     occupation 
      1       3.8380      2.00000
      2       4.0228      2.00000
      3      14.2544      0.00000
      4      18.0320      0.00000
      5      19.7948      0.00000
      6      23.0519      0.00000
      7      29.3811      0.00000
      8      29.9147      0.00000

 k-point    37 :      -0.3929   -0.4643    0.0357
  band No.  band energies     occupation 
      1       3.3025      2.00000
      2       5.4848      2.00000
      3      11.7935      0.00000
      4      17.7487      0.00000
      5      20.9081      0.00000
      6      25.0503      0.00000
      7      27.7692      0.00000
      8      29.6732      0.00000

 k-point    38 :      -0.3214   -0.4643    0.0357
  band No.  band energies     occupation 
      1       2.9912      2.00000
      2       7.3239      2.00000
      3       9.4417      2.00000
      4      17.5598      0.00000
      5      22.4384      0.00000
      6      24.2597      0.00000
      7      27.7867      0.00000
      8      30.9427      0.00000

 k-point    39 :      -0.3929   -0.3929    0.0357
  band No.  band energies     occupation 
      1       4.9418      2.00000
      2       5.0920      2.00000
      3       9.2903      2.00000
      4      17.4303      0.00000
      5      22.3199      0.00000
      6      25.4341      0.00000
      7      26.5317      0.00000
      8      31.0108      0.00000

 k-point    40 :      -0.3214   -0.3929    0.0357
  band No.  band energies     occupation 
      1       4.8587      2.00000
      2       6.9660      2.00000
      3       7.0731      2.00000
      4      17.3147      0.00000
      5      23.7365      0.00000
      6      24.3573      0.00000
      7      26.0374      0.00000
      8      33.0213      0.00000

 k-point    41 :       0.1071    0.1071    0.1071
  band No.  band energies     occupation 
      1      -1.9217      2.00000
      2      14.8399      0.00000
      3      15.3779      0.00000
      4      15.3779      0.00000
      5      25.7749      0.00000
      6      25.7749      0.00000
      7      27.5414      0.00000
      8      27.5414      0.00000

 k-point    42 :       0.1786    0.1071    0.1071
  band No.  band energies     occupation 
      1      -0.8018      2.00000
      2      12.1376      0.00000
      3      14.0441      0.00000
      4      14.3738      0.00000
      5      25.7601      0.00000
      6      26.1733      0.00000
      7      28.5812      0.00000
      8      28.7862      0.00000

 k-point    43 :       0.2500    0.1071    0.1071
  band No.  band energies     occupation 
      1       0.6294      2.00000
      2       9.3083      2.00000
      3      13.3174      0.00000
      4      13.6410      0.00000
      5      25.5292      0.00000
      6      25.8193      0.00000
      7      29.9409      0.00000
      8      30.2427      0.00000

 k-point    44 :       0.3214    0.1071    0.1071
  band No.  band energies     occupation 
      1       2.3648      2.00000
      2       6.7196      2.00000
      3      12.8832      0.00000
      4      13.1960      0.00000
      5      25.3119      0.00000
      6      25.5280      0.00000
      7      31.1206      0.00000
      8      31.7701      0.00000

 k-point    45 :       0.3929    0.1071    0.1071
  band No.  band energies     occupation 
      1       4.3137      2.00000
      2       4.4847      2.00000
      3      12.7385      0.00000
      4      13.0472      0.00000
      5      25.2284      0.00000
      6      25.4238      0.00000
      7      31.7952      0.00000
      8      32.5347      0.00000

 k-point    46 :      -0.1071    0.1071    0.1071
  band No.  band energies     occupation 
      1      -3.3705      2.00000
      2      18.6620      0.00000
      3      18.6620      0.00000
      4      20.4016      0.00000
      5      22.6000      0.00000
      6      24.1278      0.00000
      7      25.8462      0.00000
      8      25.8462      0.00000

 k-point    47 :       0.1786    0.1786    0.1071
  band No.  band energies     occupation 
      1       0.4710      2.00000
      2      11.1718      0.00000
      3      11.3483      0.00000
      4      13.3531      0.00000
      5      26.6751      0.00000
      6      27.4028      0.00000
      7      29.2550      0.00000
      8      29.9654      0.00000

 k-point    48 :       0.2500    0.1786    0.1071
  band No.  band energies     occupation 
      1       2.0509      2.00000
      2       8.5528      2.00000
      3      10.6667      0.01092
      4      12.7663      0.00000
      5      26.8291      0.00000
      6      27.8434      0.00000
      7      30.2970      0.00000
      8      31.4292      0.00000

 k-point    49 :       0.3214    0.1786    0.1071
  band No.  band energies     occupation 
      1       3.9296      2.00000
      2       6.1062      2.00000
      3      10.3668      2.00000
      4      12.4725      0.00000
      5      26.7453      0.00000
      6      28.0317      0.00000
      7      31.2339      0.00000
      8      32.2946      0.00000

 k-point    50 :      -0.1786    0.1786    0.1071
  band No.  band energies     occupation 
      1      -2.7253      2.00000
      2      16.2550      0.00000
      3      17.2995      0.00000
      4      19.6810      0.00000
      5      21.5620      0.00000
      6      23.5699      0.00000
      7      26.0580      0.00000
      8      27.6928      0.00000

 k-point    51 :       0.2500    0.2500    0.1071
  band No.  band energies     occupation 
      1       3.7749      2.00000
      2       8.0412      2.00000
      3       8.1576      2.00000
      4      12.3262      0.00000
      5      27.8097      0.00000
      6      28.7978      0.00000
      7      31.1367      0.00000
      8      31.9587      0.00000

 k-point    52 :       0.3214    0.2500    0.1071
  band No.  band energies     occupation 
      1       5.7246      2.00000
      2       5.8643      2.00000
      3       7.9492      2.00000
      4      12.1793      0.00000
      5      28.0552      0.00000
      6      29.4810      0.00000
      7      30.5941      0.00000
      8      32.9135      0.00000

 k-point    53 :      -0.2500    0.2500    0.1071
  band No.  band energies     occupation 
      1      -1.7613      2.00000
      2      13.2606      0.00000
      3      16.1830      0.00000
      4      18.8498      0.00000
      5      21.7188      0.00000
      6      22.5916      0.00000
      7      25.7330      0.00000
      8      30.3403      0.00000

 k-point    54 :      -0.1786    0.2500    0.1071
  band No.  band energies     occupation 
      1      -1.9217      2.00000
      2      14.9058      0.00000
      3      15.0603      0.00000
      4      19.2174      0.00000
      5      20.5292      0.00000
      6      23.3320      0.00000
      7      27.3510      0.00000
      8      28.1187      0.00000

 k-point    55 :      -0.3214    0.3214    0.1071
  band No.  band energies     occupation 
      1      -0.4830      2.00000
      2      10.3405      2.00000
      3      15.3379      0.00000
      4      18.0622      0.00000
      5      21.7813      0.00000
      6      22.2315      0.00000
[...]
      1       3.2871      2.00000
      2       7.3241      2.00000
      3       7.6024      2.00000
      4      18.1353      0.00000
      5      20.4179      0.00000
      6      20.9750      0.00000
      7      23.9560      0.00000
      8      30.7893      0.00000

 k-point    66 :      -0.3929   -0.3929    0.1071
  band No.  band energies     occupation 
      1       5.0622      2.00000
      2       5.4088      2.00000
      3       7.3299      2.00000
      4      18.1716      0.00000
      5      20.6041      0.00000
      6      21.9975      0.00000
      7      22.2612      0.00000
      8      31.4234      0.00000

 k-point    67 :       0.1786    0.1786    0.1786
  band No.  band energies     occupation 
      1       1.4769      2.00000
      2       9.4822      2.00000
      3      10.0125      0.00044
      4      10.0125      0.00044
      5      27.3709      0.00000
      6      27.3709      0.00000
      7      29.3733      0.00000
      8      29.3733      0.00000

 k-point    68 :       0.2500    0.1786    0.1786
  band No.  band energies     occupation 
      1       3.1403      2.00000
      2       7.3218      2.00000
      3       9.2548      2.00000
      4       9.5792      2.00000
      5      27.9035      0.00000
      6      28.2101      0.00000
      7      30.4957      0.00000
      8      30.5988      0.00000

 k-point    69 :       0.3214    0.1786    0.1786
  band No.  band energies     occupation 
      1       4.9158      2.00000
      2       5.2819      2.00000
      3       9.0990      2.00000
      4       9.4343      2.00000
      5      28.0437      0.00000
      6      28.3188      0.00000
      7      30.9768      0.00000
      8      31.4735      0.00000

 k-point    70 :      -0.1786    0.1786    0.1786
  band No.  band energies     occupation 
      1      -2.3613      2.00000
      2      15.0471      0.00000
      3      15.0471      0.00000
      4      16.9026      0.00000
      5      18.6669      0.00000
      6      24.3981      0.00000
      7      25.9654      0.00000
      8      25.9654      0.00000

 k-point    71 :       0.2500    0.2500    0.1786
  band No.  band energies     occupation 
      1       4.9258      2.00000
      2       6.8920      2.00000
      3       7.2094      2.00000
      4       9.1399      2.00000
      5      28.9706      0.00000
      6      29.8321      0.00000
      7      30.7973      0.00000
      8      31.3709      0.00000

 k-point    72 :      -0.2500    0.2500    0.1786
  band No.  band energies     occupation 
      1      -1.4332      2.00000
      2      12.8766      0.00000
      3      13.9563      0.00000
      4      16.3140      0.00000
      5      18.0393      0.00000
      6      24.0190      0.00000
      7      26.0861      0.00000
      8      28.0419      0.00000

 k-point    73 :      -0.3214    0.3214    0.1786
  band No.  band energies     occupation 
      1      -0.2027      2.00000
      2      10.1826      0.00000
      3      13.1292      0.00000
      4      15.6755      0.00000
      5      18.6830      0.00000
      6      23.2968      0.00000
      7      25.4620      0.00000
      8      28.4308      0.00000

 k-point    74 :      -0.2500    0.3214    0.1786
  band No.  band energies     occupation 
      1      -0.3560      2.00000
      2      11.7965      0.00000
      3      12.0006      0.00000
      4      16.1272      0.00000
      5      17.2975      0.00000
      6      23.9097      0.00000
      7      26.9518      0.00000
      8      27.7468      0.00000

 k-point    75 :      -0.3929    0.3929    0.1786
  band No.  band energies     occupation 
      1       1.3236      2.00000
      2       7.6033      2.00000
      3      12.5755      0.00000
      4      15.1464      0.00000
      5      19.8083      0.00000
      6      22.7774      0.00000
      7      24.5446      0.00000
      8      27.4184      0.00000

 k-point    76 :      -0.3214    0.3929    0.1786
  band No.  band energies     occupation 
      1       1.0199      2.00000
      2       9.3117      2.00000
      3      11.1984      0.00000
      4      15.8455      0.00000
      5      17.9057      0.00000
      6      23.3130      0.00000
      7      25.2422      0.00000
      8      28.3570      0.00000

 k-point    77 :      -0.4643    0.4643    0.1786
  band No.  band energies     occupation 
      1       3.1312      2.00000
      2       5.2574      2.00000
      3      12.2977      0.00000
      4      14.8699      0.00000
      5      20.9782      0.00000
      6      22.5101      0.00000
      7      23.4820      0.00000
      8      26.7742      0.00000

 k-point    78 :      -0.3929    0.4643    0.1786
  band No.  band energies     occupation 
      1       2.6855      2.00000
      2       6.8672      2.00000
      3      10.7687      0.00000
      4      15.4856      0.00000
      5      19.1835      0.00000
      6      22.6170      0.00000
      7      23.6843      0.00000
      8      28.2730      0.00000

 k-point    79 :      -0.3214    0.4643    0.1786
  band No.  band energies     occupation 
      1       2.5356      2.00000
      2       8.6127      2.00000
      3       8.8645      2.00000
      4      16.6489      0.00000
      5      17.7405      0.00000
      6      22.4243      0.00000
      7      23.8389      0.00000
      8      30.1740      0.00000

 k-point    80 :      -0.4643   -0.4643    0.1786
  band No.  band energies     occupation 
      1       4.4717      2.00000
      2       4.8154      2.00000
      3      10.6251      0.00000
      4      15.3545      0.00000
      5      20.2156      0.00000
      6      21.6981      0.00000
      7      23.2358      0.00000
      8      28.2003      0.00000

 k-point    81 :      -0.3929   -0.4643    0.1786
  band No.  band energies     occupation 
      1       4.3291      2.00000
      2       6.4249      2.00000
      3       8.4573      2.00000
      4      16.7238      0.00000
      5      18.8488      0.00000
      6      20.8730      0.00000
      7      23.2469      0.00000
      8      30.8019      0.00000

 k-point    82 :      -0.3929   -0.3929    0.1786
  band No.  band energies     occupation 
      1       5.9775      2.00000
      2       6.4203      2.00000
      3       6.4203      2.00000
      4      17.5833      0.00000
      5      19.2615      0.00000
      6      19.2615      0.00000
      7      23.1106      0.00000
      8      33.1167      0.00000

 k-point    83 :       0.2500    0.2500    0.2500
  band No.  band energies     occupation 
      1       6.4098      2.00000
      2       7.0634      2.00000
      3       7.0634      2.00000
      4       7.0634      2.00000
      5      31.1598      0.00000
      6      31.1598      0.00000
      7      31.1598      0.00000
      8      31.1869      0.00000

 k-point    84 :      -0.2500    0.2500    0.2500
  band No.  band energies     occupation 
      1      -0.5094      2.00000
      2      12.8564      0.00000
      3      12.8564      0.00000
      4      14.8749      0.00000
      5      16.1627      0.00000
      6      26.2048      0.00000
      7      26.9196      0.00000
      8      27.6183      0.00000

 k-point    85 :      -0.3214    0.3214    0.2500
  band No.  band energies     occupation 
      1       0.7152      2.00000
      2      10.9003      0.00000
      3      12.0238      0.00000
      4      14.4341      0.00000
      5      15.9424      0.00000
      6      24.7938      0.00000
      7      26.0231      0.00000
      8      28.3422      0.00000

 k-point    86 :      -0.3929    0.3929    0.2500
  band No.  band energies     occupation 
      1       2.2337      2.00000
      2       8.4417      2.00000
      3      11.4658      0.00000
      4      13.9765      0.00000
      5      17.0172      0.00000
      6      22.6224      0.00000
      7      25.5477      0.00000
      8      28.4790      0.00000

 k-point    87 :      -0.3214    0.3929    0.2500
  band No.  band energies     occupation 
      1       2.0827      2.00000
      2      10.1005      0.00000
      3      10.2801      0.00000
      4      14.5527      0.00000
      5      15.4665      0.00000
      6      22.5053      0.00000
      7      26.2799      0.00000
      8      29.7998      0.00000

 k-point    88 :      -0.4643    0.4643    0.2500
  band No.  band energies     occupation 
      1       4.0308      2.00000
      2       6.1330      2.00000
      3      11.1863      0.00000
      4      13.7046      0.00000
      5      18.4985      0.00000
      6      20.6473      0.00000
      7      25.2914      0.00000
      8      28.4360      0.00000

 k-point    89 :      -0.3929    0.4643    0.2500
  band No.  band energies     occupation 
      1       3.7364      2.00000
      2       7.8550      2.00000
      3       9.7680      1.99932
      4      14.4675      0.00000
      5      16.4777      0.00000
      6      20.3068      0.00000
      7      26.0203      0.00000
      8      30.3639      0.00000

 k-point    90 :      -0.4643   -0.4643    0.2500
  band No.  band energies     occupation 
      1       5.5179      2.00000
      2       5.8287      2.00000
      3       9.6228      2.00000
      4      14.3540      0.00000
      5      17.8106      0.00000
      6      18.6756      0.00000
      7      25.9094      0.00000
      8      30.4323      0.00000

 k-point    91 :      -0.3929   -0.4643    0.2500
  band No.  band energies     occupation 
      1       5.5083      2.00000
      2       7.4553      2.00000
      3       7.6909      2.00000
      4      15.5933      0.00000
      5      16.5467      0.00000
      6      18.2052      0.00000
      7      25.9376      0.00000
      8      32.5238      0.00000

 k-point    92 :      -0.3214    0.3214    0.3214
  band No.  band energies     occupation 
      1       1.9314      2.00000
      2      11.1867      0.00000
      3      11.1867      0.00000
      4      13.2423      0.00000
      5      14.2715      0.00000
      6      22.4048      0.00000
      7      28.5638      0.00000
      8      29.6705      0.00000

 k-point    93 :      -0.3929    0.3929    0.3214
  band No.  band energies     occupation 
      1       3.4376      2.00000
      2       9.4686      2.00000
      3      10.6271      0.00000
      4      13.0123      0.00000
      5      14.4336      0.00000
      6      20.0263      0.00000
      7      28.5376      0.00000
      8      30.4452      0.00000

 k-point    94 :      -0.4643    0.4643    0.3214
  band No.  band energies     occupation 
      1       5.2165      2.00000
      2       7.2746      2.00000
      3      10.3467      0.00000
      4      12.7975      0.00000
      5      15.8494      0.00000
      6      17.8883      0.00000
      7      28.3085      0.00000
      8      30.6963      0.00000

 k-point    95 :      -0.3929    0.4643    0.3214
  band No.  band energies     occupation 
      1       5.0716      2.00000
      2       8.9558      2.00000
      3       9.1261      2.00000
      4      13.4420      0.00000
      5      14.2382      0.00000
      6      17.7167      0.00000
      7      28.9447      0.00000
      8      32.1626      0.00000

 k-point    96 :      -0.4643   -0.4643    0.3214
  band No.  band energies     occupation 
      1       6.8309      2.00000
      2       7.1033      2.00000
      3       8.9056      2.00000
      4      13.5722      0.00000
      5      15.3682      0.00000
      6      15.9473      0.00000
      7      28.9084      0.00000
      8      32.6960      0.00000

 k-point    97 :      -0.3929    0.3929    0.3929
  band No.  band energies     occupation 
      1       4.9242      2.00000
      2      10.0663      0.00000
      3      10.0663      0.00000
      4      12.0997      0.00000
      5      13.0073      0.00000
      6      17.5635      0.00000
      7      31.3622      0.00000
      8      32.0427      0.00000

 k-point    98 :      -0.4643    0.4643    0.3929
  band No.  band energies     occupation 
      1       6.6666      2.00000
      2       8.6060      2.00000
      3       9.7854      1.99636
      4      12.1131      0.00000
      5      13.5125      0.00000
      6      15.3819      0.00000
      7      31.4318      0.00000
      8      32.8188      0.00000

 k-point    99 :      -0.4643   -0.4643    0.3929
  band No.  band energies     occupation 
      1       8.2755      2.00000
      2       8.5476      2.00000
      3       8.5476      2.00000
      4      12.6143      0.00000
      5      13.6235      0.00000
      6      13.6235      0.00000
      7      31.8817      0.00000
      8      34.3084      0.00000

 k-point   100 :      -0.4643    0.4643    0.4643
  band No.  band energies     occupation 
      1       8.3034      2.00000
      2       9.5040      2.00000
      3       9.5040      2.00000
      4      11.4238      0.00000
      5      12.3697      0.00000
      6      13.2862      0.00000
      7      34.0307      0.00000
      8      34.1862      0.00000


--------------------------------------------------------------------------------------------------------


 soft charge-density along one line, spin component           1
         0         1         2         3         4         5         6         7         8         9
 total charge-density along one line
 
 pseudopotential strength for first ion, spin component:           1
 17.983  25.087   0.000  -0.000   0.000   0.000  -0.000   0.000
 25.087  35.003   0.000  -0.000   0.000   0.000  -0.000   0.000
  0.000   0.000   4.099  -0.000   0.000   7.636  -0.000   0.000
 -0.000  -0.000  -0.000   4.099  -0.000  -0.000   7.636  -0.000
  0.000   0.000   0.000  -0.000   4.099   0.000  -0.000   7.636
  0.000   0.000   7.636  -0.000   0.000  14.237  -0.000   0.000
 -0.000  -0.000  -0.000   7.636  -0.000  -0.000  14.237  -0.000
  0.000   0.000   0.000  -0.000   7.636   0.000  -0.000  14.237
 total augmentation occupancy for first ion, spin component:           1
  4.775  -1.930   0.000   0.000   0.000   0.000   0.000   0.000
 -1.930   1.202   0.000   0.000   0.000   0.000   0.000   0.000
  0.000   0.000   2.320   0.000   0.000  -0.543   0.000   0.000
  0.000   0.000   0.000   2.320   0.000  -0.000  -0.543   0.000
  0.000   0.000   0.000   0.000   2.320  -0.000  -0.000  -0.543
  0.000   0.000  -0.543  -0.000   0.000   0.141   0.000   0.000
  0.000   0.000  -0.000  -0.543   0.000  -0.000   0.141   0.000
  0.000   0.000   0.000   0.000  -0.543   0.000  -0.000   0.141


------------------------ aborting loop because EDIFF is reached ----------------------------------------


    CHARGE:  cpu time    0.0140: real time    0.0146
    FORLOC:  cpu time    0.0010: real time    0.0005
    FORNL :  cpu time    0.0360: real time    0.0366
    STRESS:  cpu time    0.2780: real time    0.2780
    FORCOR:  cpu time    0.0100: real time    0.0094
    FORHAR:  cpu time    0.0020: real time    0.0018
    MIXING:  cpu time    0.0000: real time    0.0005
    OFIELD:  cpu time    0.0010: real time    0.0002

  FORCE on cell =-STRESS in cart. coord.  units (eV):
  Direction    XX          YY          ZZ          XY          YZ          ZX
  --------------------------------------------------------------------------------------
  Alpha Z     2.30585     2.30585     2.30585
  Ewald     -45.38202   -45.38202   -45.38202    -0.00000     0.00000    -0.00000
  Hartree     0.14253     0.14253     0.14253    -0.00000     0.00000     0.00000
  E(xc)     -12.67581   -12.67581   -12.67581     0.00000    -0.00000    -0.00000
  Local      -5.08917    -5.08917    -5.08917    -0.00001     0.00001     0.00001
  n-local    39.08546    38.31977    37.99528    -0.90498    -1.35595     0.44096
  augment    -6.26472    -6.26472    -6.26472     0.00001    -0.00001    -0.00001
  Kinetic    22.74138    34.03661    28.71293    10.29280    14.63024    -5.30247
  Fock        0.00000     0.00000     0.00000     0.00000     0.00000     0.00000
  -------------------------------------------------------------------------------------
  Total       0.00048     0.00048     0.00048     0.00000    -0.00000     0.00000
  in kB       0.05249     0.05249     0.05249     0.00000    -0.00000     0.00000
  external pressure =        0.05 kB  Pullay stress =        0.00 kB


 VOLUME and BASIS-vectors are now :
 -----------------------------------------------------------------------------
  energy-cutoff  :      350.00
  volume of cell :       14.60
      direct lattice vectors                 reciprocal lattice vectors
     1.539646131  1.539646131  1.539646131     0.324749947  0.324749947  0.000000000
     1.539646131 -1.539646131 -1.539646131     0.324749947  0.000000000 -0.324749947
    -1.539646131  1.539646131 -1.539646131     0.000000000  0.324749947 -0.324749947

  length of vectors
     2.666745325  2.666745325  2.666745325     0.459265780  0.459265780  0.459265780


 FORCES acting on ions
    electron-ion (+dipol)            ewald-force                    non-local-force                 convergence-correction
 -----------------------------------------------------------------------------------------------
   0.115E-15 -.224E-15 0.442E-15   -.179E-15 -.531E-15 0.899E-16   -.517E-25 -.517E-25 -.517E-25   0.256E-16 0.293E-16 -.921E-17
 -----------------------------------------------------------------------------------------------
   0.115E-15 -.224E-15 0.442E-15   -.179E-15 -.531E-15 0.899E-16   -.517E-25 -.517E-25 -.517E-25   0.256E-16 0.293E-16 -.921E-17
 
 
 POSITION                                       TOTAL-FORCE (eV/Angst)
 -----------------------------------------------------------------------------------
      0.00000      0.00000      0.00000        -0.000000     -0.000000      0.000000
 -----------------------------------------------------------------------------------
    total drift:                               -0.000000     -0.000000      0.000000


--------------------------------------------------------------------------------------------------------



  FREE ENERGIE OF THE ION-ELECTRON SYSTEM (eV)
  ---------------------------------------------------
  free  energy   TOTEN  =        -4.89284047 eV

  energy  without entropy=       -4.89217168  energy(sigma->0) =       -4.89250608
 
 d Force = 0.0000000E+00[ 0.000E+00, 0.000E+00]  d Energy = 0.1447838E-02-0.145E-02
 d Force = 0.0000000E+00[ 0.000E+00, 0.000E+00]  d Ewald  = 0.8214412E+00-0.821E+00


--------------------------------------------------------------------------------------------------------


    POTLOK:  cpu time    0.1760: real time    0.1821


--------------------------------------------------------------------------------------------------------




--------------------------------------------------------------------------------------------------------


  
 reached required accuracy - stopping structural energy minimisation
     LOOP+:  cpu time    3.3925: real time    3.5742
    4ORBIT:  cpu time    0.0000: real time    0.0000

 total amount of memory used by VASP MPI-rank0    34043. kBytes
=======================================================================

   base      :      30000. kBytes
   nonl-proj :       1462. kBytes
   fftplans  :       1246. kBytes
   grid      :        577. kBytes
   one-center:          3. kBytes
   wavefun   :        755. kBytes
 
  
  
 General timing and accounting informations for this job:
 ========================================================
  
                  Total CPU time used (sec):       12.322
                            User time (sec):       11.982
                          System time (sec):        0.340
                         Elapsed time (sec):       13.544
  
                   Maximum memory used (kb):       52644.
                   Average memory used (kb):          N/A
  
                          Minor page faults:         9839
                          Major page faults:            1
                 Voluntary context switches:        19901
