<?xml version="1.0" encoding="ISO-8859-1"?>
<modeling>
 <generator>
  <i name="program" type="string">vasp </i>
  <i name="version" type="string">6.2.0  </i>
  <i name="subversion" type="string">18Jan21 (build Aug 12 2022 13:00:08) complex                          parallel </i>
  <i name="platform" type="string">LinuxIFC </i>
  <i name="date" type="string">2024 11 03 </i>
  <i name="time" type="string">21:52:22 </i>
 </generator>
 <incar>
  <i type="int" name="ISTART">     0</i>
  <i type="string" name="PREC">Accurate      (Accurate strictly avoids</i>
  <i type="logical" name="ADDGRID"> T  </i>
  <i type="int" name="ISPIN">     1</i>
  <i type="int" name="NELM">    90</i>
  <i type="int" name="NELMIN">     6</i>
  <i type="int" name="IBRION">     2</i>
  <i name="EDIFF">      0.00000100</i>
  <i name="EDIFFG">     -0.00200000</i>
  <i type="int" name="NSW">   100</i>
  <i type="int" name="ISIF">     3</i>
  <i type="int" name="ISYM">     2</i>
  <i name="ENCUT">    350.00000000</i>
  <i type="logical" name="LREAL"> F  </i>
  <i type="int" name="ISMEAR">     0</i>
  <i name="SIGMA">      0.05000000</i>
  <i type="logical" name="LWAVE"> F  </i>
  <i type="logical" name="LCHARG"> F  </i>
  <i type="logical" name="LASPH"> T  </i>
 </incar>
 <primitive_cell>
  <structure name="primitive_cell" >
   <crystal>
    <varray name="basis" >
     <v>       1.51332563       1.51332563       1.51332563 </v>
     <v>       1.51332563      -1.51332563      -1.51332563 </v>
     <v>      -1.51332563       1.51332563      -1.51332563 </v>
    </varray>
    <i name="volume">     13.86299778 </i>
    <varray name="rec_basis" >
     <v>       0.33039816       0.33039816       0.00000000 </v>
     <v>       0.33039816       0.00000000      -0.33039816 </v>
     <v>       0.00000000       0.33039816      -0.33039816 </v>
    </varray>
   </crystal>
   <varray name="positions" >
    <v>       0.00000000       0.00000000       0.00000000 </v>
   </varray>
  </structure>
  <varray name="primitive_index" >
   <v type="int" >        1 </v>
  </varray>
 </primitive_cell>
 <kpoints>
  <generation param="Monkhorst-Pack">
   <v type="int" name="divisions">      14       14       14 </v>
   <v name="usershift">      0.00000000       0.00000000       0.00000000 </v>
   <v name="genvec1">      0.07142857       0.00000000       0.00000000 </v>
   <v name="genvec2">      0.00000000       0.07142857       0.00000000 </v>
   <v name="genvec3">      0.00000000       0.00000000       0.07142857 </v>
   <v name="shift">      0.50000000       0.50000000       0.50000000 </v>
  </generation>
  <varray name="kpointlist" >
   <v>       0.03571429       0.03571429       0.03571429 </v>
   <v>       0.10714286       0.03571429       0.03571429 </v>
   <v>       0.17857143       0.03571429       0.03571429 </v>
   <v>       0.25000000       0.03571429       0.03571429 </v>
   <v>       0.32142857       0.03571429       0.03571429 </v>
   <v>       0.39285714       0.03571429       0.03571429 </v>
   <v>       0.46428571       0.03571429       0.03571429 </v>
   <v>      -0.03571429       0.03571429       0.03571429 </v>
   <v>       0.10714286       0.10714286       0.03571429 </v>
   <v>       0.17857143       0.10714286       0.03571429 </v>
   <v>       0.25000000       0.10714286       0.03571429 </v>
   <v>       0.32142857       0.10714286       0.03571429 </v>
   <v>       0.39285714       0.10714286       0.03571429 </v>
   <v>      -0.10714286       0.10714286       0.03571429 </v>
   <v>       0.17857143       0.17857143       0.03571429 </v>
   <v>       0.25000000       0.17857143       0.03571429 </v>
   <v>       0.32142857       0.17857143       0.03571429 </v>
   <v>       0.39285714       0.17857143       0.03571429 </v>
   <v>      -0.17857143       0.17857143       0.03571429 </v>
   <v>      -0.10714286       0.17857143       0.03571429 </v>
   <v>       0.25000000       0.25000000       0.03571429 </v>
   <v>       0.32142857       0.25000000       0.03571429 </v>
   <v>      -0.25000000       0.25000000       0.03571429 </v>
   <v>      -0.17857143       0.25000000       0.03571429 </v>
   <v>       0.32142857       0.32142857       0.03571429 </v>
   <v>      -0.32142857       0.32142857       0.03571429 </v>
   <v>      -0.25000000       0.32142857       0.03571429 </v>
   <v>      -0.17857143       0.32142857       0.03571429 </v>
   <v>      -0.39285714       0.39285714       0.03571429 </v>
   <v>      -0.32142857       0.39285714       0.03571429 </v>
   <v>      -0.25000000       0.39285714       0.03571429 </v>
   <v>      -0.46428571       0.46428571       0.03571429 </v>
   <v>      -0.39285714       0.46428571       0.03571429 </v>
   <v>      -0.32142857       0.46428571       0.03571429 </v>
   <v>      -0.25000000       0.46428571       0.03571429 </v>
   <v>      -0.46428571      -0.46428571       0.03571429 </v>
   <v>      -0.39285714      -0.46428571       0.03571429 </v>
   <v>      -0.32142857      -0.46428571       0.03571429 </v>
   <v>      -0.39285714      -0.39285714       0.03571429 </v>
   <v>      -0.32142857      -0.39285714       0.03571429 </v>
   <v>       0.10714286       0.10714286       0.10714286 </v>
   <v>       0.17857143       0.10714286       0.10714286 </v>
   <v>       0.25000000       0.10714286       0.10714286 </v>
   <v>       0.32142857       0.10714286       0.10714286 </v>
   <v>       0.39285714       0.10714286       0.10714286 </v>
   <v>      -0.10714286       0.10714286       0.10714286 </v>
   <v>       0.17857143       0.17857143       0.10714286 </v>
   <v>       0.25000000       0.17857143       0.10714286 </v>
   <v>       0.32142857       0.17857143       0.10714286 </v>
   <v>      -0.17857143       0.17857143       0.10714286 </v>
   <v>       0.25000000       0.25000000       0.10714286 </v>
   <v>       0.32142857       0.25000000       0.10714286 </v>
   <v>      -0.25000000       0.25000000       0.10714286 </v>
   <v>      -0.17857143       0.25000000       0.10714286 </v>
   <v>      -0.32142857       0.32142857       0.10714286 </v>
   <v>      -0.25000000       0.32142857       0.10714286 </v>
   <v>      -0.39285714       0.39285714       0.10714286 </v>
   <v>      -0.32142857       0.39285714       0.10714286 </v>
   <v>      -0.25000000       0.39285714       0.10714286 </v>
   <v>      -0.46428571       0.46428571       0.10714286 </v>
   <v>      -0.39285714       0.46428571       0.10714286 </v>
   <v>      -0.32142857       0.46428571       0.10714286 </v>
   <v>      -0.46428571      -0.46428571       0.10714286 </v>
   <v>      -0.39285714      -0.46428571       0.10714286 </v>
   <v>      -0.32142857      -0.46428571       0.10714286 </v>
   <v>      -0.39285714      -0.39285714       0.10714286 </v>
   <v>       0.17857143       0.17857143       0.17857143 </v>
   <v>       0.25000000       0.17857143       0.17857143 </v>
   <v>       0.32142857       0.17857143       0.17857143 </v>
   <v>      -0.17857143       0.17857143       0.17857143 </v>
   <v>       0.25000000       0.25000000       0.17857143 </v>
   <v>      -0.25000000       0.25000000       0.17857143 </v>
   <v>      -0.32142857       0.32142857       0.17857143 </v>
   <v>      -0.25000000       0.32142857       0.17857143 </v>
   <v>      -0.39285714       0.39285714       0.17857143 </v>
   <v>      -0.32142857       0.39285714       0.17857143 </v>
   <v>      -0.46428571       0.46428571       0.17857143 </v>
   <v>      -0.39285714       0.46428571       0.17857143 </v>
   <v>      -0.32142857       0.46428571       0.17857143 </v>
   <v>      -0.46428571      -0.46428571       0.17857143 </v>
   <v>      -0.39285714      -0.46428571       0.17857143 </v>
   <v>      -0.39285714      -0.39285714       0.17857143 </v>
   <v>       0.25000000       0.25000000       0.25000000 </v>
   <v>      -0.25000000       0.25000000       0.25000000 </v>
   <v>      -0.32142857       0.32142857       0.25000000 </v>
   <v>      -0.39285714       0.39285714       0.25000000 </v>
   <v>      -0.32142857       0.39285714       0.25000000 </v>
   <v>      -0.46428571       0.46428571       0.25000000 </v>
   <v>      -0.39285714       0.46428571       0.25000000 </v>
   <v>      -0.46428571      -0.46428571       0.25000000 </v>
   <v>      -0.39285714      -0.46428571       0.25000000 </v>
   <v>      -0.32142857       0.32142857       0.32142857 </v>
   <v>      -0.39285714       0.39285714       0.32142857 </v>
   <v>      -0.46428571       0.46428571       0.32142857 </v>
   <v>      -0.39285714       0.46428571       0.32142857 </v>
   <v>      -0.46428571      -0.46428571       0.32142857 </v>
   <v>      -0.39285714       0.39285714       0.39285714 </v>
   <v>      -0.46428571       0.46428571       0.39285714 </v>
   <v>      -0.46428571      -0.46428571       0.39285714 </v>
   <v>      -0.46428571       0.46428571       0.46428571 </v>
  </varray>
  <varray name="weights" >
   <v>       0.00291545 </v>
   <v>       0.00874636 </v>
   <v>       0.00874636 </v>
   <v>       0.00874636 </v>
   <v>       0.00874636 </v>
   <v>       0.00874636 </v>
   <v>       0.00437318 </v>
   <v>       0.00218659 </v>
   <v>       0.00874636 </v>
   <v>       0.01749271 </v>
   <v>       0.01749271 </v>
   <v>       0.01749271 </v>
   <v>       0.01749271 </v>
   <v>       0.00874636 </v>
   <v>       0.00874636 </v>
   <v>       0.01749271 </v>
   <v>       0.01749271 </v>
   <v>       0.00874636 </v>
   <v>       0.00874636 </v>
   <v>       0.00874636 </v>
   <v>       0.00874636 </v>
   <v>       0.01749271 </v>
   <v>       0.00874636 </v>
   <v>       0.01749271 </v>
   <v>       0.00291545 </v>
   <v>       0.00874636 </v>
   <v>       0.01749271 </v>
   <v>       0.00874636 </v>
   <v>       0.00874636 </v>
   <v>       0.01749271 </v>
   <v>       0.01749271 </v>
   <v>       0.00874636 </v>
   <v>       0.01749271 </v>
   <v>       0.01749271 </v>
   <v>       0.00874636 </v>
   <v>       0.00874636 </v>
   <v>       0.01749271 </v>
   <v>       0.01749271 </v>
   <v>       0.00874636 </v>
   <v>       0.00874636 </v>
   <v>       0.00291545 </v>
   <v>       0.00874636 </v>
   <v>       0.00874636 </v>
   <v>       0.00874636 </v>
   <v>       0.00437318 </v>
   <v>       0.00218659 </v>
   <v>       0.00874636 </v>
   <v>       0.01749271 </v>
   <v>       0.01749271 </v>
   <v>       0.00874636 </v>
   <v>       0.00874636 </v>
   <v>       0.00874636 </v>
   <v>       0.00874636 </v>
   <v>       0.00874636 </v>
   <v>       0.00874636 </v>
   <v>       0.01749271 </v>
   <v>       0.00874636 </v>
   <v>       0.01749271 </v>
   <v>       0.00874636 </v>
   <v>       0.00874636 </v>
   <v>       0.01749271 </v>
   <v>       0.01749271 </v>
   <v>       0.00874636 </v>
   <v>       0.01749271 </v>
   <v>       0.00874636 </v>
   <v>       0.00874636 </v>
   <v>       0.00291545 </v>
   <v>       0.00874636 </v>
   <v>       0.00437318 </v>
   <v>       0.00218659 </v>
   <v>       0.00874636 </v>
   <v>       0.00874636 </v>
   <v>       0.00874636 </v>
   <v>       0.00874636 </v>
   <v>       0.00874636 </v>
   <v>       0.01749271 </v>
   <v>       0.00874636 </v>
   <v>       0.01749271 </v>
   <v>       0.00874636 </v>
   <v>       0.00874636 </v>
   <v>       0.01749271 </v>
   <v>       0.00291545 </v>
   <v>       0.00072886 </v>
   <v>       0.00218659 </v>
   <v>       0.00874636 </v>
   <v>       0.00874636 </v>
   <v>       0.00874636 </v>
   <v>       0.00874636 </v>
   <v>       0.01749271 </v>
   <v>       0.00874636 </v>
   <v>       0.00874636 </v>
   <v>       0.00218659 </v>
   <v>       0.00874636 </v>
   <v>       0.00874636 </v>
   <v>       0.00874636 </v>
   <v>       0.00874636 </v>
   <v>       0.00218659 </v>
   <v>       0.00874636 </v>
   <v>       0.00291545 </v>
   <v>       0.00218659 </v>
  </varray>
 </kpoints>
 <parameters>
  <separator name="general" >
   <i type="string" name="SYSTEM">unknown system</i>
   <i type="logical" name="LCOMPAT"> F  </i>
  </separator>
  <separator name="electronic" >
   <i type="string" name="PREC">accura</i>
   <i name="ENMAX">    350.00000000</i>
   <i name="ENAUG">    322.06900000</i>
   <i name="EDIFF">      0.00000100</i>
   <i type="int" name="IALGO">    38</i>
   <i type="int" name="IWAVPR">    11</i>
   <i type="int" name="NBANDS">     8</i>
   <i type="int" name="NBANDSLOW">    -1</i>
   <i type="int" name="NBANDSHIGH">    -1</i>
   <i name="NELECT">      4.00000000</i>
   <i type="int" name="TURBO">     0</i>
   <i type="int" name="IRESTART">     0</i>
   <i type="int" name="NREBOOT">     0</i>
   <i type="int" name="NMIN">     0</i>
   <i name="EREF">      0.00000000</i>
   <separator name="electronic smearing" >
    <i type="int" name="ISMEAR">     0</i>
    <i name="SIGMA">      0.05000000</i>
    <i name="KSPACING">      0.50000000</i>
    <i type="logical" name="KGAMMA"> T  </i>
    <i type="logical" name="KBLOWUP"> T  </i>
   </separator>
   <separator name="electronic projectors" >
    <i type="logical" name="LREAL"> F  </i>
    <v name="ROPT">      0.00000000</v>
    <i type="int" name="LMAXPAW">  -100</i>
    <i type="int" name="LMAXMIX">     2</i>
    <i type="logical" name="NLSPLINE"> F  </i>
   </separator>
   <separator name="electronic startup" >
    <i type="int" name="ISTART">     0</i>
    <i type="int" name="ICHARG">     2</i>
    <i type="int" name="INIWAV">     1</i>
   </separator>
   <separator name="electronic spin" >
    <i type="int" name="ISPIN">     1</i>
    <i type="logical" name="LNONCOLLINEAR"> F  </i>
    <v name="MAGMOM">      1.00000000</v>
    <i name="NUPDOWN">     -1.00000000</i>
    <i type="logical" name="LSORBIT"> F  </i>
    <v name="SAXIS">      0.00000000      0.00000000      1.00000000</v>
    <i type="logical" name="LSPIRAL"> F  </i>
    <v name="QSPIRAL">      0.00000000      0.00000000      0.00000000</v>
    <i type="logical" name="LZEROZ"> F  </i>
   </separator>
   <separator name="electronic exchange-correlation" >
    <i type="logical" name="LASPH"> T  </i>
    <i type="logical" name="LMETAGGA"> F  </i>
   </separator>
   <separator name="electronic convergence" >
    <i type="int" name="NELM">    90</i>
    <i type="int" name="NELMDL">    -5</i>
    <i type="int" name="NELMIN">     6</i>
    <i name="ENINI">    350.00000000</i>
    <separator name="electronic convergence detail" >
     <i type="logical" name="LDIAG"> T  </i>
     <i type="logical" name="LSUBROT"> F  </i>
     <i name="WEIMIN">      0.00100000</i>
     <i name="EBREAK">      0.00000003</i>
     <i name="DEPER">      0.30000000</i>
     <i type="int" name="NRMM">     4</i>
     <i name="TIME">      0.40000000</i>
    </separator>
   </separator>
   <separator name="electronic mixer" >
    <i name="AMIX">      0.40000000</i>
    <i name="BMIX">      1.00000000</i>
    <i name="AMIN">      0.10000000</i>
    <i name="AMIX_MAG">      1.60000000</i>
    <i name="BMIX_MAG">      1.00000000</i>
    <separator name="electronic mixer details" >
     <i type="int" name="IMIX">     4</i>
     <i type="logical" name="MIXFIRST"> F  </i>
     <i type="int" name="MAXMIX">   -45</i>
     <i name="WC">    100.00000000</i>
     <i type="int" name="INIMIX">     1</i>
     <i type="int" name="MIXPRE">     1</i>
     <i type="int" name="MREMOVE">     5</i>
    </separator>
   </separator>
   <separator name="electronic dipolcorrection" >
    <i type="logical" name="LDIPOL"> F  </i>
    <i type="logical" name="LMONO"> F  </i>
    <i type="int" name="IDIPOL">     0</i>
    <i name="EPSILON">      1.00000000</i>
    <v name="DIPOL">   -100.00000000   -100.00000000   -100.00000000</v>
    <i name="EFIELD">      0.00000000</i>
   </separator>
  </separator>
  <separator name="grids" >
   <i type="int" name="NGX">    16</i>
   <i type="int" name="NGY">    16</i>
   <i type="int" name="NGZ">    16</i>
   <i type="int" name="NGXF">    32</i>
   <i type="int" name="NGYF">    32</i>
   <i type="int" name="NGZF">    32</i>
   <i type="logical" name="ADDGRID"> T  </i>
  </separator>
  <separator name="ionic" >
   <i type="int" name="NSW">   100</i>
   <i type="int" name="IBRION">     2</i>
   <i type="int" name="MDALGO">     0</i>
   <i type="int" name="ISIF">     3</i>
   <i name="PSTRESS">      0.00000000</i>
   <i name="EDIFFG">     -0.00200000</i>
   <i type="int" name="NFREE">     1</i>
   <i name="POTIM">      0.50000000</i>
   <i name="SMASS">     -3.00000000</i>
   <i name="SCALEE">      1.00000000</i>
  </separator>
  <separator name="ionic md" >
   <i name="TEBEG">      0.00010000</i>
   <i name="TEEND">      0.00010000</i>
   <i type="int" name="NBLOCK">     1</i>
   <i type="int" name="KBLOCK">   100</i>
   <i type="int" name="NPACO">   256</i>
   <i name="APACO">     16.00000000</i>
  </separator>
  <separator name="symmetry" >
   <i type="int" name="ISYM">     2</i>
   <i name="SYMPREC">      0.00001000</i>
  </separator>
  <separator name="dos" >
   <i type="int" name="LORBIT">     0</i>
   <v name="RWIGS">     -1.00000000</v>
   <i type="int" name="NEDOS">   301</i>
   <i name="EMIN">     10.00000000</i>
   <i name="EMAX">    -10.00000000</i>
   <i name="EFERMI">      0.00000000</i>
  </separator>
  <separator name="writing" >
   <i type="int" name="NWRITE">     2</i>
   <i type="logical" name="LWAVE"> F  </i>
   <i type="logical" name="LDOWNSAMPLE"> F  </i>
   <i type="logical" name="LCHARG"> F  </i>
   <i type="logical" name="LPARD"> F  </i>
   <i type="logical" name="LVTOT"> F  </i>
   <i type="logical" name="LVHAR"> F  </i>
   <i type="logical" name="LELF"> F  </i>
   <i type="logical" name="LOPTICS"> F  </i>
   <v name="STM">      0.00000000      0.00000000      0.00000000      0.00000000      0.00000000      0.00000000      0.00000000</v>
  </separator>
  <separator name="performance" >
   <i type="int" name="NPAR">     4</i>
   <i type="int" name="NSIM">     4</i>
   <i type="int" name="NBLK">    -1</i>
   <i type="logical" name="LPLANE"> T  </i>
   <i type="logical" name="LSCALAPACK"> T  </i>
   <i type="logical" name="LSCAAWARE"> F  </i>
   <i type="logical" name="LSCALU"> F  </i>
   <i type="logical" name="LASYNC"> F  </i>
   <i type="logical" name="LORBITALREAL"> F  </i>
  </separator>
  <separator name="miscellaneous" >
   <i type="int" name="IDIOT">     3</i>
   <i type="int" name="PHON_NSTRUCT">    -1</i>
   <i type="logical" name="LMUSIC"> F  </i>
   <v name="POMASS">     28.08500000</v>
   <v name="DARWINR">      0.00000000</v>
   <v name="DARWINV">      1.00000000</v>
   <i type="logical" name="LCORR"> T  </i>
  </separator>
  <i type="logical" name="GGA_COMPAT"> T  </i>
  <i type="logical" name="LBERRY"> F  </i>
  <i type="int" name="ICORELEVEL">     0</i>
  <i type="logical" name="LDAU"> F  </i>
  <i type="int" name="I_CONSTRAINED_M">     0</i>
  <separator name="electronic exchange-correlation" >
   <i type="string" name="GGA">--</i>
   <i type="int" name="VOSKOWN">     0</i>
   <i type="logical" name="LHFCALC"> F  </i>
   <i type="string" name="PRECFOCK"></i>
   <i type="logical" name="LSYMGRAD"> F  </i>
   <i type="logical" name="LHFONE"> F  </i>
   <i type="logical" name="LRHFCALC"> F  </i>
   <i type="logical" name="LTHOMAS"> F  </i>
   <i type="logical" name="LMODELHF"> F  </i>
   <i type="logical" name="LFOCKACE"> F  </i>
   <i name="ENCUT4O">     -1.00000000</i>
   <i type="int" name="EXXOEP">     0</i>
   <i type="int" name="FOURORBIT">     0</i>
   <i name="AEXX">      0.00000000</i>
   <i name="HFALPHA">      0.00000000</i>
   <i name="MCALPHA">      0.00000000</i>
   <i name="ALDAX">      1.00000000</i>
   <i name="AGGAX">      1.00000000</i>
   <i name="ALDAC">      1.00000000</i>
   <i name="AGGAC">      1.00000000</i>
   <i type="int" name="NKREDX">     1</i>
   <i type="int" name="NKREDY">     1</i>
   <i type="int" name="NKREDZ">     1</i>
   <i type="logical" name="SHIFTRED"> F  </i>
   <i type="logical" name="ODDONLY"> F  </i>
   <i type="logical" name="EVENONLY"> F  </i>
   <i type="int" name="LMAXFOCK">     0</i>
   <i type="int" name="NMAXFOCKAE">     0</i>
   <i type="logical" name="LFOCKAEDFT"> F  </i>
   <i name="HFSCREEN">      0.00000000</i>
   <i name="HFSCREENC">      0.00000000</i>
   <i type="int" name="NBANDSGWLOW">     0</i>
  </separator>
  <separator name="vdW DFT" >
   <i type="logical" name="LUSE_VDW"> F  </i>
   <i name="Zab_VDW">     -0.84910000</i>
   <i name="PARAM1">      0.12340000</i>
   <i name="PARAM2">      1.00000000</i>
   <i name="PARAM3">      0.00000000</i>
  </separator>
  <separator name="model GW" >
   <i type="int" name="MODEL_GW">     0</i>
   <i name="MODEL_EPS0">      8.31779867</i>
   <i name="MODEL_ALPHA">      1.00000000</i>
  </separator>
  <separator name="linear response parameters" >
   <i type="logical" name="LEPSILON"> F  </i>
   <i type="logical" name="LRPA"> F  </i>
   <i type="logical" name="LNABLA"> F  </i>
   <i type="logical" name="LVEL"> F  </i>
   <i type="int" name="KINTER">     0</i>
   <i name="CSHIFT">      0.10000000</i>
   <i name="OMEGAMAX">     -1.00000000</i>
   <i name="DEG_THRESHOLD">      0.00200000</i>
   <i name="RTIME">     -0.10000000</i>
   <i name="WPLASMAI">      0.00000000</i>
   <v name="DFIELD">      0.00000000      0.00000000      0.00000000</v>
   <v name="WPLASMA">      0.00000000      0.00000000      0.00000000      0.00000000      0.00000000      0.00000000      0.00000000      0.00000000      0.00000000</v>
  </separator>
  <separator name="orbital magnetization" >
   <i type="logical" name="NUCIND"> F  </i>
   <v name="MAGPOS">      0.00000000      0.00000000      0.00000000</v>
   <i type="logical" name="LNICSALL"> T  </i>
   <i type="logical" name="ORBITALMAG"> F  </i>
   <i type="logical" name="LMAGBLOCH"> F  </i>
   <i type="logical" name="LCHIMAG"> F  </i>
   <i type="logical" name="LGAUGE"> T  </i>
   <i type="int" name="MAGATOM">     0</i>
   <v name="MAGDIPOL">      0.00000000      0.00000000      0.00000000</v>
   <v name="AVECCONST">      0.00000000      0.00000000      0.00000000</v>
  </separator>
  <separator name="response functions" >
   <i type="logical" name="LFINITE_TEMPERATURE"> F  </i>
   <i type="logical" name="LADDER"> F  </i>
   <i type="logical" name="LRPAFORCE"> F  </i>
   <i type="logical" name="LFXC"> F  </i>
   <i type="logical" name="LHARTREE"> T  </i>
   <i type="int" name="IBSE">     0</i>
   <v type="int" name="KPOINT">    -1     0     0     0</v>
   <i type="logical" name="LTCTC"> F  </i>
   <i type="logical" name="LTCTE"> F  </i>
   <i type="logical" name="LTETE"> F  </i>
   <i type="logical" name="LTRIPLET"> F  </i>
   <i type="logical" name="LFXCEPS"> F  </i>
   <i type="logical" name="LFXHEG"> F  </i>
   <i type="int" name="NATURALO">     2</i>
   <i type="logical" name="LHOLEGF"> F  </i>
   <i type="logical" name="L2ORDER"> F  </i>
   <i type="logical" name="LDMP1"> F  </i>
   <i type="logical" name="LMP2LT"> F  </i>
   <i type="logical" name="LSMP2LT"> F  </i>
   <i type="logical" name="LGWLF"> F  </i>
   <i name="ENCUTGW">     -2.00000000</i>
   <i name="ENCUTGWSOFT">     -2.00000000</i>
   <i name="ENCUTLF">     -1.00000000</i>
   <i type="logical" name="LESF_SPLINES"> F  </i>
   <i type="int" name="LMAXMP2">    -1</i>
   <i name="SCISSOR">      0.00000000</i>
   <i type="int" name="NOMEGA">     0</i>
   <i type="int" name="NOMEGAR">     0</i>
   <i type="int" name="NBANDSGW">    -1</i>
   <i type="int" name="NBANDSO">    -1</i>
   <i type="int" name="NBANDSV">    -1</i>
   <i type="int" name="NELM">    90</i>
   <i type="int" name="NELMHF">     1</i>
   <i type="int" name="DIM">     3</i>
   <i type="int" name="IESPILON">     4</i>
   <i type="int" name="ANTIRES">     0</i>
   <i name="OMEGAMAX">    -30.00000000</i>
   <i name="OMEGAMIN">    -30.00000000</i>
   <i name="OMEGATL">   -200.00000000</i>
   <i type="int" name="OMEGAGRID">     0</i>
   <i name="CSHIFT">     -0.10000000</i>
   <i type="logical" name="LSELFENERGY"> F  </i>
   <i type="logical" name="LSPECTRAL"> F  </i>
   <i type="logical" name="LSPECTRALGW"> F  </i>
   <i type="logical" name="LSINGLES"> F  </i>
   <i type="logical" name="LFERMIGW"> F  </i>
   <i type="logical" name="ODDONLYGW"> F  </i>
   <i type="logical" name="EVENONLYGW"> F  </i>
   <i type="int" name="NKREDLFX">     1</i>
   <i type="int" name="NKREDLFY">     1</i>
   <i type="int" name="NKREDLFZ">     1</i>
   <i type="int" name="MAXMEM">  2800</i>
   <i type="int" name="TELESCOPE">     0</i>
   <i type="int" name="NTAUPAR">    -1</i>
   <i type="int" name="NOMEGAPAR">    -1</i>
   <i name="DAMP_NEWTON">      0.80000001</i>
   <i name="LAMBDA">      1.00000000</i>
  </separator>
  <separator name="External order field" >
   <i name="OFIELD_KAPPA">      0.00000000</i>
   <v name="OFIELD_K">      0.00000000      0.00000000      0.00000000</v>
   <i name="OFIELD_Q6_NEAR">      0.00000000</i>
   <i name="OFIELD_Q6_FAR">      0.00000000</i>
   <i name="OFIELD_A">      0.00000000</i>
  </separator>
 </parameters>
 <atominfo>
  <atoms>       1 </atoms>
  <types>       1 </types>
  <array name="atoms" >
   <dimension dim="1">ion</dimension>
   <field type="string">element</field>
   <field type="int">atomtype</field>
   <set>
    <rc><c>Si</c><c>   1</c></rc>
   </set>
  </array>
  <array name="atomtypes" >
   <dimension dim="1">type</dimension>
   <field type="int">atomspertype</field>
   <field type="string">element</field>
   <field>mass</field>
   <field>valence</field>
   <field type="string">pseudopotential</field>
   <set>
    <rc><c>   1</c><c>Si</c><c>     28.08500000</c><c>      4.00000000</c><c>  PAW_PBE Si 05Jan2001                  </c></rc>
   </set>
  </array>
 </atominfo>
 <structure name="initialpos" >
  <crystal>
   <varray name="basis" >
    <v>       1.51332563       1.51332563       1.51332563 </v>
    <v>       1.51332563      -1.51332563      -1.51332563 </v>
    <v>      -1.51332563       1.51332563      -1.51332563 </v>
   </varray>
   <i name="volume">     13.86299778 </i>
   <varray name="rec_basis" >
    <v>       0.33039816       0.33039816       0.00000000 </v>
    <v>       0.33039816       0.00000000      -0.33039816 </v>
    <v>       0.00000000       0.33039816      -0.33039816 </v>
   </varray>
  </crystal>
  <varray name="positions" >
   <v>       0.00000000       0.00000000       0.00000000 </v>
  </varray>
 </structure>
 <calculation>
  <scstep>
   <time name="dav">    0.30    0.30</time>
   <time name="total">    0.47    0.47</time>
   <energy>
    <i name="alphaZ">      2.42827211 </i>
    <i name="ewald">   -138.51397499 </i>
    <i name="hartreedc">     -0.48179554 </i>
    <i name="XCdc">     -8.69332224 </i>
    <i name="pawpsdc">     88.12379961 </i>
    <i name="pawaedc">    -70.53051779 </i>
    <i name="eentropy">     -0.00025399 </i>
    <i name="bandstr">     21.37554625 </i>
    <i name="atom">    103.06562707 </i>
    <i name="e_fr_energy">     -3.22661951 </i>
    <i name="e_wo_entrp">     -3.22636552 </i>
    <i name="e_0_energy">     -3.22649252 </i>
   </energy>
  </scstep>
  <scstep>
   <time name="dav">    0.41    0.43</time>
   <time name="total">    0.41    0.43</time>
   <energy>
    <i name="e_fr_energy">     -4.89110884 </i>
    <i name="e_wo_entrp">     -4.89048244 </i>
    <i name="e_0_energy">     -4.89079564 </i>
   </energy>
  </scstep>
  <scstep>
   <time name="dav">    0.29    0.30</time>
   <time name="total">    0.29    0.30</time>
   <energy>
    <i name="e_fr_energy">     -4.89844676 </i>
    <i name="e_wo_entrp">     -4.89782837 </i>
    <i name="e_0_energy">     -4.89813756 </i>
   </energy>
  </scstep>
  <scstep>
   <time name="dav">    0.46    0.47</time>
   <time name="total">    0.47    0.47</time>
   <energy>
    <i name="e_fr_energy">     -4.89845223 </i>
    <i name="e_wo_entrp">     -4.89783384 </i>
    <i name="e_0_energy">     -4.89814304 </i>
   </energy>
  </scstep>
  <scstep>
   <time name="dav">    0.31    0.33</time>
   <time name="total">    0.33    0.35</time>
   <energy>
    <i name="e_fr_energy">     -4.89845223 </i>
    <i name="e_wo_entrp">     -4.89783384 </i>
    <i name="e_0_energy">     -4.89814304 </i>
   </energy>
  </scstep>
  <scstep>
   <time name="dav">    0.28    0.28</time>
   <time name="total">    0.47    0.48</time>
   <energy>
    <i name="e_fr_energy">     -4.88698198 </i>
    <i name="e_wo_entrp">     -4.88634880 </i>
    <i name="e_0_energy">     -4.88666539 </i>
   </energy>
  </scstep>
  <scstep>
   <time name="dav">    0.29    0.29</time>
   <time name="total">    0.48    0.49</time>
   <energy>
    <i name="e_fr_energy">     -4.88042217 </i>
    <i name="e_wo_entrp">     -4.87977816 </i>
    <i name="e_0_energy">     -4.88010016 </i>
   </energy>
  </scstep>
  <scstep>
   <time name="dav">    0.41    0.41</time>
   <time name="total">    0.60    0.62</time>
   <energy>
    <i name="e_fr_energy">     -4.88040113 </i>
    <i name="e_wo_entrp">     -4.87975706 </i>
    <i name="e_0_energy">     -4.88007910 </i>
   </energy>
  </scstep>
  <scstep>
   <time name="dav">    0.31    0.31</time>
   <time name="total">    0.48    0.49</time>
   <energy>
    <i name="alphaZ">      2.42827211 </i>
    <i name="ewald">   -138.51397499 </i>
    <i name="hartreedc">     -0.35608371 </i>
    <i name="XCdc">     -8.62292301 </i>
    <i name="pawpsdc">    335.33343367 </i>
    <i name="pawaedc">   -317.76785334 </i>
    <i name="eentropy">     -0.00064408 </i>
    <i name="bandstr">     19.55374463 </i>
    <i name="atom">    103.06562707 </i>
    <i name="e_fr_energy">     -4.88040165 </i>
    <i name="e_wo_entrp">     -4.87975757 </i>
    <i name="e_0_energy">     -4.88007961 </i>
   </energy>
  </scstep>
  <structure>
   <crystal>
    <varray name="basis" >
     <v>       1.51332563       1.51332563       1.51332563 </v>
     <v>       1.51332563      -1.51332563      -1.51332563 </v>
     <v>      -1.51332563       1.51332563      -1.51332563 </v>
    </varray>
    <i name="volume">     13.86299778 </i>
    <varray name="rec_basis" >
     <v>       0.33039816       0.33039816       0.00000000 </v>
     <v>       0.33039816       0.00000000      -0.33039816 </v>
     <v>       0.00000000       0.33039816      -0.33039816 </v>
    </varray>
   </crystal>
   <varray name="positions" >
    <v>       0.00000000       0.00000000       0.00000000 </v>
   </varray>
  </structure>
  <varray name="forces" >
   <v>       0.00000000       0.00000000       0.00000000 </v>
  </varray>
  <varray name="stress" >
   <v>      56.46105665      -0.00000000      -0.00000000 </v>
   <v>       0.00000000      56.46105665       0.00000000 </v>
   <v>       0.00000000       0.00000000      56.46105665 </v>
  </varray>
  <energy>
   <i name="e_fr_energy">     -4.88040165 </i>
   <i name="e_wo_entrp">     -4.87975757 </i>
   <i name="e_0_energy">     -4.88007961 </i>
  </energy>
  <time name="totalsc">    4.76    4.97</time>
 </calculation>
 <calculation>
  <scstep>
   <time name="dav">    0.27    0.27</time>
   <time name="total">    0.45    0.46</time>
   <energy>
    <i name="alphaZ">      2.26436781 </i>
    <i name="ewald">   -135.32461483 </i>
    <i name="hartreedc">     -0.34786573 </i>
    <i name="XCdc">     -8.80591911 </i>
    <i name="pawpsdc">    335.40394231 </i>
    <i name="pawaedc">   -317.83801308 </i>
    <i name="eentropy">     -0.00068977 </i>
    <i name="bandstr">     16.68329121 </i>
    <i name="atom">    103.06562707 </i>
    <i name="e_fr_energy">     -4.89987413 </i>
    <i name="e_wo_entrp">     -4.89918436 </i>
    <i name="e_0_energy">     -4.89952924 </i>
   </energy>
  </scstep>
  <scstep>
   <time name="dav">    0.31    0.31</time>
   <time name="total">    0.50    0.52</time>
   <energy>
    <i name="e_fr_energy">     -4.89454917 </i>
    <i name="e_wo_entrp">     -4.89385910 </i>
    <i name="e_0_energy">     -4.89420414 </i>
   </energy>
  </scstep>
  <scstep>
   <time name="dav">    0.29    0.29</time>
   <time name="total">    0.48    0.49</time>
   <energy>
    <i name="e_fr_energy">     -4.89140707 </i>
    <i name="e_wo_entrp">     -4.89071736 </i>
    <i name="e_0_energy">     -4.89106222 </i>
   </energy>
  </scstep>
  <scstep>
   <time name="dav">    0.35    0.35</time>
   <time name="total">    0.54    0.55</time>
   <energy>
    <i name="e_fr_energy">     -4.89140401 </i>
    <i name="e_wo_entrp">     -4.89071432 </i>
    <i name="e_0_energy">     -4.89105917 </i>
   </energy>
  </scstep>
  <scstep>
   <time name="dav">    0.33    0.33</time>
   <time name="total">    0.52    0.52</time>
   <energy>
    <i name="e_fr_energy">     -4.89139223 </i>
    <i name="e_wo_entrp">     -4.89070267 </i>
    <i name="e_0_energy">     -4.89104745 </i>
   </energy>
  </scstep>
  <scstep>
   <time name="dav">    0.17    0.17</time>
   <time name="total">    0.34    0.36</time>
   <energy>
    <i name="alphaZ">      2.26436781 </i>
    <i name="ewald">   -135.32461483 </i>
    <i name="hartreedc">     -0.45647639 </i>
    <i name="XCdc">     -8.82778441 </i>
    <i name="pawpsdc">    288.33884279 </i>
    <i name="pawaedc">   -270.75717745 </i>
    <i name="eentropy">     -0.00068957 </i>
    <i name="bandstr">     16.80651236 </i>
    <i name="atom">    103.06562707 </i>
    <i name="e_fr_energy">     -4.89139263 </i>
    <i name="e_wo_entrp">     -4.89070306 </i>
    <i name="e_0_energy">     -4.89104784 </i>
   </energy>
  </scstep>
  <structure>
   <crystal>
    <varray name="basis" >
     <v>       1.54899202       1.54899202       1.54899202 </v>
     <v>       1.54899202      -1.54899202      -1.54899202 </v>
     <v>      -1.54899202       1.54899202      -1.54899202 </v>
    </varray>
    <i name="volume">     14.86645883 </i>
    <varray name="rec_basis" >
     <v>       0.32279056       0.32279056       0.00000000 </v>
     <v>       0.32279056       0.00000000      -0.32279056 </v>
     <v>       0.00000000       0.32279056      -0.32279056 </v>
    </varray>
   </crystal>
   <varray name="positions" >
    <v>       0.00000000       0.00000000       0.00000000 </v>
   </varray>
  </structure>
  <varray name="forces" >
   <v>      -0.00000000       0.00000000      -0.00000000 </v>
  </varray>
  <varray name="stress" >
   <v>     -17.04431619      -0.00000000      -0.00000000 </v>
   <v>       0.00000000     -17.04431619       0.00000000 </v>
   <v>      -0.00000000      -0.00000000     -17.04431619 </v>
  </varray>
  <energy>
   <i name="e_fr_energy">     -4.89139263 </i>
   <i name="e_wo_entrp">     -4.89070306 </i>
   <i name="e_0_energy">     -4.89104784 </i>
  </energy>
  <time name="totalsc">    3.58    3.76</time>
 </calculation>
 <calculation>
  <scstep>
   <time name="dav">    0.27    0.27</time>
   <time name="total">    0.46    0.46</time>
   <energy>
    <i name="alphaZ">      2.30585380 </i>
    <i name="ewald">   -136.14605605 </i>
    <i name="hartreedc">     -0.45923557 </i>
    <i name="XCdc">     -8.78148301 </i>
    <i name="pawpsdc">    288.10118362 </i>
    <i name="pawaedc">   -270.51953187 </i>
    <i name="eentropy">     -0.00066734 </i>
    <i name="bandstr">     17.54087745 </i>
    <i name="atom">    103.06562707 </i>
    <i name="e_fr_energy">     -4.89343189 </i>
    <i name="e_wo_entrp">     -4.89276455 </i>
    <i name="e_0_energy">     -4.89309822 </i>
   </energy>
  </scstep>
  <scstep>
   <time name="dav">    0.31    0.31</time>
   <time name="total">    0.50    0.51</time>
   <energy>
    <i name="e_fr_energy">     -4.89305763 </i>
    <i name="e_wo_entrp">     -4.89238971 </i>
    <i name="e_0_energy">     -4.89272367 </i>
   </energy>
  </scstep>
  <scstep>
   <time name="dav">    0.29    0.29</time>
   <time name="total">    0.48    0.49</time>
   <energy>
    <i name="e_fr_energy">     -4.89283981 </i>
    <i name="e_wo_entrp">     -4.89217106 </i>
    <i name="e_0_energy">     -4.89250544 </i>
   </energy>
  </scstep>
  <scstep>
   <time name="dav">    0.34    0.35</time>
   <time name="total">    0.53    0.54</time>
   <energy>
    <i name="e_fr_energy">     -4.89283988 </i>
    <i name="e_wo_entrp">     -4.89217113 </i>
    <i name="e_0_energy">     -4.89250551 </i>
   </energy>
  </scstep>
  <scstep>
   <time name="dav">    0.18    0.18</time>
   <time name="total">    0.37    0.38</time>
   <energy>
    <i name="e_fr_energy">     -4.89284063 </i>
    <i name="e_wo_entrp">     -4.89217185 </i>
    <i name="e_0_energy">     -4.89250624 </i>
   </energy>
  </scstep>
  <scstep>
   <time name="dav">    0.16    0.16</time>
   <time name="total">    0.33    0.34</time>
   <energy>
    <i name="alphaZ">      2.30585380 </i>
    <i name="ewald">   -136.14605605 </i>
    <i name="hartreedc">     -0.42758221 </i>
    <i name="XCdc">     -8.77544260 </i>
    <i name="pawpsdc">    299.16739417 </i>
    <i name="pawaedc">   -281.58959741 </i>
    <i name="eentropy">     -0.00066878 </i>
    <i name="bandstr">     17.50763155 </i>
    <i name="atom">    103.06562707 </i>
    <i name="e_fr_energy">     -4.89284047 </i>
    <i name="e_wo_entrp">     -4.89217168 </i>
    <i name="e_0_energy">     -4.89250608 </i>
   </energy>
  </scstep>
  <structure>
   <crystal>
    <varray name="basis" >
     <v>       1.53964613       1.53964613       1.53964613 </v>
     <v>       1.53964613      -1.53964613      -1.53964613 </v>
     <v>      -1.53964613       1.53964613      -1.53964613 </v>
    </varray>
    <i name="volume">     14.59898749 </i>
    <varray name="rec_basis" >
     <v>       0.32474995       0.32474995       0.00000000 </v>
     <v>       0.32474995       0.00000000      -0.32474995 </v>
     <v>       0.00000000       0.32474995      -0.32474995 </v>
    </varray>
   </crystal>
   <varray name="positions" >
    <v>       0.00000000       0.00000000       0.00000000 </v>
   </varray>
  </structure>
  <varray name="forces" >
   <v>      -0.00000000      -0.00000000       0.00000000 </v>
  </varray>
  <varray name="stress" >
   <v>       0.05248659       0.00000000       0.00000000 </v>
   <v>       0.00000000       0.05248659       0.00000000 </v>
   <v>       0.00000000      -0.00000000       0.05248659 </v>
  </varray>
  <energy>
   <i name="e_fr_energy">     -4.89284047 </i>
   <i name="e_wo_entrp">     -4.89217168 </i>
   <i name="e_0_energy">     -4.89250608 </i>
  </energy>
  <time name="totalsc">    3.39    3.57</time>
  <eigenvalues>
   <array>
    <dimension dim="1">band</dimension>
    <dimension dim="2">kpoint</dimension>
    <dimension dim="3">spin</dimension>
    <field>eigene</field>
    <field>occ</field>
    <set>
     <set comment="spin 1">
      <set comment="kpoint 1">
       <r>   -4.0737    1.0000 </r>
       <r>   19.1142    0.0000 </r>
       <r>   20.0202    0.0000 </r>
       <r>   20.0202    0.0000 </r>
       <r>   22.8732    0.0000 </r>
       <r>   22.8732    0.0000 </r>
       <r>   24.5533    0.0000 </r>
       <r>   25.5254    0.0000 </r>
      </set>
      <set comment="kpoint 2">
       <r>   -3.6053    1.0000 </r>
       <r>   16.7273    0.0000 </r>
       <r>   18.1308    0.0000 </r>
       <r>   19.0381    0.0000 </r>
       <r>   22.3040    0.0000 </r>
       <r>   23.3656    0.0000 </r>
       <r>   25.1962    0.0000 </r>
       <r>   25.9427    0.0000 </r>
      </set>
      <set comment="kpoint 3">
       <r>   -2.8270    1.0000 </r>
       <r>   13.7459    0.0000 </r>
       <r>   16.8806    0.0000 </r>
       <r>   17.9869    0.0000 </r>
       <r>   21.5952    0.0000 </r>
       <r>   22.5579    0.0000 </r>
       <r>   26.2464    0.0000 </r>
       <r>   26.4209    0.0000 </r>
      </set>
      <set comment="kpoint 4">
       <r>   -1.7425    1.0000 </r>
       <r>   10.8108    0.0000 </r>
       <r>   15.9376    0.0000 </r>
       <r>   17.0849    0.0000 </r>
       <r>   20.8939    0.0000 </r>
       <r>   21.7385    0.0000 </r>
       <r>   27.1843    0.0000 </r>
       <r>   27.4965    0.0000 </r>
      </set>
      <set comment="kpoint 5">
       <r>   -0.3568    1.0000 </r>
       <r>    8.0641    1.0000 </r>
       <r>   15.2671    0.0000 </r>
       <r>   16.4112    0.0000 </r>
       <r>   20.3303    0.0000 </r>
       <r>   21.1135    0.0000 </r>
       <r>   28.2398    0.0000 </r>
       <r>   28.8607    0.0000 </r>
      </set>
      <set comment="kpoint 6">
       <r>    1.3214    1.0000 </r>
       <r>    5.5579    1.0000 </r>
       <r>   14.8647    0.0000 </r>
       <r>   15.9988    0.0000 </r>
       <r>   19.9733    0.0000 </r>
       <r>   20.7250    0.0000 </r>
       <r>   29.4608    0.0000 </r>
       <r>   30.1930    0.0000 </r>
      </set>
      <set comment="kpoint 7">
       <r>    3.1039    1.0000 </r>
       <r>    3.4981    1.0000 </r>
       <r>   14.7306    0.0000 </r>
       <r>   15.8595    0.0000 </r>
       <r>   19.8512    0.0000 </r>
       <r>   20.5938    0.0000 </r>
       <r>   30.2749    0.0000 </r>
       <r>   30.8927    0.0000 </r>
      </set>
      <set comment="kpoint 8">
       <r>   -4.2300    1.0000 </r>
       <r>   20.4653    0.0000 </r>
       <r>   20.4653    0.0000 </r>
       <r>   21.0054    0.0000 </r>
       <r>   22.5799    0.0000 </r>
       <r>   23.1571    0.0000 </r>
       <r>   23.1571    0.0000 </r>
       <r>   25.1727    0.0000 </r>
      </set>
      <set comment="kpoint 9">
       <r>   -2.9824    1.0000 </r>
       <r>   15.1988    0.0000 </r>
       <r>   15.7835    0.0000 </r>
       <r>   17.4802    0.0000 </r>
       <r>   22.8206    0.0000 </r>
       <r>   23.9039    0.0000 </r>
       <r>   25.2715    0.0000 </r>
       <r>   26.4481    0.0000 </r>
      </set>
      <set comment="kpoint 10">
       <r>   -2.0517    1.0000 </r>
       <r>   12.4887    0.0000 </r>
       <r>   14.4272    0.0000 </r>
       <r>   16.4299    0.0000 </r>
       <r>   22.5365    0.0000 </r>
       <r>   23.7208    0.0000 </r>
       <r>   25.9581    0.0000 </r>
       <r>   27.6586    0.0000 </r>
      </set>
      <set comment="kpoint 11">
       <r>   -0.8174    1.0000 </r>
       <r>    9.6605    1.0000 </r>
       <r>   13.5783    0.0000 </r>
       <r>   15.6249    0.0000 </r>
       <r>   21.9898    0.0000 </r>
       <r>   23.4265    0.0000 </r>
       <r>   26.7640    0.0000 </r>
       <r>   29.1777    0.0000 </r>
      </set>
      <set comment="kpoint 12">
       <r>    0.7141    1.0000 </r>
       <r>    7.0360    1.0000 </r>
       <r>   13.0159    0.0000 </r>
       <r>   15.0792    0.0000 </r>
       <r>   21.5416    0.0000 </r>
       <r>   23.1328    0.0000 </r>
       <r>   27.9105    0.0000 </r>
       <r>   30.4116    0.0000 </r>
      </set>
      <set comment="kpoint 13">
       <r>    2.5277    1.0000 </r>
       <r>    4.6705    1.0000 </r>
       <r>   12.7340    0.0000 </r>
       <r>   14.8034    0.0000 </r>
       <r>   21.3021    0.0000 </r>
       <r>   22.9579    0.0000 </r>
       <r>   29.2535    0.0000 </r>
       <r>   30.5158    0.0000 </r>
      </set>
      <set comment="kpoint 14">
       <r>   -3.9174    1.0000 </r>
       <r>   18.1735    0.0000 </r>
       <r>   19.0421    0.0000 </r>
       <r>   20.5538    0.0000 </r>
       <r>   21.8605    0.0000 </r>
       <r>   23.3824    0.0000 </r>
       <r>   24.2774    0.0000 </r>
       <r>   24.9344    0.0000 </r>
      </set>
      <set comment="kpoint 15">
       <r>   -0.9712    1.0000 </r>
       <r>   11.3342    0.0000 </r>
       <r>   11.7167    0.0000 </r>
       <r>   15.4807    0.0000 </r>
       <r>   23.0707    0.0000 </r>
       <r>   24.0723    0.0000 </r>
       <r>   27.0879    0.0000 </r>
       <r>   28.1979    0.0000 </r>
      </set>
      <set comment="kpoint 16">
       <r>    0.4094    1.0000 </r>
       <r>    8.7843    1.0000 </r>
       <r>   10.8242    0.0000 </r>
       <r>   14.8021    0.0000 </r>
       <r>   22.9661    0.0000 </r>
       <r>   24.5834    0.0000 </r>
       <r>   27.5361    0.0000 </r>
       <r>   29.6703    0.0000 </r>
      </set>
      <set comment="kpoint 17">
       <r>    2.0815    1.0000 </r>
       <r>    6.2974    1.0000 </r>
       <r>   10.3852    0.0000 </r>
       <r>   14.3905    0.0000 </r>
       <r>   22.6985    0.0000 </r>
       <r>   25.1476    0.0000 </r>
       <r>   27.9784    0.0000 </r>
       <r>   30.1873    0.0000 </r>
      </set>
      <set comment="kpoint 18">
       <r>    3.8649    1.0000 </r>
       <r>    4.2397    1.0000 </r>
       <r>   10.2400    0.0000 </r>
       <r>   14.2526    0.0000 </r>
       <r>   22.5939    0.0000 </r>
       <r>   25.3329    0.0000 </r>
       <r>   28.6460    0.0000 </r>
       <r>   29.5534    0.0000 </r>
      </set>
      <set comment="kpoint 19">
       <r>   -3.2936    1.0000 </r>
       <r>   15.2197    0.0000 </r>
       <r>   17.7439    0.0000 </r>
       <r>   19.8940    0.0000 </r>
       <r>   20.7381    0.0000 </r>
       <r>   22.4226    0.0000 </r>
       <r>   24.7165    0.0000 </r>
       <r>   27.2455    0.0000 </r>
      </set>
      <set comment="kpoint 20">
       <r>   -3.4494    1.0000 </r>
       <r>   16.6119    0.0000 </r>
       <r>   17.0092    0.0000 </r>
       <r>   19.7241    0.0000 </r>
       <r>   21.7300    0.0000 </r>
       <r>   22.5558    0.0000 </r>
       <r>   24.7431    0.0000 </r>
       <r>   25.7769    0.0000 </r>
      </set>
      <set comment="kpoint 21">
       <r>    1.9314    1.0000 </r>
       <r>    8.0583    1.0000 </r>
       <r>    8.3702    1.0000 </r>
       <r>   14.2573    0.0000 </r>
       <r>   23.8511    0.0000 </r>
       <r>   24.8639    0.0000 </r>
       <r>   28.8698    0.0000 </r>
       <r>   29.5916    0.0000 </r>
      </set>
      <set comment="kpoint 22">
       <r>    3.7337    1.0000 </r>
       <r>    5.8540    1.0000 </r>
       <r>    7.9344    1.0000 </r>
       <r>   13.9828    0.0000 </r>
       <r>   24.0080    0.0000 </r>
       <r>   25.8372    0.0000 </r>
       <r>   27.8085    0.0000 </r>
       <r>   30.5694    0.0000 </r>
      </set>
      <set comment="kpoint 23">
       <r>   -2.3615    1.0000 </r>
       <r>   12.2225    0.0000 </r>
       <r>   16.6864    0.0000 </r>
       <r>   19.1213    0.0000 </r>
       <r>   19.6981    0.0000 </r>
       <r>   21.6043    0.0000 </r>
       <r>   25.3585    0.0000 </r>
       <r>   28.2137    0.0000 </r>
      </set>
      <set comment="kpoint 24">
       <r>   -2.6717    1.0000 </r>
       <r>   13.8507    0.0000 </r>
       <r>   15.6356    0.0000 </r>
       <r>   18.9358    0.0000 </r>
       <r>   20.9793    0.0000 </r>
       <r>   22.2240    0.0000 </r>
       <r>   24.9196    0.0000 </r>
       <r>   27.5221    0.0000 </r>
      </set>
      <set comment="kpoint 25">
       <r>    5.3693    1.0000 </r>
       <r>    5.8671    1.0000 </r>
       <r>    5.8671    1.0000 </r>
       <r>   13.8463    0.0000 </r>
       <r>   24.8237    0.0000 </r>
       <r>   26.4325    0.0000 </r>
       <r>   26.4325    0.0000 </r>
       <r>   32.5754    0.0000 </r>
      </set>
      <set comment="kpoint 26">
       <r>   -1.1254    1.0000 </r>
       <r>    9.3725    1.0000 </r>
       <r>   15.8895    0.0000 </r>
       <r>   18.4437    0.0000 </r>
       <r>   18.8746    0.0000 </r>
       <r>   20.9413    0.0000 </r>
       <r>   26.3182    0.0000 </r>
       <r>   29.3623    0.0000 </r>
      </set>
      <set comment="kpoint 27">
       <r>   -1.5879    1.0000 </r>
       <r>   10.9435    0.0000 </r>
       <r>   14.6695    0.0000 </r>
       <r>   18.1626    0.0000 </r>
       <r>   20.1179    0.0000 </r>
       <r>   22.2687    0.0000 </r>
       <r>   25.0050    0.0000 </r>
       <r>   29.4438    0.0000 </r>
      </set>
      <set comment="kpoint 28">
       <r>   -1.7423    1.0000 </r>
       <r>   12.5759    0.0000 </r>
       <r>   12.9375    0.0000 </r>
       <r>   18.1949    0.0000 </r>
       <r>   21.1560    0.0000 </r>
       <r>   21.7613    0.0000 </r>
       <r>   26.4568    0.0000 </r>
       <r>   27.5783    0.0000 </r>
      </set>
      <set comment="kpoint 29">
       <r>    0.4082    1.0000 </r>
       <r>    6.7407    1.0000 </r>
       <r>   15.3565    0.0000 </r>
       <r>   17.9599    0.0000 </r>
       <r>   18.3101    0.0000 </r>
       <r>   20.4660    0.0000 </r>
       <r>   27.5649    0.0000 </r>
       <r>   30.4025    0.0000 </r>
      </set>
      <set comment="kpoint 30">
       <r>   -0.2033    1.0000 </r>
       <r>    8.2060    1.0000 </r>
       <r>   13.9773    0.0000 </r>
       <r>   17.5567    0.0000 </r>
       <r>   19.4453    0.0000 </r>
       <r>   22.1695    0.0000 </r>
       <r>   25.6837    0.0000 </r>
       <r>   30.4740    0.0000 </r>
      </set>
      <set comment="kpoint 31">
       <r>   -0.5099    1.0000 </r>
       <r>    9.9314    0.1108 </r>
       <r>   11.9223    0.0000 </r>
       <r>   17.5243    0.0000 </r>
       <r>   20.6833    0.0000 </r>
       <r>   22.3061    0.0000 </r>
       <r>   26.5114    0.0000 </r>
       <r>   29.1674    0.0000 </r>
      </set>
      <set comment="kpoint 32">
       <r>    2.2241    1.0000 </r>
       <r>    4.3715    1.0000 </r>
       <r>   15.0899    0.0000 </r>
       <r>   17.7107    0.0000 </r>
       <r>   18.0255    0.0000 </r>
       <r>   20.2210    0.0000 </r>
       <r>   28.9945    0.0000 </r>
       <r>   30.3483    0.0000 </r>
      </set>
      <set comment="kpoint 33">
       <r>    1.4736    1.0000 </r>
       <r>    5.7048    1.0000 </r>
       <r>   13.5605    0.0000 </r>
       <r>   17.1794    0.0000 </r>
       <r>   19.0300    0.0000 </r>
       <r>   22.0051    0.0000 </r>
       <r>   26.8840    0.0000 </r>
       <r>   29.9158    0.0000 </r>
      </set>
      <set comment="kpoint 34">
       <r>    1.0192    1.0000 </r>
       <r>    7.3244    1.0000 </r>
       <r>   11.3450    0.0000 </r>
       <r>   17.0385    0.0000 </r>
       <r>   20.1872    0.0000 </r>
       <r>   23.2126    0.0000 </r>
       <r>   26.3575    0.0000 </r>
       <r>   29.4679    0.0000 </r>
      </set>
      <set comment="kpoint 35">
       <r>    0.8673    1.0000 </r>
       <r>    9.0686    1.0000 </r>
       <r>    9.3712    1.0000 </r>
       <r>   16.9722    0.0000 </r>
       <r>   21.4679    0.0000 </r>
       <r>   22.0937    0.0000 </r>
       <r>   27.9968    0.0000 </r>
       <r>   28.7472    0.0000 </r>
      </set>
      <set comment="kpoint 36">
       <r>    3.2570    1.0000 </r>
       <r>    3.6450    1.0000 </r>
       <r>   13.4217    0.0000 </r>
       <r>   17.0521    0.0000 </r>
       <r>   18.8904    0.0000 </r>
       <r>   21.9342    0.0000 </r>
       <r>   28.2203    0.0000 </r>
       <r>   28.5939    0.0000 </r>
      </set>
      <set comment="kpoint 37">
       <r>    2.8300    1.0000 </r>
       <r>    4.9661    1.0000 </r>
       <r>   11.0574    0.0000 </r>
       <r>   16.7879    0.0000 </r>
       <r>   19.9255    0.0000 </r>
       <r>   23.8692    0.0000 </r>
       <r>   26.6389    0.0000 </r>
       <r>   28.3876    0.0000 </r>
      </set>
      <set comment="kpoint 38">
       <r>    2.5351    1.0000 </r>
       <r>    6.7307    1.0000 </r>
       <r>    8.7939    1.0000 </r>
       <r>   16.6119    0.0000 </r>
       <r>   21.3627    0.0000 </r>
       <r>   23.1734    0.0000 </r>
       <r>   26.6216    0.0000 </r>
       <r>   29.6018    0.0000 </r>
      </set>
      <set comment="kpoint 39">
       <r>    4.3177    1.0000 </r>
       <r>    4.6793    1.0000 </r>
       <r>    8.6444    1.0000 </r>
       <r>   16.4882    0.0000 </r>
       <r>   21.2577    0.0000 </r>
       <r>   24.2424    0.0000 </r>
       <r>   25.4605    0.0000 </r>
       <r>   29.6738    0.0000 </r>
      </set>
      <set comment="kpoint 40">
       <r>    4.3264    1.0000 </r>
       <r>    6.3088    1.0000 </r>
       <r>    6.5945    1.0000 </r>
       <r>   16.3786    0.0000 </r>
       <r>   22.5084    0.0000 </r>
       <r>   23.3546    0.0000 </r>
       <r>   24.9427    0.0000 </r>
       <r>   31.6142    0.0000 </r>
      </set>
      <set comment="kpoint 41">
       <r>   -2.2066    1.0000 </r>
       <r>   13.8277    0.0000 </r>
       <r>   14.6115    0.0000 </r>
       <r>   14.6115    0.0000 </r>
       <r>   24.4761    0.0000 </r>
       <r>   24.4761    0.0000 </r>
       <r>   26.4823    0.0000 </r>
       <r>   26.4823    0.0000 </r>
      </set>
      <set comment="kpoint 42">
       <r>   -1.1252    1.0000 </r>
       <r>   11.3594    0.0000 </r>
       <r>   13.1747    0.0000 </r>
       <r>   13.6515    0.0000 </r>
       <r>   24.5053    0.0000 </r>
       <r>   24.9143    0.0000 </r>
       <r>   27.4314    0.0000 </r>
       <r>   27.6506    0.0000 </r>
      </set>
      <set comment="kpoint 43">
       <r>    0.2565    1.0000 </r>
       <r>    8.6464    1.0000 </r>
       <r>   12.4467    0.0000 </r>
       <r>   12.9486    0.0000 </r>
       <r>   24.3245    0.0000 </r>
       <r>   24.6011    0.0000 </r>
       <r>   28.7441    0.0000 </r>
       <r>   28.9947    0.0000 </r>
      </set>
      <set comment="kpoint 44">
       <r>    1.9301    1.0000 </r>
       <r>    6.1517    1.0000 </r>
       <r>   12.0194    0.0000 </r>
       <r>   12.5212    0.0000 </r>
       <r>   24.1379    0.0000 </r>
       <r>   24.3233    0.0000 </r>
       <r>   29.8866    0.0000 </r>
       <r>   30.4378    0.0000 </r>
      </set>
      <set comment="kpoint 45">
       <r>    3.7133    1.0000 </r>
       <r>    4.0929    1.0000 </r>
       <r>   11.8775    0.0000 </r>
       <r>   12.3781    0.0000 </r>
       <r>   24.0643    0.0000 </r>
       <r>   24.2229    0.0000 </r>
       <r>   30.5556    0.0000 </r>
       <r>   31.1508    0.0000 </r>
      </set>
      <set comment="kpoint 46">
       <r>   -3.6052    1.0000 </r>
       <r>   17.6793    0.0000 </r>
       <r>   17.6793    0.0000 </r>
       <r>   19.1284    0.0000 </r>
       <r>   21.7473    0.0000 </r>
       <r>   23.1824    0.0000 </r>
       <r>   24.6195    0.0000 </r>
       <r>   24.6195    0.0000 </r>
      </set>
      <set comment="kpoint 47">
       <r>    0.1037    1.0000 </r>
       <r>   10.3362    0.0000 </r>
       <r>   10.7292    0.0000 </r>
       <r>   12.5965    0.0000 </r>
       <r>   25.3664    0.0000 </r>
       <r>   26.1397    0.0000 </r>
       <r>   28.0557    0.0000 </r>
       <r>   28.7938    0.0000 </r>
      </set>
      <set comment="kpoint 48">
       <r>    1.6284    1.0000 </r>
       <r>    7.9119    1.0000 </r>
       <r>    9.9710    0.0096 </r>
       <r>   12.0222    0.0000 </r>
       <r>   25.5514    0.0000 </r>
       <r>   26.5781    0.0000 </r>
       <r>   29.0684    0.0000 </r>
       <r>   30.1501    0.0000 </r>
      </set>
      <set comment="kpoint 49">
       <r>    3.4346    1.0000 </r>
       <r>    5.5636    1.0000 </r>
       <r>    9.6750    1.0000 </r>
       <r>   11.7365    0.0000 </r>
       <r>   25.4951    0.0000 </r>
       <r>   26.7548    0.0000 </r>
       <r>   29.9907    0.0000 </r>
       <r>   30.9377    0.0000 </r>
      </set>
      <set comment="kpoint 50">
       <r>   -2.9823    1.0000 </r>
       <r>   15.3501    0.0000 </r>
       <r>   16.3717    0.0000 </r>
       <r>   18.4925    0.0000 </r>
       <r>   20.6922    0.0000 </r>
       <r>   22.5929    0.0000 </r>
       <r>   24.8487    0.0000 </r>
       <r>   26.4593    0.0000 </r>
      </set>
      <set comment="kpoint 51">
       <r>    3.2896    1.0000 </r>
       <r>    7.3283    1.0000 </r>
       <r>    7.6467    1.0000 </r>
       <r>   11.5887    0.0000 </r>
       <r>   26.4534    0.0000 </r>
       <r>   27.5876    0.0000 </r>
       <r>   29.8814    0.0000 </r>
       <r>   30.5863    0.0000 </r>
      </set>
      <set comment="kpoint 52">
       <r>    5.0589    1.0000 </r>
       <r>    5.4284    1.0000 </r>
       <r>    7.3571    1.0000 </r>
       <r>   11.4453    0.0000 </r>
       <r>   26.7006    0.0000 </r>
       <r>   28.2243    0.0000 </r>
       <r>   29.3699    0.0000 </r>
       <r>   31.4995    0.0000 </r>
      </set>
      <set comment="kpoint 53">
       <r>   -2.0516    1.0000 </r>
       <r>   12.4650    0.0000 </r>
       <r>   15.2941    0.0000 </r>
       <r>   17.7790    0.0000 </r>
       <r>   20.7324    0.0000 </r>
       <r>   21.6329    0.0000 </r>
       <r>   24.5665    0.0000 </r>
       <r>   29.0399    0.0000 </r>
      </set>
      <set comment="kpoint 54">
       <r>   -2.2064    1.0000 </r>
       <r>   14.0022    0.0000 </r>
       <r>   14.2636    0.0000 </r>
       <r>   18.0359    0.0000 </r>
       <r>   19.7031    0.0000 </r>
       <r>   22.3381    0.0000 </r>
       <r>   26.0876    0.0000 </r>
       <r>   26.9275    0.0000 </r>
      </set>
      <set comment="kpoint 55">
       <r>   -0.8173    1.0000 </r>
       <r>    9.6481    1.0000 </r>
       <r>   14.4770    0.0000 </r>
       <r>   17.0563    0.0000 </r>
       <r>   20.8443    0.0000 </r>
       <r>   21.1585    0.0000 </r>
       <r>   24.4603    0.0000 </r>
       <r>   30.2753    0.0000 </r>
      </set>
      <set comment="kpoint 56">
       <r>   -1.1250    1.0000 </r>
       <r>   11.3263    0.0000 </r>
       <r>   13.1739    0.0000 </r>
       <r>   17.6010    0.0000 </r>
       <r>   19.7985    0.0000 </r>
       <r>   21.6644    0.0000 </r>
       <r>   25.9382    0.0000 </r>
       <r>   28.7443    0.0000 </r>
      </set>
      <set comment="kpoint 57">
       <r>    0.7140    1.0000 </r>
       <r>    7.0302    1.0000 </r>
       <r>   13.9296    0.0000 </r>
       <r>   16.5318    0.0000 </r>
       <r>   20.3021    0.0000 </r>
       <r>   21.4494    0.0000 </r>
       <r>   24.9591    0.0000 </r>
       <r>   29.3724    0.0000 </r>
      </set>
      <set comment="kpoint 58">
       <r>    0.2564    1.0000 </r>
       <r>    8.6286    1.0000 </r>
       <r>   12.4679    0.0000 </r>
       <r>   17.0428    0.0000 </r>
       <r>   20.2400    0.0000 </r>
       <r>   21.4743    0.0000 </r>
       <r>   25.4515    0.0000 </r>
       <r>   28.8803    0.0000 </r>
      </set>
      <set comment="kpoint 59">
       <r>    0.1036    1.0000 </r>
       <r>   10.3371    0.0000 </r>
       <r>   10.6189    0.0000 </r>
       <r>   17.9022    0.0000 </r>
       <r>   19.5049    0.0000 </r>
       <r>   21.1830    0.0000 </r>
       <r>   27.3454    0.0000 </r>
       <r>   28.1240    0.0000 </r>
      </set>
      <set comment="kpoint 60">
       <r>    2.5272    1.0000 </r>
       <r>    4.6678    1.0000 </r>
       <r>   13.6544    0.0000 </r>
       <r>   16.2617    0.0000 </r>
       <r>   20.0249    0.0000 </r>
       <r>   21.5232    0.0000 </r>
       <r>   26.0717    0.0000 </r>
       <r>   27.7966    0.0000 </r>
      </set>
      <set comment="kpoint 61">
       <r>    1.9292    1.0000 </r>
       <r>    6.1436    1.0000 </r>
       <r>   12.0438    0.0000 </r>
       <r>   16.6643    0.0000 </r>
       <r>   20.1792    0.0000 </r>
       <r>   22.1770    0.0000 </r>
       <r>   25.0920    0.0000 </r>
       <r>   27.6517    0.0000 </r>
      </set>
      <set comment="kpoint 62">
       <r>    1.6276    1.0000 </r>
       <r>    7.8928    1.0000 </r>
       <r>    9.9114    0.2559 </r>
       <r>   17.7561    0.0000 </r>
       <r>   19.9078    0.0000 </r>
       <r>   21.1665    0.0000 </r>
       <r>   25.7699    0.0000 </r>
       <r>   28.8428    0.0000 </r>
      </set>
      <set comment="kpoint 63">
       <r>    3.7146    1.0000 </r>
       <r>    4.0851    1.0000 </r>
       <r>   11.9024    0.0000 </r>
       <r>   16.5340    0.0000 </r>
       <r>   20.0951    0.0000 </r>
       <r>   22.6893    0.0000 </r>
       <r>   24.9417    0.0000 </r>
       <r>   26.9840    0.0000 </r>
      </set>
      <set comment="kpoint 64">
       <r>    3.4323    1.0000 </r>
       <r>    5.5539    1.0000 </r>
       <r>    9.6177    1.0000 </r>
       <r>   17.5743    0.0000 </r>
       <r>   19.9658    0.0000 </r>
       <r>   22.2198    0.0000 </r>
       <r>   24.0473    0.0000 </r>
       <r>   28.8124    0.0000 </r>
      </set>
      <set comment="kpoint 65">
       <r>    3.2871    1.0000 </r>
       <r>    7.3241    1.0000 </r>
       <r>    7.6024    1.0000 </r>
       <r>   18.1353    0.0000 </r>
       <r>   20.4179    0.0000 </r>
       <r>   20.9750    0.0000 </r>
       <r>   23.9560    0.0000 </r>
       <r>   30.7893    0.0000 </r>
      </set>
      <set comment="kpoint 66">
       <r>    5.0622    1.0000 </r>
       <r>    5.4088    1.0000 </r>
       <r>    7.3299    1.0000 </r>
       <r>   18.1716    0.0000 </r>
       <r>   20.6041    0.0000 </r>
       <r>   21.9975    0.0000 </r>
       <r>   22.2612    0.0000 </r>
       <r>   31.4234    0.0000 </r>
      </set>
      <set comment="kpoint 67">
       <r>    1.4769    1.0000 </r>
       <r>    9.4822    1.0000 </r>
       <r>   10.0125    0.0002 </r>
       <r>   10.0125    0.0002 </r>
       <r>   27.3709    0.0000 </r>
       <r>   27.3709    0.0000 </r>
       <r>   29.3733    0.0000 </r>
       <r>   29.3733    0.0000 </r>
      </set>
      <set comment="kpoint 68">
       <r>    3.1403    1.0000 </r>
       <r>    7.3218    1.0000 </r>
       <r>    9.2548    1.0000 </r>
       <r>    9.5792    1.0000 </r>
       <r>   27.9035    0.0000 </r>
       <r>   28.2101    0.0000 </r>
       <r>   30.4957    0.0000 </r>
       <r>   30.5988    0.0000 </r>
      </set>
      <set comment="kpoint 69">
       <r>    4.9158    1.0000 </r>
       <r>    5.2819    1.0000 </r>
       <r>    9.0990    1.0000 </r>
       <r>    9.4343    1.0000 </r>
       <r>   28.0437    0.0000 </r>
       <r>   28.3188    0.0000 </r>
       <r>   30.9768    0.0000 </r>
       <r>   31.4735    0.0000 </r>
      </set>
      <set comment="kpoint 70">
       <r>   -2.3613    1.0000 </r>
       <r>   15.0471    0.0000 </r>
       <r>   15.0471    0.0000 </r>
       <r>   16.9026    0.0000 </r>
       <r>   18.6669    0.0000 </r>
       <r>   24.3981    0.0000 </r>
       <r>   25.9654    0.0000 </r>
       <r>   25.9654    0.0000 </r>
      </set>
      <set comment="kpoint 71">
       <r>    4.9258    1.0000 </r>
       <r>    6.8920    1.0000 </r>
       <r>    7.2094    1.0000 </r>
       <r>    9.1399    1.0000 </r>
       <r>   28.9706    0.0000 </r>
       <r>   29.8321    0.0000 </r>
       <r>   30.7973    0.0000 </r>
       <r>   31.3709    0.0000 </r>
      </set>
      <set comment="kpoint 72">
       <r>   -1.4332    1.0000 </r>
       <r>   12.8766    0.0000 </r>
       <r>   13.9563    0.0000 </r>
       <r>   16.3140    0.0000 </r>
       <r>   18.0393    0.0000 </r>
       <r>   24.0190    0.0000 </r>
       <r>   26.0861    0.0000 </r>
       <r>   28.0419    0.0000 </r>
      </set>
      <set comment="kpoint 73">
       <r>   -0.2027    1.0000 </r>
       <r>   10.1826    0.0000 </r>
       <r>   13.1292    0.0000 </r>
       <r>   15.6755    0.0000 </r>
       <r>   18.6830    0.0000 </r>
       <r>   23.2968    0.0000 </r>
       <r>   25.4620    0.0000 </r>
       <r>   28.4308    0.0000 </r>
      </set>
      <set comment="kpoint 74">
       <r>   -0.3560    1.0000 </r>
       <r>   11.7965    0.0000 </r>
       <r>   12.0006    0.0000 </r>
       <r>   16.1272    0.0000 </r>
       <r>   17.2975    0.0000 </r>
       <r>   23.9097    0.0000 </r>
       <r>   26.9518    0.0000 </r>
       <r>   27.7468    0.0000 </r>
      </set>
      <set comment="kpoint 75">
       <r>    1.3236    1.0000 </r>
       <r>    7.6033    1.0000 </r>
       <r>   12.5755    0.0000 </r>
       <r>   15.1464    0.0000 </r>
       <r>   19.8083    0.0000 </r>
       <r>   22.7774    0.0000 </r>
       <r>   24.5446    0.0000 </r>
       <r>   27.4184    0.0000 </r>
      </set>
      <set comment="kpoint 76">
       <r>    1.0199    1.0000 </r>
       <r>    9.3117    1.0000 </r>
       <r>   11.1984    0.0000 </r>
       <r>   15.8455    0.0000 </r>
       <r>   17.9057    0.0000 </r>
       <r>   23.3130    0.0000 </r>
       <r>   25.2422    0.0000 </r>
       <r>   28.3570    0.0000 </r>
      </set>
      <set comment="kpoint 77">
       <r>    3.1312    1.0000 </r>
       <r>    5.2574    1.0000 </r>
       <r>   12.2977    0.0000 </r>
       <r>   14.8699    0.0000 </r>
       <r>   20.9782    0.0000 </r>
       <r>   22.5101    0.0000 </r>
       <r>   23.4820    0.0000 </r>
       <r>   26.7742    0.0000 </r>
      </set>
      <set comment="kpoint 78">
       <r>    2.6855    1.0000 </r>
       <r>    6.8672    1.0000 </r>
       <r>   10.7687    0.0000 </r>
       <r>   15.4856    0.0000 </r>
       <r>   19.1835    0.0000 </r>
       <r>   22.6170    0.0000 </r>
       <r>   23.6843    0.0000 </r>
       <r>   28.2730    0.0000 </r>
      </set>
      <set comment="kpoint 79">
       <r>    2.5356    1.0000 </r>
       <r>    8.6127    1.0000 </r>
       <r>    8.8645    1.0000 </r>
       <r>   16.6489    0.0000 </r>
       <r>   17.7405    0.0000 </r>
       <r>   22.4243    0.0000 </r>
       <r>   23.8389    0.0000 </r>
       <r>   30.1740    0.0000 </r>
      </set>
      <set comment="kpoint 80">
       <r>    4.4717    1.0000 </r>
       <r>    4.8154    1.0000 </r>
       <r>   10.6251    0.0000 </r>
       <r>   15.3545    0.0000 </r>
       <r>   20.2156    0.0000 </r>
       <r>   21.6981    0.0000 </r>
       <r>   23.2358    0.0000 </r>
       <r>   28.2003    0.0000 </r>
      </set>
      <set comment="kpoint 81">
       <r>    4.3291    1.0000 </r>
       <r>    6.4249    1.0000 </r>
       <r>    8.4573    1.0000 </r>
       <r>   16.7238    0.0000 </r>
       <r>   18.8488    0.0000 </r>
       <r>   20.8730    0.0000 </r>
       <r>   23.2469    0.0000 </r>
       <r>   30.8019    0.0000 </r>
      </set>
      <set comment="kpoint 82">
       <r>    5.9775    1.0000 </r>
       <r>    6.4203    1.0000 </r>
       <r>    6.4203    1.0000 </r>
       <r>   17.5833    0.0000 </r>
       <r>   19.2615    0.0000 </r>
       <r>   19.2615    0.0000 </r>
       <r>   23.1106    0.0000 </r>
       <r>   33.1167    0.0000 </r>
      </set>
      <set comment="kpoint 83">
       <r>    6.4098    1.0000 </r>
       <r>    7.0634    1.0000 </r>
       <r>    7.0634    1.0000 </r>
       <r>    7.0634    1.0000 </r>
       <r>   31.1598    0.0000 </r>
       <r>   31.1598    0.0000 </r>
       <r>   31.1598    0.0000 </r>
       <r>   31.1869    0.0000 </r>
      </set>
      <set comment="kpoint 84">
       <r>   -0.5094    1.0000 </r>
       <r>   12.8564    0.0000 </r>
       <r>   12.8564    0.0000 </r>
       <r>   14.8749    0.0000 </r>
       <r>   16.1627    0.0000 </r>
       <r>   26.2048    0.0000 </r>
       <r>   26.9196    0.0000 </r>
       <r>   27.6183    0.0000 </r>
      </set>
      <set comment="kpoint 85">
       <r>    0.7152    1.0000 </r>
       <r>   10.9003    0.0000 </r>
       <r>   12.0238    0.0000 </r>
       <r>   14.4341    0.0000 </r>
       <r>   15.9424    0.0000 </r>
       <r>   24.7938    0.0000 </r>
       <r>   26.0231    0.0000 </r>
       <r>   28.3422    0.0000 </r>
      </set>
      <set comment="kpoint 86">
       <r>    2.2337    1.0000 </r>
       <r>    8.4417    1.0000 </r>
       <r>   11.4658    0.0000 </r>
       <r>   13.9765    0.0000 </r>
       <r>   17.0172    0.0000 </r>
       <r>   22.6224    0.0000 </r>
       <r>   25.5477    0.0000 </r>
       <r>   28.4790    0.0000 </r>
      </set>
      <set comment="kpoint 87">
       <r>    2.0827    1.0000 </r>
       <r>   10.1005    0.0000 </r>
       <r>   10.2801    0.0000 </r>
       <r>   14.5527    0.0000 </r>
       <r>   15.4665    0.0000 </r>
       <r>   22.5053    0.0000 </r>
       <r>   26.2799    0.0000 </r>
       <r>   29.7998    0.0000 </r>
      </set>
      <set comment="kpoint 88">
       <r>    4.0308    1.0000 </r>
       <r>    6.1330    1.0000 </r>
       <r>   11.1863    0.0000 </r>
       <r>   13.7046    0.0000 </r>
       <r>   18.4985    0.0000 </r>
       <r>   20.6473    0.0000 </r>
       <r>   25.2914    0.0000 </r>
       <r>   28.4360    0.0000 </r>
      </set>
      <set comment="kpoint 89">
       <r>    3.7364    1.0000 </r>
       <r>    7.8550    1.0000 </r>
       <r>    9.7680    0.9997 </r>
       <r>   14.4675    0.0000 </r>
       <r>   16.4777    0.0000 </r>
       <r>   20.3068    0.0000 </r>
       <r>   26.0203    0.0000 </r>
       <r>   30.3639    0.0000 </r>
      </set>
      <set comment="kpoint 90">
       <r>    5.5179    1.0000 </r>
       <r>    5.8287    1.0000 </r>
       <r>    9.6228    1.0000 </r>
       <r>   14.3540    0.0000 </r>
       <r>   17.8106    0.0000 </r>
       <r>   18.6756    0.0000 </r>
       <r>   25.9094    0.0000 </r>
       <r>   30.4323    0.0000 </r>
      </set>
      <set comment="kpoint 91">
       <r>    5.5083    1.0000 </r>
       <r>    7.4553    1.0000 </r>
       <r>    7.6909    1.0000 </r>
       <r>   15.5933    0.0000 </r>
       <r>   16.5467    0.0000 </r>
       <r>   18.2052    0.0000 </r>
       <r>   25.9376    0.0000 </r>
       <r>   32.5238    0.0000 </r>
      </set>
      <set comment="kpoint 92">
       <r>    1.9314    1.0000 </r>
       <r>   11.1867    0.0000 </r>
       <r>   11.1867    0.0000 </r>
       <r>   13.2423    0.0000 </r>
       <r>   14.2715    0.0000 </r>
       <r>   22.4048    0.0000 </r>
       <r>   28.5638    0.0000 </r>
       <r>   29.6705    0.0000 </r>
      </set>
      <set comment="kpoint 93">
       <r>    3.4376    1.0000 </r>
       <r>    9.4686    1.0000 </r>
       <r>   10.6271    0.0000 </r>
       <r>   13.0123    0.0000 </r>
       <r>   14.4336    0.0000 </r>
       <r>   20.0263    0.0000 </r>
       <r>   28.5376    0.0000 </r>
       <r>   30.4452    0.0000 </r>
      </set>
      <set comment="kpoint 94">
       <r>    5.2165    1.0000 </r>
       <r>    7.2746    1.0000 </r>
       <r>   10.3467    0.0000 </r>
       <r>   12.7975    0.0000 </r>
       <r>   15.8494    0.0000 </r>
       <r>   17.8883    0.0000 </r>
       <r>   28.3085    0.0000 </r>
       <r>   30.6963    0.0000 </r>
      </set>
      <set comment="kpoint 95">
       <r>    5.0716    1.0000 </r>
       <r>    8.9558    1.0000 </r>
       <r>    9.1261    1.0000 </r>
       <r>   13.4420    0.0000 </r>
       <r>   14.2382    0.0000 </r>
       <r>   17.7167    0.0000 </r>
       <r>   28.9447    0.0000 </r>
       <r>   32.1626    0.0000 </r>
      </set>
      <set comment="kpoint 96">
       <r>    6.8309    1.0000 </r>
       <r>    7.1033    1.0000 </r>
       <r>    8.9056    1.0000 </r>
       <r>   13.5722    0.0000 </r>
       <r>   15.3682    0.0000 </r>
       <r>   15.9473    0.0000 </r>
       <r>   28.9084    0.0000 </r>
       <r>   32.6960    0.0000 </r>
      </set>
      <set comment="kpoint 97">
       <r>    4.9242    1.0000 </r>
       <r>   10.0663    0.0000 </r>
       <r>   10.0663    0.0000 </r>
       <r>   12.0997    0.0000 </r>
       <r>   13.0073    0.0000 </r>
       <r>   17.5635    0.0000 </r>
       <r>   31.3622    0.0000 </r>
       <r>   32.0427    0.0000 </r>
      </set>
      <set comment="kpoint 98">
       <r>    6.6666    1.0000 </r>
       <r>    8.6060    1.0000 </r>
       <r>    9.7854    0.9982 </r>
       <r>   12.1131    0.0000 </r>
       <r>   13.5125    0.0000 </r>
       <r>   15.3819    0.0000 </r>
       <r>   31.4318    0.0000 </r>
       <r>   32.8188    0.0000 </r>
      </set>
      <set comment="kpoint 99">
       <r>    8.2755    1.0000 </r>
       <r>    8.5476    1.0000 </r>
       <r>    8.5476    1.0000 </r>
       <r>   12.6143    0.0000 </r>
       <r>   13.6235    0.0000 </r>
       <r>   13.6235    0.0000 </r>
       <r>   31.8817    0.0000 </r>
       <r>   34.3084    0.0000 </r>
      </set>
      <set comment="kpoint 100">
       <r>    8.3034    1.0000 </r>
       <r>    9.5040    1.0000 </r>
       <r>    9.5040    1.0000 </r>
       <r>   11.4238    0.0000 </r>
       <r>   12.3697    0.0000 </r>
       <r>   13.2862    0.0000 </r>
       <r>   34.0307    0.0000 </r>
       <r>   34.1862    0.0000 </r>
      </set>
     </set>
    </set>
   </array>
  </eigenvalues>
  <separator name="orbital magnetization" >
   <v name="MAGDIPOLOUT">      0.00000000      0.00000000      0.00000000</v>
  </separator>
  <dos>
   <i name="efermi">      9.88819692 </i>
   <total>
    <array>
     <dimension dim="1">gridpoints</dimension>
     <dimension dim="2">spin</dimension>
     <field>energy</field>
     <field>total</field>
     <field>integrated</field>
     <set>
      <set comment="spin 1">
       <r>    -6.1569     0.0000     0.0000 </r>
       <r>    -6.0156     0.0000     0.0000 </r>
       <r>    -5.8743     0.0000     0.0000 </r>
       <r>    -5.7330     0.0000     0.0000 </r>
       <r>    -5.5917     0.0000     0.0000 </r>
       <r>    -5.4504     0.0000     0.0000 </r>
       <r>    -5.3091     0.0000     0.0000 </r>
       <r>    -5.1678     0.0000     0.0000 </r>
       <r>    -5.0265     0.0000     0.0000 </r>
       <r>    -4.8852     0.0000     0.0000 </r>
       <r>    -4.7439     0.0000     0.0000 </r>
       <r>    -4.6026     0.0000     0.0000 </r>
       <r>    -4.4612     0.0000     0.0000 </r>
       <r>    -4.3199     0.0002     0.0000 </r>
       <r>    -4.1786     0.0286     0.0041 </r>
       <r>    -4.0373     0.0372     0.0093 </r>
       <r>    -3.8960     0.0963     0.0229 </r>
       <r>    -3.7547     0.0337     0.0277 </r>
       <r>    -3.6134     0.0633     0.0366 </r>
       <r>    -3.4721     0.1236     0.0541 </r>
       <r>    -3.3308     0.1097     0.0696 </r>
       <r>    -3.1895     0.1055     0.0845 </r>
       <r>    -3.0482     0.0080     0.0856 </r>
       <r>    -2.9069     0.2372     0.1192 </r>
       <r>    -2.7656     0.1223     0.1364 </r>
       <r>    -2.6242     0.2294     0.1689 </r>
       <r>    -2.4829     0.0223     0.1720 </r>
       <r>    -2.3416     0.1102     0.1876 </r>
       <r>    -2.2003     0.1383     0.2071 </r>
       <r>    -2.0590     0.2264     0.2391 </r>
       <r>    -1.9177     0.2162     0.2697 </r>
       <r>    -1.7764     0.0416     0.2756 </r>
       <r>    -1.6351     0.2282     0.3078 </r>
       <r>    -1.4938     0.2298     0.3403 </r>
       <r>    -1.3525     0.1180     0.3569 </r>
       <r>    -1.2112     0.0051     0.3577 </r>
       <r>    -1.0699     0.4626     0.4230 </r>
       <r>    -0.9286     0.1389     0.4427 </r>
       <r>    -0.7872     0.3119     0.4867 </r>
       <r>    -0.6459     0.0733     0.4971 </r>
       <r>    -0.5046     0.1555     0.5191 </r>
       <r>    -0.3633     0.2276     0.5512 </r>
       <r>    -0.2220     0.2532     0.5870 </r>
       <r>    -0.0807     0.2612     0.6239 </r>
       <r>     0.0606     0.0278     0.6278 </r>
       <r>     0.2019     0.2421     0.6620 </r>
       <r>     0.3432     0.3582     0.7126 </r>
       <r>     0.4845     0.3563     0.7630 </r>
       <r>     0.6258     0.0091     0.7643 </r>
       <r>     0.7671     0.4588     0.8291 </r>
       <r>     0.9084     0.1423     0.8492 </r>
       <r>     1.0498     0.4127     0.9075 </r>
       <r>     1.1911     0.0972     0.9213 </r>
       <r>     1.3324     0.1510     0.9426 </r>
       <r>     1.4737     0.2398     0.9765 </r>
       <r>     1.6150     0.3220     1.0220 </r>
       <r>     1.7563     0.3187     1.0670 </r>
       <r>     1.8976     0.0944     1.0804 </r>
       <r>     2.0389     0.4728     1.1472 </r>
       <r>     2.1802     0.3507     1.1968 </r>
       <r>     2.3215     0.2261     1.2287 </r>
       <r>     2.4628     0.0212     1.2317 </r>
       <r>     2.6041     0.7102     1.3321 </r>
       <r>     2.7454     0.2510     1.3675 </r>
       <r>     2.8868     0.2432     1.4019 </r>
       <r>     3.0281     0.0148     1.4040 </r>
       <r>     3.1694     0.2644     1.4413 </r>
       <r>     3.3107     0.3420     1.4897 </r>
       <r>     3.4520     0.5071     1.5613 </r>
       <r>     3.5933     0.2557     1.5974 </r>
       <r>     3.7346     0.4928     1.6671 </r>
       <r>     3.8759     0.3801     1.7208 </r>
       <r>     4.0172     0.0945     1.7342 </r>
       <r>     4.1585     0.2588     1.7707 </r>
       <r>     4.2998     0.2403     1.8047 </r>
       <r>     4.4411     0.5260     1.8790 </r>
       <r>     4.5824     0.1060     1.8940 </r>
       <r>     4.7238     0.4566     1.9585 </r>
       <r>     4.8651     0.1615     1.9813 </r>
       <r>     5.0064     0.4483     2.0447 </r>
       <r>     5.1477     0.3849     2.0991 </r>
       <r>     5.2890     0.2588     2.1356 </r>
       <r>     5.4303     0.2479     2.1707 </r>
       <r>     5.5716     0.7249     2.2731 </r>
       <r>     5.7129     0.3799     2.3268 </r>
       <r>     5.8542     0.3498     2.3762 </r>
       <r>     5.9955     0.2340     2.4093 </r>
       <r>     6.1368     0.2266     2.4413 </r>
       <r>     6.2781     0.3775     2.4947 </r>
       <r>     6.4194     0.4302     2.5554 </r>
       <r>     6.5608     0.2066     2.5846 </r>
       <r>     6.7021     0.2754     2.6235 </r>
       <r>     6.8434     0.4733     2.6904 </r>
       <r>     6.9847     0.3745     2.7433 </r>
       <r>     7.1260     0.4619     2.8086 </r>
       <r>     7.2673     0.2414     2.8427 </r>
       <r>     7.4086     0.9022     2.9702 </r>
       <r>     7.5499     0.1449     2.9907 </r>
       <r>     7.6912     0.4028     3.0476 </r>
       <r>     7.8325     0.1552     3.0695 </r>
       <r>     7.9738     0.8673     3.1921 </r>
       <r>     8.1151     0.2766     3.2312 </r>
       <r>     8.2564     0.2583     3.2677 </r>
       <r>     8.3978     0.1974     3.2956 </r>
       <r>     8.5391     0.4120     3.3538 </r>
       <r>     8.6804     0.7245     3.4562 </r>
       <r>     8.8217     0.4834     3.5245 </r>
       <r>     8.9630     0.3873     3.5792 </r>
       <r>     9.1043     0.2503     3.6146 </r>
       <r>     9.2456     0.2982     3.6567 </r>
       <r>     9.3869     0.4822     3.7248 </r>
       <r>     9.5282     0.3549     3.7750 </r>
       <r>     9.6695     0.8275     3.8919 </r>
       <r>     9.8108     0.6154     3.9789 </r>
       <r>     9.9521     0.5289     4.0536 </r>
       <r>    10.0934     0.4530     4.1176 </r>
       <r>    10.2347     0.2682     4.1555 </r>
       <r>    10.3761     0.6003     4.2404 </r>
       <r>    10.5174     0.2079     4.2697 </r>
       <r>    10.6587     0.3137     4.3141 </r>
       <r>    10.8000     0.4875     4.3830 </r>
       <r>    10.9413     0.5386     4.4591 </r>
       <r>    11.0826     0.3343     4.5063 </r>
       <r>    11.2239     0.4074     4.5639 </r>
       <r>    11.3652     0.6492     4.6556 </r>
       <r>    11.5065     0.4368     4.7173 </r>
       <r>    11.6478     0.1423     4.7374 </r>
       <r>    11.7891     0.4053     4.7947 </r>
       <r>    11.9304     0.3980     4.8510 </r>
       <r>    12.0717     0.9192     4.9809 </r>
       <r>    12.2131     0.2779     5.0201 </r>
       <r>    12.3544     0.2179     5.0509 </r>
       <r>    12.4957     0.6560     5.1436 </r>
       <r>    12.6370     0.6602     5.2369 </r>
       <r>    12.7783     0.2950     5.2786 </r>
       <r>    12.9196     0.3468     5.3276 </r>
       <r>    13.0609     0.5669     5.4077 </r>
       <r>    13.2022     0.4517     5.4715 </r>
       <r>    13.3435     0.1399     5.4913 </r>
       <r>    13.4848     0.2614     5.5282 </r>
       <r>    13.6261     0.7919     5.6401 </r>
       <r>    13.7674     0.4807     5.7081 </r>
       <r>    13.9087     0.4097     5.7659 </r>
       <r>    14.0501     0.9188     5.8958 </r>
       <r>    14.1914     0.0490     5.9027 </r>
       <r>    14.3327     0.5422     5.9793 </r>
       <r>    14.4740     0.9712     6.1166 </r>
       <r>    14.6153     0.4066     6.1740 </r>
       <r>    14.7566     0.3682     6.2261 </r>
       <r>    14.8979     0.6841     6.3227 </r>
       <r>    15.0392     0.1248     6.3404 </r>
       <r>    15.1805     0.5232     6.4143 </r>
       <r>    15.3218     0.5131     6.4868 </r>
       <r>    15.4631     0.7262     6.5894 </r>
       <r>    15.6044     0.5332     6.6648 </r>
       <r>    15.7457     0.5617     6.7441 </r>
       <r>    15.8871     0.5614     6.8235 </r>
       <r>    16.0284     0.5717     6.9043 </r>
       <r>    16.1697     0.1556     6.9263 </r>
       <r>    16.3110     0.2072     6.9555 </r>
       <r>    16.4523     0.6830     7.0520 </r>
       <r>    16.5936     0.8492     7.1720 </r>
       <r>    16.7349     0.9893     7.3118 </r>
       <r>    16.8762     0.4545     7.3761 </r>
       <r>    17.0175     0.5082     7.4479 </r>
       <r>    17.1588     0.8894     7.5736 </r>
       <r>    17.3001     0.2465     7.6084 </r>
       <r>    17.4414     0.0777     7.6194 </r>
       <r>    17.5827     0.7949     7.7317 </r>
       <r>    17.7241     0.7084     7.8318 </r>
       <r>    17.8654     0.7894     7.9433 </r>
       <r>    18.0067     0.7054     8.0430 </r>
       <r>    18.1480     0.6615     8.1365 </r>
       <r>    18.2893     0.6966     8.2349 </r>
       <r>    18.4306     0.1434     8.2552 </r>
       <r>    18.5719     0.3156     8.2998 </r>
       <r>    18.7132     0.2370     8.3333 </r>
       <r>    18.8545     0.2419     8.3675 </r>
       <r>    18.9958     0.6021     8.4526 </r>
       <r>    19.1371     0.5937     8.5365 </r>
       <r>    19.2784     0.3443     8.5851 </r>
       <r>    19.4197     0.0861     8.5973 </r>
       <r>    19.5611     0.3052     8.6404 </r>
       <r>    19.7024     0.1702     8.6645 </r>
       <r>    19.8437     0.5815     8.7466 </r>
       <r>    19.9850     0.9602     8.8823 </r>
       <r>    20.1263     0.6955     8.9806 </r>
       <r>    20.2676     1.0660     9.1312 </r>
       <r>    20.4089     0.5728     9.2122 </r>
       <r>    20.5502     0.3226     9.2578 </r>
       <r>    20.6915     0.6045     9.3432 </r>
       <r>    20.8328     0.5835     9.4256 </r>
       <r>    20.9741     0.7448     9.5309 </r>
       <r>    21.1154     0.4338     9.5922 </r>
       <r>    21.2567     0.7082     9.6922 </r>
       <r>    21.3981     0.5134     9.7648 </r>
       <r>    21.5394     0.7209     9.8667 </r>
       <r>    21.6807     0.7522     9.9730 </r>
       <r>    21.8220     0.5723    10.0538 </r>
       <r>    21.9633     0.3186    10.0989 </r>
       <r>    22.1046     0.6278    10.1876 </r>
       <r>    22.2459     1.0146    10.3309 </r>
       <r>    22.3872     0.9098    10.4595 </r>
       <r>    22.5285     0.6785    10.5554 </r>
       <r>    22.6698     1.1389    10.7163 </r>
       <r>    22.8111     0.4702    10.7828 </r>
       <r>    22.9524     0.3697    10.8350 </r>
       <r>    23.0937     0.4449    10.8979 </r>
       <r>    23.2351     0.9388    11.0305 </r>
       <r>    23.3764     0.8903    11.1563 </r>
       <r>    23.5177     0.4926    11.2259 </r>
       <r>    23.6590     0.0892    11.2385 </r>
       <r>    23.8003     0.4565    11.3031 </r>
       <r>    23.9416     0.7185    11.4046 </r>
       <r>    24.0829     0.8169    11.5200 </r>
       <r>    24.2242     0.3071    11.5634 </r>
       <r>    24.3655     0.4553    11.6278 </r>
       <r>    24.5068     0.3295    11.6743 </r>
       <r>    24.6481     0.7475    11.7799 </r>
       <r>    24.7894     0.3347    11.8272 </r>
       <r>    24.9307     0.7693    11.9359 </r>
       <r>    25.0721     0.7686    12.0446 </r>
       <r>    25.2134     0.5908    12.1280 </r>
       <r>    25.3547     0.6746    12.2234 </r>
       <r>    25.4960     0.7703    12.3322 </r>
       <r>    25.6373     0.5892    12.4155 </r>
       <r>    25.7786     0.4500    12.4791 </r>
       <r>    25.9199     0.6566    12.5718 </r>
       <r>    26.0612     1.0973    12.7269 </r>
       <r>    26.2025     0.4619    12.7922 </r>
       <r>    26.3438     0.4330    12.8533 </r>
       <r>    26.4851     0.8889    12.9790 </r>
       <r>    26.6264     0.7902    13.0906 </r>
       <r>    26.7677     0.7538    13.1971 </r>
       <r>    26.9091     0.5296    13.2720 </r>
       <r>    27.0504     0.4102    13.3299 </r>
       <r>    27.1917     0.1898    13.3568 </r>
       <r>    27.3330     0.2249    13.3885 </r>
       <r>    27.4743     0.4411    13.4509 </r>
       <r>    27.6156     0.9881    13.5905 </r>
       <r>    27.7569     0.7164    13.6917 </r>
       <r>    27.8982     0.5329    13.7670 </r>
       <r>    28.0395     0.6996    13.8659 </r>
       <r>    28.1808     0.4823    13.9340 </r>
       <r>    28.3221     1.1368    14.0947 </r>
       <r>    28.4634     0.8672    14.2172 </r>
       <r>    28.6047     0.3732    14.2699 </r>
       <r>    28.7461     0.4359    14.3315 </r>
       <r>    28.8874     1.1778    14.4980 </r>
       <r>    29.0287     0.8077    14.6121 </r>
       <r>    29.1700     0.5762    14.6935 </r>
       <r>    29.3113     0.5190    14.7669 </r>
       <r>    29.4526     0.7198    14.8686 </r>
       <r>    29.5939     0.6227    14.9566 </r>
       <r>    29.7352     0.6069    15.0423 </r>
       <r>    29.8765     0.3789    15.0959 </r>
       <r>    30.0178     0.5660    15.1759 </r>
       <r>    30.1591     0.3193    15.2210 </r>
       <r>    30.3004     0.6403    15.3115 </r>
       <r>    30.4417     0.9542    15.4463 </r>
       <r>    30.5831     1.1021    15.6020 </r>
       <r>    30.7244     0.3653    15.6537 </r>
       <r>    30.8657     0.5165    15.7266 </r>
       <r>    31.0070     0.3481    15.7758 </r>
       <r>    31.1483     0.0605    15.7844 </r>
       <r>    31.2896     0.0630    15.7933 </r>
       <r>    31.4309     0.2898    15.8342 </r>
       <r>    31.5722     0.3082    15.8778 </r>
       <r>    31.7135     0.1116    15.8935 </r>
       <r>    31.8548     0.0095    15.8949 </r>
       <r>    31.9961     0.0349    15.8998 </r>
       <r>    32.1374     0.0574    15.9079 </r>
       <r>    32.2787     0.0944    15.9213 </r>
       <r>    32.4201     0.0003    15.9213 </r>
       <r>    32.5614     0.1200    15.9383 </r>
       <r>    32.7027     0.1161    15.9547 </r>
       <r>    32.8440     0.1468    15.9754 </r>
       <r>    32.9853     0.0295    15.9796 </r>
       <r>    33.1266     0.0252    15.9832 </r>
       <r>    33.2679     0.0161    15.9854 </r>
       <r>    33.4092     0.0000    15.9854 </r>
       <r>    33.5505     0.0000    15.9854 </r>
       <r>    33.6918     0.0000    15.9854 </r>
       <r>    33.8331     0.0000    15.9854 </r>
       <r>    33.9744     0.0017    15.9857 </r>
       <r>    34.1157     0.0297    15.9899 </r>
       <r>    34.2571     0.0328    15.9945 </r>
       <r>    34.3984     0.0387    16.0000 </r>
       <r>    34.5397     0.0002    16.0000 </r>
       <r>    34.6810     0.0000    16.0000 </r>
       <r>    34.8223     0.0000    16.0000 </r>
       <r>    34.9636     0.0000    16.0000 </r>
       <r>    35.1049     0.0000    16.0000 </r>
       <r>    35.2462     0.0000    16.0000 </r>
       <r>    35.3875     0.0000    16.0000 </r>
       <r>    35.5288     0.0000    16.0000 </r>
       <r>    35.6701     0.0000    16.0000 </r>
       <r>    35.8114     0.0000    16.0000 </r>
       <r>    35.9527     0.0000    16.0000 </r>
       <r>    36.0940     0.0000    16.0000 </r>
       <r>    36.2354     0.0000    16.0000 </r>
      </set>
     </set>
    </array>
   </total>
  </dos>
 </calculation>
 <structure name="finalpos" >
  <crystal>
   <varray name="basis" >
    <v>       1.53964613       1.53964613       1.53964613 </v>
    <v>       1.53964613      -1.53964613      -1.53964613 </v>
    <v>      -1.53964613       1.53964613      -1.53964613 </v>
   </varray>
   <i name="volume">     14.59898749 </i>
   <varray name="rec_basis" >
    <v>       0.32474995       0.32474995       0.00000000 </v>
    <v>       0.32474995       0.00000000      -0.32474995 </v>
    <v>       0.00000000       0.32474995      -0.32474995 </v>
   </varray>
  </crystal>
  <varray name="positions" >
   <v>       0.00000000       0.00000000       0.00000000 </v>
  </varray>
 </structure>
</modeling>
