   1   1   0   0
  0.1386300E+02  0.2621157E-09  0.2621157E-09  0.2621157E-09  0.5000000E-15
  1.000000000000000E-004
  CAR 
 unknown system                          
     36.06679016     -6.05816933  301     10.16859761      1.00000000
     -6.058  0.0000E+00  0.0000E+00
     -5.918  0.0000E+00  0.0000E+00
     -5.777  0.0000E+00  0.0000E+00
     -5.637  0.0000E+00  0.0000E+00
     -5.497  0.0000E+00  0.0000E+00
     -5.356  0.0000E+00  0.0000E+00
     -5.216  0.0000E+00  0.0000E+00
     -5.075  0.0000E+00  0.0000E+00
     -4.935  0.0000E+00  0.0000E+00
     -4.794  0.0000E+00  0.0000E+00
     -4.654  0.0000E+00  0.0000E+00
     -4.514  0.0000E+00  0.0000E+00
     -4.373  0.3456E-13  0.4853E-14
     -4.233  0.4911E-05  0.6895E-06
     -4.092  0.7862E-03  0.1111E-03
     -3.952  0.6416E-04  0.1201E-03
     -3.812  0.8663E-03  0.2417E-03
     -3.671  0.2727E-03  0.2800E-03
     -3.531  0.1689E-02  0.5172E-03
     -3.390  0.1729E-02  0.7600E-03
     -3.250  0.1296E-06  0.7600E-03
     -3.109  0.1479E-09  0.7600E-03
     -2.969  0.3315E-03  0.8065E-03
     -2.829  0.3919E-02  0.1357E-02
     -2.688  0.8309E-04  0.1368E-02
     -2.548  0.3252E-02  0.1825E-02
     -2.407  0.1157E-03  0.1841E-02
     -2.267  0.3012E-02  0.2264E-02
     -2.127  0.3966E-03  0.2320E-02
     -1.986  0.4073E-09  0.2320E-02
     -1.846  0.1511E-06  0.2320E-02
     -1.705  0.3111E-02  0.2757E-02
     -1.565  0.3725E-02  0.3280E-02
     -1.424  0.7848E-03  0.3390E-02
     -1.284  0.2632E-02  0.3760E-02
     -1.144  0.5918E-03  0.3843E-02
     -1.003  0.6216E-02  0.4716E-02
     -0.863  0.3119E-04  0.4720E-02
     -0.722  0.3017E-12  0.4720E-02
     -0.582  0.2240E-04  0.4723E-02
     -0.442  0.3913E-02  0.5273E-02
     -0.301  0.3411E-03  0.5321E-02
     -0.161  0.3613E-02  0.5828E-02
     -0.020  0.9423E-03  0.5960E-02
      0.120  0.6176E-02  0.6827E-02
      0.261  0.4078E-02  0.7400E-02
      0.401  0.1194E-06  0.7400E-02
      0.541  0.5638E-08  0.7400E-02
      0.682  0.1407E-02  0.7598E-02
      0.822  0.5424E-02  0.8359E-02
      0.963  0.6228E-03  0.8447E-02
      1.103  0.6191E-02  0.9316E-02
      1.243  0.1319E-03  0.9334E-02
      1.384  0.3253E-02  0.9791E-02
      1.524  0.6221E-04  0.9800E-02
      1.665  0.2356E-11  0.9800E-02
      1.805  0.3388E-04  0.9805E-02
      1.946  0.1194E-01  0.1148E-01
      2.086  0.1704E-02  0.1172E-01
      2.226  0.2523E-02  0.1207E-01
      2.367  0.8952E-03  0.1220E-01
      2.507  0.6321E-02  0.1309E-01
      2.648  0.3933E-02  0.1364E-01
      2.788  0.1014E-06  0.1364E-01
      2.928  0.2001E-07  0.1364E-01
      3.069  0.2147E-02  0.1394E-01
      3.209  0.6412E-02  0.1484E-01
      3.350  0.1366E-02  0.1503E-01
      3.490  0.3920E-02  0.1558E-01
      3.631  0.4195E-02  0.1617E-01
      3.771  0.3314E-02  0.1664E-01
      3.911  0.2836E-02  0.1704E-01
      4.052  0.5924E-03  0.1712E-01
      4.192  0.1240E-03  0.1714E-01
      4.333  0.6633E-02  0.1807E-01
      4.473  0.5097E-02  0.1878E-01
      4.613  0.1568E-03  0.1881E-01
      4.754  0.6254E-02  0.1968E-01
      4.894  0.4321E-02  0.2029E-01
      5.035  0.2652E-02  0.2066E-01
      5.175  0.2109E-02  0.2096E-01
      5.316  0.4360E-05  0.2096E-01
      5.456  0.7350E-02  0.2199E-01
      5.596  0.7457E-02  0.2304E-01
      5.737  0.1948E-05  0.2304E-01
      5.877  0.2625E-02  0.2341E-01
      6.018  0.4589E-02  0.2405E-01
      6.158  0.6939E-02  0.2503E-01
      6.298  0.1799E-02  0.2528E-01
      6.439  0.8430E-04  0.2529E-01
      6.579  0.1204E-02  0.2546E-01
      6.720  0.5810E-02  0.2628E-01
      6.860  0.4077E-03  0.2633E-01
      7.001  0.6647E-02  0.2727E-01
      7.141  0.7329E-02  0.2830E-01
      7.281  0.6477E-03  0.2839E-01
      7.422  0.6010E-02  0.2923E-01
      7.562  0.3488E-03  0.2928E-01
      7.703  0.1284E-02  0.2946E-01
      7.843  0.1373E-01  0.3139E-01
      7.983  0.3890E-02  0.3193E-01
      8.124  0.2362E-02  0.3227E-01
      8.264  0.5277E-02  0.3301E-01
      8.405  0.4728E-02  0.3367E-01
      8.545  0.3477E-03  0.3372E-01
      8.686  0.9005E-07  0.3372E-01
      8.826  0.1667E-02  0.3395E-01
      8.966  0.1731E-01  0.3638E-01
      9.107  0.4954E-02  0.3708E-01
      9.247  0.2961E-02  0.3750E-01
      9.388  0.3496E-02  0.3799E-01
      9.528  0.4035E-03  0.3804E-01
      9.668  0.4449E-02  0.3867E-01
      9.809  0.6545E-03  0.3876E-01
      9.949  0.1631E-02  0.3899E-01
     10.090  0.2416E-02  0.3933E-01
     10.230  0.8578E-02  0.4053E-01
     10.371  0.5160E-02  0.4126E-01
     10.511  0.5480E-02  0.4203E-01
     10.651  0.1337E-01  0.4390E-01
     10.792  0.2748E-02  0.4429E-01
     10.932  0.3274E-02  0.4475E-01
     11.073  0.2014E-03  0.4478E-01
     11.213  0.7062E-02  0.4577E-01
     11.353  0.7605E-02  0.4684E-01
     11.494  0.2040E-02  0.4712E-01
     11.634  0.2174E-02  0.4743E-01
     11.775  0.7703E-02  0.4851E-01
     11.915  0.4903E-02  0.4920E-01
     12.056  0.4160E-05  0.4920E-01
     12.196  0.1462E-02  0.4941E-01
     12.336  0.4953E-02  0.5010E-01
     12.477  0.3987E-02  0.5066E-01
     12.617  0.8090E-02  0.5180E-01
     12.758  0.5189E-02  0.5253E-01
     12.898  0.4820E-02  0.5320E-01
     13.038  0.2793E-02  0.5359E-01
     13.179  0.2886E-02  0.5400E-01
     13.319  0.3874E-02  0.5454E-01
     13.460  0.6537E-02  0.5546E-01
     13.600  0.3853E-02  0.5600E-01
     13.741  0.2715E-02  0.5638E-01
     13.881  0.5518E-02  0.5716E-01
     14.021  0.3305E-02  0.5762E-01
     14.162  0.4394E-02  0.5824E-01
     14.302  0.3331E-02  0.5871E-01
     14.443  0.3863E-02  0.5925E-01
     14.583  0.1814E-01  0.6180E-01
     14.723  0.6005E-02  0.6264E-01
     14.864  0.2823E-02  0.6304E-01
     15.004  0.1085E-01  0.6456E-01
     15.145  0.1327E-02  0.6475E-01
     15.285  0.1504E-02  0.6496E-01
     15.426  0.5738E-02  0.6576E-01
     15.566  0.7676E-02  0.6684E-01
     15.706  0.3316E-02  0.6731E-01
     15.847  0.3320E-02  0.6777E-01
     15.987  0.7635E-03  0.6788E-01
     16.128  0.4135E-02  0.6846E-01
     16.268  0.3815E-02  0.6900E-01
     16.408  0.7622E-02  0.7007E-01
     16.549  0.7787E-02  0.7116E-01
     16.689  0.7857E-02  0.7226E-01
     16.830  0.1712E-02  0.7250E-01
     16.970  0.5537E-02  0.7328E-01
     17.111  0.8435E-02  0.7447E-01
     17.251  0.3634E-02  0.7498E-01
     17.391  0.4116E-02  0.7555E-01
     17.532  0.1578E-01  0.7777E-01
     17.672  0.4487E-02  0.7840E-01
     17.813  0.1688E-03  0.7842E-01
     17.953  0.4074E-02  0.7900E-01
     18.093  0.7561E-02  0.8006E-01
     18.234  0.1402E-01  0.8203E-01
     18.374  0.3666E-02  0.8254E-01
     18.515  0.3227E-02  0.8299E-01
     18.655  0.3935E-04  0.8300E-01
     18.796  0.2150E-07  0.8300E-01
     18.936  0.1437E-02  0.8320E-01
     19.076  0.8475E-02  0.8439E-01
     19.217  0.8595E-02  0.8560E-01
     19.357  0.8426E-02  0.8678E-01
     19.498  0.8498E-02  0.8798E-01
     19.638  0.1032E-02  0.8812E-01
     19.778  0.2455E-05  0.8812E-01
     19.919  0.7922E-03  0.8823E-01
     20.059  0.6250E-02  0.8911E-01
     20.200  0.3167E-02  0.8955E-01
     20.340  0.9385E-02  0.9087E-01
     20.481  0.1152E-02  0.9103E-01
     20.621  0.6217E-02  0.9191E-01
     20.761  0.3712E-02  0.9243E-01
     20.902  0.8468E-02  0.9362E-01
     21.042  0.8236E-02  0.9477E-01
     21.183  0.5753E-02  0.9558E-01
     21.323  0.5629E-02  0.9637E-01
     21.463  0.4215E-02  0.9696E-01
     21.604  0.1838E-01  0.9954E-01
     21.744  0.6474E-02  0.1005E+00
     21.885  0.1900E-02  0.1007E+00
     22.025  0.5118E-03  0.1008E+00
     22.166  0.1318E-01  0.1026E+00
     22.306  0.6754E-02  0.1036E+00
     22.446  0.2595E-02  0.1040E+00
     22.587  0.7872E-02  0.1051E+00
     22.727  0.1073E-01  0.1066E+00
     22.868  0.9740E-02  0.1079E+00
     23.008  0.5352E-02  0.1087E+00
     23.148  0.1167E-01  0.1103E+00
     23.289  0.1118E-01  0.1119E+00
     23.429  0.6059E-02  0.1127E+00
     23.570  0.3846E-02  0.1133E+00
     23.710  0.8222E-03  0.1134E+00
     23.851  0.1031E-03  0.1134E+00
     23.991  0.3066E-02  0.1138E+00
     24.131  0.1104E-02  0.1140E+00
     24.272  0.3204E-05  0.1140E+00
     24.412  0.5551E-02  0.1148E+00
     24.553  0.5804E-02  0.1156E+00
     24.693  0.8509E-02  0.1168E+00
     24.833  0.1802E-01  0.1193E+00
     24.974  0.6670E-02  0.1203E+00
     25.114  0.7387E-03  0.1204E+00
     25.255  0.4537E-06  0.1204E+00
     25.395  0.2209E-02  0.1207E+00
     25.536  0.1113E-01  0.1222E+00
     25.676  0.7966E-02  0.1234E+00
     25.816  0.5820E-02  0.1242E+00
     25.957  0.1514E-01  0.1263E+00
     26.097  0.6631E-02  0.1272E+00
     26.238  0.7834E-02  0.1283E+00
     26.378  0.6028E-02  0.1292E+00
     26.518  0.6130E-02  0.1300E+00
     26.659  0.7553E-02  0.1311E+00
     26.799  0.3634E-02  0.1316E+00
     26.940  0.5953E-02  0.1324E+00
     27.080  0.6680E-02  0.1334E+00
     27.221  0.4101E-02  0.1340E+00
     27.361  0.1361E-02  0.1341E+00
     27.501  0.6953E-02  0.1351E+00
     27.642  0.4374E-02  0.1357E+00
     27.782  0.2063E-02  0.1360E+00
     27.923  0.9844E-02  0.1374E+00
     28.063  0.8696E-02  0.1386E+00
     28.203  0.6215E-02  0.1395E+00
     28.344  0.1274E-02  0.1397E+00
     28.484  0.5102E-02  0.1404E+00
     28.625  0.1514E-01  0.1425E+00
     28.765  0.5105E-02  0.1432E+00
     28.906  0.1185E-01  0.1449E+00
     29.046  0.1023E-02  0.1450E+00
     29.186  0.9389E-02  0.1464E+00
     29.327  0.3736E-03  0.1464E+00
     29.467  0.6571E-02  0.1473E+00
     29.608  0.1086E-01  0.1489E+00
     29.748  0.9575E-02  0.1502E+00
     29.888  0.1147E-01  0.1518E+00
     30.029  0.4376E-02  0.1524E+00
     30.169  0.2578E-02  0.1528E+00
     30.310  0.6054E-02  0.1536E+00
     30.450  0.3397E-02  0.1541E+00
     30.591  0.9241E-02  0.1554E+00
     30.731  0.1809E-02  0.1557E+00
     30.871  0.1435E-02  0.1559E+00
     31.012  0.8236E-02  0.1570E+00
     31.152  0.8801E-03  0.1572E+00
     31.293  0.4167E-02  0.1577E+00
     31.433  0.8841E-03  0.1579E+00
     31.573  0.4108E-02  0.1584E+00
     31.714  0.7041E-02  0.1594E+00
     31.854  0.5713E-04  0.1594E+00
     31.995  0.9539E-12  0.1594E+00
     32.135  0.0000E+00  0.1594E+00
     32.276  0.0000E+00  0.1594E+00
     32.416  0.0000E+00  0.1594E+00
     32.556  0.1417E-11  0.1594E+00
     32.697  0.2650E-04  0.1594E+00
     32.837  0.1086E-02  0.1596E+00
     32.978  0.2713E-04  0.1596E+00
     33.118  0.1506E-11  0.1596E+00
     33.258  0.0000E+00  0.1596E+00
     33.399  0.8411E-16  0.1596E+00
     33.539  0.3104E-06  0.1596E+00
     33.680  0.6177E-03  0.1597E+00
     33.820  0.2375E-03  0.1597E+00
     33.961  0.6986E-03  0.1598E+00
     34.101  0.2398E-03  0.1599E+00
     34.241  0.1048E-02  0.1600E+00
     34.382  0.6547E-05  0.1600E+00
     34.522  0.4608E-13  0.1600E+00
     34.663  0.0000E+00  0.1600E+00
     34.803  0.0000E+00  0.1600E+00
     34.943  0.0000E+00  0.1600E+00
     35.084  0.0000E+00  0.1600E+00
     35.224  0.0000E+00  0.1600E+00
     35.365  0.0000E+00  0.1600E+00
     35.505  0.0000E+00  0.1600E+00
     35.646  0.0000E+00  0.1600E+00
     35.786  0.0000E+00  0.1600E+00
     35.926  0.0000E+00  0.1600E+00
     36.067  0.0000E+00  0.1600E+00
