    1    1  100    1
  0.1386300E+02  0.2621157E-09  0.2621157E-09  0.2621157E-09  0.5000000E-15
  1.000000000000000E-004
  CAR 
 unknown system                          
      4     44      8
 
  0.5000000E-01  0.5000000E-01  0.5000000E-01  0.8000000E-02
    1       -3.836570   1.000000
    2       18.086295   0.000000
    3       19.081606   0.000000
    4       19.081606   0.000000
    5       23.168796   0.000000
    6       23.168796   0.000000
    7       25.497572   0.000000
    8       25.497572   0.000000
 
  0.1500000E+00  0.5000000E-01  0.5000000E-01  0.2400000E-01
    1       -2.918769   1.000000
    2       14.448574   0.000000
    3       16.684796   0.000000
    4       17.536104   0.000000
    5       22.468664   0.000000
    6       23.285103   0.000000
    7       26.011242   0.000000
    8       26.399295   0.000000
 
  0.2500000E+00  0.5000000E-01  0.5000000E-01  0.2400000E-01
    1       -1.398239   1.000000
    2       10.351746   0.000000
    3       15.335283   0.000000
    4       16.249949   0.000000
    5       21.604541   0.000000
    6       22.232935   0.000000
    7       27.508376   0.000000
    8       27.839294   0.000000
 
  0.3500000E+00  0.5000000E-01  0.5000000E-01  0.2400000E-01
    1        0.710312   1.000000
    2        6.631436   1.000000
    3       14.535248   0.000000
    4       15.440387   0.000000
    5       20.964536   0.000000
    6       21.511495   0.000000
    7       29.093960   0.000000
    8       29.786245   0.000000
 
  0.4500000E+00  0.5000000E-01  0.5000000E-01  0.1200000E-01
    1        3.208467   1.000000
    2        3.589669   1.000000
    3       14.268545   0.000000
    4       15.165797   0.000000
    5       20.735754   0.000000
    6       21.261993   0.000000
    7       30.366788   0.000000
    8       30.997651   0.000000
 
 -0.5000000E-01  0.5000000E-01  0.5000000E-01  0.6000000E-02
    1       -4.143398   1.000000
    2       19.993432   0.000000
    3       19.993433   0.000000
    4       20.788012   0.000000
    5       22.702957   0.000000
    6       23.551521   0.000000
    7       23.551521   0.000000
    8       24.558927   0.000000
 
  0.1500000E+00  0.1500000E+00  0.5000000E-01  0.2400000E-01
    1       -1.701386   1.000000
    2       12.637114   0.000000
    3       13.074459   0.000000
    4       15.643004   0.000000
    5       23.399609   0.000000
    6       24.406388   0.000000
    7       26.472871   0.000000
    8       27.625675   0.000000
 
  0.2500000E+00  0.1500000E+00  0.5000000E-01  0.4800000E-01
    1        0.110990   1.000000
    2        8.929755   1.000000
    3       11.755985   0.000000
    4       14.567647   0.000000
    5       23.123953   0.000000
    6       24.721399   0.000000
    7       27.391618   0.000000
    8       29.767517   0.000000
 
  0.3500000E+00  0.1500000E+00  0.5000000E-01  0.4800000E-01
    1        2.497118   1.000000
    2        5.470062   1.000000
    3       11.189892   0.000000
    4       14.023733   0.000000
    5       22.737275   0.000000
    6       24.803859   0.000000
    7       28.827096   0.000000
    8       30.548299   0.000000
 
 -0.1500000E+00  0.1500000E+00  0.5000000E-01  0.2400000E-01
    1       -3.530161   1.000000
    2       16.486634   0.000000
    3       18.045355   0.000000
    4       20.020677   0.000000
    5       21.538099   0.000000
    6       22.689217   0.000000
    7       24.382628   0.000000
    8       26.243513   0.000000
 
  0.2500000E+00  0.2500000E+00  0.5000000E-01  0.2400000E-01
    1        2.203825   1.000000
    2        7.928667   1.000000
    3        8.231659   1.000000
    4       13.753816   0.000000
    5       24.434897   0.000000
    6       25.481850   0.000000
    7       29.131941   0.000000
    8       29.855952   0.000000
 
  0.3500000E+00  0.2500000E+00  0.5000000E-01  0.2400000E-01
    1        4.691945   1.000000
    2        5.045269   1.000000
    3        7.803543   1.000000
    4       13.481850   0.000000
    5       24.627081   0.000000
    6       26.628942   0.000000
    7       27.946689   0.000000
    8       30.921370   0.000000
 
 -0.2500000E+00  0.2500000E+00  0.5000000E-01  0.2400000E-01
    1       -2.309176   1.000000
    2       12.295435   0.000000
    3       16.487351   0.000000
    4       18.950001   0.000000
    5       20.062532   0.000000
    6       21.749260   0.000000
    7       24.946051   0.000000
    8       28.779886   0.000000
 
 -0.1500000E+00  0.2500000E+00  0.5000000E-01  0.2400000E-01
    1       -2.613692   1.000000
    2       14.480745   0.000000
    3       14.846046   0.000000
    4       19.067428   0.000000
    5       21.337590   0.000000
    6       21.579501   0.000000
    7       25.705887   0.000000
    8       26.837565   0.000000
 
 -0.3500000E+00  0.3500000E+00  0.5000000E-01  0.2400000E-01
    1       -0.491592   1.000000
    2        8.359765   1.000000
    3       15.436126   0.000000
    4       18.026683   0.000000
    5       18.987012   0.000000
    6       21.007376   0.000000
    7       26.257678   0.000000
    8       30.308606   0.000000
 
 -0.2500000E+00  0.3500000E+00  0.5000000E-01  0.4800000E-01
    1       -1.095358   1.000000
    2       10.614542   0.000000
    3       13.313474   0.000000
    4       18.153245   0.000000
    5       20.253588   0.000000
    6       22.081329   0.000000
    7       25.622762   0.000000
    8       29.399934   0.000000
 
 -0.4500000E+00  0.4500000E+00  0.5000000E-01  0.2400000E-01
    1        1.900829   1.000000
    2        4.884715   1.000000
    3       14.908428   0.000000
    4       17.530076   0.000000
    5       18.434360   0.000000
    6       20.577880   0.000000
    7       28.178465   0.000000
    8       30.239619   0.000000
 
 -0.3500000E+00  0.4500000E+00  0.5000000E-01  0.4800000E-01
    1        1.010000   1.000000
    2        6.916287   1.000000
    3       12.480535   0.000000
    4       17.464877   0.000000
    5       19.461133   0.000000
    6       22.893344   0.000000
    7       25.840269   0.000000
    8       29.601011   0.000000
 
 -0.2500000E+00  0.4500000E+00  0.5000000E-01  0.2400000E-01
    1        0.711406   1.000000
    2        9.344441   1.000000
    3        9.634685   1.000000
    4       17.503382   0.000000
    5       21.154425   0.000000
    6       21.607749   0.000000
    7       27.912562   0.000000
    8       28.675708   0.000000
 
 -0.4500000E+00 -0.4500000E+00  0.5000000E-01  0.2400000E-01
    1        3.508621   1.000000
    2        3.878126   1.000000
    3       12.202653   0.000000
    4       17.223376   0.000000
    5       19.189129   0.000000
    6       23.122548   0.000000
    7       27.055868   0.000000
    8       27.898351   0.000000
 
 -0.3500000E+00 -0.4500000E+00  0.5000000E-01  0.4800000E-01
    1        3.089400   1.000000
    2        6.044701   1.000000
    3        8.925536   1.000000
    4       17.065025   0.000000
    5       20.867928   0.000000
    6       23.265855   0.000000
    7       25.860400   0.000000
    8       29.551026   0.000000
 
 -0.3500000E+00 -0.3500000E+00  0.5000000E-01  0.8000000E-02
    1        5.438264   1.000000
    2        5.905237   1.000000
    3        5.905237   1.000000
    4       16.867171   0.000000
    5       22.493449   0.000000
    6       23.530437   0.000000
    7       23.530437   0.000000
    8       32.767178   0.000000
 
  0.1500000E+00  0.1500000E+00  0.1500000E+00  0.8000000E-02
    1       -0.189691   1.000000
    2       11.115736   0.000000
    3       11.703277   0.000000
    4       11.703277   0.000000
    5       26.130447   0.000000
    6       26.130447   0.000000
    7       28.173513   0.000000
    8       28.173513   0.000000
 
  0.2500000E+00  0.1500000E+00  0.1500000E+00  0.2400000E-01
    1        1.906887   1.000000
    2        7.784110   1.000000
    3       10.494090   0.000000
    4       10.860230   0.000000
    5       26.553322   0.000000
    6       26.818842   0.000000
    7       29.915245   0.000000
    8       30.045060   0.000000
 
  0.3500000E+00  0.1500000E+00  0.1500000E+00  0.1200000E-01
    1        4.399985   1.000000
    2        4.757349   1.000000
    3       10.204707   0.153549
    4       10.577296   0.000000
    5       26.597677   0.000000
    6       26.766118   0.000000
    7       30.880153   0.000000
    8       31.438161   0.000000
 
 -0.1500000E+00  0.1500000E+00  0.1500000E+00  0.6000000E-02
    1       -2.918652   1.000000
    2       16.104559   0.000000
    3       16.104559   0.000000
    4       17.852806   0.000000
    5       19.876130   0.000000
    6       23.892133   0.000000
    7       25.470952   0.000000
    8       25.470952   0.000000
 
  0.2500000E+00  0.2500000E+00  0.1500000E+00  0.2400000E-01
    1        4.269137   1.000000
    2        7.067353   1.000000
    3        7.376394   1.000000
    4       10.124934   0.891585
    5       28.065184   0.000000
    6       29.093854   0.000000
    7       30.535441   0.000000
    8       31.202827   0.000000
 
 -0.2500000E+00  0.2500000E+00  0.1500000E+00  0.2400000E-01
    1       -1.701147   1.000000
    2       12.747383   0.000000
    3       14.512201   0.000000
    4       16.964747   0.000000
    5       19.158159   0.000000
    6       23.088497   0.000000
    7       25.490629   0.000000
    8       28.501613   0.000000
 
 -0.3500000E+00  0.3500000E+00  0.1500000E+00  0.2400000E-01
    1        0.110990   1.000000
    2        8.910536   1.000000
    3       13.432603   0.000000
    4       16.021492   0.000000
    5       20.243175   0.000000
    6       22.088042   0.000000
    7       24.857855   0.000000
    8       28.858150   0.000000
 
 -0.2500000E+00  0.3500000E+00  0.1500000E+00  0.2400000E-01
    1       -0.189591   1.000000
    2       11.244217   0.000000
    3       11.485714   0.000000
    4       16.944244   0.000000
    5       18.157742   0.000000
    6       22.795485   0.000000
    7       27.140809   0.000000
    8       27.938428   0.000000
 
 -0.4500000E+00  0.4500000E+00  0.1500000E+00  0.2400000E-01
    1        2.496061   1.000000
    2        5.463494   1.000000
    3       12.889870   0.000000
    4       15.486774   0.000000
    5       21.516905   0.000000
    6       21.560662   0.000000
    7       24.582607   0.000000
    8       26.994516   0.000000
 
 -0.3500000E+00  0.4500000E+00  0.1500000E+00  0.4800000E-01
    1        1.905593   1.000000
    2        7.759551   1.000000
    3       10.529338   0.000000
    4       16.583366   0.000000
    5       19.305035   0.000000
    6       22.165210   0.000000
    7       24.741616   0.000000
    8       28.573747   0.000000
 
 -0.4500000E+00 -0.4500000E+00  0.1500000E+00  0.2400000E-01
    1        4.402371   1.000000
    2        4.740080   1.000000
    3       10.245172   0.015161
    4       16.347111   0.000000
    5       20.505569   0.000000
    6       22.451298   0.000000
    7       22.630805   0.000000
    8       28.457998   0.000000
 
 -0.3500000E+00 -0.4500000E+00  0.1500000E+00  0.2400000E-01
    1        4.263809   1.000000
    2        7.061267   1.000000
    3        7.320128   1.000000
    4       17.887357   0.000000
    5       19.370971   0.000000
    6       21.312179   0.000000
    7       22.577641   0.000000
    8       31.634616   0.000000
 
  0.2500000E+00  0.2500000E+00  0.2500000E+00  0.2000000E-02
    1        6.457917   1.000000
    2        7.089821   1.000000
    3        7.089821   1.000000
    4        7.089821   1.000000
    5       31.241640   0.000000
    6       31.241640   0.000000
    7       31.241694   0.000000
    8       31.255821   0.000000
 
 -0.2500000E+00  0.2500000E+00  0.2500000E+00  0.6000000E-02
    1       -0.490802   1.000000
    2       12.898791   0.000000
    3       12.898791   0.000000
    4       14.936248   0.000000
    5       16.198299   0.000000
    6       26.261551   0.000000
    7       26.984748   0.000000
    8       27.688195   0.000000
 
 -0.3500000E+00  0.3500000E+00  0.2500000E+00  0.2400000E-01
    1        1.309927   1.000000
    2        9.951339   1.000000
    3       11.807770   0.000000
    4       14.297034   0.000000
    5       16.330084   0.000000
    6       23.974651   0.000000
    7       25.872163   0.000000
    8       28.513032   0.000000
 
 -0.4500000E+00  0.4500000E+00  0.2500000E+00  0.2400000E-01
    1        3.678036   1.000000
    2        6.606231   1.000000
    3       11.259477   0.000000
    4       13.785624   0.000000
    5       18.247834   0.000000
    6       21.062206   0.000000
    7       25.383721   0.000000
    8       28.515348   0.000000
 
 -0.3500000E+00  0.4500000E+00  0.2500000E+00  0.2400000E-01
    1        3.385847   1.000000
    2        9.002141   1.000000
    3        9.208465   1.000000
    4       14.934334   0.000000
    5       15.790897   0.000000
    6       20.758525   0.000000
    7       26.162725   0.000000
    8       30.911012   0.000000
 
 -0.4500000E+00 -0.4500000E+00  0.2500000E+00  0.2400000E-01
    1        5.865946   1.000000
    2        6.160288   1.000000
    3        8.828547   1.000000
    4       14.976580   0.000000
    5       17.454867   0.000000
    6       18.218963   0.000000
    7       25.993036   0.000000
    8       31.544771   0.000000
 
 -0.3500000E+00  0.3500000E+00  0.3500000E+00  0.6000000E-02
    1        3.091214   1.000000
    2       10.710192   0.000000
    3       10.710192   0.000000
    4       12.781092   0.000000
    5       13.721128   0.000000
    6       20.498237   0.000000
    7       29.706750   0.000000
    8       30.666971   0.000000
 
 -0.4500000E+00  0.4500000E+00  0.3500000E+00  0.2400000E-01
    1        5.424389   1.000000
    2        8.246846   1.000000
    3       10.159658   0.599812
    4       12.576966   0.000000
    5       14.586879   0.000000
    6       17.299827   0.000000
    7       29.653309   0.000000
    8       31.620776   0.000000
 
 -0.4500000E+00 -0.4500000E+00  0.3500000E+00  0.8000000E-02
    1        7.745612   1.000000
    2        8.064058   1.000000
    3        8.064058   1.000000
    4       13.598800   0.000000
    5       14.597391   0.000000
    6       14.597391   0.000000
    7       30.204180   0.000000
    8       34.152019   0.000000
 
 -0.4500000E+00  0.4500000E+00  0.4500000E+00  0.6000000E-02
    1        7.662063   1.000000
    2        9.608070   1.000000
    3        9.608070   1.000000
    4       11.599056   0.000000
    5       12.476984   0.000000
    6       14.075185   0.000000
    7       33.658771   0.000000
    8       33.928378   0.000000
