unknown system                          
   1.00000000000000     
     2.797208   -0.000000    0.000000
     0.000000    2.797208    0.000000
    -0.000000   -0.000000    2.797208
   Fe
     2
Direct
  0.000000  0.000000  0.000000
  0.500000  0.500000  0.500000
 
   36   36   36
  199.00      194.03      179.82      158.32      132.28      104.72      78.380      55.398      37.069      23.823    
  15.311      10.585      8.3697      7.2856      6.5147      5.9922      5.6714      5.5084      5.4562      5.5084    
  5.6714      5.9922      6.5147      7.2856      8.3697      10.585      15.311      23.823      37.069      55.398    
  78.380      104.72      132.28      158.32      179.82      194.03      194.03      189.20      175.39      154.48    
  129.13      102.26      76.570      54.133      36.244      23.328      15.052      10.473      8.3336      7.2691    
  6.5046      5.9887      5.6716      5.5111      5.4592      5.5111      5.6716      5.9887      6.5046      7.2691    
  8.3336      10.473      15.052      23.328      36.244      54.133      76.570      102.26      129.13      154.48    
  175.39      189.20      179.82      175.39      162.72      143.47      120.07      95.195      71.340      50.481    
  33.861      21.910      14.313      10.162      8.2321      7.2193      6.4747      5.9780      5.6721      5.5185    
  5.4681      5.5185      5.6721      5.9780      6.4747      7.2193      8.2321      10.162      14.313      21.910    
  33.861      50.481      71.340      95.195      120.07      143.47      162.72      175.39      158.32      154.48    
  143.47      126.70      106.22      84.336      63.282      44.851      30.206      19.758      13.215      9.7141    
  8.0806      7.1346      6.4265      5.9599      5.6731      5.5294      5.4823      5.5294      5.6731      5.9599    
  6.4265      7.1346      8.0806      9.7141      13.215      19.758      30.206      44.851      63.282      84.336    
  106.22      126.70      143.47      154.48      132.28      129.13      120.07      106.22      89.200      70.940    
  53.318      37.905      25.734      17.176      11.938      9.2136      7.8932      7.0148      6.3632      5.9343    
  5.6746      5.5420      5.5004      5.5420      5.6746      5.9343      6.3632      7.0148      7.8932      9.2136    
  11.938      17.176      25.734      37.905      53.318      70.940      89.200      106.22      120.07      129.13    
  104.72      102.26      95.195      84.336      70.940      56.516      42.588      30.471      21.025      14.534    
  10.689      8.7367      7.6707      6.8657      6.2872      5.9030      5.6752      5.5550      5.5202      5.5550    
  5.6752      5.9030      6.2872      6.8657      7.6707      8.7367      10.689      14.534      21.025      30.471    
  42.588      56.516      70.940      84.336      95.195      102.26      78.380      76.570      71.340      63.282    
  53.318      42.588      32.283      23.426      16.672      12.190      9.6396      8.3088      7.4083      6.7001    
  6.2008      5.8694      5.6726      5.5681      5.5377      5.5681      5.6726      5.8694      6.2008      6.7001    
  7.4083      8.3088      9.6396      12.190      16.672      23.426      32.283      42.588      53.318      63.282    
  71.340      76.570      55.398      54.133      50.481      44.851      37.905      30.471      23.426      17.505    
  13.153      10.389      8.8519      7.8949      7.1193      6.5294      6.1091      5.8349      5.6662      5.5794    
  5.5510      5.5794      5.6662      5.8349      6.1091      6.5294      7.1193      7.8949      8.8519      10.389    
  13.153      17.505      23.426      30.471      37.905      44.851      50.481      54.133      37.069      36.244    
  33.861      30.206      25.734      21.025      16.672      13.153      10.685      9.1791      8.2354      7.4651    
  6.8346      6.3586      6.0218      5.7973      5.6587      5.5842      5.5611      5.5842      5.6587      5.7973    
  6.0218      6.3586      6.8346      7.4651      8.2354      9.1791      10.685      13.153      16.672      21.025    
  25.734      30.206      33.861      36.244      23.823      23.328      21.910      19.758      17.176      14.534    
  12.190      10.389      9.1791      8.3588      7.6609      7.0535      6.5680      6.2009      5.9385      5.7598    
  5.6467      5.5842      5.5645      5.5842      5.6467      5.7598      5.9385      6.2009      6.5680      7.0535    
  7.6609      8.3588      9.1791      10.389      12.190      14.534      17.176      19.758      21.910      23.328    
  15.311      15.052      14.313      13.215      11.938      10.689      9.6396      8.8519      8.2354      7.6609    
  7.1333      6.6882      6.3316      6.0606      5.8621      5.7230      5.6307      5.5783      5.5611      5.5783    
  5.6307      5.7230      5.8621      6.0606      6.3316      6.6882      7.1333      7.6609      8.2354      8.8519    
  9.6396      10.689      11.938      13.215      14.313      15.052      10.585      10.473      10.162      9.7141    
  9.2136      8.7367      8.3088      7.8949      7.4651      7.0535      6.6882      6.3797      6.1320      5.9392    
  5.7927      5.6843      5.6096      5.5655      5.5510      5.5655      5.6096      5.6843      5.7927      5.9392    
  6.1320      6.3797      6.6882      7.0535      7.4651      7.8949      8.3088      8.7367      9.2136      9.7141    
  10.162      10.473      8.3697      8.3336      8.2321      8.0806      7.8932      7.6707      7.4083      7.1193    
  6.8346      6.5680      6.3316      6.1320      5.9680      5.8347      5.7279      5.6457      5.5863      5.5500    
  5.5377      5.5500      5.5863      5.6457      5.7279      5.8347      5.9680      6.1320      6.3316      6.5680    
  6.8346      7.1193      7.4083      7.6707      7.8932      8.0806      8.2321      8.3336      7.2856      7.2691    
  7.2193      7.1346      7.0148      6.8657      6.7001      6.5294      6.3586      6.2009      6.0606      5.9392    
  5.8347      5.7448      5.6698      5.6080      5.5607      5.5305      5.5202      5.5305      5.5607      5.6080    
  5.6698      5.7448      5.8347      5.9392      6.0606      6.2009      6.3586      6.5294      6.7001      6.8657    
  7.0148      7.1346      7.2193      7.2691      6.5147      6.5046      6.4747      6.4265      6.3632      6.2872    
  6.2008      6.1091      6.0218      5.9385      5.8621      5.7927      5.7279      5.6698      5.6169      5.5703    
  5.5329      5.5089      5.5004      5.5089      5.5329      5.5703      5.6169      5.6698      5.7279      5.7927    
  5.8621      5.9385      6.0218      6.1091      6.2008      6.2872      6.3632      6.4265      6.4747      6.5046    
  5.9922      5.9887      5.9780      5.9599      5.9343      5.9030      5.8694      5.8349      5.7973      5.7598    
  5.7230      5.6843      5.6457      5.6080      5.5703      5.5353      5.5070      5.4886      5.4823      5.4886    
  5.5070      5.5353      5.5703      5.6080      5.6457      5.6843      5.7230      5.7598      5.7973      5.8349    
  5.8694      5.9030      5.9343      5.9599      5.9780      5.9887      5.6714      5.6716      5.6721      5.6731    
  5.6746      5.6752      5.6726      5.6662      5.6587      5.6467      5.6307      5.6096      5.5863      5.5607    
  5.5329      5.5070      5.4861      5.4728      5.4681      5.4728      5.4861      5.5070      5.5329      5.5607    
  5.5863      5.6096      5.6307      5.6467      5.6587      5.6662      5.6726      5.6752      5.6746      5.6731    
  5.6721      5.6716      5.5084      5.5111      5.5185      5.5294      5.5420      5.5550      5.5681      5.5794    
  5.5842      5.5842      5.5783      5.5655      5.5500      5.5305      5.5089      5.4886      5.4728      5.4626    
  5.4592      5.4626      5.4728      5.4886      5.5089      5.5305      5.5500      5.5655      5.5783      5.5842    
  5.5842      5.5794      5.5681      5.5550      5.5420      5.5294      5.5185      5.5111      5.4562      5.4592    
  5.4681      5.4823      5.5004      5.5202      5.5377      5.5510      5.5611      5.5645      5.5611      5.5510    
  5.5377      5.5202      5.5004      5.4823      5.4681      5.4592      5.4562      5.4592      5.4681      5.4823    
  5.5004      5.5202      5.5377      5.5510      5.5611      5.5645      5.5611      5.5510      5.5377      5.5202    
  5.5004      5.4823      5.4681      5.4592      5.5084      5.5111      5.5185      5.5294      5.5420      5.5550    
  5.5681      5.5794      5.5842      5.5842      5.5783      5.5655      5.5500      5.5305      5.5089      5.4886    
  5.4728      5.4626      5.4592      5.4626      5.4728      5.4886      5.5089      5.5305      5.5500      5.5655    
  5.5783      5.5842      5.5842      5.5794      5.5681      5.5550      5.5420      5.5294      5.5185      5.5111    
  5.6714      5.6716      5.6721      5.6731      5.6746      5.6752      5.6726      5.6662      5.6587      5.6467    
  5.6307      5.6096      5.5863      5.5607      5.5329      5.5070      5.4861      5.4728      5.4681      5.4728    
  5.4861      5.5070      5.5329      5.5607      5.5863      5.6096      5.6307      5.6467      5.6587      5.6662    
  5.6726      5.6752      5.6746      5.6731      5.6721      5.6716      5.9922      5.9887      5.9780      5.9599    
  5.9343      5.9030      5.8694      5.8349      5.7973      5.7598      5.7230      5.6843      5.6457      5.6080    
  5.5703      5.5353      5.5070      5.4886      5.4823      5.4886      5.5070      5.5353      5.5703      5.6080    
  5.6457      5.6843      5.7230      5.7598      5.7973      5.8349      5.8694      5.9030      5.9343      5.9599    
  5.9780      5.9887      6.5147      6.5046      6.4747      6.4265      6.3632      6.2872      6.2008      6.1091    
  6.0218      5.9385      5.8621      5.7927      5.7279      5.6698      5.6169      5.5703      5.5329      5.5089    
  5.5004      5.5089      5.5329      5.5703      5.6169      5.6698      5.7279      5.7927      5.8621      5.9385    
  6.0218      6.1091      6.2008      6.2872      6.3632      6.4265      6.4747      6.5046      7.2856      7.2691    
  7.2193      7.1346      7.0148      6.8657      6.7001      6.5294      6.3586      6.2009      6.0606      5.9392    
  5.8347      5.7448      5.6698      5.6080      5.5607      5.5305      5.5202      5.5305      5.5607      5.6080    
  5.6698      5.7448      5.8347      5.9392      6.0606      6.2009      6.3586      6.5294      6.7001      6.8657    
  7.0148      7.1346      7.2193      7.2691      8.3697      8.3336      8.2321      8.0806      7.8932      7.6707    
  7.4083      7.1193      6.8346      6.5680      6.3316      6.1320      5.9680      5.8347      5.7279      5.6457    
  5.5863      5.5500      5.5377      5.5500      5.5863      5.6457      5.7279      5.8347      5.9680      6.1320    
  6.3316      6.5680      6.8346      7.1193      7.4083      7.6707      7.8932      8.0806      8.2321      8.3336    
  10.585      10.473      10.162      9.7141      9.2136      8.7367      8.3088      7.8949      7.4651      7.0535    
  6.6882      6.3797      6.1320      5.9392      5.7927      5.6843      5.6096      5.5655      5.5510      5.5655    
  5.6096      5.6843      5.7927      5.9392      6.1320      6.3797      6.6882      7.0535      7.4651      7.8949    
  8.3088      8.7367      9.2136      9.7141      10.162      10.473      15.311      15.052      14.313      13.215    
  11.938      10.689      9.6396      8.8519      8.2354      7.6609      7.1333      6.6882      6.3316      6.0606    
  5.8621      5.7230      5.6307      5.5783      5.5611      5.5783      5.6307      5.7230      5.8621      6.0606    
  6.3316      6.6882      7.1333      7.6609      8.2354      8.8519      9.6396      10.689      11.938      13.215    
  14.313      15.052      23.823      23.328      21.910      19.758      17.176      14.534      12.190      10.389    
  9.1791      8.3588      7.6609      7.0535      6.5680      6.2009      5.9385      5.7598      5.6467      5.5842    
  5.5645      5.5842      5.6467      5.7598      5.9385      6.2009      6.5680      7.0535      7.6609      8.3588    
  9.1791      10.389      12.190      14.534      17.176      19.758      21.910      23.328      37.069      36.244    
  33.861      30.206      25.734      21.025      16.672      13.153      10.685      9.1791      8.2354      7.4651    
  6.8346      6.3586      6.0218      5.7973      5.6587      5.5842      5.5611      5.5842      5.6587      5.7973    
  6.0218      6.3586      6.8346      7.4651      8.2354      9.1791      10.685      13.153      16.672      21.025    
  25.734      30.206      33.861      36.244      55.398      54.133      50.481      44.851      37.905      30.471    
  23.426      17.505      13.153      10.389      8.8519      7.8949      7.1193      6.5294      6.1091      5.8349    
  5.6662      5.5794      5.5510      5.5794      5.6662      5.8349      6.1091      6.5294      7.1193      7.8949    
  8.8519      10.389      13.153      17.505      23.426      30.471      37.905      44.851      50.481      54.133    
  78.380      76.570      71.340      63.282      53.318      42.588      32.283      23.426      16.672      12.190    
  9.6396      8.3088      7.4083      6.7001      6.2008      5.8694      5.6726      5.5681      5.5377      5.5681    
  5.6726      5.8694      6.2008      6.7001      7.4083      8.3088      9.6396      12.190      16.672      23.426    
  32.283      42.588      53.318      63.282      71.340      76.570      104.72      102.26      95.195      84.336    
  70.940      56.516      42.588      30.471      21.025      14.534      10.689      8.7367      7.6707      6.8657    
  6.2872      5.9030      5.6752      5.5550      5.5202      5.5550      5.6752      5.9030      6.2872      6.8657    
  7.6707      8.7367      10.689      14.534      21.025      30.471      42.588      56.516      70.940      84.336    
  95.195      102.26      132.28      129.13      120.07      106.22      89.200      70.940      53.318      37.905    
  25.734      17.176      11.938      9.2136      7.8932      7.0148      6.3632      5.9343      5.6746      5.5420    
  5.5004      5.5420      5.6746      5.9343      6.3632      7.0148      7.8932      9.2136      11.938      17.176    
  25.734      37.905      53.318      70.940      89.200      106.22      120.07      129.13      158.32      154.48    
  143.47      126.70      106.22      84.336      63.282      44.851      30.206      19.758      13.215      9.7141    
  8.0806      7.1346      6.4265      5.9599      5.6731      5.5294      5.4823      5.5294      5.6731      5.9599    
  6.4265      7.1346      8.0806      9.7141      13.215      19.758      30.206      44.851      63.282      84.336    
  106.22      126.70      143.47      154.48      179.82      175.39      162.72      143.47      120.07      95.195    
  71.340      50.481      33.861      21.910      14.313      10.162      8.2321      7.2193      6.4747      5.9780    
  5.6721      5.5185      5.4681      5.5185      5.6721      5.9780      6.4747      7.2193      8.2321      10.162    
  14.313      21.910      33.861      50.481      71.340      95.195      120.07      143.47      162.72      175.39    
  194.03      189.20      175.39      154.48      129.13      102.26      76.570      54.133      36.244      23.328    
  15.052      10.473      8.3336      7.2691      6.5046      5.9887      5.6716      5.5111      5.4592      5.5111    
  5.6716      5.9887      6.5046      7.2691      8.3336      10.473      15.052      23.328      36.244      54.133    
  76.570      102.26      129.13      154.48      175.39      189.20      194.03      189.20      175.39      154.48    
  129.13      102.26      76.570      54.133      36.244      23.328      15.052      10.473      8.3336      7.2691    
  6.5046      5.9887      5.6716      5.5111      5.4592      5.5111      5.6716      5.9887      6.5046      7.2691    
  8.3336      10.473      15.052      23.328      36.244      54.133      76.570      102.26      129.13      154.48    
  175.39      189.20      189.20      184.51      171.09      150.75      126.06      99.871      74.800      52.896    
  35.437      22.846      14.800      10.367      8.2994      7.2532      6.4951      5.9857      5.6722      5.5141    
  5.4626      5.5141      5.6722      5.9857      6.4951      7.2532      8.2994      10.367      14.800      22.846    
  35.437      52.896      74.800      99.871      126.06      150.75      171.09      184.51      175.39      171.09    
  158.76      140.03      117.23      92.969      69.688      49.324      33.109      21.465      14.085      10.069    
  8.2029      7.2049      6.4669      5.9763      5.6742      5.5226      5.4728      5.5226      5.6742      5.9763    
  6.4669      7.2049      8.2029      10.069      14.085      21.465      33.109      49.324      69.688      92.969    
  117.23      140.03      158.76      171.09      154.48      150.75      140.03      123.69      103.71      82.365    
  61.812      43.822      29.541      19.371      13.023      9.6405      8.0581      7.1224      6.4217      5.9602    
  5.6772      5.5350      5.4886      5.5350      5.6772      5.9602      6.4217      7.1224      8.0581      9.6405    
  13.023      19.371      29.541      43.822      61.812      82.365      103.71      123.69      140.03      150.75    
  129.13      126.06      117.23      103.71      87.108      69.281      52.077      37.040      25.181      16.864    
  11.791      9.1627      7.8768      7.0058      6.3616      5.9373      5.6810      5.5496      5.5089      5.5496    
  5.6810      5.9373      6.3616      7.0058      7.8768      9.1627      11.791      16.864      25.181      37.040    
  52.077      69.281      87.108      103.71      117.23      126.06      102.26      99.871      92.969      82.365    
  69.281      55.195      41.602      29.790      20.599      14.305      10.590      8.7063      7.6586      6.8608    
  6.2891      5.9090      5.6839      5.5648      5.5305      5.5648      5.6839      5.9090      6.2891      6.8608    
  7.6586      8.7063      10.590      14.305      20.599      29.790      41.602      55.195      69.281      82.365    
  92.969      99.871      76.570      74.800      69.688      61.812      52.077      41.602      31.553      22.932    
  16.377      12.042      9.5844      8.2918      7.4003      6.6999      6.2060      5.8786      5.6836      5.5804    
  5.5500      5.5804      5.6836      5.8786      6.2060      6.6999      7.4003      8.2918      9.5844      12.042    
  16.377      22.932      31.553      41.602      52.077      61.812      69.688      74.800      54.133      52.896    
  49.324      43.822      37.040      29.790      22.932      17.185      12.975      10.310      8.8264      7.8846    
  7.1165      6.5335      6.1182      5.8470      5.6799      5.5937      5.5655      5.5937      5.6799      5.8470    
  6.1182      6.5335      7.1165      7.8846      8.8264      10.310      12.975      17.185      22.932      29.790    
  37.040      43.822      49.324      52.896      36.244      35.437      33.109      29.541      25.181      20.599    
  16.377      12.975      10.596      9.1465      8.2229      7.4602      6.8375      6.3671      6.0343      5.8121    
  5.6750      5.6011      5.5783      5.6011      5.6750      5.8121      6.0343      6.3671      6.8375      7.4602    
  8.2229      9.1465      10.596      12.975      16.377      20.599      25.181      29.541      33.109      35.437    
  23.328      22.846      21.465      19.371      16.864      14.305      12.042      10.310      9.1465      8.3453    
  7.6548      7.0553      6.5759      6.2136      5.9548      5.7782      5.6659      5.6038      5.5842      5.6038    
  5.6659      5.7782      5.9548      6.2136      6.5759      7.0553      7.6548      8.3453      9.1465      10.310    
  12.042      14.305      16.864      19.371      21.465      22.846      15.052      14.800      14.085      13.023    
  11.791      10.590      9.5844      8.8264      8.2229      7.6548      7.1346      6.6957      6.3446      6.0779    
  5.8817      5.7439      5.6527      5.6011      5.5842      5.6011      5.6527      5.7439      5.8817      6.0779    
  6.3446      6.6957      7.1346      7.6548      8.2229      8.8264      9.5844      10.590      11.791      13.023    
  14.085      14.800      10.473      10.367      10.069      9.6405      9.1627      8.7063      8.2918      7.8846    
  7.4602      7.0553      6.6957      6.3927      6.1496      5.9594      5.8157      5.7101      5.6372      5.5937    
  5.5794      5.5937      5.6372      5.7101      5.8157      5.9594      6.1496      6.3927      6.6957      7.0553    
  7.4602      7.8846      8.2918      8.7063      9.1627      9.6405      10.069      10.367      8.3336      8.2994    
  8.2029      8.0581      7.8768      7.6586      7.4003      7.1165      6.8375      6.5759      6.3446      6.1496    
  5.9884      5.8593      5.7562      5.6756      5.6165      5.5804      5.5681      5.5804      5.6165      5.6756    
  5.7562      5.8593      5.9884      6.1496      6.3446      6.5759      6.8375      7.1165      7.4003      7.6586    
  7.8768      8.0581      8.2029      8.2994      7.2691      7.2532      7.2049      7.1224      7.0058      6.8608    
  6.6999      6.5335      6.3671      6.2136      6.0779      5.9594      5.8593      5.7739      5.7003      5.6395    
  5.5936      5.5648      5.5550      5.5648      5.5936      5.6395      5.7003      5.7739      5.8593      5.9594    
  6.0779      6.2136      6.3671      6.5335      6.6999      6.8608      7.0058      7.1224      7.2049      7.2532    
  6.5046      6.4951      6.4669      6.4217      6.3616      6.2891      6.2060      6.1182      6.0343      5.9548    
  5.8817      5.8157      5.7562      5.7003      5.6492      5.6056      5.5715      5.5496      5.5420      5.5496    
  5.5715      5.6056      5.6492      5.7003      5.7562      5.8157      5.8817      5.9548      6.0343      6.1182    
  6.2060      6.2891      6.3616      6.4217      6.4669      6.4951      5.9887      5.9857      5.9763      5.9602    
  5.9373      5.9090      5.8786      5.8470      5.8121      5.7782      5.7439      5.7101      5.6756      5.6395    
  5.6056      5.5754      5.5512      5.5350      5.5294      5.5350      5.5512      5.5754      5.6056      5.6395    
  5.6756      5.7101      5.7439      5.7782      5.8121      5.8470      5.8786      5.9090      5.9373      5.9602    
  5.9763      5.9857      5.6716      5.6722      5.6742      5.6772      5.6810      5.6839      5.6836      5.6799    
  5.6750      5.6659      5.6527      5.6372      5.6165      5.5936      5.5715      5.5512      5.5340      5.5226    
  5.5185      5.5226      5.5340      5.5512      5.5715      5.5936      5.6165      5.6372      5.6527      5.6659    
  5.6750      5.6799      5.6836      5.6839      5.6810      5.6772      5.6742      5.6722      5.5111      5.5141    
  5.5226      5.5350      5.5496      5.5648      5.5804      5.5937      5.6011      5.6038      5.6011      5.5937    
  5.5804      5.5648      5.5496      5.5350      5.5226      5.5141      5.5111      5.5141      5.5226      5.5350    
  5.5496      5.5648      5.5804      5.5937      5.6011      5.6038      5.6011      5.5937      5.5804      5.5648    
  5.5496      5.5350      5.5226      5.5141      5.4592      5.4626      5.4728      5.4886      5.5089      5.5305    
  5.5500      5.5655      5.5783      5.5842      5.5842      5.5794      5.5681      5.5550      5.5420      5.5294    
  5.5185      5.5111      5.5084      5.5111      5.5185      5.5294      5.5420      5.5550      5.5681      5.5794    
  5.5842      5.5842      5.5783      5.5655      5.5500      5.5305      5.5089      5.4886      5.4728      5.4626    
  5.5111      5.5141      5.5226      5.5350      5.5496      5.5648      5.5804      5.5937      5.6011      5.6038    
  5.6011      5.5937      5.5804      5.5648      5.5496      5.5350      5.5226      5.5141      5.5111      5.5141    
  5.5226      5.5350      5.5496      5.5648      5.5804      5.5937      5.6011      5.6038      5.6011      5.5937    
  5.5804      5.5648      5.5496      5.5350      5.5226      5.5141      5.6716      5.6722      5.6742      5.6772    
  5.6810      5.6839      5.6836      5.6799      5.6750      5.6659      5.6527      5.6372      5.6165      5.5936    
  5.5715      5.5512      5.5340      5.5226      5.5185      5.5226      5.5340      5.5512      5.5715      5.5936    
  5.6165      5.6372      5.6527      5.6659      5.6750      5.6799      5.6836      5.6839      5.6810      5.6772    
  5.6742      5.6722      5.9887      5.9857      5.9763      5.9602      5.9373      5.9090      5.8786      5.8470    
  5.8121      5.7782      5.7439      5.7101      5.6756      5.6395      5.6056      5.5754      5.5512      5.5350    
  5.5294      5.5350      5.5512      5.5754      5.6056      5.6395      5.6756      5.7101      5.7439      5.7782    
  5.8121      5.8470      5.8786      5.9090      5.9373      5.9602      5.9763      5.9857      6.5046      6.4951    
  6.4669      6.4217      6.3616      6.2891      6.2060      6.1182      6.0343      5.9548      5.8817      5.8157    
  5.7562      5.7003      5.6492      5.6056      5.5715      5.5496      5.5420      5.5496      5.5715      5.6056    
  5.6492      5.7003      5.7562      5.8157      5.8817      5.9548      6.0343      6.1182      6.2060      6.2891    
  6.3616      6.4217      6.4669      6.4951      7.2691      7.2532      7.2049      7.1224      7.0058      6.8608    
  6.6999      6.5335      6.3671      6.2136      6.0779      5.9594      5.8593      5.7739      5.7003      5.6395    
  5.5936      5.5648      5.5550      5.5648      5.5936      5.6395      5.7003      5.7739      5.8593      5.9594    
  6.0779      6.2136      6.3671      6.5335      6.6999      6.8608      7.0058      7.1224      7.2049      7.2532    
  8.3336      8.2994      8.2029      8.0581      7.8768      7.6586      7.4003      7.1165      6.8375      6.5759    
  6.3446      6.1496      5.9884      5.8593      5.7562      5.6756      5.6165      5.5804      5.5681      5.5804    
  5.6165      5.6756      5.7562      5.8593      5.9884      6.1496      6.3446      6.5759      6.8375      7.1165    
  7.4003      7.6586      7.8768      8.0581      8.2029      8.2994      10.473      10.367      10.069      9.6405    
  9.1627      8.7063      8.2918      7.8846      7.4602      7.0553      6.6957      6.3927      6.1496      5.9594    
  5.8157      5.7101      5.6372      5.5937      5.5794      5.5937      5.6372      5.7101      5.8157      5.9594    
  6.1496      6.3927      6.6957      7.0553      7.4602      7.8846      8.2918      8.7063      9.1627      9.6405    
  10.069      10.367      15.052      14.800      14.085      13.023      11.791      10.590      9.5844      8.8264    
  8.2229      7.6548      7.1346      6.6957      6.3446      6.0779      5.8817      5.7439      5.6527      5.6011    
  5.5842      5.6011      5.6527      5.7439      5.8817      6.0779      6.3446      6.6957      7.1346      7.6548    
  8.2229      8.8264      9.5844      10.590      11.791      13.023      14.085      14.800      23.328      22.846    
  21.465      19.371      16.864      14.305      12.042      10.310      9.1465      8.3453      7.6548      7.0553    
  6.5759      6.2136      5.9548      5.7782      5.6659      5.6038      5.5842      5.6038      5.6659      5.7782    
  5.9548      6.2136      6.5759      7.0553      7.6548      8.3453      9.1465      10.310      12.042      14.305    
  16.864      19.371      21.465      22.846      36.244      35.437      33.109      29.541      25.181      20.599    
  16.377      12.975      10.596      9.1465      8.2229      7.4602      6.8375      6.3671      6.0343      5.8121    
  5.6750      5.6011      5.5783      5.6011      5.6750      5.8121      6.0343      6.3671      6.8375      7.4602    
  8.2229      9.1465      10.596      12.975      16.377      20.599      25.181      29.541      33.109      35.437    
  54.133      52.896      49.324      43.822      37.040      29.790      22.932      17.185      12.975      10.310    
  8.8264      7.8846      7.1165      6.5335      6.1182      5.8470      5.6799      5.5937      5.5655      5.5937    
  5.6799      5.8470      6.1182      6.5335      7.1165      7.8846      8.8264      10.310      12.975      17.185    
  22.932      29.790      37.040      43.822      49.324      52.896      76.570      74.800      69.688      61.812    
  52.077      41.602      31.553      22.932      16.377      12.042      9.5844      8.2918      7.4003      6.6999    
  6.2060      5.8786      5.6836      5.5804      5.5500      5.5804      5.6836      5.8786      6.2060      6.6999    
  7.4003      8.2918      9.5844      12.042      16.377      22.932      31.553      41.602      52.077      61.812    
  69.688      74.800      102.26      99.871      92.969      82.365      69.281      55.195      41.602      29.790    
  20.599      14.305      10.590      8.7063      7.6586      6.8608      6.2891      5.9090      5.6839      5.5648    
  5.5305      5.5648      5.6839      5.9090      6.2891      6.8608      7.6586      8.7063      10.590      14.305    
  20.599      29.790      41.602      55.195      69.281      82.365      92.969      99.871      129.13      126.06    