    2    2  100    2
  0.1173411E+02  0.2863035E-09  0.2863035E-09  0.2863035E-09  0.5000000E-15
  1.000000000000000E-004
  CAR 
 unknown system                          
     16     56     20
 
  0.0000000E+00  0.0000000E+00  0.0000000E+00  0.7513148E-03
    1       -2.598304     -2.423390   1.000000   1.000000
    2        0.992701      2.817432   1.000000   1.000000
    3        0.992702      2.817574   1.000000   1.000000
    4        3.557576      5.455764   1.000000   1.008146
    5        3.557578      5.455898   1.000000   1.008163
    6        3.557578      5.455909   1.000000   1.008165
    7        4.769804      7.525624   1.000000  -0.000000
    8        4.769805      7.525789   1.000000  -0.000000
    9        5.990434      8.161352   0.047614  -0.000000
   10        5.990436      8.161477   0.047610  -0.000000
   11        5.990436      8.161489   0.047610  -0.000000
   12       15.817229     16.093600   0.000000   0.000000
   13       15.817229     16.093600   0.000000   0.000000
   14       15.817229     16.093603   0.000000   0.000000
   15       21.543518     22.612017   0.000000   0.000000
   16       21.543520     22.612029   0.000000   0.000000
   17       26.700545     27.808752   0.000000   0.000000
   18       30.912889     30.671819   0.000000   0.000000
   19       30.912889     30.671819   0.000000   0.000000
   20       30.912889     30.671819   0.000000   0.000000
 
  0.9090909E-01  0.3081488E-32  0.0000000E+00  0.4507889E-02
    1       -2.426495     -2.250771   1.000000   1.000000
    2        1.066291      2.878241   1.000000   1.000000
    3        1.068650      2.904924   1.000000   1.000000
    4        3.556449      5.448352   1.000000   1.007217
    5        3.556450      5.448496   1.000000   1.007235
    6        3.604736      5.507819   1.000000   1.017095
    7        4.692917      7.425481   1.000000  -0.000000
    8        4.800149      7.563923   1.000000  -0.000000
    9        5.847158      7.973587   0.531474  -0.000000
   10        5.847160      7.973721   0.531466  -0.000000
   11        5.939392      8.104164   0.174480  -0.000000
   12       14.662477     15.128023   0.000000   0.000000
   13       16.141570     16.463819   0.000000   0.000000
   14       16.141570     16.463821   0.000000   0.000000
   15       21.593467     22.646660   0.000000   0.000000
   16       22.376819     23.292606   0.000000   0.000000
   17       27.276236     28.354929   0.000000   0.000000
   18       29.849459     29.737912   0.000000   0.000000
   19       30.747577     30.583759   0.000000   0.000000
   20       30.747577     30.583761   0.000000   0.000000
 
  0.1818182E+00  0.6162976E-32  0.0000000E+00  0.4507889E-02
    1       -1.924067     -1.743668   1.000000   1.000000
    2        1.269611      3.018108   1.000000   1.000000
    3        1.281780      3.161758   1.000000   1.000000
    4        3.562069      5.437459   1.000000   1.006002
    5        3.562071      5.437602   1.000000   1.006017
    6        3.742920      5.660087   1.000000   1.022042
    7        4.467755      7.132887   1.000000  -0.000000
    8        4.887956      7.509149   1.000000  -0.000000
    9        5.477873      7.509282   1.011430  -0.000000
   10        5.477875      7.669868   1.011430  -0.000000
   11        5.790084      7.936607   0.757888  -0.000000
   12       12.448027     13.196950   0.000000   0.000000
   13       17.049740     17.470773   0.000000   0.000000
   14       17.049740     17.470777   0.000000   0.000000
   15       21.747767     22.755509   0.000000   0.000000
   16       23.427848     24.203486   0.000000   0.000000
   17       28.044010     28.100612   0.000000   0.000000
   18       29.233562     30.029693   0.000000   0.000000
   19       29.919717     30.029698   0.000000   0.000000
   20       29.919718     30.206835   0.000000   0.000000
 
  0.2727273E+00  0.6162976E-32  0.0000000E+00  0.4507889E-02
    1       -1.135631     -0.937116   1.000000   1.000000
    2        1.513013      3.105420   1.000000   1.000000
    3        1.624677      3.573256   1.000000   1.000000
    4        3.597435      5.452019   1.000000   1.007666
    5        3.597436      5.452160   1.000000   1.007684
    6        3.962280      5.902144   1.000000   0.304996
    7        4.110829      6.671630   1.000000  -0.000000
    8        5.008595      6.949317   1.000000  -0.000000
    9        5.008597      6.949448   1.000000  -0.000000
   10        5.030680      7.674307   1.000000  -0.000000
   11        5.556025      7.821543   1.027968  -0.000000
   12       10.165608     11.247768  -0.000000  -0.000000
   13       18.405451     18.922105   0.000000   0.000000
   14       18.405452     18.922109   0.000000   0.000000
   15       22.023061     22.955291   0.000000   0.000000
   16       24.028630     24.710710   0.000000   0.000000
   17       26.368923     26.587596   0.000000   0.000000
   18       28.238868     28.646144   0.000000   0.000000
   19       28.238869     28.646151   0.000000   0.000000
   20       30.030651     30.464235   0.000000   0.000000
 
  0.3636364E+00  0.1232595E-31  0.0000000E+00  0.4507889E-02
    1       -0.158319      0.100587   1.000000   1.000000
    2        1.650238      2.920031   1.000000   1.000000
    3        2.070570      4.113836   1.000000   1.000000
    4        3.651155      5.530035   1.000000   1.022013
    5        3.692751      5.530173   1.000000   1.022045
    6        3.692752      6.083229   1.000000  -0.034314
    7        4.246840      6.216814   1.000000  -0.014010
    8        4.548059      6.425317   1.000000  -0.000207
    9        4.548060      6.425448   1.000000  -0.000206
   10        5.257939      7.341079   1.000102  -0.000000
   11        5.258579      8.004101   1.000104  -0.000000
   12        8.146500      9.695766  -0.000000  -0.000000
   13       20.082222     20.666899   0.000000   0.000000
   14       20.082223     20.666902   0.000000   0.000000
   15       22.446095     23.273758   0.000000   0.000000
   16       24.568088     25.150439   0.000000   0.000000
   17       24.978317     25.361827   0.000000   0.000000
   18       26.171234     26.730567   0.000000   0.000000
   19       26.171235     26.730572   0.000000   0.000000
   20       28.056563     28.478142   0.000000   0.000000
 
  0.4545455E+00  0.1232595E-31  0.0000000E+00  0.4507889E-02
    1        0.810047      1.243894   1.000000   1.000000
    2        1.465682      2.273546   1.000000   1.000000
    3        2.585533      4.746195   1.000000   1.000000
    4        3.127944      5.421911   1.000000   1.004552
    5        3.875238      5.706237   1.000000   0.973633
    6        3.875239      5.706373   1.000000   0.973423
    7        4.160685      6.002902   1.000000   0.026468
    8        4.160686      6.003036   1.000000   0.026261
    9        4.575309      6.581083   1.000000  -0.000002
   10        4.921502      6.965939   1.000000  -0.000000
   11        5.700849      8.255243   0.981619  -0.000000
   12        6.613927      8.732741  -0.000001  -0.000000
   13       21.985511     22.604820   0.000000   0.000000
   14       21.985512     22.604820   0.000000   0.000000
   15       23.052458     23.749413   0.000000   0.000000
   16       23.883643     24.429389   0.000000   0.000000
   17       24.041891     24.657687   0.000000   0.000000
   18       24.041892     24.657690   0.000000   0.000000
   19       25.334826     25.827745   0.000000   0.000000
   20       26.479755     26.916715   0.000000   0.000000
 
  0.9090909E-01  0.9090909E-01  0.0000000E+00  0.9015778E-02
    1       -2.257171     -2.080258   1.000000   1.000000
    2        1.135046      2.957484   1.000000   1.000000
    3        1.146673      2.970662   1.000000   1.000000
    4        3.465157      5.344783   1.000000   1.000927
    5        3.546827      5.432386   1.000000   1.005493
    6        3.741171      5.655577   1.000000   1.024614
    7        4.684119      7.409344   1.000000  -0.000000
    8        4.777537      7.534466   1.000000  -0.000000
    9        5.597715      7.675255   1.034952  -0.000000
   10        5.704081      7.787669   0.976909  -0.000000
   11        6.012016      8.185519   0.013334  -0.000000
   12       14.702882     15.229505   0.000000   0.000000
   13       15.214439     15.706547   0.000000   0.000000
   14       16.448311     16.805940   0.000000   0.000000
   15       22.017232     22.985518   0.000000   0.000000
   16       22.972977     23.795162   0.000000   0.000000
   17       27.766389     28.828605   0.000000   0.000000
   18       28.873993     28.926701   0.000000   0.000000
   19       30.367982     30.237358   0.000000   0.000000
   20       30.685390     30.562620   0.000000   0.000000
 
  0.1818182E+00  0.9090909E-01  0.0000000E+00  0.1803156E-01
    1       -1.763147     -1.579979   1.000000   1.000000
    2        1.326734      3.103237   1.000000   1.000000
    3        1.362937      3.211267   1.000000   1.000000
    4        3.398478      5.258488   1.000000   1.000104
    5        3.527745      5.397421   1.000000   1.002855
    6        3.948634      5.881405   1.000000   0.387709
    7        4.516950      7.168663   1.000000  -0.000000
    8        4.852072      7.180363   1.000000  -0.000000
    9        5.175425      7.340613   1.000009  -0.000000
   10        5.342430      7.623837   1.000879  -0.000000
   11        5.958092      8.121710   0.120469  -0.000000
   12       12.653387     13.435021   0.000000   0.000000
   13       15.836436     16.441200   0.000000   0.000000
   14       17.315515     17.753111   0.000000   0.000000
   15       22.293984     23.197218   0.000000   0.000000
   16       24.196566     24.881154   0.000000   0.000000
   17       26.975839     27.215392   0.000000   0.000000
   18       29.420646     29.478404   0.000000   0.000000
   19       29.531984     30.161339   0.000000   0.000000
   20       30.058426     30.510868   0.000000   0.000000
 
  0.2727273E+00  0.9090909E-01  0.0000000E+00  0.1803156E-01
    1       -0.991995     -0.786339   1.000000   1.000000
    2        1.570869      3.186493   1.000000   1.000000
    3        1.685954      3.600210   1.000000   1.000000
    4        3.387302      5.226720   1.000000   1.000042
    5        3.506148      5.367289   1.000000   1.001530
    6        4.208420      6.165154   1.000000  -0.025251
    7        4.247067      6.614561   1.000000  -0.000001
    8        4.699075      6.790877   1.000000  -0.000000
    9        4.900869      6.836873   1.000000  -0.000000
   10        4.998118      7.783176   1.000000  -0.000000
   11        5.778560      7.915227   0.797425  -0.000000
   12       10.359337     11.452206  -0.000000   0.000000
   13       17.007539     17.701256   0.000000   0.000000
   14       18.626534     19.146419   0.000000   0.000000
   15       22.630964     23.449433   0.000000   0.000000
   16       25.014109     25.478739   0.000000   0.000000
   17       25.067156     25.618370   0.000000   0.000000
   18       27.874224     28.118258   0.000000   0.000000
   19       28.407856     28.821586   0.000000   0.000000
   20       31.741648     32.157663   0.000000   0.000000
 
  0.3636364E+00  0.9090909E-01  0.0000000E+00  0.1803156E-01
    1       -0.045950      0.230226   1.000000   1.000000
    2        1.699482      2.989126   1.000000   1.000000
    3        2.102106      4.099446   1.000000   1.000000
    4        3.394947      5.274804   1.000000   1.000162
    5        3.451538      5.331775   1.000000   1.000685
    6        4.034711      6.108600   1.000000  -0.035161
    7        4.248874      6.349193   1.000000  -0.001306
    8        4.506171      6.430616   1.000000  -0.000180
    9        4.513590      6.500649   1.000000  -0.000024
   10        5.232619      7.611724   1.000050  -0.000000
   11        5.510807      7.974537   1.017728  -0.000000
   12        8.307256      9.831675  -0.000000  -0.000000
   13       18.414819     19.158562   0.000000   0.000000
   14       20.265708     20.847414   0.000000   0.000000
   15       23.130704     23.837001   0.000000   0.000000
   16       23.277609     23.847426   0.000000   0.000000
   17       25.765649     26.295621   0.000000   0.000000
   18       26.253143     26.604364   0.000000   0.000000
   19       26.319341     26.882568   0.000000   0.000000
   20       29.795434     30.229818   0.000000   0.000000
 
  0.4545455E+00  0.9090909E-01  0.0000000E+00  0.1803156E-01
    1        0.878308      1.343853   1.000000   1.000000
    2        1.507167      2.345975   1.000000   1.000000
    3        2.574967      4.651807   1.000000   1.000000
    4        3.044579      5.130277   1.000000   1.000002
    5        3.611067      5.428653   1.000000   1.005141
    6        3.877989      5.706154   1.000000   0.973760
    7        4.063910      6.090408   1.000000  -0.035115
    8        4.231230      6.170009   1.000000  -0.024129
    9        4.848503      6.871304   1.000000  -0.000000
   10        5.190256      7.252005   1.000014  -0.000000
   11        5.712032      8.245408   0.964279  -0.000000
   12        6.706635      8.779670  -0.000000  -0.000000
   13       19.957374     20.700548   0.000000   0.000000
   14       21.582173     22.268012   0.000000   0.000000
   15       22.142918     22.757991   0.000000   0.000000
   16       23.859182     24.436127   0.000000   0.000000
   17       24.185779     24.800005   0.000000   0.000000
   18       24.887256     25.339870   0.000000   0.000000
   19       26.758060     27.231073   0.000000   0.000000
   20       28.104313     28.549174   0.000000   0.000000
 
  0.1818182E+00  0.1818182E+00  0.0000000E+00  0.9015778E-02
    1       -1.298034     -1.102031   1.000000   1.000000
    2        1.460854      3.284936   1.000000   1.000000
    3        1.607039      3.377533   1.000000   1.000000
    4        3.222897      5.055231   1.000000   1.000000
    5        3.462234      5.306843   1.000000   1.000373
    6        4.254844      6.216965   1.000000  -0.013981
    7        4.578020      6.613637   1.000000  -0.000001
    8        4.692095      6.965034   1.000000  -0.000000
    9        4.804848      7.217590   1.000000  -0.000000
   10        5.016429      7.567786   1.000000  -0.000000
   11        6.069415      8.249496  -0.031204  -0.000000
   12       12.634784     13.477439   0.000000   0.000000
   13       14.270141     15.123017   0.000000   0.000000
   14       18.082471     18.562108   0.000000   0.000000
   15       22.670011     23.487658   0.000000   0.000000
   16       24.926919     25.357450   0.000000   0.000000
   17       26.006731     26.526548   0.000000   0.000000
   18       28.640057     28.698948   0.000000   0.000000
   19       30.233132     30.334948   0.000000   0.000000
   20       30.695512     31.665163   0.000000   0.000000
 
  0.2727273E+00  0.1818182E+00  0.0000000E+00  0.1803156E-01
    1       -0.588690     -0.351731   1.000000   1.000000
    2        1.621019      3.321548   1.000000   1.000000
    3        1.953680      3.732493   1.000000   1.000000
    4        3.116553      4.923044   1.000000   1.000000
    5        3.409338      5.212745   1.000000   1.000028
    6        4.198669      6.056787   1.000000  -0.026224
    7        4.481510      6.585165   1.000000  -0.000002
    8        4.590029      6.627076   1.000000  -0.000000
    9        4.667291      7.033059   1.000000  -0.000000
   10        4.912649      7.686154   1.000000  -0.000000
   11        6.030591      8.202738  -0.007768  -0.000000
   12       10.752686     11.839026  -0.000000   0.000000
   13       14.852759     15.772659   0.000000   0.000000
   14       19.276317     19.806845   0.000000   0.000000
   15       22.840654     23.416227   0.000000   0.000000
   16       22.972774     23.695747   0.000000   0.000000
   17       27.428405     27.569856   0.000000   0.000000
   18       27.434627     27.880124   0.000000   0.000000
   19       28.901977     29.334848   0.000000   0.000000
   20       31.966936     32.517016   0.000000   0.000000
 
  0.3636364E+00  0.1818182E+00  0.0000000E+00  0.1803156E-01
    1        0.241307      0.591293   1.000000   1.000000
    2        1.682543      3.081876   1.000000   1.000000
    3        2.343155      4.164587   1.000000   1.000000
    4        3.103706      4.891341   1.000000   1.000000
    5        3.324008      5.116897   1.000000   1.000001
    6        3.761914      5.574797   1.000000   1.031808
    7        4.393973      6.487884   1.000000  -0.000036
    8        4.442369      6.768033   1.000000  -0.000000
    9        4.939380      6.970897   1.000000  -0.000000
   10        5.154763      7.889619   1.000004  -0.000000
   11        5.863274      8.009113   0.463342  -0.000000
   12        8.679456     10.126786  -0.000000  -0.000000
   13       16.068318     16.988608   0.000000   0.000000
   14       20.810621     21.385814   0.000000   0.000000
   15       20.891262     21.590757   0.000000   0.000000
   16       23.392886     23.997628   0.000000   0.000000
   17       26.086518     26.325127   0.000000   0.000000
   18       26.743902     27.320015   0.000000   0.000000
   19       28.517636     28.936031   0.000000   0.000000
   20       32.453083     32.892174   0.000000   0.000000
 
  0.4545455E+00  0.1818182E+00  0.0000000E+00  0.1803156E-01
    1        0.996155      1.595625   1.000000   1.000000
    2        1.495572      2.482129   1.000000   1.000000
    3        2.738713      4.598342   1.000000   1.000000
    4        3.093389      4.936501   1.000000   1.000000
    5        3.202587      4.982585   1.000000   1.000000
    6        3.423034      5.210413   1.000000   1.000026
    7        4.386485      6.508827   1.000000  -0.000019
    8        4.394969      6.586234   1.000000  -0.000001
    9        5.285035      7.355497   1.000213  -0.000000
   10        5.603091      7.712990   1.035299  -0.000000
   11        5.742882      8.208201   0.900571  -0.000000
   12        6.940788      8.885660  -0.000000  -0.000000
   13       17.501856     18.379699   0.000000   0.000000
   14       19.110293     19.911843   0.000000   0.000000
   15       22.608377     23.212502   0.000000   0.000000
   16       24.018868     24.493018   0.000000   0.000000
   17       24.606197     25.215847   0.000000   0.000000
   18       24.914001     25.262335   0.000000   0.000000
   19       29.658524     30.060704   0.000000   0.000000
   20       30.992646     31.396130   0.000000   0.000000
 
  0.2727273E+00  0.2727273E+00  0.0000000E+00  0.9015778E-02
    1       -0.017514      0.310293   1.000000   1.000000
    2        1.615897      3.260647   1.000000   1.000000
    3        2.369193      4.078119   1.000000   1.000000
    4        2.916731      4.692605   1.000000   1.000000
    5        3.458669      5.113894   1.000000   1.000001
    6        3.712704      5.518448   1.000000   1.019393
    7        4.479199      6.535690   1.000000  -0.000008
    8        4.643445      7.019414   1.000000  -0.000000
    9        4.853744      7.188475   1.000000  -0.000000
   10        4.981770      7.632389   1.000000  -0.000000
   11        6.145122      8.334006  -0.029704  -0.000000
   12       10.490480     11.569393  -0.000000   0.000000
   13       13.654347     14.785516   0.000000   0.000000
   14       20.317860     20.866407   0.000000   0.000000
   15       20.652989     21.357159   0.000000   0.000000
   16       23.208170     23.823630   0.000000   0.000000
   17       26.677613     26.785558   0.000000   0.000000
   18       29.478506     30.122227   0.000000   0.000000
   19       29.822631     30.132247   0.000000   0.000000
   20       29.826289     30.214968   0.000000   0.000000
 
  0.3636364E+00  0.2727273E+00  0.0000000E+00  0.1803156E-01
    1        0.562818      1.096703   1.000000   1.000000
    2        1.521193      2.976800   1.000000   1.000000
    3        2.820837      4.511981   1.000000   1.000000
    4        2.830110      4.574547   1.000000   1.000000
    5        3.304872      5.073168   1.000000   1.000000
    6        3.617710      5.105245   1.000000   1.000001
    7        4.447586      6.643666   1.000000  -0.000000
    8        4.676295      7.120790   1.000000  -0.000000
    9        5.029252      7.435804   1.000000  -0.000000
   10        5.355206      7.771508   1.001174  -0.000000
   11        6.111080      8.293134  -0.034985  -0.000000
   12        8.935493     10.250956  -0.000000  -0.000000
   13       14.162594     15.294757   0.000000   0.000000
   14       18.653101     19.477807   0.000000   0.000000
   15       21.698657     22.268894   0.000000   0.000000
   16       23.538022     24.022850   0.000000   0.000000
   17       25.711411     25.851149   0.000000   0.000000
   18       27.343952     27.951870   0.000000   0.000000
   19       30.772979     31.227620   0.000000   0.000000
   20       31.524677     31.812736   0.000000   0.000000
 
  0.4545455E+00  0.2727273E+00  0.0000000E+00  0.1803156E-01
    1        1.013953      1.867528   1.000000   1.000000
    2        1.322286      2.507295   1.000000   1.000000
    3        2.848938      4.592374   1.000000   1.000000
    4        3.011094      4.758780   1.000000   1.000000
    5        3.251246      4.886747   1.000000   1.000000
    6        3.558058      5.085630   1.000000   1.000000
    7        4.552270      6.849254   1.000000  -0.000000
    8        4.668142      7.005782   1.000000  -0.000000
    9        5.686342      7.808009   0.999872  -0.000000
   10        5.777294      8.105619   0.801597  -0.000000
   11        5.948321      8.118458   0.147634  -0.000000
   12        7.185595      8.933368  -0.000000  -0.000000
   13       15.364994     16.413527   0.000000   0.000000
   14       16.882434     17.823429   0.000000   0.000000
   15       23.362526     23.952538   0.000000   0.000000
   16       24.047760     24.394644   0.000000   0.000000
   17       24.782634     25.007481   0.000000   0.000000
   18       25.259001     25.862122   0.000000   0.000000
   19       32.048381     32.516963   0.000000   0.000000
   20       32.706860     33.057013   0.000000   0.000000
 
  0.3636364E+00  0.3636364E+00  0.0000000E+00  0.9015778E-02
    1        0.793750      1.614128   1.000000   1.000000
    2        1.312221      2.713591   1.000000   1.000000
    3        2.645885      4.374784   1.000000   1.000000
    4        2.940468      4.676514   1.000000   1.000000
    5        3.412008      5.043794   1.000000   1.000000
    6        4.287509      5.350183   1.000000   1.001049
    7        4.544322      6.880877   1.000000  -0.000000
    8        4.859547      7.293723   1.000000  -0.000000
    9        4.913049      7.715132   1.000000  -0.000000
   10        5.718493      7.844994   0.952897  -0.000000
   11        6.215183      8.412240  -0.014320  -0.000000
   12        8.480761      9.737020  -0.000000  -0.000000
   13       13.362338     14.653330   0.000000   0.000000
   14       16.677510     17.638767   0.000000   0.000000
   15       22.898028     23.468452   0.000000   0.000000
   16       23.746058     24.090048   0.000000   0.000000
   17       25.164903     25.252711   0.000000   0.000000
   18       27.425053     28.076180   0.000000   0.000000
   19       29.554062     29.978339   0.000000   0.000000
   20       33.164607     33.772888   0.000000   0.000000
 
  0.4545455E+00  0.3636364E+00  0.0000000E+00  0.1803156E-01
    1        0.953677      2.045950   1.000000   1.000000
    2        1.116211      2.398519   1.000000   1.000000
    3        2.602304      4.318926   1.000000   1.000000
    4        2.700939      4.419607   1.000000   1.000000
    5        3.954469      5.508915   1.000000   1.017326
    6        4.351403      5.630979   1.000000   1.033441
    7        4.694896      7.126459   1.000000  -0.000000
    8        4.827488      7.276526   1.000000  -0.000000
    9        5.792129      7.941424   0.750591  -0.000000
   10        5.999969      8.164539   0.031106  -0.000000
   11        6.173124      8.362937  -0.023408  -0.000000
   12        7.215183      8.722431  -0.000000  -0.000000
   13       13.833380     15.080479   0.000000   0.000000
   14       15.035740     16.145244   0.000000   0.000000
   15       24.085162     24.293523   0.000000   0.000000
   16       24.361359     24.690191   0.000000   0.000000
   17       24.577209     24.938909   0.000000   0.000000
   18       26.003449     26.600584   0.000000   0.000000
   19       30.267605     30.745586   0.000000   0.000000
   20       31.639475     32.126066   0.000000   0.000000
 
  0.4545455E+00  0.4545455E+00  0.0000000E+00  0.9015778E-02
    1        0.920479      2.152635   1.000000   1.000000
    2        0.971930      2.262662   1.000000   1.000000
    3        2.489288      4.192179   1.000000   1.000000
    4        2.522362      4.225842   1.000000   1.000000
    5        4.618729      6.168680   1.000000  -0.024436
    6        4.798011      6.268439   1.000000  -0.006352
    7        4.816785      7.310879   1.000000  -0.000000
    8        4.954996      7.372971   1.000000  -0.000000
    9        6.043609      7.775552  -0.018443  -0.000000
   10        6.196285      8.163008  -0.018182  -0.000000
   11        6.256943      8.388959  -0.007696  -0.000000
   12        6.779570      8.458823  -0.000000  -0.000000
   13       13.259845     14.618827   0.000000   0.000000
   14       13.742668     15.024911   0.000000   0.000000
   15       24.182106     24.281454   0.000000   0.000000
   16       24.356044     24.418453   0.000000   0.000000
   17       25.487091     26.060346   0.000000   0.000000
   18       26.285137     26.872130   0.000000   0.000000
   19       29.421532     29.908145   0.000000   0.000000
   20       30.126476     30.622494   0.000000   0.000000
 
  0.9090909E-01  0.9090909E-01  0.9090909E-01  0.6010518E-02
    1       -2.089983     -1.911613   1.000000   1.000000
    2        1.213395      3.035804   1.000000   1.000000
    3        1.213396      3.035943   1.000000   1.000000
    4        3.451237      5.325217   1.000000   1.000586
    5        3.451237      5.325310   1.000000   1.000587
    6        3.880726      5.804456   1.000000   0.704971
    7        4.720552      7.268798   1.000000  -0.000000
    8        4.720553      7.455514   1.000000  -0.000000
    9        5.272615      7.455678   1.000153  -0.000000
   10        5.868790      8.001351   0.440130  -0.000000
   11        5.868792      8.001438   0.440124  -0.000000
   12       14.995155     15.567154   0.000000   0.000000
   13       14.995156     15.567166   0.000000   0.000000
   14       15.725086     16.208660   0.000000   0.000000
   15       23.058996     23.864444   0.000000   0.000000
   16       23.058998     23.864451   0.000000   0.000000
   17       28.197406     28.794621   0.000000   0.000000
   18       28.710619     28.794624   0.000000   0.000000
   19       28.710619     29.248494   0.000000   0.000000
   20       31.376917     31.136448   0.000000   0.000000
 
  0.1818182E+00  0.9090909E-01  0.9090909E-01  0.1803156E-01
    1       -1.603306     -1.417524   1.000000   1.000000
    2        1.408214      3.185588   1.000000   1.000000
    3        1.419519      3.264976   1.000000   1.000000
    4        3.349738      5.199180   1.000000   1.000018
    5        3.413271      5.275473   1.000000   1.000165
    6        4.125623      6.067048   1.000000  -0.030438
    7        4.558979      6.714122   1.000000  -0.000000
    8        4.805927      7.227965   1.000000  -0.000000
    9        4.820366      7.554312   1.000000  -0.000000
   10        5.504573      7.579841   1.016419  -0.000000
   11        5.903908      8.050682   0.298234  -0.000000
   12       12.869620     13.683476   0.000000   0.000000
   13       15.798760     16.466324   0.000000   0.000000
   14       16.331465     16.893023   0.000000   0.000000
   15       23.327422     24.084005   0.000000   0.000000
   16       24.545462     25.191591   0.000000   0.000000
   17       26.665457     26.922370   0.000000   0.000000
   18       27.847081     28.090040   0.000000   0.000000
   19       29.800302     30.781181   0.000000   0.000000
   20       31.224420     31.104503   0.000000   0.000000
 
  0.2727273E+00  0.9090909E-01  0.9090909E-01  0.1803156E-01
    1       -0.847401     -0.635632   1.000000   1.000000
    2        1.662784      3.274176   1.000000   1.000000
    3        1.714710      3.624971   1.000000   1.000000
    4        3.321720      5.139544   1.000000   1.000003
    5        3.350521      5.211267   1.000000   1.000026
    6        4.330861      6.190909   1.000000  -0.019359
    7        4.337366      6.383974   1.000000  -0.000586
    8        4.421304      6.884512   1.000000  -0.000000
    9        4.971307      7.033048   1.000000  -0.000000
   10        5.051512      7.749785   1.000000  -0.000000
   11        5.790460      7.927508   0.756553  -0.000000
   12       10.564605     11.672169  -0.000000   0.000000
   13       16.959208     17.713221   0.000000   0.000000
   14       17.435378     18.057925   0.000000   0.000000
   15       23.808375     24.489018   0.000000   0.000000
   16       24.736461     25.153970   0.000000   0.000000
   17       25.484317     26.051501   0.000000   0.000000
   18       26.108870     26.548639   0.000000   0.000000
   19       30.110859     30.252956   0.000000   0.000000
   20       31.378112     31.987917   0.000000   0.000000
 
  0.3636364E+00  0.9090909E-01  0.9090909E-01  0.1803156E-01
    1        0.070954      0.361587   1.000000   1.000000
    2        1.777952      3.068768   1.000000   1.000000
    3        2.104216      4.077536   1.000000   1.000000
    4        3.218317      5.124943   1.000000   1.000002
    5        3.393005      5.177249   1.000000   1.000009
    6        3.963942      5.805912   1.000000   0.699411