PROCAR lm decomposed
# of k-points:   56         # of bands:   20         # of ions:    2

 k-point     1 :    0.00000000 0.00000000 0.00000000     weight = 0.00075131

band     1 # energy   -2.59830428 # occ.  1.00000000
 
ion      s     py     pz     px    dxy    dyz    dz2    dxz  x2-y2    tot
    1  0.367  0.000  0.000  0.000  0.000  0.000  0.000  0.000  0.000  0.367
    2  0.367  0.000  0.000  0.000  0.000  0.000  0.000  0.000  0.000  0.367
tot    0.735  0.000  0.000  0.000  0.000  0.000  0.000  0.000  0.000  0.735
 
band     2 # energy    0.99270145 # occ.  1.00000000
 
ion      s     py     pz     px    dxy    dyz    dz2    dxz  x2-y2    tot
    1  0.000  0.000  0.000  0.000  0.000  0.000  0.347  0.000  0.091  0.438
    2  0.000  0.000  0.000  0.000  0.000  0.000  0.347  0.000  0.091  0.438
tot    0.000  0.000  0.000  0.000  0.000  0.000  0.695  0.000  0.182  0.876
 
band     3 # energy    0.99270165 # occ.  1.00000000
 
ion      s     py     pz     px    dxy    dyz    dz2    dxz  x2-y2    tot
    1  0.000  0.000  0.000  0.000  0.000  0.000  0.091  0.000  0.347  0.438
    2  0.000  0.000  0.000  0.000  0.000  0.000  0.091  0.000  0.347  0.438
tot    0.000  0.000  0.000  0.000  0.000  0.000  0.182  0.000  0.695  0.876
 
band     4 # energy    3.55757636 # occ.  1.00000000
 
ion      s     py     pz     px    dxy    dyz    dz2    dxz  x2-y2    tot
    1  0.000  0.000  0.000  0.000  0.489  0.000  0.000  0.000  0.000  0.489
    2  0.000  0.000  0.000  0.000  0.489  0.000  0.000  0.000  0.000  0.489
tot    0.000  0.000  0.000  0.000  0.979  0.000  0.000  0.000  0.000  0.979
 
band     5 # energy    3.55757753 # occ.  1.00000000
 
ion      s     py     pz     px    dxy    dyz    dz2    dxz  x2-y2    tot
    1  0.000  0.000  0.000  0.000  0.000  0.013  0.000  0.476  0.000  0.489
    2  0.000  0.000  0.000  0.000  0.000  0.013  0.000  0.476  0.000  0.489
tot    0.000  0.000  0.000  0.000  0.000  0.026  0.000  0.952  0.000  0.979
 
band     6 # energy    3.55757757 # occ.  1.00000000
 
ion      s     py     pz     px    dxy    dyz    dz2    dxz  x2-y2    tot
    1  0.000  0.000  0.000  0.000  0.000  0.476  0.000  0.013  0.000  0.489
    2  0.000  0.000  0.000  0.000  0.000  0.476  0.000  0.013  0.000  0.489
tot    0.000  0.000  0.000  0.000  0.000  0.952  0.000  0.026  0.000  0.979
 
band     7 # energy    4.76980360 # occ.  1.00000000
 
ion      s     py     pz     px    dxy    dyz    dz2    dxz  x2-y2    tot
    1  0.000  0.000  0.000  0.000  0.000  0.000  0.483  0.000  0.002  0.485
    2  0.000  0.000  0.000  0.000  0.000  0.000  0.483  0.000  0.002  0.485
tot    0.000  0.000  0.000  0.000  0.000  0.000  0.965  0.000  0.005  0.970
 
band     8 # energy    4.76980491 # occ.  1.00000000
 
ion      s     py     pz     px    dxy    dyz    dz2    dxz  x2-y2    tot
    1  0.000  0.000  0.000  0.000  0.000  0.000  0.002  0.000  0.483  0.485
    2  0.000  0.000  0.000  0.000  0.000  0.000  0.002  0.000  0.483  0.485
tot    0.000  0.000  0.000  0.000  0.000  0.000  0.005  0.000  0.965  0.970
 
band     9 # energy    5.99043366 # occ.  0.04761398
 
ion      s     py     pz     px    dxy    dyz    dz2    dxz  x2-y2    tot
    1  0.000  0.000  0.000  0.000  0.494  0.000  0.000  0.000  0.000  0.494
    2  0.000  0.000  0.000  0.000  0.494  0.000  0.000  0.000  0.000  0.494
tot    0.000  0.000  0.000  0.000  0.988  0.000  0.000  0.000  0.000  0.988
 
band    10 # energy    5.99043567 # occ.  0.04761027
 
ion      s     py     pz     px    dxy    dyz    dz2    dxz  x2-y2    tot
    1  0.000  0.000  0.000  0.000  0.000  0.119  0.000  0.375  0.000  0.494
    2  0.000  0.000  0.000  0.000  0.000  0.119  0.000  0.375  0.000  0.494
tot    0.000  0.000  0.000  0.000  0.000  0.237  0.000  0.751  0.000  0.988
 
band    11 # energy    5.99043574 # occ.  0.04761014
 
ion      s     py     pz     px    dxy    dyz    dz2    dxz  x2-y2    tot
    1  0.000  0.000  0.000  0.000  0.000  0.375  0.000  0.119  0.000  0.494
    2  0.000  0.000  0.000  0.000  0.000  0.375  0.000  0.119  0.000  0.494
tot    0.000  0.000  0.000  0.000  0.000  0.751  0.000  0.237  0.000  0.988
 
band    12 # energy   15.81722887 # occ.  0.00000000
 
ion      s     py     pz     px    dxy    dyz    dz2    dxz  x2-y2    tot
    1  0.000  0.126  0.001  0.249  0.000  0.000  0.000  0.000  0.000  0.376
    2  0.000  0.126  0.001  0.249  0.000  0.000  0.000  0.000  0.000  0.376
tot    0.000  0.253  0.001  0.499  0.000  0.000  0.000  0.000  0.000  0.753
 
band    13 # energy   15.81722913 # occ.  0.00000000
 
ion      s     py     pz     px    dxy    dyz    dz2    dxz  x2-y2    tot
    1  0.000  0.176  0.101  0.099  0.000  0.000  0.000  0.000  0.000  0.376
    2  0.000  0.176  0.101  0.099  0.000  0.000  0.000  0.000  0.000  0.376
tot    0.000  0.353  0.202  0.198  0.000  0.000  0.000  0.000  0.000  0.753
 
band    14 # energy   15.81722914 # occ.  0.00000000
 
ion      s     py     pz     px    dxy    dyz    dz2    dxz  x2-y2    tot
    1  0.000  0.074  0.275  0.028  0.000  0.000  0.000  0.000  0.000  0.376
    2  0.000  0.074  0.275  0.028  0.000  0.000  0.000  0.000  0.000  0.376
tot    0.000  0.147  0.550  0.056  0.000  0.000  0.000  0.000  0.000  0.753
 
band    15 # energy   21.54351762 # occ.  0.00000000
 
ion      s     py     pz     px    dxy    dyz    dz2    dxz  x2-y2    tot
    1  0.000  0.000  0.000  0.000  0.000  0.000  0.476  0.000  0.000  0.476
    2  0.000  0.000  0.000  0.000  0.000  0.000  0.476  0.000  0.000  0.476
tot    0.000  0.000  0.000  0.000  0.000  0.000  0.952  0.000  0.000  0.952
 
band    16 # energy   21.54351965 # occ.  0.00000000
 
ion      s     py     pz     px    dxy    dyz    dz2    dxz  x2-y2    tot
    1  0.000  0.000  0.000  0.000  0.000  0.000  0.000  0.000  0.476  0.476
    2  0.000  0.000  0.000  0.000  0.000  0.000  0.000  0.000  0.476  0.476
tot    0.000  0.000  0.000  0.000  0.000  0.000  0.000  0.000  0.952  0.952
 
band    17 # energy   26.70054514 # occ.  0.00000000
 
ion      s     py     pz     px    dxy    dyz    dz2    dxz  x2-y2    tot
    1  0.391  0.000  0.000  0.000  0.000  0.000  0.000  0.000  0.000  0.391
    2  0.391  0.000  0.000  0.000  0.000  0.000  0.000  0.000  0.000  0.391
tot    0.782  0.000  0.000  0.000  0.000  0.000  0.000  0.000  0.000  0.782
 
band    18 # energy   30.91288900 # occ.  0.00000000
 
ion      s     py     pz     px    dxy    dyz    dz2    dxz  x2-y2    tot
    1  0.000  0.000  0.000  0.000  0.000  0.000  0.000  0.000  0.000  0.000
    2  0.000  0.000  0.000  0.000  0.000  0.000  0.000  0.000  0.000  0.000
tot    0.000  0.000  0.000  0.000  0.000  0.000  0.000  0.000  0.000  0.000
 
band    19 # energy   30.91288903 # occ.  0.00000000
 
ion      s     py     pz     px    dxy    dyz    dz2    dxz  x2-y2    tot
    1  0.000  0.000  0.000  0.000  0.000  0.000  0.000  0.000  0.000  0.000
    2  0.000  0.000  0.000  0.000  0.000  0.000  0.000  0.000  0.000  0.000
tot    0.000  0.000  0.000  0.000  0.000  0.000  0.000  0.000  0.000  0.000
 
band    20 # energy   30.91288906 # occ.  0.00000000
 
ion      s     py     pz     px    dxy    dyz    dz2    dxz  x2-y2    tot
    1  0.000  0.000  0.000  0.000  0.000  0.000  0.000  0.000  0.000  0.000
    2  0.000  0.000  0.000  0.000  0.000  0.000  0.000  0.000  0.000  0.000
tot    0.000  0.000  0.000  0.000  0.000  0.000  0.000  0.000  0.000  0.000
 

 k-point     2 :    0.09090909 0.00000000 0.00000000     weight = 0.00450789

band     1 # energy   -2.42649536 # occ.  1.00000000
 
ion      s     py     pz     px    dxy    dyz    dz2    dxz  x2-y2    tot
    1  0.361  0.000  0.000  0.006  0.000  0.000  0.000  0.000  0.000  0.367
    2  0.361  0.000  0.000  0.006  0.000  0.000  0.000  0.000  0.000  0.367
tot    0.722  0.000  0.000  0.012  0.000  0.000  0.000  0.000  0.000  0.735
 
band     2 # energy    1.06629097 # occ.  1.00000000
 
ion      s     py     pz     px    dxy    dyz    dz2    dxz  x2-y2    tot
    1  0.000  0.000  0.000  0.000  0.000  0.000  0.329  0.000  0.110  0.438
    2  0.000  0.000  0.000  0.000  0.000  0.000  0.329  0.000  0.110  0.438
tot    0.000  0.000  0.000  0.000  0.000  0.000  0.658  0.000  0.219  0.877
 
band     3 # energy    1.06864969 # occ.  1.00000000
 
ion      s     py     pz     px    dxy    dyz    dz2    dxz  x2-y2    tot
    1  0.000  0.000  0.000  0.005  0.000  0.000  0.108  0.000  0.325  0.438
    2  0.000  0.000  0.000  0.005  0.000  0.000  0.108  0.000  0.325  0.438
tot    0.000  0.000  0.000  0.009  0.000  0.000  0.217  0.000  0.650  0.876
 
band     4 # energy    3.55644910 # occ.  1.00000000
 
ion      s     py     pz     px    dxy    dyz    dz2    dxz  x2-y2    tot
    1  0.000  0.001  0.000  0.000  0.488  0.000  0.000  0.000  0.000  0.489
    2  0.000  0.001  0.000  0.000  0.488  0.000  0.000  0.000  0.000  0.489
tot    0.000  0.001  0.000  0.000  0.976  0.000  0.000  0.000  0.000  0.977
 
band     5 # energy    3.55645027 # occ.  1.00000000
 
ion      s     py     pz     px    dxy    dyz    dz2    dxz  x2-y2    tot
    1  0.000  0.000  0.001  0.000  0.000  0.000  0.000  0.488  0.000  0.489
    2  0.000  0.000  0.001  0.000  0.000  0.000  0.000  0.488  0.000  0.489
tot    0.000  0.000  0.001  0.000  0.000  0.000  0.000  0.976  0.000  0.977
 
band     6 # energy    3.60473644 # occ.  1.00000000
 
ion      s     py     pz     px    dxy    dyz    dz2    dxz  x2-y2    tot
    1  0.000  0.000  0.000  0.000  0.000  0.489  0.000  0.000  0.000  0.489
    2  0.000  0.000  0.000  0.000  0.000  0.489  0.000  0.000  0.000  0.489
tot    0.000  0.000  0.000  0.000  0.000  0.978  0.000  0.000  0.000  0.978
 
band     7 # energy    4.69291655 # occ.  1.00000000
 
ion      s     py     pz     px    dxy    dyz    dz2    dxz  x2-y2    tot
    1  0.000  0.000  0.000  0.000  0.000  0.000  0.363  0.000  0.121  0.484
    2  0.000  0.000  0.000  0.000  0.000  0.000  0.363  0.000  0.121  0.484
tot    0.000  0.000  0.000  0.000  0.000  0.000  0.725  0.000  0.242  0.967
 
band     8 # energy    4.80014944 # occ.  1.00000000
 
ion      s     py     pz     px    dxy    dyz    dz2    dxz  x2-y2    tot
    1  0.000  0.000  0.000  0.000  0.000  0.000  0.121  0.000  0.364  0.486
    2  0.000  0.000  0.000  0.000  0.000  0.000  0.121  0.000  0.364  0.486
tot    0.000  0.000  0.000  0.000  0.000  0.000  0.243  0.000  0.729  0.972
 
band     9 # energy    5.84715798 # occ.  0.53147407
 
ion      s     py     pz     px    dxy    dyz    dz2    dxz  x2-y2    tot
    1  0.000  0.004  0.000  0.000  0.488  0.000  0.000  0.000  0.000  0.492
    2  0.000  0.004  0.000  0.000  0.488  0.000  0.000  0.000  0.000  0.492
tot    0.000  0.008  0.000  0.000  0.976  0.000  0.000  0.000  0.000  0.983
 
band    10 # energy    5.84715993 # occ.  0.53146583
 
ion      s     py     pz     px    dxy    dyz    dz2    dxz  x2-y2    tot
    1  0.000  0.000  0.004  0.000  0.000  0.000  0.000  0.488  0.000  0.492
    2  0.000  0.000  0.004  0.000  0.000  0.000  0.000  0.488  0.000  0.492
tot    0.000  0.000  0.008  0.000  0.000  0.000  0.000  0.976  0.000  0.983
 
band    11 # energy    5.93939225 # occ.  0.17448003
 
ion      s     py     pz     px    dxy    dyz    dz2    dxz  x2-y2    tot
    1  0.000  0.000  0.000  0.000  0.000  0.493  0.000  0.000  0.000  0.493
    2  0.000  0.000  0.000  0.000  0.000  0.493  0.000  0.000  0.000  0.493
tot    0.000  0.000  0.000  0.000  0.000  0.987  0.000  0.000  0.000  0.987
 
band    12 # energy   14.66247666 # occ.  0.00000000
 
ion      s     py     pz     px    dxy    dyz    dz2    dxz  x2-y2    tot
    1  0.026  0.000  0.000  0.320  0.000  0.000  0.011  0.000  0.034  0.391
    2  0.026  0.000  0.000  0.320  0.000  0.000  0.011  0.000  0.034  0.391
tot    0.053  0.000  0.000  0.640  0.000  0.000  0.022  0.000  0.067  0.783
 
band    13 # energy   16.14157002 # occ.  0.00000000
 
ion      s     py     pz     px    dxy    dyz    dz2    dxz  x2-y2    tot
    1  0.000  0.368  0.001  0.000  0.013  0.000  0.000  0.000  0.000  0.382
    2  0.000  0.368  0.001  0.000  0.013  0.000  0.000  0.000  0.000  0.382
tot    0.000  0.736  0.002  0.000  0.025  0.000  0.000  0.000  0.000  0.763
 
band    14 # energy   16.14157019 # occ.  0.00000000
 
ion      s     py     pz     px    dxy    dyz    dz2    dxz  x2-y2    tot
    1  0.000  0.001  0.368  0.000  0.000  0.000  0.000  0.013  0.000  0.382
    2  0.000  0.001  0.368  0.000  0.000  0.000  0.000  0.013  0.000  0.382
tot    0.000  0.002  0.736  0.000  0.000  0.000  0.000  0.025  0.000  0.763
 
band    15 # energy   21.59346654 # occ.  0.00000000
 
ion      s     py     pz     px    dxy    dyz    dz2    dxz  x2-y2    tot
    1  0.000  0.000  0.000  0.000  0.000  0.000  0.354  0.000  0.118  0.472
    2  0.000  0.000  0.000  0.000  0.000  0.000  0.354  0.000  0.118  0.472
tot    0.000  0.000  0.000  0.000  0.000  0.000  0.708  0.000  0.236  0.944
 
band    16 # energy   22.37681910 # occ.  0.00000000
 
ion      s     py     pz     px    dxy    dyz    dz2    dxz  x2-y2    tot
    1  0.015  0.000  0.000  0.016  0.000  0.000  0.105  0.000  0.315  0.451
    2  0.015  0.000  0.000  0.016  0.000  0.000  0.105  0.000  0.315  0.451
tot    0.029  0.000  0.000  0.033  0.000  0.000  0.210  0.000  0.630  0.902
 
band    17 # energy   27.27623584 # occ.  0.00000000
 
ion      s     py     pz     px    dxy    dyz    dz2    dxz  x2-y2    tot
    1  0.348  0.000  0.000  0.037  0.000  0.000  0.002  0.000  0.006  0.393
    2  0.348  0.000  0.000  0.037  0.000  0.000  0.002  0.000  0.006  0.393
tot    0.697  0.000  0.000  0.073  0.000  0.000  0.004  0.000  0.012  0.786
 
band    18 # energy   29.84945926 # occ.  0.00000000
 
ion      s     py     pz     px    dxy    dyz    dz2    dxz  x2-y2    tot
    1  0.000  0.000  0.000  0.000  0.000  0.000  0.069  0.000  0.023  0.092
    2  0.000  0.000  0.000  0.000  0.000  0.000  0.069  0.000  0.023  0.092
tot    0.000  0.000  0.000  0.000  0.000  0.000  0.139  0.000  0.046  0.185
 
band    19 # energy   30.74757723 # occ.  0.00000000
 
ion      s     py     pz     px    dxy    dyz    dz2    dxz  x2-y2    tot
    1  0.000  0.003  0.000  0.000  0.068  0.000  0.000  0.000  0.000  0.071
    2  0.000  0.003  0.000  0.000  0.068  0.000  0.000  0.000  0.000  0.071
tot    0.000  0.007  0.000  0.000  0.136  0.000  0.000  0.000  0.000  0.143
 
band    20 # energy   30.74757740 # occ.  0.00000000
 
ion      s     py     pz     px    dxy    dyz    dz2    dxz  x2-y2    tot
    1  0.000  0.000  0.003  0.000  0.000  0.000  0.000  0.068  0.000  0.071
    2  0.000  0.000  0.003  0.000  0.000  0.000  0.000  0.068  0.000  0.071
tot    0.000  0.000  0.007  0.000  0.000  0.000  0.000  0.136  0.000  0.143
 

 k-point     3 :    0.18181818 0.00000000 0.00000000     weight = 0.00450789

band     1 # energy   -1.92406750 # occ.  1.00000000
 
ion      s     py     pz     px    dxy    dyz    dz2    dxz  x2-y2    tot
    1  0.343  0.000  0.000  0.024  0.000  0.000  0.000  0.000  0.001  0.368
    2  0.343  0.000  0.000  0.024  0.000  0.000  0.000  0.000  0.001  0.368
tot    0.685  0.000  0.000  0.048  0.000  0.000  0.001  0.000  0.002  0.736
 
band     2 # energy    1.26961079 # occ.  1.00000000
 
ion      s     py     pz     px    dxy    dyz    dz2    dxz  x2-y2    tot
    1  0.002  0.000  0.000  0.018  0.000  0.000  0.104  0.000  0.313  0.437
    2  0.002  0.000  0.000  0.018  0.000  0.000  0.104  0.000  0.313  0.437
tot    0.004  0.000  0.000  0.036  0.000  0.000  0.208  0.000  0.625  0.873
 
band     3 # energy    1.28177998 # occ.  1.00000000
 
ion      s     py     pz     px    dxy    dyz    dz2    dxz  x2-y2    tot
    1  0.000  0.000  0.000  0.000  0.000  0.000  0.330  0.000  0.110  0.440
    2  0.000  0.000  0.000  0.000  0.000  0.000  0.330  0.000  0.110  0.440
tot    0.000  0.000  0.000  0.000  0.000  0.000  0.659  0.000  0.220  0.879
 
band     4 # energy    3.56206936 # occ.  1.00000000
 
ion      s     py     pz     px    dxy    dyz    dz2    dxz  x2-y2    tot
    1  0.000  0.002  0.000  0.000  0.484  0.000  0.000  0.000  0.000  0.487
    2  0.000  0.002  0.000  0.000  0.484  0.000  0.000  0.000  0.000  0.487
tot    0.000  0.005  0.000  0.000  0.969  0.000  0.000  0.000  0.000  0.974
 
band     5 # energy    3.56207053 # occ.  1.00000000
 
ion      s     py     pz     px    dxy    dyz    dz2    dxz  x2-y2    tot
    1  0.000  0.000  0.002  0.000  0.000  0.000  0.000  0.484  0.000  0.487
    2  0.000  0.000  0.002  0.000  0.000  0.000  0.000  0.484  0.000  0.487
tot    0.000  0.000  0.005  0.000  0.000  0.000  0.000  0.969  0.000  0.974
 
band     6 # energy    3.74292013 # occ.  1.00000000
 
ion      s     py     pz     px    dxy    dyz    dz2    dxz  x2-y2    tot
    1  0.000  0.000  0.000  0.000  0.000  0.488  0.000  0.000  0.000  0.488
    2  0.000  0.000  0.000  0.000  0.000  0.488  0.000  0.000  0.000  0.488
tot    0.000  0.000  0.000  0.000  0.000  0.977  0.000  0.000  0.000  0.977
 
band     7 # energy    4.46775523 # occ.  1.00000000
 
ion      s     py     pz     px    dxy    dyz    dz2    dxz  x2-y2    tot
    1  0.000  0.000  0.000  0.000  0.000  0.000  0.359  0.000  0.120  0.479
    2  0.000  0.000  0.000  0.000  0.000  0.000  0.359  0.000  0.120  0.479
tot    0.000  0.000  0.000  0.000  0.000  0.000  0.718  0.000  0.239  0.958
 
band     8 # energy    4.88795605 # occ.  1.00000000
 
ion      s     py     pz     px    dxy    dyz    dz2    dxz  x2-y2    tot
    1  0.001  0.000  0.000  0.000  0.000  0.000  0.122  0.000  0.365  0.487
    2  0.001  0.000  0.000  0.000  0.000  0.000  0.122  0.000  0.365  0.487
tot    0.002  0.000  0.000  0.000  0.000  0.000  0.243  0.000  0.729  0.975
 
band     9 # energy    5.47787314 # occ.  1.01142980
 
ion      s     py     pz     px    dxy    dyz    dz2    dxz  x2-y2    tot
    1  0.000  0.011  0.000  0.000  0.475  0.000  0.000  0.000  0.000  0.487
    2  0.000  0.011  0.000  0.000  0.475  0.000  0.000  0.000  0.000  0.487
tot    0.000  0.023  0.000  0.000  0.951  0.000  0.000  0.000  0.000  0.974
 
band    10 # energy    5.47787492 # occ.  1.01143010
 
ion      s     py     pz     px    dxy    dyz    dz2    dxz  x2-y2    tot
    1  0.000  0.000  0.011  0.000  0.000  0.000  0.000  0.475  0.000  0.487
    2  0.000  0.000  0.011  0.000  0.000  0.000  0.000  0.475  0.000  0.487
tot    0.000  0.000  0.023  0.000  0.000  0.000  0.000  0.951  0.000  0.974
 
band    11 # energy    5.79008399 # occ.  0.75788766
 
ion      s     py     pz     px    dxy    dyz    dz2    dxz  x2-y2    tot
    1  0.000  0.000  0.000  0.000  0.000  0.492  0.000  0.000  0.000  0.492
    2  0.000  0.000  0.000  0.000  0.000  0.492  0.000  0.000  0.000  0.492
tot    0.000  0.000  0.000  0.000  0.000  0.984  0.000  0.000  0.000  0.984
 
band    12 # energy   12.44802651 # occ.  0.00000000
 
ion      s     py     pz     px    dxy    dyz    dz2    dxz  x2-y2    tot
    1  0.067  0.000  0.000  0.253  0.000  0.000  0.022  0.000  0.065  0.407
    2  0.067  0.000  0.000  0.253  0.000  0.000  0.022  0.000  0.065  0.407
tot    0.134  0.000  0.000  0.506  0.000  0.000  0.043  0.000  0.130  0.813
 
band    13 # energy   17.04974006 # occ.  0.00000000
 
ion      s     py     pz     px    dxy    dyz    dz2    dxz  x2-y2    tot
    1  0.000  0.350  0.000  0.000  0.045  0.000  0.000  0.000  0.000  0.395
    2  0.000  0.350  0.000  0.000  0.045  0.000  0.000  0.000  0.000  0.395
tot    0.000  0.700  0.000  0.000  0.089  0.000  0.000  0.000  0.000  0.790
 
band    14 # energy   17.04974042 # occ.  0.00000000
 
ion      s     py     pz     px    dxy    dyz    dz2    dxz  x2-y2    tot
    1  0.000  0.000  0.350  0.000  0.000  0.000  0.000  0.045  0.000  0.395
    2  0.000  0.000  0.350  0.000  0.000  0.000  0.000  0.045  0.000  0.395
tot    0.000  0.000  0.700  0.000  0.000  0.000  0.000  0.089  0.000  0.790
 
band    15 # energy   21.74776680 # occ.  0.00000000
 
ion      s     py     pz     px    dxy    dyz    dz2    dxz  x2-y2    tot
    1  0.000  0.000  0.000  0.000  0.000  0.000  0.346  0.000  0.115  0.461
    2  0.000  0.000  0.000  0.000  0.000  0.000  0.346  0.000  0.115  0.461
tot    0.000  0.000  0.000  0.000  0.000  0.000  0.692  0.000  0.231  0.922
 
band    16 # energy   23.42784788 # occ.  0.00000000
 
ion      s     py     pz     px    dxy    dyz    dz2    dxz  x2-y2    tot
    1  0.089  0.000  0.000  0.002  0.000  0.000  0.078  0.000  0.233  0.403
    2  0.089  0.000  0.000  0.002  0.000  0.000  0.078  0.000  0.233  0.403
tot    0.179  0.000  0.000  0.004  0.000  0.000  0.156  0.000  0.467  0.805
 
band    17 # energy   28.04400957 # occ.  0.00000000
 
ion      s     py     pz     px    dxy    dyz    dz2    dxz  x2-y2    tot
    1  0.000  0.000  0.000  0.000  0.000  0.000  0.138  0.000  0.046  0.184
    2  0.000  0.000  0.000  0.000  0.000  0.000  0.138  0.000  0.046  0.184
tot    0.000  0.000  0.000  0.000  0.000  0.000  0.276  0.000  0.092  0.368
 
band    18 # energy   29.23356173 # occ.  0.00000000
 
ion      s     py     pz     px    dxy    dyz    dz2    dxz  x2-y2    tot
    1  0.227  0.000  0.000  0.109  0.000  0.000  0.018  0.000  0.053  0.406
    2  0.227  0.000  0.000  0.109  0.000  0.000  0.018  0.000  0.053  0.406
tot    0.454  0.000  0.000  0.218  0.000  0.000  0.035  0.000  0.105  0.812
 
band    19 # energy   29.91971729 # occ.  0.00000000
 
ion      s     py     pz     px    dxy    dyz    dz2    dxz  x2-y2    tot
    1  0.000  0.045  0.000  0.000  0.229  0.000  0.000  0.000  0.000  0.274
    2  0.000  0.045  0.000  0.000  0.229  0.000  0.000  0.000  0.000  0.274
tot    0.000  0.091  0.000  0.000  0.458  0.000  0.000  0.000  0.000  0.549
 
band    20 # energy   29.91971789 # occ.  0.00000000
 
ion      s     py     pz     px    dxy    dyz    dz2    dxz  x2-y2    tot
    1  0.000  0.000  0.045  0.000  0.000  0.000  0.000  0.229  0.000  0.274
    2  0.000  0.000  0.045  0.000  0.000  0.000  0.000  0.229  0.000  0.274
tot    0.000  0.000  0.091  0.000  0.000  0.000  0.000  0.458  0.000  0.549
 

 k-point     4 :    0.27272727 0.00000000 0.00000000     weight = 0.00450789

band     1 # energy   -1.13563138 # occ.  1.00000000
 
ion      s     py     pz     px    dxy    dyz    dz2    dxz  x2-y2    tot
    1  0.310  0.000  0.000  0.051  0.000  0.000  0.002  0.000  0.006  0.369
    2  0.310  0.000  0.000  0.051  0.000  0.000  0.002  0.000  0.006  0.369
tot    0.620  0.000  0.000  0.102  0.000  0.000  0.004  0.000  0.013  0.738
 
band     2 # energy    1.51301347 # occ.  1.00000000
 
ion      s     py     pz     px    dxy    dyz    dz2    dxz  x2-y2    tot
    1  0.010  0.000  0.000  0.039  0.000  0.000  0.096  0.000  0.287  0.432
    2  0.010  0.000  0.000  0.039  0.000  0.000  0.096  0.000  0.287  0.432
tot    0.021  0.000  0.000  0.078  0.000  0.000  0.191  0.000  0.574  0.865
 
band     3 # energy    1.62467708 # occ.  1.00000000
 
ion      s     py     pz     px    dxy    dyz    dz2    dxz  x2-y2    tot
    1  0.000  0.000  0.000  0.000  0.000  0.000  0.331  0.000  0.110  0.442
    2  0.000  0.000  0.000  0.000  0.000  0.000  0.331  0.000  0.110  0.442
tot    0.000  0.000  0.000  0.000  0.000  0.000  0.663  0.000  0.221  0.883
 
band     4 # energy    3.59743486 # occ.  1.00000000
 
ion      s     py     pz     px    dxy    dyz    dz2    dxz  x2-y2    tot
    1  0.000  0.005  0.000  0.000  0.479  0.000  0.000  0.000  0.000  0.484
    2  0.000  0.005  0.000  0.000  0.479  0.000  0.000  0.000  0.000  0.484
tot    0.000  0.011  0.000  0.000  0.958  0.000  0.000  0.000  0.000  0.969
 
band     5 # energy    3.59743603 # occ.  1.00000000
 
ion      s     py     pz     px    dxy    dyz    dz2    dxz  x2-y2    tot
    1  0.000  0.000  0.005  0.000  0.000  0.000  0.000  0.479  0.000  0.484
    2  0.000  0.000  0.005  0.000  0.000  0.000  0.000  0.479  0.000  0.484
tot    0.000  0.000  0.011  0.000  0.000  0.000  0.000  0.958  0.000  0.969
 
band     6 # energy    3.96227973 # occ.  1.00000000
 
ion      s     py     pz     px    dxy    dyz    dz2    dxz  x2-y2    tot
    1  0.000  0.000  0.000  0.000  0.000  0.488  0.000  0.000  0.000  0.488
    2  0.000  0.000  0.000  0.000  0.000  0.488  0.000  0.000  0.000  0.488
tot    0.000  0.000  0.000  0.000  0.000  0.975  0.000  0.000  0.000  0.975
 
band     7 # energy    4.11082858 # occ.  1.00000000
 
ion      s     py     pz     px    dxy    dyz    dz2    dxz  x2-y2    tot
    1  0.000  0.000  0.000  0.000  0.000  0.000  0.354  0.000  0.118  0.472
    2  0.000  0.000  0.000  0.000  0.000  0.000  0.354  0.000  0.118  0.472
tot    0.000  0.000  0.000  0.000  0.000  0.000  0.708  0.000  0.236  0.945
 
band     8 # energy    5.00859505 # occ.  1.00000002
 
ion      s     py     pz     px    dxy    dyz    dz2    dxz  x2-y2    tot
    1  0.000  0.017  0.000  0.000  0.466  0.000  0.000  0.000  0.000  0.482
    2  0.000  0.017  0.000  0.000  0.466  0.000  0.000  0.000  0.000  0.482
tot    0.000  0.034  0.000  0.000  0.931  0.000  0.000  0.000  0.000  0.965
 
band     9 # energy    5.00859664 # occ.  1.00000002
 
ion      s     py     pz     px    dxy    dyz    dz2    dxz  x2-y2    tot
    1  0.000  0.000  0.017  0.000  0.000  0.000  0.000  0.466  0.000  0.482
    2  0.000  0.000  0.017  0.000  0.000  0.000  0.000  0.466  0.000  0.482
tot    0.000  0.000  0.034  0.000  0.000  0.000  0.000  0.931  0.000  0.965
 
band    10 # energy    5.03067975 # occ.  1.00000005
 
ion      s     py     pz     px    dxy    dyz    dz2    dxz  x2-y2    tot
    1  0.006  0.000  0.000  0.001  0.000  0.000  0.121  0.000  0.362  0.489
    2  0.006  0.000  0.000  0.001  0.000  0.000  0.121  0.000  0.362  0.489
tot    0.011  0.000  0.000  0.002  0.000  0.000  0.241  0.000  0.723  0.978
 
band    11 # energy    5.55602544 # occ.  1.02796771
 
ion      s     py     pz     px    dxy    dyz    dz2    dxz  x2-y2    tot
    1  0.000  0.000  0.000  0.000  0.000  0.490  0.000  0.000  0.000  0.490
    2  0.000  0.000  0.000  0.000  0.000  0.490  0.000  0.000  0.000  0.490
tot    0.000  0.000  0.000  0.000  0.000  0.981  0.000  0.000  0.000  0.981
 
band    12 # energy   10.16560837 # occ. -0.00000000
 
ion      s     py     pz     px    dxy    dyz    dz2    dxz  x2-y2    tot
    1  0.100  0.000  0.000  0.194  0.000  0.000  0.031  0.000  0.093  0.419
    2  0.100  0.000  0.000  0.194  0.000  0.000  0.031  0.000  0.093  0.419
tot    0.201  0.000  0.000  0.388  0.000  0.000  0.062  0.000  0.187  0.838
 
band    13 # energy   18.40545100 # occ.  0.00000000
 
ion      s     py     pz     px    dxy    dyz    dz2    dxz  x2-y2    tot
    1  0.000  0.326  0.000  0.000  0.087  0.000  0.000  0.000  0.000  0.413
    2  0.000  0.326  0.000  0.000  0.087  0.000  0.000  0.000  0.000  0.413
tot    0.000  0.652  0.000  0.000  0.174  0.000  0.000  0.000  0.000  0.826
 
band    14 # energy   18.40545157 # occ.  0.00000000
 
ion      s     py     pz     px    dxy    dyz    dz2    dxz  x2-y2    tot
    1  0.000  0.000  0.326  0.000  0.000  0.000  0.000  0.087  0.000  0.413
    2  0.000  0.000  0.326  0.000  0.000  0.000  0.000  0.087  0.000  0.413
tot    0.000  0.000  0.652  0.000  0.000  0.000  0.000  0.174  0.000  0.826
 
band    15 # energy   22.02306107 # occ.  0.00000000
 
ion      s     py     pz     px    dxy    dyz    dz2    dxz  x2-y2    tot
    1  0.000  0.000  0.000  0.000  0.000  0.000  0.332  0.000  0.111  0.443
    2  0.000  0.000  0.000  0.000  0.000  0.000  0.332  0.000  0.111  0.443
tot    0.000  0.000  0.000  0.000  0.000  0.000  0.664  0.000  0.221  0.886
 
band    16 # energy   24.02863024 # occ.  0.00000000
 
ion      s     py     pz     px    dxy    dyz    dz2    dxz  x2-y2    tot
    1  0.142  0.000  0.000  0.007  0.000  0.000  0.050  0.000  0.151  0.351
    2  0.142  0.000  0.000  0.007  0.000  0.000  0.050  0.000  0.151  0.351
tot    0.285  0.000  0.000  0.014  0.000  0.000  0.101  0.000  0.303  0.703
 
band    17 # energy   26.36892321 # occ.  0.00000000
 
ion      s     py     pz     px    dxy    dyz    dz2    dxz  x2-y2    tot
    1  0.000  0.000  0.000  0.000  0.000  0.000  0.187  0.000  0.062  0.249
    2  0.000  0.000  0.000  0.000  0.000  0.000  0.187  0.000  0.062  0.249
tot    0.000  0.000  0.000  0.000  0.000  0.000  0.373  0.000  0.124  0.498
 
band    18 # energy   28.23886825 # occ.  0.00000000
 
ion      s     py     pz     px    dxy    dyz    dz2    dxz  x2-y2    tot
    1  0.000  0.120  0.000  0.000  0.303  0.000  0.000  0.000  0.000  0.424
    2  0.000  0.120  0.000  0.000  0.303  0.000  0.000  0.000  0.000  0.424
tot    0.000  0.241  0.000  0.000  0.607  0.000  0.000  0.000  0.000  0.848
 
band    19 # energy   28.23886917 # occ.  0.00000000
 
ion      s     py     pz     px    dxy    dyz    dz2    dxz  x2-y2    tot
    1  0.000  0.000  0.120  0.000  0.000  0.000  0.000  0.303  0.000  0.424
    2  0.000  0.000  0.120  0.000  0.000  0.000  0.000  0.303  0.000  0.424
tot    0.000  0.000  0.241  0.000  0.000  0.000  0.000  0.607  0.000  0.848
 
band    20 # energy   30.03065133 # occ.  0.00000000
 
ion      s     py     pz     px    dxy    dyz    dz2    dxz  x2-y2    tot
    1  0.048  0.000  0.000  0.174  0.000  0.000  0.006  0.000  0.017  0.244
    2  0.048  0.000  0.000  0.174  0.000  0.000  0.006  0.000  0.017  0.244
tot    0.096  0.000  0.000  0.348  0.000  0.000  0.011  0.000  0.033  0.488
 

 k-point     5 :    0.36363636 0.00000000 0.00000000     weight = 0.00450789

band     1 # energy   -0.15831870 # occ.  1.00000000
 
ion      s     py     pz     px    dxy    dyz    dz2    dxz  x2-y2    tot
    1  0.259  0.000  0.000  0.081  0.000  0.000  0.008  0.000  0.024  0.373
    2  0.259  0.000  0.000  0.081  0.000  0.000  0.008  0.000  0.024  0.373
tot    0.518  0.000  0.000  0.163  0.000  0.000  0.016  0.000  0.049  0.746
 
band     2 # energy    1.65023806 # occ.  1.00000000
 
ion      s     py     pz     px    dxy    dyz    dz2    dxz  x2-y2    tot
    1  0.037  0.000  0.000  0.067  0.000  0.000  0.080  0.000  0.239  0.422
    2  0.037  0.000  0.000  0.067  0.000  0.000  0.080  0.000  0.239  0.422
tot    0.074  0.000  0.000  0.134  0.000  0.000  0.159  0.000  0.478  0.845
 
band     3 # energy    2.07057034 # occ.  1.00000000
 