   2   2   0   0
  0.2012522E+02  0.3846761E-09  0.3846762E-09  0.3846760E-09  0.5000000E-15
  1.000000000000000E-004
  CAR 
 unknown system                          
     16.65998724     -7.21113333  301      5.99879667      1.00000000
     -7.211  0.0000E+00  0.0000E+00
     -7.132  0.0000E+00  0.0000E+00
     -7.052  0.0000E+00  0.0000E+00
     -6.972  0.0000E+00  0.0000E+00
     -6.893  0.0000E+00  0.0000E+00
     -6.813  0.0000E+00  0.0000E+00
     -6.734  0.0000E+00  0.0000E+00
     -6.654  0.0000E+00  0.0000E+00
     -6.575  0.0000E+00  0.0000E+00
     -6.495  0.0000E+00  0.0000E+00
     -6.415  0.3230E-19  0.2570E-20
     -6.336  0.4317E-12  0.3435E-13
     -6.256  0.3359E-07  0.2673E-08
     -6.177  0.2282E-04  0.1819E-05
     -6.097  0.3747E-03  0.3164E-04
     -6.018  0.1033E-02  0.1138E-03
     -5.938  0.1375E-02  0.2232E-03
     -5.858  0.1906E-02  0.3749E-03
     -5.779  0.1693E-02  0.5096E-03
     -5.699  0.2687E-02  0.7233E-03
     -5.620  0.2158E-02  0.8951E-03
     -5.540  0.2691E-02  0.1109E-02
     -5.461  0.2952E-02  0.1344E-02
     -5.381  0.3301E-02  0.1607E-02
     -5.301  0.3168E-02  0.1859E-02
     -5.222  0.2695E-02  0.2073E-02
     -5.142  0.4627E-02  0.2441E-02
     -5.063  0.3693E-02  0.2735E-02
     -4.983  0.3816E-02  0.3039E-02
     -4.904  0.3232E-02  0.3296E-02
     -4.824  0.5468E-02  0.3731E-02
     -4.744  0.4090E-02  0.4057E-02
     -4.665  0.4950E-02  0.4450E-02
     -4.585  0.4753E-02  0.4829E-02
     -4.506  0.4769E-02  0.5208E-02
     -4.426  0.4337E-02  0.5553E-02
     -4.347  0.6678E-02  0.6085E-02
     -4.267  0.6569E-02  0.6607E-02
     -4.187  0.4938E-02  0.7000E-02
     -4.108  0.5622E-02  0.7448E-02
     -4.028  0.6393E-02  0.7956E-02
     -3.949  0.7648E-02  0.8565E-02
     -3.869  0.7838E-02  0.9188E-02
     -3.790  0.7728E-02  0.9803E-02
     -3.710  0.1091E-01  0.1067E-01
     -3.630  0.7509E-02  0.1127E-01
     -3.551  0.5432E-02  0.1170E-01
     -3.471  0.1069E-01  0.1255E-01
     -3.392  0.7284E-02  0.1313E-01
     -3.312  0.7625E-02  0.1374E-01
     -3.233  0.7149E-02  0.1431E-01
     -3.153  0.8288E-02  0.1497E-01
     -3.073  0.6689E-02  0.1550E-01
     -2.994  0.3086E-02  0.1574E-01
     -2.914  0.5106E-02  0.1615E-01
     -2.835  0.7965E-02  0.1678E-01
     -2.755  0.8086E-02  0.1743E-01
     -2.676  0.5224E-02  0.1784E-01
     -2.596  0.4512E-02  0.1820E-01
     -2.516  0.2079E-02  0.1837E-01
     -2.437  0.2707E-02  0.1858E-01
     -2.357  0.3350E-02  0.1885E-01
     -2.278  0.6965E-02  0.1940E-01
     -2.198  0.3833E-02  0.1971E-01
     -2.119  0.2995E-02  0.1995E-01
     -2.039  0.6635E-03  0.2000E-01
     -1.959  0.4907E-05  0.2000E-01
     -1.880  0.5036E-09  0.2000E-01
     -1.800  0.1944E-05  0.2000E-01
     -1.721  0.5443E-03  0.2004E-01
     -1.641  0.5217E-02  0.2046E-01
     -1.562  0.6494E-02  0.2098E-01
     -1.482  0.2696E-02  0.2119E-01
     -1.402  0.2234E-02  0.2137E-01
     -1.323  0.2395E-02  0.2156E-01
     -1.243  0.2155E-02  0.2173E-01
     -1.164  0.5288E-02  0.2215E-01
     -1.084  0.1244E-01  0.2314E-01
     -1.005  0.1841E-01  0.2461E-01
     -0.925  0.1421E-01  0.2574E-01
     -0.846  0.1090E-01  0.2660E-01
     -0.766  0.7258E-02  0.2718E-01
     -0.686  0.9018E-02  0.2790E-01
     -0.607  0.9358E-02  0.2864E-01
     -0.527  0.3770E-02  0.2894E-01
     -0.448  0.7455E-02  0.2954E-01
     -0.368  0.1159E-01  0.3046E-01
     -0.289  0.4983E-02  0.3085E-01
     -0.209  0.1888E-02  0.3100E-01
     -0.129  0.4467E-02  0.3136E-01
     -0.050  0.7922E-02  0.3199E-01
      0.030  0.5339E-02  0.3242E-01
      0.109  0.1598E-02  0.3254E-01
      0.189  0.2209E-02  0.3272E-01
      0.268  0.6131E-02  0.3321E-01
      0.348  0.8556E-02  0.3389E-01
      0.428  0.2279E-02  0.3407E-01
      0.507  0.1141E-02  0.3416E-01
      0.587  0.1900E-02  0.3431E-01
      0.666  0.3533E-02  0.3459E-01
      0.746  0.6347E-02  0.3510E-01
      0.825  0.2989E-02  0.3533E-01
      0.905  0.7353E-03  0.3539E-01
      0.985  0.1390E-02  0.3550E-01
      1.064  0.3362E-02  0.3577E-01
      1.144  0.5019E-02  0.3617E-01
      1.223  0.3484E-02  0.3645E-01
      1.303  0.2683E-03  0.3647E-01
      1.382  0.1518E-02  0.3659E-01
      1.462  0.4045E-02  0.3691E-01
      1.542  0.7374E-02  0.3750E-01
      1.621  0.8798E-02  0.3820E-01
      1.701  0.1469E-01  0.3937E-01
      1.780  0.1133E-01  0.4027E-01
      1.860  0.9242E-02  0.4100E-01
      1.939  0.9953E-02  0.4180E-01
      2.019  0.1147E-01  0.4271E-01
      2.099  0.1249E-01  0.4370E-01
      2.178  0.1048E-01  0.4454E-01
      2.258  0.8827E-02  0.4524E-01
      2.337  0.9275E-02  0.4598E-01
      2.417  0.8649E-02  0.4666E-01
      2.496  0.1373E-01  0.4776E-01
      2.576  0.1305E-01  0.4880E-01
      2.656  0.9403E-02  0.4954E-01
      2.735  0.1205E-01  0.5050E-01
      2.815  0.1224E-01  0.5148E-01
      2.894  0.1203E-01  0.5243E-01
      2.974  0.1431E-01  0.5357E-01
      3.053  0.1577E-01  0.5483E-01
      3.133  0.1759E-01  0.5623E-01
      3.213  0.1373E-01  0.5732E-01
      3.292  0.1544E-01  0.5855E-01
      3.372  0.1133E-01  0.5945E-01
      3.451  0.1383E-01  0.6055E-01
      3.531  0.1585E-01  0.6181E-01
      3.610  0.1520E-01  0.6302E-01
      3.690  0.1385E-01  0.6412E-01
      3.770  0.1009E-01  0.6493E-01
      3.849  0.1327E-01  0.6598E-01
      3.929  0.1403E-01  0.6710E-01
      4.008  0.1366E-01  0.6818E-01
      4.088  0.1106E-01  0.6906E-01
      4.167  0.1222E-01  0.7004E-01
      4.247  0.1305E-01  0.7108E-01
      4.327  0.1036E-01  0.7190E-01
      4.406  0.1409E-01  0.7302E-01
      4.486  0.1001E-01  0.7382E-01
      4.565  0.9085E-02  0.7454E-01
      4.645  0.1087E-01  0.7540E-01
      4.724  0.1130E-01  0.7630E-01
      4.804  0.5818E-02  0.7677E-01
      4.884  0.5138E-02  0.7718E-01
      4.963  0.5309E-02  0.7760E-01
      5.043  0.5315E-02  0.7802E-01
      5.122  0.5471E-02  0.7846E-01
      5.202  0.4082E-02  0.7878E-01
      5.281  0.2967E-02  0.7902E-01
      5.361  0.3143E-02  0.7927E-01
      5.441  0.2395E-02  0.7946E-01
      5.520  0.2612E-02  0.7967E-01
      5.600  0.2052E-02  0.7983E-01
      5.679  0.1100E-02  0.7992E-01
      5.759  0.8899E-03  0.7999E-01
      5.838  0.1588E-03  0.8000E-01
      5.918  0.1014E-05  0.8000E-01
      5.998  0.6686E-10  0.8000E-01
      6.077  0.3307E-16  0.8000E-01
      6.157  0.4845E-18  0.8000E-01
      6.236  0.4068E-11  0.8000E-01
      6.316  0.2412E-06  0.8000E-01
      6.395  0.1384E-03  0.8001E-01
      6.475  0.1574E-02  0.8014E-01
      6.555  0.1515E-02  0.8026E-01
      6.634  0.1095E-02  0.8034E-01
      6.714  0.4743E-02  0.8072E-01
      6.793  0.3748E-02  0.8102E-01
      6.873  0.3909E-02  0.8133E-01
      6.952  0.5071E-02  0.8173E-01
      7.032  0.3071E-02  0.8198E-01
      7.112  0.4287E-02  0.8232E-01
      7.191  0.7176E-02  0.8289E-01
      7.271  0.9589E-02  0.8365E-01
      7.350  0.4221E-02  0.8399E-01
      7.430  0.6688E-02  0.8452E-01
      7.509  0.9051E-02  0.8524E-01
      7.589  0.1002E-01  0.8604E-01
      7.669  0.6784E-02  0.8658E-01
      7.748  0.1263E-01  0.8758E-01
      7.828  0.1251E-01  0.8858E-01
      7.907  0.1224E-01  0.8955E-01
      7.987  0.1345E-01  0.9062E-01
      8.066  0.2061E-01  0.9226E-01
      8.146  0.1563E-01  0.9351E-01
      8.226  0.1063E-01  0.9435E-01
      8.305  0.1574E-01  0.9560E-01
      8.385  0.1501E-01  0.9680E-01
      8.464  0.1514E-01  0.9800E-01
      8.544  0.1109E-01  0.9889E-01
      8.623  0.1090E-01  0.9975E-01
      8.703  0.1129E-01  0.1007E+00
      8.783  0.1223E-01  0.1016E+00
      8.862  0.8974E-02  0.1023E+00
      8.942  0.1275E-01  0.1034E+00
      9.021  0.1305E-01  0.1044E+00
      9.101  0.2435E-01  0.1063E+00
      9.180  0.1983E-01  0.1079E+00
      9.260  0.1994E-01  0.1095E+00
      9.340  0.2077E-01  0.1111E+00
      9.419  0.1566E-01  0.1124E+00
      9.499  0.1643E-01  0.1137E+00
      9.578  0.1368E-01  0.1148E+00
      9.658  0.1561E-01  0.1160E+00
      9.737  0.1708E-01  0.1174E+00
      9.817  0.1099E-01  0.1183E+00
      9.897  0.1277E-01  0.1193E+00
      9.976  0.1378E-01  0.1204E+00
     10.056  0.1096E-01  0.1212E+00
     10.135  0.1434E-01  0.1224E+00
     10.215  0.1379E-01  0.1235E+00
     10.294  0.7660E-02  0.1241E+00
     10.374  0.1583E-01  0.1254E+00
     10.453  0.1269E-01  0.1264E+00
     10.533  0.1332E-01  0.1274E+00
     10.613  0.1207E-01  0.1284E+00
     10.692  0.9573E-02  0.1291E+00
     10.772  0.1534E-01  0.1304E+00
     10.851  0.1322E-01  0.1314E+00
     10.931  0.1144E-01  0.1323E+00
     11.010  0.9371E-02  0.1331E+00
     11.090  0.1630E-01  0.1344E+00
     11.170  0.1317E-01  0.1354E+00
     11.249  0.1000E-01  0.1362E+00
     11.329  0.6716E-02  0.1368E+00
     11.408  0.9987E-02  0.1375E+00
     11.488  0.1439E-01  0.1387E+00
     11.567  0.1207E-01  0.1397E+00
     11.647  0.7212E-02  0.1402E+00
     11.727  0.1339E-01  0.1413E+00
     11.806  0.1286E-01  0.1423E+00
     11.886  0.1001E-01  0.1431E+00
     11.965  0.8952E-02  0.1438E+00
     12.045  0.9292E-02  0.1446E+00
     12.124  0.1007E-01  0.1454E+00
     12.204  0.5556E-02  0.1458E+00
     12.284  0.7407E-02  0.1464E+00
     12.363  0.1024E-01  0.1472E+00
     12.443  0.1224E-01  0.1482E+00
     12.522  0.1143E-01  0.1491E+00
     12.602  0.8433E-02  0.1498E+00
     12.681  0.8440E-02  0.1504E+00
     12.761  0.9624E-02  0.1512E+00
     12.841  0.4266E-02  0.1515E+00
     12.920  0.2368E-02  0.1517E+00
     13.000  0.5790E-02  0.1522E+00
     13.079  0.7903E-02  0.1528E+00
     13.159  0.8402E-02  0.1535E+00
     13.238  0.7285E-02  0.1541E+00
     13.318  0.8639E-02  0.1548E+00
     13.398  0.6775E-02  0.1553E+00
     13.477  0.4784E-02  0.1557E+00
     13.557  0.3865E-02  0.1560E+00
     13.636  0.4056E-02  0.1563E+00
     13.716  0.3510E-02  0.1566E+00
     13.795  0.5811E-02  0.1570E+00
     13.875  0.2245E-02  0.1572E+00
     13.955  0.1704E-02  0.1574E+00
     14.034  0.6463E-02  0.1579E+00
     14.114  0.8400E-02  0.1585E+00
     14.193  0.1483E-02  0.1587E+00
     14.273  0.1072E-02  0.1587E+00
     14.352  0.5122E-04  0.1587E+00
     14.432  0.4915E-04  0.1588E+00
     14.512  0.1746E-02  0.1589E+00
     14.591  0.1684E-02  0.1590E+00
     14.671  0.5906E-03  0.1591E+00
     14.750  0.7585E-03  0.1591E+00
     14.830  0.4262E-02  0.1595E+00
     14.909  0.2788E-02  0.1597E+00
     14.989  0.3374E-03  0.1597E+00
     15.069  0.3067E-05  0.1597E+00
     15.148  0.3298E-09  0.1597E+00
     15.228  0.2385E-06  0.1597E+00
     15.307  0.1437E-03  0.1597E+00
     15.387  0.1262E-02  0.1598E+00
     15.466  0.3918E-03  0.1599E+00
     15.546  0.7904E-03  0.1599E+00
     15.626  0.8348E-03  0.1600E+00
     15.705  0.6763E-04  0.1600E+00
     15.785  0.1008E-06  0.1600E+00
     15.864  0.1295E-11  0.1600E+00
     15.944  0.9689E-19  0.1600E+00
     16.023  0.0000E+00  0.1600E+00
     16.103  0.0000E+00  0.1600E+00
     16.183  0.0000E+00  0.1600E+00
     16.262  0.0000E+00  0.1600E+00
     16.342  0.0000E+00  0.1600E+00
     16.421  0.0000E+00  0.1600E+00
     16.501  0.0000E+00  0.1600E+00
     16.580  0.0000E+00  0.1600E+00
     16.660  0.0000E+00  0.1600E+00
