    2    2  100    1
  0.2012522E+02  0.3846761E-09  0.3846762E-09  0.3846760E-09  0.5000000E-15
  1.000000000000000E-004
  CAR 
 unknown system                          
      8    182      8
 
  0.4166667E-01  0.4166667E-01  0.4166667E-01  0.1157407E-02
    1       -6.126082   1.000000
    2        5.517358   1.000000
    3        5.735071   1.000000
    4        5.735074   1.000000
    5        8.387241   0.000000
    6        8.394400   0.000000
    7        8.394407   0.000000
    8        9.254046   0.000000
 
  0.1250000E+00  0.4166667E-01  0.4166667E-01  0.3472222E-02
    1       -6.005432   1.000000
    2        4.631544   1.000000
    3        5.315437   1.000000
    4        5.683019   1.000000
    5        8.464700   0.000000
    6        8.511930   0.000000
    7        8.710180   0.000000
    8       10.076006   0.000000
 
  0.2083333E+00  0.4166667E-01  0.4166667E-01  0.3472222E-02
    1       -5.707637   1.000000
    2        3.128898   1.000000
    3        4.947722   1.000000
    4        5.414934   1.000000
    5        8.201617   0.000000
    6        8.900240   0.000000
    7        9.200740   0.000000
    8       11.400890   0.000000
 
  0.2916667E+00  0.4166667E-01  0.4166667E-01  0.3472222E-02
    1       -5.245523   1.000000
    2        1.616059   1.000000
    3        4.653004   1.000000
    4        5.099859   1.000000
    5        7.892795   0.000000
    6        9.185079   0.000000
    7        9.438703   0.000000
    8       12.516854   0.000000
 
  0.3750000E+00  0.4166667E-01  0.4166667E-01  0.3472222E-02
    1       -4.654632   1.000000
    2        0.254519   1.000000
    3        4.461063   1.000000
    4        4.827902   1.000000
    5        7.647451   0.000000
    6        9.218893   0.000000
    7        9.354099   0.000000
    8       13.407264   0.000000
 
  0.4583333E+00  0.4166667E-01  0.4166667E-01  0.3472222E-02
    1       -4.052445   1.000000
    2       -0.797556   1.000000
    3        4.380595   1.000000
    4        4.634212   1.000000
    5        7.501231   0.000000
    6        9.177916   0.000000
    7        9.180987   0.000000
    8       13.617337   0.000000
 
 -0.4583333E+00  0.4166667E-01  0.4166667E-01  0.3472222E-02
    1       -3.821398   1.000000
    2       -1.142089   1.000000
    3        4.409504   1.000000
    4        4.534212   1.000000
    5        7.465349   0.000000
    6        9.079066   0.000000
    7        9.209821   0.000000
    8       13.584140   0.000000
 
 -0.3750000E+00  0.4166667E-01  0.4166667E-01  0.3472222E-02
    1       -4.238723   1.000000
    2       -0.498395   1.000000
    3        4.537197   1.000000
    4        4.541041   1.000000
    5        7.541557   0.000000
    6        9.086280   0.000000
    7        9.343451   0.000000
    8       13.516874   0.000000
 
 -0.2916667E+00  0.4166667E-01  0.4166667E-01  0.3472222E-02
    1       -4.861526   1.000000
    2        0.683705   1.000000
    3        4.648679   1.000000
    4        4.765193   1.000000
    5        7.724436   0.000000
    6        9.136150   0.000000
    7        9.506222   0.000000
    8       12.723630   0.000000
 
 -0.2083333E+00  0.4166667E-01  0.4166667E-01  0.3472222E-02
    1       -5.416281   1.000000
    2        2.109505   1.000000
    3        4.867089   1.000000
    4        5.063449   1.000000
    5        7.993995   0.000000
    6        9.037842   0.000000
    7        9.505547   0.000000
    8       11.942687   0.000000
 
 -0.1250000E+00  0.4166667E-01  0.4166667E-01  0.3472222E-02
    1       -5.825991   1.000000
    2        3.647829   1.000000
    3        5.173983   1.000000
    4        5.387952   1.000000
    5        8.275425   0.000000
    6        8.703974   0.000000
    7        9.175566   0.000000
    8       10.923749   0.000000
 
 -0.4166667E-01  0.4166667E-01  0.4166667E-01  0.3472222E-02
    1       -6.065629   1.000000
    2        5.097798   1.000000
    3        5.510672   1.000000
    4        5.613619   1.000000
    5        8.256460   0.000000
    6        8.595036   0.000000
    7        8.691398   0.000000
    8        9.642056   0.000000
 
  0.1250000E+00  0.1250000E+00  0.4166667E-01  0.3472222E-02
    1       -5.944971   1.000000
    2        4.549286   1.000000
    3        5.165642   1.000000
    4        5.269568   1.000000
    5        8.017154   0.000000
    6        9.026056   0.000000
    7        9.179686   0.000000
    8       10.136367   0.000000
 
  0.2083333E+00  0.1250000E+00  0.4166667E-01  0.6944444E-02
    1       -5.705757   1.000000
    2        3.511868   1.000000
    3        4.577411   1.000000
    4        5.125930   1.000000
    5        8.030495   0.000000
    6        9.211009   0.000000
    7        9.682641   0.000000
    8       10.706654   0.000000
 
  0.2916667E+00  0.1250000E+00  0.4166667E-01  0.6944444E-02
    1       -5.296832   1.000000
    2        2.092399   1.000000
    3        4.197033   1.000000
    4        4.835154   1.000000
    5        8.229037   0.000000
    6        9.162693   0.000000
    7       10.059967   0.000000
    8       10.895785   0.000000
 
  0.3750000E+00  0.1250000E+00  0.4166667E-01  0.6944444E-02
    1       -4.742822   1.000000
    2        0.714026   1.000000
    3        3.938103   1.000000
    4        4.531980   1.000000
    5        8.178597   0.000000
    6        9.154522   0.000000
    7       10.057179   0.000000
    8       11.495404   0.000000
 
  0.4583333E+00  0.1250000E+00  0.4166667E-01  0.6944444E-02
    1       -4.119695   1.000000
    2       -0.447223   1.000000
    3        3.759003   1.000000
    4        4.339291   1.000000
    5        8.068922   0.000000
    6        9.061132   0.000000
    7        9.882197   0.000000
    8       12.627379   0.000000
 
 -0.4583333E+00  0.1250000E+00  0.4166667E-01  0.6944444E-02
    1       -3.700657   1.000000
    2       -1.084832   1.000000
    3        3.635586   1.000000
    4        4.314797   1.000000
    5        8.034117   0.000000
    6        9.009537   0.000000
    7        9.742997   0.000000
    8       13.772999   0.000000
 
 -0.3750000E+00  0.1250000E+00  0.4166667E-01  0.6944444E-02
    1       -3.934187   1.000000
    2       -0.740433   1.000000
    3        3.586517   1.000000
    4        4.449902   1.000000
    5        8.097783   0.000000
    6        9.051460   0.000000
    7        9.722536   0.000000
    8       13.461922   0.000000
 
 -0.2916667E+00  0.1250000E+00  0.4166667E-01  0.6944444E-02
    1       -4.537559   1.000000
    2        0.297620   1.000000
    3        3.646417   1.000000
    4        4.705170   1.000000
    5        8.251877   0.000000
    6        9.138811   0.000000
    7        9.803685   0.000000
    8       12.290474   0.000000
 
 -0.2083333E+00  0.1250000E+00  0.4166667E-01  0.6944444E-02
    1       -5.127571   1.000000
    2        1.618308   1.000000
    3        3.843329   1.000000
    4        5.031738   1.000000
    5        8.462445   0.000000
    6        9.093687   0.000000
    7        9.829700   0.000000
    8       11.446587   0.000000
 
 -0.1250000E+00  0.1250000E+00  0.4166667E-01  0.6944444E-02
    1       -5.588466   1.000000
    2        3.011008   1.000000
    3        4.224943   1.000000
    4        5.348095   1.000000
    5        8.521534   0.000000
    6        8.915579   0.000000
    7        9.505923   0.000000
    8       11.119254   0.000000
 
 -0.4166667E-01  0.1250000E+00  0.4166667E-01  0.6944444E-02
    1       -5.885319   1.000000
    2        4.087090   1.000000
    3        4.967317   1.000000
    4        5.502026   1.000000
    5        8.302844   0.000000
    6        8.767493   0.000000
    7        9.100663   0.000000
    8       10.579536   0.000000
 
  0.2083333E+00  0.2083333E+00  0.4166667E-01  0.3472222E-02
    1       -5.525187   1.000000
    2        3.256554   1.000000
    3        4.410213   1.000000
    4        4.424841   1.000000
    5        7.420176   0.000000
    6        9.818476   0.000000
    7       10.393250   0.000000
    8       10.425340   0.000000
 
  0.2916667E+00  0.2083333E+00  0.4166667E-01  0.6944444E-02
    1       -5.171875   1.000000
    2        2.296407   1.000000
    3        3.826330   1.000000
    4        4.244423   1.000000
    5        7.454487   0.000000
    6        9.450679   0.000000
    7       10.598547   0.000000
    8       11.031578   0.000000
 
  0.3750000E+00  0.2083333E+00  0.4166667E-01  0.6944444E-02
    1       -4.662856   1.000000
    2        1.091525   1.000000
    3        3.373346   1.000000
    4        3.980083   1.000000
    5        7.713584   0.000000
    6        9.670506   0.000000
    7       10.398778   0.000000
    8       11.230614   0.000000
 
  0.4583333E+00  0.2083333E+00  0.4166667E-01  0.6944444E-02
    1       -4.047398   1.000000
    2       -0.060762   1.000000
    3        2.981079   1.000000
    4        3.842101   1.000000
    5        7.783609   0.000000
    6       10.131441   0.000000
    7       10.666130   0.000000
    8       11.098678   0.000000
 
 -0.4583333E+00  0.2083333E+00  0.4166667E-01  0.6944444E-02
    1       -3.504274   1.000000
    2       -0.884468   1.000000
    3        2.671602   1.000000
    4        3.878445   1.000000
    5        7.859621   0.000000
    6        9.906555   0.000000
    7       10.907857   0.000000
    8       12.093111   0.000000
 
 -0.3750000E+00  0.2083333E+00  0.4166667E-01  0.6944444E-02
    1       -3.514874   1.000000
    2       -0.865949   1.000000
    3        2.489928   1.000000
    4        4.068334   1.000000
    5        8.056074   0.000000
    6        9.761681   0.000000
    7       10.777578   0.000000
    8       13.423449   0.000000
 
 -0.2916667E+00  0.2083333E+00  0.4166667E-01  0.6944444E-02
    1       -4.064159   1.000000
    2       -0.029415   1.000000
    3        2.479898   1.000000
    4        4.378807   1.000000
    5        8.369620   0.000000
    6        9.676863   0.000000
    7       10.697933   0.000000
    8       12.068059   0.000000
 
 -0.2083333E+00  0.2083333E+00  0.4166667E-01  0.6944444E-02
    1       -4.676817   1.000000
    2        1.066320   1.000000
    3        2.726878   1.000000
    4        4.756855   1.000000
    5        8.728915   0.000000
    6        9.454502   0.000000
    7       10.519265   0.000000
    8       11.146701   0.000000
 
 -0.1250000E+00  0.2083333E+00  0.4166667E-01  0.6944444E-02
    1       -5.181676   1.000000
    2        1.991232   1.000000
    3        3.450156   1.000000
    4        5.098033   1.000000
    5        8.819774   0.000000
    6        9.030395   0.000000
    7        9.967612   0.000000
    8       11.072622   0.000000
 
 -0.4166667E-01  0.2083333E+00  0.4166667E-01  0.6944444E-02
    1       -5.530915   1.000000
    2        2.605343   1.000000
    3        4.586443   1.000000
    4        5.223003   1.000000
    5        8.295423   0.000000
    6        8.898830   0.000000
    7        9.561622   0.000000
    8       11.426662   0.000000
 
  0.2916667E+00  0.2916667E+00  0.4166667E-01  0.3472222E-02
    1       -4.873878   1.000000
    2        1.836212   1.000000
    3        3.703386   1.000000
    4        3.756507   1.000000
    5        6.882199   0.000000
    6        8.658262   0.000000
    7       11.755767   0.000000
    8       11.826785   0.000000
 
  0.3750000E+00  0.2916667E+00  0.4166667E-01  0.6944444E-02
    1       -4.414271   1.000000
    2        0.991779   1.000000
    3        3.210953   1.000000
    4        3.528235   1.000000
    5        6.997191   0.000000
    6        8.343169   0.000000
    7       11.901631   0.000000
    8       12.506410   0.000000
 
  0.4583333E+00  0.2916667E+00  0.4166667E-01  0.6944444E-02
    1       -3.824922   1.000000
    2        0.055025   1.000000
    3        2.579054   1.000000
    4        3.399317   1.000000
    5        7.234276   0.000000
    6        8.877397   0.000000
    7       11.681936   0.000000
    8       12.590078   0.000000
 
 -0.4583333E+00  0.2916667E+00  0.4166667E-01  0.6944444E-02
    1       -3.217275   1.000000
    2       -0.766185   1.000000
    3        2.032063   1.000000
    4        3.439235   1.000000
    5        7.348275   0.000000
    6       10.129487   0.000000
    7       11.419361   0.000000
    8       12.424273   0.000000
 
 -0.3750000E+00  0.2916667E+00  0.4166667E-01  0.6944444E-02
    1       -3.012981   1.000000
    2       -1.007306   1.000000
    3        1.693665   1.000000
    4        3.633412   1.000000
    5        7.565659   0.000000
    6       11.063731   0.000000
    7       11.791802   0.000000
    8       12.275300   0.000000
 
 -0.2916667E+00  0.2916667E+00  0.4166667E-01  0.6944444E-02
    1       -3.478291   1.000000
    2       -0.436037   1.000000
    3        1.657584   1.000000
    4        3.956759   1.000000
    5        7.924777   0.000000
    6       10.831312   0.000000
    7       11.899810   0.000000
    8       12.105043   0.000000
 
 -0.2083333E+00  0.2916667E+00  0.4166667E-01  0.6944444E-02
    1       -4.095490   1.000000
    2        0.253589   1.000000
    3        2.111411   1.000000
    4        4.360915   1.000000
    5        8.366040   0.000000
    6       10.082813   0.000000
    7       11.169369   0.000000
    8       11.508950   0.000000
 
 -0.1250000E+00  0.2916667E+00  0.4166667E-01  0.6944444E-02
    1       -4.629742   1.000000
    2        0.730739   1.000000
    3        3.117882   1.000000
    4        4.741228   1.000000
    5        8.584596   0.000000
    6        9.264958   0.000000
    7       10.166509   0.000000
    8       11.630361   0.000000
 
 -0.4166667E-01  0.2916667E+00  0.4166667E-01  0.6944444E-02
    1       -5.020230   1.000000
    2        1.148521   1.000000
    3        4.319757   1.000000
    4        4.903658   1.000000
    5        8.050459   0.000000
    6        9.097876   0.000000
    7        9.673533   0.000000
    8       12.027939   0.000000
 
  0.3750000E+00  0.3750000E+00  0.4166667E-01  0.3472222E-02
    1       -4.003541   1.000000
    2        0.385692   1.000000
    3        3.190725   1.000000
    4        3.281237   1.000000
    5        6.534782   0.000000
    6        7.608411   0.000000
    7       13.275323   0.000000
    8       13.302279   0.000000
 
  0.4583333E+00  0.3750000E+00  0.4166667E-01  0.6944444E-02
    1       -3.450602   1.000000
    2       -0.361246   1.000000
    3        2.791006   1.000000
    4        3.081202   1.000000
    5        6.744844   0.000000
    6        7.513818   0.000000
    7       13.316976   0.000000
    8       14.054215   0.000000
 
 -0.4583333E+00  0.3750000E+00  0.4166667E-01  0.6944444E-02
    1       -2.821843   1.000000
    2       -1.064962   1.000000
    3        2.079135   1.000000
    4        3.097621   1.000000
    5        6.936267   0.000000
    6        8.431837   0.000000
    7       13.059580   0.000000
    8       14.073619   0.000000
 
 -0.3750000E+00  0.3750000E+00  0.4166667E-01  0.6944444E-02
    1       -2.476252   1.000000
    2       -1.392597   1.000000
    3        1.534249   1.000000
    4        3.272067   1.000000
    5        7.142873   0.000000
    6        9.919762   0.000000
    7       12.727402   0.000000
    8       13.580407   0.000000
 
 -0.2916667E+00  0.3750000E+00  0.4166667E-01  0.6944444E-02
    1       -2.900046   1.000000
    2       -0.991203   1.000000
    3        1.436293   1.000000
    4        3.584339   1.000000
    5        7.500979   0.000000
    6       11.449491   0.000000
    7       11.949914   0.000000
    8       12.710499   0.000000
 
 -0.2083333E+00  0.3750000E+00  0.4166667E-01  0.6944444E-02
    1       -3.486552   1.000000
    2       -0.628642   1.000000
    3        1.982947   1.000000
    4        3.994487   1.000000
    5        7.973255   0.000000
    6       10.319847   0.000000
    7       11.388899   0.000000
    8       12.688968   0.000000
 
 -0.1250000E+00  0.3750000E+00  0.4166667E-01  0.6944444E-02
    1       -4.006654   1.000000
    2       -0.398478   1.000000
    3        3.014505   1.000000
    4        4.410840   1.000000
    5        8.321153   0.000000
    6        9.263448   0.000000
    7       10.173792   0.000000
    8       12.777389   0.000000
 
 -0.4166667E-01  0.3750000E+00  0.4166667E-01  0.6944444E-02
    1       -4.404645   1.000000
    2       -0.125387   1.000000
    3        4.163384   1.000000
    4        4.640892   1.000000
    5        7.847065   0.000000
    6        9.085544   0.000000
    7        9.532957   0.000000
    8       13.002024   0.000000
 
  0.4583333E+00  0.4583333E+00  0.4166667E-01  0.3472222E-02
    1       -2.933993   1.000000
    2       -1.024253   1.000000
    3        2.902901   1.000000
    4        3.011231   1.000000
    5        6.439839   0.000000
    6        6.898656   0.000000
    7       14.821735   0.000000
    8       14.842834   0.000000
 
 -0.4583333E+00  0.4583333E+00  0.4166667E-01  0.6944444E-02
    1       -2.310193   1.000000
    2       -1.681233   1.000000
    3        2.605073   1.000000
    4        2.894361   1.000000
    5        6.699967   0.000000
    6        7.086794   0.000000
    7       14.788795   0.000000
    8       15.356391   0.000000
 
 -0.3750000E+00  0.4583333E+00  0.4166667E-01  0.6944444E-02
    1       -2.302023   1.000000
    2       -1.611501   1.000000
    3        1.977876   1.000000
    4        3.038361   1.000000
    5        6.874088   0.000000
    6        8.344339   0.000000
    7       13.758972   0.000000
    8       14.505556   0.000000
 
 -0.2916667E+00  0.4583333E+00  0.4166667E-01  0.6944444E-02
    1       -2.799803   1.000000
    2       -1.111699   1.000000
    3        1.706341   1.000000
    4        3.327602   1.000000
    5        7.212215   0.000000
    6        9.989690   0.000000
    7       12.079551   0.000000
    8       13.141155   0.000000
 
 -0.2083333E+00  0.4583333E+00  0.4166667E-01  0.6944444E-02
    1       -3.225034   1.000000
    2       -0.984197   1.000000
    3        2.133154   1.000000
    4        3.731331   1.000000
    5        7.690012   0.000000
    6       10.484742   0.000000
    7       11.522543   0.000000
    8       11.950715   0.000000
 
 -0.1250000E+00  0.4583333E+00  0.4166667E-01  0.6944444E-02
    1       -3.581991   1.000000
    2       -1.035973   1.000000
    3        3.067139   1.000000
    4        4.175551   1.000000
    5        8.123247   0.000000
    6        9.276331   0.000000
    7       10.212636   0.000000
    8       13.782567   0.000000
 
 -0.4166667E-01  0.4583333E+00  0.4166667E-01  0.6944444E-02
    1       -3.864869   1.000000
    2       -1.000587   1.000000
    3        4.100363   1.000000
    4        4.488423   1.000000
    5        7.739083   0.000000
    6        9.035320   0.000000
    7        9.395220   0.000000
    8       13.689067   0.000000
 
 -0.4583333E+00 -0.4583333E+00  0.4166667E-01  0.3472222E-02
    1       -2.333419   1.000000
    2       -1.694539   1.000000
    3        2.845129   1.000000
    4        2.956799   1.000000
    5        6.488761   0.000000
    6        6.687578   0.000000
    7       15.521113   0.000000
    8       15.574936   0.000000
 
 -0.3750000E+00 -0.4583333E+00  0.4166667E-01  0.6944444E-02
    1       -2.899856   1.000000
    2       -1.030827   1.000000
    3        2.667378   1.000000
    4        2.956334   1.000000
    5        6.702363   0.000000
    6        7.241913   0.000000
    7       14.051768   0.000000
    8       14.830017   0.000000
 
 -0.2916667E+00 -0.4583333E+00  0.4166667E-01  0.6944444E-02
    1       -3.339988   1.000000
    2       -0.497350   1.000000
    3        2.281265   1.000000
    4        3.217072   1.000000
    5        7.058123   0.000000
    6        8.608841   0.000000
    7       12.360342   0.000000
    8       13.327081   0.000000
 
 -0.2083333E+00 -0.4583333E+00  0.4166667E-01  0.6944444E-02
    1       -3.642894   1.000000
    2       -0.416271   1.000000
    3        2.474311   1.000000
    4        3.608885   1.000000
    5        7.543756   0.000000
    6       10.330582   0.000000
    7       10.793665   0.000000
    8       11.731704   0.000000
 
 -0.1250000E+00 -0.4583333E+00  0.4166667E-01  0.6944444E-02
    1       -3.812740   1.000000
    2       -0.703069   1.000000
    3        3.238469   1.000000
    4        4.078076   1.000000
    5        8.031374   0.000000
    6        9.386389   0.000000
    7       10.346141   0.000000
    8       12.325315   0.000000
 
 -0.3750000E+00 -0.3750000E+00  0.4166667E-01  0.3472222E-02
    1       -3.492089   1.000000
    2       -0.328330   1.000000
    3        3.018247   1.000000
    4        3.119681   1.000000
    5        6.453464   0.000000
    6        7.208639   0.000000
    7       14.056787   0.000000
    8       14.059814   0.000000
 
 -0.2916667E+00 -0.3750000E+00  0.4166667E-01  0.6944444E-02
    1       -3.956718   1.000000
    2        0.316546   1.000000
    3        2.973554   1.000000
    4        3.270979   1.000000
    5        6.842789   0.000000
    6        7.883559   0.000000
    7       12.600091   0.000000
    8       13.273963   0.000000
 
 -0.2083333E+00 -0.3750000E+00  0.4166667E-01  0.6944444E-02
    1       -4.267648   1.000000
    2        0.583496   1.000000
    3        2.954911   1.000000
    4        3.650340   1.000000
    5        7.456739   0.000000
    6        9.237679   0.000000
    7       11.023038   0.000000
    8       11.887422   0.000000
 
 -0.1250000E+00 -0.3750000E+00  0.4166667E-01  0.6944444E-02
    1       -4.416784   1.000000
    2        0.312654   1.000000
    3        3.488853   1.000000
    4        4.150601   1.000000
    5        8.031768   0.000000
    6        9.571010   0.000000
    7       10.527923   0.000000
    8       11.040992   0.000000
 
 -0.2916667E+00 -0.2916667E+00  0.4166667E-01  0.3472222E-02
    1       -4.465063   1.000000
    2        1.110029   1.000000
    3        3.419497   1.000000
    4        3.494355   1.000000
    5        6.679789   0.000000
    6        8.094640   0.000000
    7       12.506387   0.000000
    8       12.556985   0.000000
 
 -0.2083333E+00 -0.2916667E+00  0.4166667E-01  0.6944444E-02
    1       -4.820136   1.000000
    2        1.654250   1.000000
    3        3.497443   1.000000
    4        3.854303   1.000000
    5        7.203803   0.000000
    6        8.880466   0.000000
    7       11.224803   0.000000
    8       11.757315   0.000000
 
 -0.1250000E+00 -0.2916667E+00  0.4166667E-01  0.6944444E-02
    1       -5.006801   1.000000
    2        1.590415   1.000000
    3        3.793125   1.000000
    4        4.388952   1.000000
    5        7.985811   0.000000
    6        9.670750   0.000000
    7       10.311692   0.000000
    8       10.631925   0.000000
 
 -0.2083333E+00 -0.2083333E+00  0.4166667E-01  0.3472222E-02
    1       -5.227840   1.000000
    2        2.555232   1.000000
    3        4.040068   1.000000
    4        4.063902   1.000000
    5        7.133180   0.000000
    6        9.271656   0.000000
    7       11.032061   0.000000
    8       11.114126   0.000000
 
 -0.1250000E+00 -0.2083333E+00  0.4166667E-01  0.6944444E-02
    1       -5.467580   1.000000
    2        2.915203   1.000000
    3        4.190044   1.000000
    4        4.681236   1.000000
    5        7.736646   0.000000
    6        9.673229   0.000000
    7       10.333608   0.000000
    8       10.366258   0.000000
 
 -0.1250000E+00 -0.1250000E+00  0.4166667E-01  0.3472222E-02
    1       -5.764577   1.000000
    2        3.927001   1.000000
    3        4.784443   1.000000
    4        4.845675   1.000000
    5        7.724366   0.000000
    6        9.580034   0.000000
    7        9.772695   0.000000
    8       10.351635   0.000000
 
  0.1250000E+00  0.1250000E+00  0.1250000E+00  0.1157407E-02
    1       -5.945534   1.000000
    2        4.178464   1.000000
    3        5.486712   1.000000
    4        5.486714   1.000000
    5        8.264514   0.000000
    6        8.760379   0.000000
    7        8.760386   0.000000
    8       10.443662   0.000000
 
  0.2083333E+00  0.1250000E+00  0.1250000E+00  0.3472222E-02
    1       -5.766288   1.000000
    2        3.555499   1.000000
    3        4.616463   1.000000
    4        5.561070   1.000000
    5        8.612428   0.000000
    6        8.746830   0.000000
    7        9.029898   0.000000
    8       11.064127   0.000000
 
  0.2916667E+00  0.1250000E+00  0.1250000E+00  0.3472222E-02
    1       -5.413411   1.000000
    2        2.498463   1.000000
    3        3.833669   1.000000
    4        5.347435   1.000000
    5        8.743574   0.000000
    6        9.100372   0.000000
    7        9.389695   0.000000
    8       11.454191   0.000000
 
  0.3750000E+00  0.1250000E+00  0.1250000E+00  0.3472222E-02
    1       -4.904392   1.000000
    2        1.161331   1.000000
    3        3.475673   1.000000
    4        5.003562   1.000000
    5        8.479947   0.000000
    6        9.450057   0.000000
    7        9.626770   0.000000
    8       12.053731   0.000000
 
  0.4583333E+00  0.1250000E+00  0.1250000E+00  0.3472222E-02
    1       -4.289524   1.000000
    2       -0.076397   1.000000
    3        3.333909   1.000000
    4        4.662244   1.000000
    5        8.227352   0.000000
    6        9.483616   0.000000
    7        9.597685   0.000000
    8       13.129733   0.000000
 
 -0.4583333E+00  0.1250000E+00  0.1250000E+00  0.3472222E-02
    1       -3.746848   1.000000
    2       -0.944093   1.000000
    3        3.350566   1.000000
    4        4.389885   1.000000
    5        8.044797   0.000000
    6        9.328067   0.000000
    7        9.700357   0.000000
    8       14.010903   0.000000
 
 -0.3750000E+00  0.1250000E+00  0.1250000E+00  0.3472222E-02
    1       -3.743860   1.000000
    2       -0.949615   1.000000
    3        3.504039   1.000000
    4        4.220362   1.000000
    5        7.962844   0.000000
    6        9.284325   0.000000
    7        9.875342   0.000000
    8       13.130634   0.000000
 
 -0.2916667E+00  0.1250000E+00  0.1250000E+00  0.3472222E-02
    1       -4.284678   1.000000
    2       -0.087403   1.000000
    3        3.775274   1.000000
    4        4.172115   1.000000
    5        7.985168   0.000000
    6        9.352056   0.000000
    7       10.118361   0.000000
    8       11.799539   0.000000
 
 -0.2083333E+00  0.1250000E+00  0.1250000E+00  0.3472222E-02
    1       -4.900287   1.000000
    2        1.156791   1.000000
    3        4.137614   1.000000
    4        4.253734   1.000000
    5        8.040645   0.000000
    6        9.445990   0.000000
    7       10.315495   0.000000
    8       10.815121   0.000000
 
 -0.1250000E+00  0.1250000E+00  0.1250000E+00  0.3472222E-02
    1       -5.410501   1.000000
    2        2.556117   1.000000
    3        4.463695   1.000000
    4        4.536683   1.000000
    5        7.923266   0.000000
    6        9.464636   0.000000
    7       10.234193   0.000000
    8       10.524644   0.000000
 
  0.2083333E+00  0.2083333E+00  0.1250000E+00  0.3472222E-02
    1       -5.647343   1.000000
    2        3.103397   1.000000
    3        4.818813   1.000000
    4        5.024720   1.000000
    5        8.181558   0.000000
    6        8.950165   0.000000
    7        9.681302   0.000000
    8       10.985499   0.000000
 
  0.2916667E+00  0.2083333E+00  0.1250000E+00  0.6944444E-02
    1       -5.352783   1.000000
    2        2.464330   1.000000
    3        3.838680   1.000000
    4        4.952439   1.000000
    5        8.264488   0.000000
    6        9.299530   0.000000
    7       10.172781   0.000000
    8       10.617689   0.000000
 
  0.3750000E+00  0.2083333E+00  0.1250000E+00  0.6944444E-02
    1       -4.894859   1.000000
    2        1.492265   1.000000
    3        3.097606   1.000000
    4        4.678305   1.000000
    5        8.668040   0.000000
    6        9.249743   0.000000
    7       10.461584   0.000000
    8       10.740457   0.000000
 
  0.4583333E+00  0.2083333E+00  0.1250000E+00  0.6944444E-02
    1       -4.307152   1.000000
    2        0.327741   1.000000
    3        2.781606   1.000000
    4        4.324921   1.000000
    5        8.764602   0.000000
    6        9.080079   0.000000
    7       10.850567   0.000000
    8       11.219773   0.000000
 
 -0.4583333E+00  0.2083333E+00  0.1250000E+00  0.6944444E-02
    1       -3.701303   1.000000
    2       -0.661299   1.000000
    3        2.689701   1.000000
    4        4.038699   1.000000
    5        8.574207   0.000000
    6        9.023054   0.000000
    7       10.896556   0.000000
    8       12.460023   0.000000
 
 -0.3750000E+00  0.2083333E+00  0.1250000E+00  0.6944444E-02
    1       -3.461788   1.000000
    2       -1.002855   1.000000
    3        2.732432   1.000000
    4        3.898646   1.000000
    5        8.376767   0.000000
    6        9.131325   0.000000
    7       10.921668   0.000000
    8       13.015768   0.000000
 
 -0.2916667E+00  0.2083333E+00  0.1250000E+00  0.6944444E-02
    1       -3.884735   1.000000
    2       -0.384572   1.000000
    3        2.866251   1.000000
    4        3.947477   1.000000
    5        8.275737   0.000000
    6        9.363424   0.000000
    7       10.998623   0.000000
    8       11.534409   0.000000
 
 -0.2083333E+00  0.2083333E+00  0.1250000E+00  0.6944444E-02
    1       -4.508374   1.000000
    2        0.708752   1.000000
    3        3.091709   1.000000
    4        4.173859   1.000000
    5        8.221795   0.000000
    6        9.654604   0.000000
    7       10.354621   0.000000
    8       11.094210   0.000000
 
 -0.1250000E+00  0.2083333E+00  0.1250000E+00  0.6944444E-02
    1       -5.060495   1.000000
    2        1.914136   1.000000
    3        3.480083   1.000000
    4        4.484761   1.000000
    5        7.997289   0.000000
    6        9.665964   0.000000
    7       10.133073   0.000000
    8       10.901325   0.000000
 