 vasp.6.2.0 18Jan21 (build Aug 12 2022 13:00:08) complex                        
  
 executed on             LinuxIFC date 2024.11.05  05:58:39
 running on    4 total cores
 distrk:  each k-point on    4 cores,    1 groups
 distr:  one band on NCORE=   1 cores,    4 groups


--------------------------------------------------------------------------------------------------------


 INCAR:
   ISTART = 0            (Read existing wavefunction, if there)
   ISPIN = 1            (Non-Spin polarised DFT)
   LREAL = .FALSE.       (Projection operators: automatic)
   LWAVE = .FALSE.        (Write WAVECAR or not)
   LCHARG = .FALSE.        (Write CHGCAR or not)
   ADDGRID = .TRUE.        (Increase grid, helps GGA convergence)
   LASPH = .TRUE.        (Give more accurate total energies and band structure calculations)
   PREC = Accurate      (Accurate strictly avoids any aliasing or wrap around errors)
   ENCUT = 350          (Cut-off energy for plane wave basis set, in eV)
   ISMEAR = 0            (Gaussian smearing, metals:1)
   SIGMA = 0.05         (Smearing value in eV, metals:0.2)
   NELM = 90           (Max electronic SCF steps)
   NELMIN = 6            (Min electronic SCF steps)
   EDIFF = 1E-06        (SCF energy convergence, in eV)
   NSW = 100          (Max ionic steps)
   IBRION = 2            (Algorithm: 0-MD, 1-Quasi-New, 2-CG)
   ISIF = 2            (Stress/relaxation: 2-Ions, 3-Shape/Ions/V, 4-Shape/Ions)
   EDIFFG = -2E-03        (Ionic convergence, eV/AA)
   ISYM = 2              (Symmetry: 0\=none, 2\=GGA, 3\=hybrids)

 POTCAR:    PAW_PBE Si 05Jan2001                  
 POTCAR:    PAW_PBE Si 05Jan2001                  
   VRHFIN =Si: s2p2                                                                                 
   LEXCH  = PE                                                                                      
   EATOM  =   103.0669 eV,    7.5752 Ry                                                             
                                                                                                    
   TITEL  = PAW_PBE Si 05Jan2001                                                                    
   LULTRA =        F    use ultrasoft PP ?                                                          
   IUNSCR =        1    unscreen: 0-lin 1-nonlin 2-no                                               
   RPACOR =    1.500    partial core radius                                                         
   POMASS =   28.085; ZVAL   =    4.000    mass and valenz                                          
   RCORE  =    1.900    outmost cutoff radius                                                       
   RWIGS  =    2.480; RWIGS  =    1.312    wigner-seitz radius (au A)                               
   ENMAX  =  245.345; ENMIN  =  184.009 eV                                                          
   ICORE  =        2    local potential                                                             
   LCOR   =        T    correct aug charges                                                         
   LPAW   =        T    paw PP                                                                      
   EAUG   =  322.069                                                                                
   DEXC   =    0.000                                                                                
   RMAX   =    1.950    core radius for proj-oper                                                   
   RAUG   =    1.300    factor for augmentation sphere                                              
   RDEP   =    1.993    radius for radial grids                                                     
   RDEPT  =    1.837    core radius for aug-charge                                                  
                                                                                                    
   Atomic configuration                                                                             
    6 entries                                                                                       
     n  l   j            E        occ.                                                              
     1  0  0.50     -1785.8828   2.0000                                                             
     2  0  0.50      -139.4969   2.0000                                                             
     2  1  1.50       -95.5546   6.0000                                                             
     3  0  0.50       -10.8127   2.0000                                                             
     3  1  0.50        -4.0811   2.0000                                                             
     3  2  1.50        -4.0817   0.0000                                                             
   Description                                                                                      
     l       E           TYP  RCUT    TYP  RCUT                                                     
     0    -10.8127223     23  1.900                                                                 
     0     -7.6451159     23  1.900                                                                 
     1     -4.0811372     23  1.900                                                                 
     1      2.4879257     23  1.900                                                                 
     2     -4.0817478      7  1.900                                                                 
  local pseudopotential read in
  partial core-charges read in
  partial kinetic energy density read in
  atomic valenz-charges read in
  non local Contribution for L=           0  read in
    real space projection operators read in
  non local Contribution for L=           0  read in
    real space projection operators read in
  non local Contribution for L=           1  read in
    real space projection operators read in
  non local Contribution for L=           1  read in
    real space projection operators read in
    PAW grid and wavefunctions read in
 
   number of l-projection  operators is LMAX  =           4
   number of lm-projection operators is LMMAX =           8
 
  PAW_PBE Si 05Jan2001                  :
 energy of atom  1       EATOM= -103.0669
 kinetic energy error for atom=    0.0013 (will be added to EATOM!!)
 
 
 POSCAR: Si2
  positions in direct lattice
  velocities in cartesian coordinates
 exchange correlation table for  LEXCH =        8
   RHO(1)=    0.500       N(1)  =     2000
   RHO(2)=  100.500       N(2)  =     4000
 


--------------------------------------------------------------------------------------------------------


 ion  position               nearest neighbor table
   1  0.875  0.875  0.875-   2 2.36   2 2.36   2 2.36   2 2.36
   2  0.125  0.125  0.125-   1 2.36   1 2.36   1 2.36   1 2.36
 
  LATTYP: Found a face centered cubic cell.
 ALAT       =     5.4401427820
  
  Lattice vectors:
  
 A1 = (   3.3313927232,   0.0000000000,   1.9233802144)
 A2 = (   1.1104642411,   3.1408684252,   1.9233802144)
 A3 = (   0.0000000000,   0.0000000000,   3.8467604288)


Analysis of symmetry for initial positions (statically):
=====================================================================
 Subroutine PRICEL returns:
 Original cell was already a primitive cell.
 

 Routine SETGRP: Setting up the symmetry group for a 
 face centered cubic supercell.


 Subroutine GETGRP returns: Found 48 space group operations
 (whereof 12 operations were pure point group operations)
 out of a pool of 48 trial point group operations.


The static configuration has the point symmetry D_3d.
 The point group associated with its full space group is O_h .


Analysis of symmetry for dynamics (positions and initial velocities):
=====================================================================
 Subroutine PRICEL returns:
 Original cell was already a primitive cell.
 

 Routine SETGRP: Setting up the symmetry group for a 
 face centered cubic supercell.


 Subroutine GETGRP returns: Found 48 space group operations
 (whereof 12 operations were pure point group operations)
 out of a pool of 48 trial point group operations.


The dynamic configuration has the point symmetry D_3d.
 The point group associated with its full space group is O_h .


 Subroutine INISYM returns: Found 48 space group operations
 (whereof 12 operations are pure point group operations),
 and found     1 'primitive' translations


----------------------------------------------------------------------------------------

                                     Primitive cell                                     

  volume of cell :      40.2504

  direct lattice vectors                    reciprocal lattice vectors
     3.331392723  0.000000000  1.923380214     0.300174757 -0.106127761  0.000000000
     1.110464241  3.140868425  1.923380214     0.000000000  0.318383283  0.000000000
     0.000000000  0.000000000  3.846760429    -0.150087378 -0.106127761  0.259959001

  length of vectors
     3.846760835  3.846761852  3.846760429     0.318383395  0.318383283  0.318383425

  position of ions in fractional coordinates (direct lattice)
     0.875000000  0.875000000  0.875000000
     0.125000000  0.125000000  0.125000000

  ion indices of the primitive-cell ions
   primitive index   ion index
                 1           1
                 2           2

----------------------------------------------------------------------------------------

 
 
 KPOINTS: Automatic                               

Automatic generation of k-mesh.
 Grid dimensions read from file:
 generate k-points for:   12   12   12

 Generating k-lattice:

  Cartesian coordinates                     Fractional coordinates (reciprocal lattice)
     0.025014563 -0.008843980  0.000000000     0.083333333  0.000000000  0.000000000
     0.000000000  0.026531940  0.000000000     0.000000000  0.083333333  0.000000000
    -0.012507282 -0.008843980  0.021663250     0.000000000  0.000000000  0.083333333

  Length of vectors
     0.026531950  0.026531940  0.026531952

  Shift w.r.t. Gamma in fractional coordinates (k-lattice)
     0.500000000  0.500000000  0.500000000

 
 Subroutine IBZKPT returns following result:
 ===========================================
 
 Found    182 irreducible k-points:
 
 Following reciprocal coordinates:
            Coordinates               Weight
  0.041667  0.041667  0.041667      8.000000
  0.125000  0.041667  0.041667     24.000000
  0.208333  0.041667  0.041667     24.000000
  0.291667  0.041667  0.041667     24.000000
  0.375000  0.041667  0.041667     24.000000
  0.458333  0.041667  0.041667     24.000000
 -0.458333  0.041667  0.041667     24.000000
 -0.375000  0.041667  0.041667     24.000000
 -0.291667  0.041667  0.041667     24.000000
 -0.208333  0.041667  0.041667     24.000000
 -0.125000  0.041667  0.041667     24.000000
 -0.041667  0.041667  0.041667     24.000000
  0.125000  0.125000  0.041667     24.000000
  0.208333  0.125000  0.041667     48.000000
  0.291667  0.125000  0.041667     48.000000
  0.375000  0.125000  0.041667     48.000000
  0.458333  0.125000  0.041667     48.000000
 -0.458333  0.125000  0.041667     48.000000
 -0.375000  0.125000  0.041667     48.000000
 -0.291667  0.125000  0.041667     48.000000
 -0.208333  0.125000  0.041667     48.000000
 -0.125000  0.125000  0.041667     48.000000
 -0.041667  0.125000  0.041667     48.000000
  0.208333  0.208333  0.041667     24.000000
  0.291667  0.208333  0.041667     48.000000
  0.375000  0.208333  0.041667     48.000000
  0.458333  0.208333  0.041667     48.000000
 -0.458333  0.208333  0.041667     48.000000
 -0.375000  0.208333  0.041667     48.000000
 -0.291667  0.208333  0.041667     48.000000
 -0.208333  0.208333  0.041667     48.000000
 -0.125000  0.208333  0.041667     48.000000
 -0.041667  0.208333  0.041667     48.000000
  0.291667  0.291667  0.041667     24.000000
  0.375000  0.291667  0.041667     48.000000
  0.458333  0.291667  0.041667     48.000000
 -0.458333  0.291667  0.041667     48.000000
 -0.375000  0.291667  0.041667     48.000000
 -0.291667  0.291667  0.041667     48.000000
 -0.208333  0.291667  0.041667     48.000000
 -0.125000  0.291667  0.041667     48.000000
 -0.041667  0.291667  0.041667     48.000000
  0.375000  0.375000  0.041667     24.000000
  0.458333  0.375000  0.041667     48.000000
 -0.458333  0.375000  0.041667     48.000000
 -0.375000  0.375000  0.041667     48.000000
 -0.291667  0.375000  0.041667     48.000000
 -0.208333  0.375000  0.041667     48.000000
 -0.125000  0.375000  0.041667     48.000000
 -0.041667  0.375000  0.041667     48.000000
  0.458333  0.458333  0.041667     24.000000
 -0.458333  0.458333  0.041667     48.000000
 -0.375000  0.458333  0.041667     48.000000
 -0.291667  0.458333  0.041667     48.000000
 -0.208333  0.458333  0.041667     48.000000
 -0.125000  0.458333  0.041667     48.000000
 -0.041667  0.458333  0.041667     48.000000
 -0.458333 -0.458333  0.041667     24.000000
 -0.375000 -0.458333  0.041667     48.000000
 -0.291667 -0.458333  0.041667     48.000000
 -0.208333 -0.458333  0.041667     48.000000
 -0.125000 -0.458333  0.041667     48.000000
 -0.375000 -0.375000  0.041667     24.000000
 -0.291667 -0.375000  0.041667     48.000000
 -0.208333 -0.375000  0.041667     48.000000
 -0.125000 -0.375000  0.041667     48.000000
 -0.291667 -0.291667  0.041667     24.000000
 -0.208333 -0.291667  0.041667     48.000000
 -0.125000 -0.291667  0.041667     48.000000
 -0.208333 -0.208333  0.041667     24.000000
 -0.125000 -0.208333  0.041667     48.000000
 -0.125000 -0.125000  0.041667     24.000000
  0.125000  0.125000  0.125000      8.000000
  0.208333  0.125000  0.125000     24.000000
  0.291667  0.125000  0.125000     24.000000
  0.375000  0.125000  0.125000     24.000000
  0.458333  0.125000  0.125000     24.000000
 -0.458333  0.125000  0.125000     24.000000
 -0.375000  0.125000  0.125000     24.000000
 -0.291667  0.125000  0.125000     24.000000
 -0.208333  0.125000  0.125000     24.000000
 -0.125000  0.125000  0.125000     24.000000
  0.208333  0.208333  0.125000     24.000000
  0.291667  0.208333  0.125000     48.000000
  0.375000  0.208333  0.125000     48.000000
  0.458333  0.208333  0.125000     48.000000
 -0.458333  0.208333  0.125000     48.000000
 -0.375000  0.208333  0.125000     48.000000
 -0.291667  0.208333  0.125000     48.000000
 -0.208333  0.208333  0.125000     48.000000
 -0.125000  0.208333  0.125000     48.000000
  0.291667  0.291667  0.125000     24.000000
  0.375000  0.291667  0.125000     48.000000
  0.458333  0.291667  0.125000     48.000000
 -0.458333  0.291667  0.125000     48.000000
 -0.375000  0.291667  0.125000     48.000000
 -0.291667  0.291667  0.125000     48.000000
 -0.208333  0.291667  0.125000     48.000000
 -0.125000  0.291667  0.125000     48.000000
  0.375000  0.375000  0.125000     24.000000
  0.458333  0.375000  0.125000     48.000000
 -0.458333  0.375000  0.125000     48.000000
 -0.375000  0.375000  0.125000     48.000000
 -0.291667  0.375000  0.125000     48.000000
 -0.208333  0.375000  0.125000     48.000000
 -0.125000  0.375000  0.125000     48.000000
  0.458333  0.458333  0.125000     24.000000
 -0.458333  0.458333  0.125000     48.000000
 -0.375000  0.458333  0.125000     48.000000
 -0.291667  0.458333  0.125000     48.000000
 -0.208333  0.458333  0.125000     48.000000
 -0.125000  0.458333  0.125000     48.000000
 -0.458333 -0.458333  0.125000     24.000000
 -0.375000 -0.458333  0.125000     48.000000
 -0.291667 -0.458333  0.125000     48.000000
 -0.208333 -0.458333  0.125000     48.000000
 -0.375000 -0.375000  0.125000     24.000000
 -0.291667 -0.375000  0.125000     48.000000
 -0.208333 -0.375000  0.125000     48.000000
 -0.291667 -0.291667  0.125000     24.000000
 -0.208333 -0.291667  0.125000     48.000000
 -0.208333 -0.208333  0.125000     24.000000
  0.208333  0.208333  0.208333      8.000000
  0.291667  0.208333  0.208333     24.000000
  0.375000  0.208333  0.208333     24.000000
  0.458333  0.208333  0.208333     24.000000
 -0.458333  0.208333  0.208333     24.000000
 -0.375000  0.208333  0.208333     24.000000
 -0.291667  0.208333  0.208333     24.000000
 -0.208333  0.208333  0.208333     24.000000
  0.291667  0.291667  0.208333     24.000000
  0.375000  0.291667  0.208333     48.000000
  0.458333  0.291667  0.208333     48.000000
 -0.458333  0.291667  0.208333     48.000000
 -0.375000  0.291667  0.208333     48.000000
 -0.291667  0.291667  0.208333     48.000000
 -0.208333  0.291667  0.208333     48.000000
  0.375000  0.375000  0.208333     24.000000
  0.458333  0.375000  0.208333     48.000000
 -0.458333  0.375000  0.208333     48.000000
 -0.375000  0.375000  0.208333     48.000000
 -0.291667  0.375000  0.208333     48.000000
 -0.208333  0.375000  0.208333     48.000000
  0.458333  0.458333  0.208333     24.000000
 -0.458333  0.458333  0.208333     48.000000
 -0.375000  0.458333  0.208333     48.000000
 -0.291667  0.458333  0.208333     48.000000
 -0.208333  0.458333  0.208333     48.000000
 -0.458333 -0.458333  0.208333     24.000000
 -0.375000 -0.458333  0.208333     48.000000
 -0.291667 -0.458333  0.208333     48.000000
 -0.375000 -0.375000  0.208333     24.000000
 -0.291667 -0.375000  0.208333     48.000000
 -0.291667 -0.291667  0.208333     24.000000
  0.291667  0.291667  0.291667      8.000000
  0.375000  0.291667  0.291667     24.000000
  0.458333  0.291667  0.291667     24.000000
 -0.458333  0.291667  0.291667     24.000000
 -0.375000  0.291667  0.291667     24.000000
 -0.291667  0.291667  0.291667     24.000000
  0.375000  0.375000  0.291667     24.000000
  0.458333  0.375000  0.291667     48.000000
 -0.458333  0.375000  0.291667     48.000000
 -0.375000  0.375000  0.291667     48.000000
 -0.291667  0.375000  0.291667     48.000000
  0.458333  0.458333  0.291667     24.000000
 -0.458333  0.458333  0.291667     48.000000
 -0.375000  0.458333  0.291667     48.000000
 -0.291667  0.458333  0.291667     48.000000
 -0.458333 -0.458333  0.291667     24.000000
 -0.375000 -0.458333  0.291667     48.000000
 -0.375000 -0.375000  0.291667     24.000000
  0.375000  0.375000  0.375000      8.000000
  0.458333  0.375000  0.375000     24.000000
 -0.458333  0.375000  0.375000     24.000000
 -0.375000  0.375000  0.375000     24.000000
  0.458333  0.458333  0.375000     24.000000
 -0.458333  0.458333  0.375000     48.000000
 -0.375000  0.458333  0.375000     48.000000
 -0.458333 -0.458333  0.375000     24.000000
  0.458333  0.458333  0.458333      8.000000
 -0.458333  0.458333  0.458333     24.000000
 
 Following cartesian coordinates:
            Coordinates               Weight
  0.006222  0.004400  0.010777      8.000000
  0.031112 -0.004400  0.010777     24.000000
  0.056001 -0.013200  0.010777     24.000000
  0.080891 -0.021999  0.010777     24.000000
  0.105780 -0.030799  0.010777     24.000000
  0.130670 -0.039599  0.010777     24.000000
 -0.143115  0.057198  0.010777     24.000000
 -0.118225  0.048399  0.010777     24.000000
 -0.093336  0.039599  0.010777     24.000000
 -0.068446  0.030799  0.010777     24.000000
 -0.043557  0.021999  0.010777     24.000000
 -0.018667  0.013200  0.010777     24.000000
  0.031112  0.021999  0.010777     24.000000
  0.056001  0.013200  0.010777     48.000000
  0.080891  0.004400  0.010777     48.000000
  0.105780 -0.004400  0.010777     48.000000
  0.130670 -0.013200  0.010777     48.000000
 -0.143115  0.083598  0.010777     48.000000
 -0.118225  0.074798  0.010777     48.000000
 -0.093336  0.065998  0.010777     48.000000
 -0.068446  0.057198  0.010777     48.000000
 -0.043557  0.048399  0.010777     48.000000
 -0.018667  0.039599  0.010777     48.000000
  0.056001  0.039599  0.010777     24.000000
  0.080891  0.030799  0.010777     48.000000
  0.105780  0.021999  0.010777     48.000000
  0.130670  0.013200  0.010777     48.000000
 -0.143115  0.109997  0.010777     48.000000
 -0.118225  0.101197  0.010777     48.000000
 -0.093336  0.092397  0.010777     48.000000
 -0.068446  0.083598  0.010777     48.000000
 -0.043557  0.074798  0.010777     48.000000
 -0.018667  0.065998  0.010777     48.000000
  0.080891  0.057198  0.010777     24.000000
  0.105780  0.048399  0.010777     48.000000
  0.130670  0.039599  0.010777     48.000000
 -0.143115  0.136396  0.010777     48.000000
 -0.118225  0.127597  0.010777     48.000000
 -0.093336  0.118797  0.010777     48.000000
 -0.068446  0.109997  0.010777     48.000000
 -0.043557  0.101197  0.010777     48.000000
 -0.018667  0.092397  0.010777     48.000000
  0.105780  0.074798  0.010777     24.000000
  0.130670  0.065998  0.010777     48.000000
 -0.143115  0.162796  0.010777     48.000000
 -0.118225  0.153996  0.010777     48.000000
 -0.093336  0.145196  0.010777     48.000000
 -0.068446  0.136396  0.010777     48.000000
 -0.043557  0.127597  0.010777     48.000000
 -0.018667  0.118797  0.010777     48.000000
  0.130670  0.092397  0.010777     24.000000
 -0.143115  0.189195  0.010777     48.000000
 -0.118225  0.180395  0.010777     48.000000
 -0.093336  0.171595  0.010777     48.000000
 -0.068446  0.162796  0.010777     48.000000
 -0.043557  0.153996  0.010777     48.000000
 -0.018667  0.145196  0.010777     48.000000
 -0.143115 -0.101197  0.010777     24.000000
 -0.118225 -0.109997  0.010777     48.000000
 -0.093336 -0.118797  0.010777     48.000000
 -0.068446 -0.127597  0.010777     48.000000
 -0.043557 -0.136396  0.010777     48.000000
 -0.118225 -0.083598  0.010777     24.000000
 -0.093336 -0.092397  0.010777     48.000000
 -0.068446 -0.101197  0.010777     48.000000
 -0.043557 -0.109997  0.010777     48.000000
 -0.093336 -0.065998  0.010777     24.000000
 -0.068446 -0.074798  0.010777     48.000000
 -0.043557 -0.083598  0.010777     48.000000
 -0.068446 -0.048399  0.010777     24.000000
 -0.043557 -0.057198  0.010777     48.000000
 -0.043557 -0.030799  0.010777     24.000000
  0.018667  0.013200  0.032332      8.000000
  0.043557  0.004400  0.032332     24.000000
  0.068446 -0.004400  0.032332     24.000000
  0.093336 -0.013200  0.032332     24.000000
  0.118225 -0.021999  0.032332     24.000000
 -0.155559  0.074798  0.032332     24.000000
 -0.130670  0.065998  0.032332     24.000000
 -0.105780  0.057198  0.032332     24.000000
 -0.080891  0.048399  0.032332     24.000000
 -0.056001  0.039599  0.032332     24.000000
  0.043557  0.030799  0.032332     24.000000
  0.068446  0.021999  0.032332     48.000000
  0.093336  0.013200  0.032332     48.000000
  0.118225  0.004400  0.032332     48.000000
 -0.155559  0.101197  0.032332     48.000000
 -0.130670  0.092397  0.032332     48.000000
 -0.105780  0.083598  0.032332     48.000000
 -0.080891  0.074798  0.032332     48.000000
 -0.056001  0.065998  0.032332     48.000000
  0.068446  0.048399  0.032332     24.000000
  0.093336  0.039599  0.032332     48.000000
  0.118225  0.030799  0.032332     48.000000
 -0.155559  0.127597  0.032332     48.000000
 -0.130670  0.118797  0.032332     48.000000
 -0.105780  0.109997  0.032332     48.000000
 -0.080891  0.101197  0.032332     48.000000
 -0.056001  0.092397  0.032332     48.000000
  0.093336  0.065998  0.032332     24.000000
  0.118225  0.057198  0.032332     48.000000
 -0.155559  0.153996  0.032332     48.000000
 -0.130670  0.145196  0.032332     48.000000
 -0.105780  0.136396  0.032332     48.000000
 -0.080891  0.127597  0.032332     48.000000
 -0.056001  0.118797  0.032332     48.000000
  0.118225  0.083598  0.032332     24.000000
 -0.155559  0.180395  0.032332     48.000000
 -0.130670  0.171595  0.032332     48.000000
 -0.105780  0.162796  0.032332     48.000000
 -0.080891  0.153996  0.032332     48.000000
 -0.056001  0.145196  0.032332     48.000000
 -0.155559 -0.109997  0.032332     24.000000
 -0.130670 -0.118797  0.032332     48.000000
 -0.105780 -0.127597  0.032332     48.000000
 -0.080891 -0.136396  0.032332     48.000000
 -0.130670 -0.092397  0.032332     24.000000
 -0.105780 -0.101197  0.032332     48.000000
 -0.080891 -0.109997  0.032332     48.000000
 -0.105780 -0.074798  0.032332     24.000000
 -0.080891 -0.083598  0.032332     48.000000
 -0.080891 -0.057198  0.032332     24.000000
  0.031112  0.021999  0.053887      8.000000
  0.056001  0.013200  0.053887     24.000000
  0.080891  0.004400  0.053887     24.000000
  0.105780 -0.004400  0.053887     24.000000
 -0.168004  0.092397  0.053887     24.000000
 -0.143115  0.083598  0.053887     24.000000
 -0.118225  0.074798  0.053887     24.000000
 -0.093336  0.065998  0.053887     24.000000
  0.056001  0.039599  0.053887     24.000000
  0.080891  0.030799  0.053887     48.000000
  0.105780  0.021999  0.053887     48.000000
 -0.168004  0.118797  0.053887     48.000000
 -0.143115  0.109997  0.053887     48.000000
 -0.118225  0.101197  0.053887     48.000000
 -0.093336  0.092397  0.053887     48.000000
  0.080891  0.057198  0.053887     24.000000
  0.105780  0.048399  0.053887     48.000000
 -0.168004  0.145196  0.053887     48.000000
 -0.143115  0.136396  0.053887     48.000000
 -0.118225  0.127597  0.053887     48.000000
 -0.093336  0.118797  0.053887     48.000000
  0.105780  0.074798  0.053887     24.000000
 -0.168004  0.171595  0.053887     48.000000
 -0.143115  0.162796  0.053887     48.000000
 -0.118225  0.153996  0.053887     48.000000
 -0.093336  0.145196  0.053887     48.000000
 -0.168004 -0.118797  0.053887     24.000000
 -0.143115 -0.127597  0.053887     48.000000
 -0.118225 -0.136396  0.053887     48.000000
 -0.143115 -0.101197  0.053887     24.000000
 -0.118225 -0.109997  0.053887     48.000000
 -0.118225 -0.083598  0.053887     24.000000
  0.043557  0.030799  0.075442      8.000000
  0.068446  0.021999  0.075442     24.000000
  0.093336  0.013200  0.075442     24.000000
 -0.180449  0.109997  0.075442     24.000000
 -0.155559  0.101197  0.075442     24.000000
 -0.130670  0.092397  0.075442     24.000000
  0.068446  0.048399  0.075442     24.000000
  0.093336  0.039599  0.075442     48.000000
 -0.180449  0.136396  0.075442     48.000000
 -0.155559  0.127597  0.075442     48.000000
 -0.130670  0.118797  0.075442     48.000000
  0.093336  0.065998  0.075442     24.000000
 -0.180449  0.162796  0.075442     48.000000
 -0.155559  0.153996  0.075442     48.000000
 -0.130670  0.145196  0.075442     48.000000
 -0.180449 -0.127597  0.075442     24.000000
 -0.155559 -0.136396  0.075442     48.000000
 -0.155559 -0.109997  0.075442     24.000000
  0.056001  0.039599  0.096997      8.000000
  0.080891  0.030799  0.096997     24.000000
 -0.192894  0.127597  0.096997     24.000000
 -0.168004  0.118797  0.096997     24.000000
  0.080891  0.057198  0.096997     24.000000
 -0.192894  0.153996  0.096997     48.000000
 -0.168004  0.145196  0.096997     48.000000
 -0.192894 -0.136396  0.096997     24.000000
  0.068446  0.048399  0.118552      8.000000
 -0.205338  0.145196  0.118552     24.000000
 


--------------------------------------------------------------------------------------------------------




 Dimension of arrays:
   k-points           NKPTS =    182   k-points in BZ     NKDIM =    182   number of bands    NBANDS=      8
   number of dos      NEDOS =    301   number of ions     NIONS =      2
   non local maximal  LDIM  =      4   non local SUM 2l+1 LMDIM =      8
   total plane-waves  NPLWV =  13824
   max r-space proj   IRMAX =      1   max aug-charges    IRDMAX=  92054
   dimension x,y,z NGX =    24 NGY =   24 NGZ =   24
   dimension x,y,z NGXF=    48 NGYF=   48 NGZF=   48
   support grid    NGXF=    96 NGYF=   96 NGZF=   96
   ions per type =               2
   NGX,Y,Z   is equivalent  to a cutoff of  10.37, 10.37, 10.37 a.u.
   NGXF,Y,Z  is equivalent  to a cutoff of  20.74, 20.74, 20.74 a.u.

 SYSTEM =  unknown system                          
 POSCAR =  Si2                                     

 Startparameter for this run:
   NWRITE =      2    write-flag & timer
   PREC   = accura    normal or accurate (medium, high low for compatibility)
   ISTART =      0    job   : 0-new  1-cont  2-samecut
   ICHARG =      2    charge: 1-file 2-atom 10-const
   ISPIN  =      1    spin polarized calculation?
   LNONCOLLINEAR =      F non collinear calculations
   LSORBIT =      F    spin-orbit coupling
   INIWAV =      1    electr: 0-lowe 1-rand  2-diag
   LASPH  =      T    aspherical Exc in radial PAW
   METAGGA=      F    non-selfconsistent MetaGGA calc.

 Electronic Relaxation 1
   ENCUT  =  350.0 eV  25.72 Ry    5.07 a.u.   5.87  5.87  5.87*2*pi/ulx,y,z
   ENINI  =  350.0     initial cutoff
   ENAUG  =  322.1 eV  augmentation charge cutoff
   NELM   =     90;   NELMIN=  6; NELMDL= -5     # of ELM steps 
   EDIFF  = 0.1E-05   stopping-criterion for ELM
   LREAL  =      F    real-space projection
   NLSPLINE    = F    spline interpolate recip. space projectors
   LCOMPAT=      F    compatible to vasp.4.4
   GGA_COMPAT  = T    GGA compatible to vasp.4.4-vasp.4.6
   LMAXPAW     = -100 max onsite density
   LMAXMIX     =    2 max onsite mixed and CHGCAR
   VOSKOWN=      0    Vosko Wilk Nusair interpolation
   ROPT   =    0.00000
 Ionic relaxation
   EDIFFG = -.2E-02   stopping-criterion for IOM
   NSW    =    100    number of steps for IOM
   NBLOCK =      1;   KBLOCK =    100    inner block; outer block 
   IBRION =      2    ionic relax: 0-MD 1-quasi-New 2-CG
   NFREE  =      1    steps in history (QN), initial steepest desc. (CG)
   ISIF   =      2    stress and relaxation
   IWAVPR =     11    prediction:  0-non 1-charg 2-wave 3-comb
   ISYM   =      2    0-nonsym 1-usesym 2-fastsym
   LCORR  =      T    Harris-Foulkes like correction to forces

   POTIM  = 0.5000    time-step for ionic-motion
   TEIN   =    0.0    initial temperature
   TEBEG  =    0.0;   TEEND  =   0.0 temperature during run
   SMASS  =  -3.00    Nose mass-parameter (am)
   estimated Nose-frequenzy (Omega)   =  0.10E-29 period in steps = 0.13E+47 mass=  -0.338E-27a.u.
   SCALEE = 1.0000    scale energy and forces
   NPACO  =    256;   APACO  = 16.0  distance and # of slots for P.C.
   PSTRESS=    0.0 pullay stress

  Mass of Ions in am
   POMASS =  28.09
  Ionic Valenz
   ZVAL   =   4.00
  Atomic Wigner-Seitz radii
   RWIGS  =  -1.00
  virtual crystal weights 
   VCA    =   1.00
   NELECT =       8.0000    total number of electrons
   NUPDOWN=      -1.0000    fix difference up-down

 DOS related values:
   EMIN   =  10.00;   EMAX   =-10.00  energy-range for DOS
   EFERMI =   0.00
   ISMEAR =     0;   SIGMA  =   0.05  broadening in eV -4-tet -1-fermi 0-gaus

 Electronic relaxation 2 (details)
   IALGO  =     38    algorithm
   LDIAG  =      T    sub-space diagonalisation (order eigenvalues)
   LSUBROT=      F    optimize rotation matrix (better conditioning)
   TURBO    =      0    0=normal 1=particle mesh
   IRESTART =      0    0=no restart 2=restart with 2 vectors
   NREBOOT  =      0    no. of reboots
   NMIN     =      0    reboot dimension
   EREF     =   0.00    reference energy to select bands
   IMIX   =      4    mixing-type and parameters
     AMIX     =   0.40;   BMIX     =  1.00
     AMIX_MAG =   1.60;   BMIX_MAG =  1.00
     AMIN     =   0.10
     WC   =   100.;   INIMIX=   1;  MIXPRE=   1;  MAXMIX= -45

 Intra band minimization:
   WEIMIN = 0.0010     energy-eigenvalue tresh-hold
   EBREAK =  0.31E-07  absolut break condition
   DEPER  =   0.30     relativ break condition  

   TIME   =   0.40     timestep for ELM

  volume/ion in A,a.u.               =      20.13       135.81
  Fermi-wavevector in a.u.,A,eV,Ry     =   0.955391  1.805428 12.419023  0.912772
  Thomas-Fermi vector in A             =   2.084225
 
 Write flags
   LWAVE        =      F    write WAVECAR
   LDOWNSAMPLE  =      F    k-point downsampling of WAVECAR
   LCHARG       =      F    write CHGCAR
   LVTOT        =      F    write LOCPOT, total local potential
   LVHAR        =      F    write LOCPOT, Hartree potential only
   LELF         =      F    write electronic localiz. function (ELF)
   LORBIT       =      0    0 simple, 1 ext, 2 COOP (PROOUT), +10 PAW based schemes


 Dipole corrections
   LMONO  =      F    monopole corrections only (constant potential shift)
   LDIPOL =      F    correct potential (dipole corrections)
   IDIPOL =      0    1-x, 2-y, 3-z, 4-all directions 
   EPSILON=  1.0000000 bulk dielectric constant

 Exchange correlation treatment:
   GGA     =    --    GGA type
   LEXCH   =     8    internal setting for exchange type
   VOSKOWN=      0    Vosko Wilk Nusair interpolation
   LHFCALC =     F    Hartree Fock is set to
   LHFONE  =     F    Hartree Fock one center treatment
   AEXX    =    0.0000 exact exchange contribution

 Linear response parameters
   LEPSILON=     F    determine dielectric tensor
   LRPA    =     F    only Hartree local field effects (RPA)
   LNABLA  =     F    use nabla operator in PAW spheres
   LVEL    =     F    velocity operator in full k-point grid
   LINTERFAST=   F  fast interpolation
   KINTER  =     0    interpolate to denser k-point grid
   CSHIFT  =0.1000    complex shift for real part using Kramers Kronig
   OMEGAMAX=  -1.0    maximum frequency
   DEG_THRESHOLD= 0.2000000E-02 threshold for treating states as degnerate
   RTIME   =   -0.100 relaxation time in fs
  (WPLASMAI=    0.000 imaginary part of plasma frequency in eV, 0.658/RTIME)
   DFIELD  = 0.0000000 0.0000000 0.0000000 field for delta impulse in time
 
 Orbital magnetization related:
   ORBITALMAG=     F  switch on orbital magnetization
   LCHIMAG   =     F  perturbation theory with respect to B field
   DQ        =  0.001000  dq finite difference perturbation B field
   LLRAUG    =     F  two centre corrections for induced B field



--------------------------------------------------------------------------------------------------------


 conjugate gradient relaxation of ions
 charge density and potential will be updated during run
 non-spin polarized calculation
 Variant of blocked Davidson
 Davidson routine will perform the subspace rotation
 perform sub-space diagonalisation
    after iterative eigenvector-optimisation
 modified Broyden-mixing scheme, WC =      100.0
 initial mixing is a Kerker type mixing with AMIX =  0.4000 and BMIX =      1.0000
 Hartree-type preconditioning will be used
 using additional bands            4
 reciprocal scheme for non local part
 use partial core corrections
 calculate Harris-corrections to forces 
   (improved forces if not selfconsistent)
 use gradient corrections 
 use of overlap-Matrix (Vanderbilt PP)
 Gauss-broadening in eV      SIGMA  =   0.05


--------------------------------------------------------------------------------------------------------


  energy-cutoff  :      350.00
  volume of cell :       40.25
      direct lattice vectors                 reciprocal lattice vectors
     3.331392723  0.000000000  1.923380214     0.300174757 -0.106127761  0.000000000
     1.110464241  3.140868425  1.923380214     0.000000000  0.318383283  0.000000000
     0.000000000  0.000000000  3.846760429    -0.150087378 -0.106127761  0.259959001

  length of vectors
     3.846760835  3.846761852  3.846760429     0.318383395  0.318383283  0.318383425


 
 k-points in units of 2pi/SCALE and weight: Automatic                               
   0.00622237  0.00439988  0.01077747       0.001
   0.03111186 -0.00439988  0.01077747       0.003
   0.05600135 -0.01319964  0.01077747       0.003
   0.08089084 -0.02199940  0.01077747       0.003
   0.10578033 -0.03079916  0.01077747       0.003
   0.13066982 -0.03959892  0.01077747       0.003
  -0.14311457  0.05719844  0.01077747       0.003
  -0.11822508  0.04839868  0.01077747       0.003
  -0.09333559  0.03959892  0.01077747       0.003
  -0.06844610  0.03079916  0.01077747       0.003
  -0.04355661  0.02199940  0.01077747       0.003
  -0.01866712  0.01319964  0.01077747       0.003
   0.03111186  0.02199940  0.01077747       0.003
   0.05600135  0.01319964  0.01077747       0.007
   0.08089084  0.00439988  0.01077747       0.007
   0.10578033 -0.00439988  0.01077747       0.007
   0.13066982 -0.01319964  0.01077747       0.007
  -0.14311457  0.08359772  0.01077747       0.007
  -0.11822508  0.07479796  0.01077747       0.007
  -0.09333559  0.06599820  0.01077747       0.007
  -0.06844610  0.05719844  0.01077747       0.007
  -0.04355661  0.04839868  0.01077747       0.007
  -0.01866712  0.03959892  0.01077747       0.007
   0.05600135  0.03959892  0.01077747       0.003
   0.08089084  0.03079916  0.01077747       0.007
   0.10578033  0.02199940  0.01077747       0.007
   0.13066982  0.01319964  0.01077747       0.007
  -0.14311457  0.10999700  0.01077747       0.007
  -0.11822508  0.10119724  0.01077747       0.007
  -0.09333559  0.09239748  0.01077747       0.007
  -0.06844610  0.08359772  0.01077747       0.007
  -0.04355661  0.07479796  0.01077747       0.007
  -0.01866712  0.06599820  0.01077747       0.007
   0.08089084  0.05719844  0.01077747       0.003
   0.10578033  0.04839868  0.01077747       0.007
   0.13066982  0.03959892  0.01077747       0.007
  -0.14311457  0.13639628  0.01077747       0.007
  -0.11822508  0.12759652  0.01077747       0.007
  -0.09333559  0.11879676  0.01077747       0.007
  -0.06844610  0.10999700  0.01077747       0.007
  -0.04355661  0.10119724  0.01077747       0.007
  -0.01866712  0.09239748  0.01077747       0.007
   0.10578033  0.07479796  0.01077747       0.003
   0.13066982  0.06599820  0.01077747       0.007
  -0.14311457  0.16279556  0.01077747       0.007
  -0.11822508  0.15399580  0.01077747       0.007
  -0.09333559  0.14519604  0.01077747       0.007
  -0.06844610  0.13639628  0.01077747       0.007
  -0.04355661  0.12759652  0.01077747       0.007
  -0.01866712  0.11879676  0.01077747       0.007
   0.13066982  0.09239748  0.01077747       0.003
  -0.14311457  0.18919484  0.01077747       0.007
  -0.11822508  0.18039508  0.01077747       0.007
  -0.09333559  0.17159532  0.01077747       0.007
  -0.06844610  0.16279556  0.01077747       0.007
  -0.04355661  0.15399580  0.01077747       0.007
  -0.01866712  0.14519604  0.01077747       0.007
  -0.14311457 -0.10119724  0.01077747       0.003
  -0.11822508 -0.10999700  0.01077747       0.007
  -0.09333559 -0.11879676  0.01077747       0.007
  -0.06844610 -0.12759652  0.01077747       0.007
  -0.04355661 -0.13639628  0.01077747       0.007
  -0.11822508 -0.08359772  0.01077747       0.003
  -0.09333559 -0.09239748  0.01077747       0.007
  -0.06844610 -0.10119724  0.01077747       0.007
  -0.04355661 -0.10999700  0.01077747       0.007
  -0.09333559 -0.06599820  0.01077747       0.003
  -0.06844610 -0.07479796  0.01077747       0.007
  -0.04355661 -0.08359772  0.01077747       0.007
  -0.06844610 -0.04839868  0.01077747       0.003
  -0.04355661 -0.05719844  0.01077747       0.007
  -0.04355661 -0.03079916  0.01077747       0.003
   0.01866712  0.01319964  0.03233240       0.001
   0.04355661  0.00439988  0.03233240       0.003
   0.06844610 -0.00439988  0.03233240       0.003
   0.09333559 -0.01319964  0.03233240       0.003
   0.11822508 -0.02199940  0.03233240       0.003
  -0.15555931  0.07479796  0.03233240       0.003
  -0.13066982  0.06599820  0.03233240       0.003
  -0.10578033  0.05719844  0.03233240       0.003
  -0.08089084  0.04839868  0.03233240       0.003
  -0.05600135  0.03959892  0.03233240       0.003
   0.04355661  0.03079916  0.03233240       0.003
   0.06844610  0.02199940  0.03233240       0.007
   0.09333559  0.01319964  0.03233240       0.007
   0.11822508  0.00439988  0.03233240       0.007
  -0.15555931  0.10119724  0.03233240       0.007
  -0.13066982  0.09239748  0.03233240       0.007
  -0.10578033  0.08359772  0.03233240       0.007
  -0.08089084  0.07479796  0.03233240       0.007
  -0.05600135  0.06599820  0.03233240       0.007
   0.06844610  0.04839868  0.03233240       0.003
   0.09333559  0.03959892  0.03233240       0.007
   0.11822508  0.03079916  0.03233240       0.007
  -0.15555931  0.12759652  0.03233240       0.007
  -0.13066982  0.11879676  0.03233240       0.007
  -0.10578033  0.10999700  0.03233240       0.007
  -0.08089084  0.10119724  0.03233240       0.007
  -0.05600135  0.09239748  0.03233240       0.007
   0.09333559  0.06599820  0.03233240       0.003
   0.11822508  0.05719844  0.03233240       0.007
  -0.15555931  0.15399580  0.03233240       0.007
  -0.13066982  0.14519604  0.03233240       0.007
  -0.10578033  0.13639628  0.03233240       0.007
  -0.08089084  0.12759652  0.03233240       0.007
  -0.05600135  0.11879676  0.03233240       0.007
   0.11822508  0.08359772  0.03233240       0.003
  -0.15555931  0.18039508  0.03233240       0.007
  -0.13066982  0.17159532  0.03233240       0.007
  -0.10578033  0.16279556  0.03233240       0.007
  -0.08089084  0.15399580  0.03233240       0.007
  -0.05600135  0.14519604  0.03233240       0.007
  -0.15555931 -0.10999700  0.03233240       0.003
  -0.13066982 -0.11879676  0.03233240       0.007
  -0.10578033 -0.12759652  0.03233240       0.007
  -0.08089084 -0.13639628  0.03233240       0.007
  -0.13066982 -0.09239748  0.03233240       0.003
  -0.10578033 -0.10119724  0.03233240       0.007
  -0.08089084 -0.10999700  0.03233240       0.007
  -0.10578033 -0.07479796  0.03233240       0.003
  -0.08089084 -0.08359772  0.03233240       0.007
  -0.08089084 -0.05719844  0.03233240       0.003
   0.03111186  0.02199940  0.05388733       0.001
   0.05600135  0.01319964  0.05388733       0.003
   0.08089084  0.00439988  0.05388733       0.003
   0.10578033 -0.00439988  0.05388733       0.003
  -0.16800406  0.09239748  0.05388733       0.003
  -0.14311457  0.08359772  0.05388733       0.003
  -0.11822508  0.07479796  0.05388733       0.003
  -0.09333559  0.06599820  0.05388733       0.003
   0.05600135  0.03959892  0.05388733       0.003
   0.08089084  0.03079916  0.05388733       0.007
   0.10578033  0.02199940  0.05388733       0.007
  -0.16800406  0.11879676  0.05388733       0.007
  -0.14311457  0.10999700  0.05388733       0.007
  -0.11822508  0.10119724  0.05388733       0.007
  -0.09333559  0.09239748  0.05388733       0.007
   0.08089084  0.05719844  0.05388733       0.003
   0.10578033  0.04839868  0.05388733       0.007
  -0.16800406  0.14519604  0.05388733       0.007
  -0.14311457  0.13639628  0.05388733       0.007
  -0.11822508  0.12759652  0.05388733       0.007
  -0.09333559  0.11879676  0.05388733       0.007
   0.10578033  0.07479796  0.05388733       0.003
  -0.16800406  0.17159532  0.05388733       0.007
  -0.14311457  0.16279556  0.05388733       0.007
  -0.11822508  0.15399580  0.05388733       0.007
  -0.09333559  0.14519604  0.05388733       0.007
  -0.16800406 -0.11879676  0.05388733       0.003
  -0.14311457 -0.12759652  0.05388733       0.007
  -0.11822508 -0.13639628  0.05388733       0.007
  -0.14311457 -0.10119724  0.05388733       0.003
  -0.11822508 -0.10999700  0.05388733       0.007
  -0.11822508 -0.08359772  0.05388733       0.003
   0.04355661  0.03079916  0.07544227       0.001
   0.06844610  0.02199940  0.07544227       0.003
   0.09333559  0.01319964  0.07544227       0.003
  -0.18044880  0.10999700  0.07544227       0.003
  -0.15555931  0.10119724  0.07544227       0.003
  -0.13066982  0.09239748  0.07544227       0.003
   0.06844610  0.04839868  0.07544227       0.003
   0.09333559  0.03959892  0.07544227       0.007
  -0.18044880  0.13639628  0.07544227       0.007
  -0.15555931  0.12759652  0.07544227       0.007
  -0.13066982  0.11879676  0.07544227       0.007
   0.09333559  0.06599820  0.07544227       0.003
  -0.18044880  0.16279556  0.07544227       0.007
  -0.15555931  0.15399580  0.07544227       0.007
  -0.13066982  0.14519604  0.07544227       0.007
  -0.18044880 -0.12759652  0.07544227       0.003
  -0.15555931 -0.13639628  0.07544227       0.007
  -0.15555931 -0.10999700  0.07544227       0.003
   0.05600135  0.03959892  0.09699720       0.001
   0.08089084  0.03079916  0.09699720       0.003
  -0.19289355  0.12759652  0.09699720       0.003
  -0.16800406  0.11879676  0.09699720       0.003
   0.08089084  0.05719844  0.09699720       0.003
  -0.19289355  0.15399580  0.09699720       0.007
  -0.16800406  0.14519604  0.09699720       0.007
  -0.19289355 -0.13639628  0.09699720       0.003
   0.06844610  0.04839868  0.11855214       0.001
  -0.20533829  0.14519604  0.11855214       0.003
 
 k-points in reciprocal lattice and weights: Automatic                               
   0.04166667  0.04166667  0.04166667       0.001
   0.12500000  0.04166667  0.04166667       0.003
   0.20833333  0.04166667  0.04166667       0.003
   0.29166667  0.04166667  0.04166667       0.003
   0.37500000  0.04166667  0.04166667       0.003
   0.45833333  0.04166667  0.04166667       0.003
  -0.45833333  0.04166667  0.04166667       0.003
  -0.37500000  0.04166667  0.04166667       0.003
  -0.29166667  0.04166667  0.04166667       0.003
  -0.20833333  0.04166667  0.04166667       0.003
  -0.12500000  0.04166667  0.04166667       0.003
  -0.04166667  0.04166667  0.04166667       0.003
   0.12500000  0.12500000  0.04166667       0.003
   0.20833333  0.12500000  0.04166667       0.007
   0.29166667  0.12500000  0.04166667       0.007
   0.37500000  0.12500000  0.04166667       0.007
   0.45833333  0.12500000  0.04166667       0.007
  -0.45833333  0.12500000  0.04166667       0.007
  -0.37500000  0.12500000  0.04166667       0.007
  -0.29166667  0.12500000  0.04166667       0.007
  -0.20833333  0.12500000  0.04166667       0.007
  -0.12500000  0.12500000  0.04166667       0.007
  -0.04166667  0.12500000  0.04166667       0.007
   0.20833333  0.20833333  0.04166667       0.003
   0.29166667  0.20833333  0.04166667       0.007
   0.37500000  0.20833333  0.04166667       0.007
   0.45833333  0.20833333  0.04166667       0.007
  -0.45833333  0.20833333  0.04166667       0.007
  -0.37500000  0.20833333  0.04166667       0.007
  -0.29166667  0.20833333  0.04166667       0.007
  -0.20833333  0.20833333  0.04166667       0.007
  -0.12500000  0.20833333  0.04166667       0.007
  -0.04166667  0.20833333  0.04166667       0.007
   0.29166667  0.29166667  0.04166667       0.003
   0.37500000  0.29166667  0.04166667       0.007
   0.45833333  0.29166667  0.04166667       0.007
  -0.45833333  0.29166667  0.04166667       0.007
  -0.37500000  0.29166667  0.04166667       0.007
  -0.29166667  0.29166667  0.04166667       0.007
  -0.20833333  0.29166667  0.04166667       0.007
  -0.12500000  0.29166667  0.04166667       0.007
  -0.04166667  0.29166667  0.04166667       0.007
   0.37500000  0.37500000  0.04166667       0.003
   0.45833333  0.37500000  0.04166667       0.007
  -0.45833333  0.37500000  0.04166667       0.007
  -0.37500000  0.37500000  0.04166667       0.007
  -0.29166667  0.37500000  0.04166667       0.007
  -0.20833333  0.37500000  0.04166667       0.007
  -0.12500000  0.37500000  0.04166667       0.007
  -0.04166667  0.37500000  0.04166667       0.007
   0.45833333  0.45833333  0.04166667       0.003
  -0.45833333  0.45833333  0.04166667       0.007
  -0.37500000  0.45833333  0.04166667       0.007
  -0.29166667  0.45833333  0.04166667       0.007
  -0.20833333  0.45833333  0.04166667       0.007
  -0.12500000  0.45833333  0.04166667       0.007
  -0.04166667  0.45833333  0.04166667       0.007
  -0.45833333 -0.45833333  0.04166667       0.003
  -0.37500000 -0.45833333  0.04166667       0.007
  -0.29166667 -0.45833333  0.04166667       0.007
  -0.20833333 -0.45833333  0.04166667       0.007
  -0.12500000 -0.45833333  0.04166667       0.007
  -0.37500000 -0.37500000  0.04166667       0.003
  -0.29166667 -0.37500000  0.04166667       0.007
  -0.20833333 -0.37500000  0.04166667       0.007
  -0.12500000 -0.37500000  0.04166667       0.007
  -0.29166667 -0.29166667  0.04166667       0.003
  -0.20833333 -0.29166667  0.04166667       0.007
  -0.12500000 -0.29166667  0.04166667       0.007
  -0.20833333 -0.20833333  0.04166667       0.003
  -0.12500000 -0.20833333  0.04166667       0.007
  -0.12500000 -0.12500000  0.04166667       0.003
   0.12500000  0.12500000  0.12500000       0.001
   0.20833333  0.12500000  0.12500000       0.003
   0.29166667  0.12500000  0.12500000       0.003
   0.37500000  0.12500000  0.12500000       0.003
   0.45833333  0.12500000  0.12500000       0.003
  -0.45833333  0.12500000  0.12500000       0.003
  -0.37500000  0.12500000  0.12500000       0.003
  -0.29166667  0.12500000  0.12500000       0.003
  -0.20833333  0.12500000  0.12500000       0.003
  -0.12500000  0.12500000  0.12500000       0.003
   0.20833333  0.20833333  0.12500000       0.003
   0.29166667  0.20833333  0.12500000       0.007
   0.37500000  0.20833333  0.12500000       0.007
   0.45833333  0.20833333  0.12500000       0.007
  -0.45833333  0.20833333  0.12500000       0.007
  -0.37500000  0.20833333  0.12500000       0.007
  -0.29166667  0.20833333  0.12500000       0.007
  -0.20833333  0.20833333  0.12500000       0.007
  -0.12500000  0.20833333  0.12500000       0.007
   0.29166667  0.29166667  0.12500000       0.003
   0.37500000  0.29166667  0.12500000       0.007
   0.45833333  0.29166667  0.12500000       0.007
  -0.45833333  0.29166667  0.12500000       0.007
  -0.37500000  0.29166667  0.12500000       0.007
  -0.29166667  0.29166667  0.12500000       0.007
  -0.20833333  0.29166667  0.12500000       0.007
  -0.12500000  0.29166667  0.12500000       0.007
   0.37500000  0.37500000  0.12500000       0.003
   0.45833333  0.37500000  0.12500000       0.007
  -0.45833333  0.37500000  0.12500000       0.007
  -0.37500000  0.37500000  0.12500000       0.007
  -0.29166667  0.37500000  0.12500000       0.007
  -0.20833333  0.37500000  0.12500000       0.007
  -0.12500000  0.37500000  0.12500000       0.007
   0.45833333  0.45833333  0.12500000       0.003
  -0.45833333  0.45833333  0.12500000       0.007
  -0.37500000  0.45833333  0.12500000       0.007
  -0.29166667  0.45833333  0.12500000       0.007
  -0.20833333  0.45833333  0.12500000       0.007
  -0.12500000  0.45833333  0.12500000       0.007
  -0.45833333 -0.45833333  0.12500000       0.003
  -0.37500000 -0.45833333  0.12500000       0.007
  -0.29166667 -0.45833333  0.12500000       0.007
  -0.20833333 -0.45833333  0.12500000       0.007
  -0.37500000 -0.37500000  0.12500000       0.003
  -0.29166667 -0.37500000  0.12500000       0.007
  -0.20833333 -0.37500000  0.12500000       0.007
  -0.29166667 -0.29166667  0.12500000       0.003
  -0.20833333 -0.29166667  0.12500000       0.007
  -0.20833333 -0.20833333  0.12500000       0.003
   0.20833333  0.20833333  0.20833333       0.001
   0.29166667  0.20833333  0.20833333       0.003
   0.37500000  0.20833333  0.20833333       0.003
   0.45833333  0.20833333  0.20833333       0.003
  -0.45833333  0.20833333  0.20833333       0.003
  -0.37500000  0.20833333  0.20833333       0.003
  -0.29166667  0.20833333  0.20833333       0.003
  -0.20833333  0.20833333  0.20833333       0.003
   0.29166667  0.29166667  0.20833333       0.003
   0.37500000  0.29166667  0.20833333       0.007
   0.45833333  0.29166667  0.20833333       0.007
  -0.45833333  0.29166667  0.20833333       0.007
  -0.37500000  0.29166667  0.20833333       0.007
  -0.29166667  0.29166667  0.20833333       0.007
  -0.20833333  0.29166667  0.20833333       0.007
   0.37500000  0.37500000  0.20833333       0.003
   0.45833333  0.37500000  0.20833333       0.007
  -0.45833333  0.37500000  0.20833333       0.007
  -0.37500000  0.37500000  0.20833333       0.007
  -0.29166667  0.37500000  0.20833333       0.007
  -0.20833333  0.37500000  0.20833333       0.007
   0.45833333  0.45833333  0.20833333       0.003
  -0.45833333  0.45833333  0.20833333       0.007
  -0.37500000  0.45833333  0.20833333       0.007
  -0.29166667  0.45833333  0.20833333       0.007
  -0.20833333  0.45833333  0.20833333       0.007
  -0.45833333 -0.45833333  0.20833333       0.003
  -0.37500000 -0.45833333  0.20833333       0.007
  -0.29166667 -0.45833333  0.20833333       0.007
  -0.37500000 -0.37500000  0.20833333       0.003
  -0.29166667 -0.37500000  0.20833333       0.007
  -0.29166667 -0.29166667  0.20833333       0.003
   0.29166667  0.29166667  0.29166667       0.001
   0.37500000  0.29166667  0.29166667       0.003
   0.45833333  0.29166667  0.29166667       0.003
  -0.45833333  0.29166667  0.29166667       0.003
  -0.37500000  0.29166667  0.29166667       0.003
  -0.29166667  0.29166667  0.29166667       0.003
   0.37500000  0.37500000  0.29166667       0.003
   0.45833333  0.37500000  0.29166667       0.007
  -0.45833333  0.37500000  0.29166667       0.007
  -0.37500000  0.37500000  0.29166667       0.007
  -0.29166667  0.37500000  0.29166667       0.007
   0.45833333  0.45833333  0.29166667       0.003
  -0.45833333  0.45833333  0.29166667       0.007
  -0.37500000  0.45833333  0.29166667       0.007
  -0.29166667  0.45833333  0.29166667       0.007
  -0.45833333 -0.45833333  0.29166667       0.003
  -0.37500000 -0.45833333  0.29166667       0.007
  -0.37500000 -0.37500000  0.29166667       0.003
   0.37500000  0.37500000  0.37500000       0.001
   0.45833333  0.37500000  0.37500000       0.003
  -0.45833333  0.37500000  0.37500000       0.003
  -0.37500000  0.37500000  0.37500000       0.003
   0.45833333  0.45833333  0.37500000       0.003
  -0.45833333  0.45833333  0.37500000       0.007
  -0.37500000  0.45833333  0.37500000       0.007
  -0.45833333 -0.45833333  0.37500000       0.003
   0.45833333  0.45833333  0.45833333       0.001
  -0.45833333  0.45833333  0.45833333       0.003
 
 position of ions in fractional coordinates (direct lattice) 
   0.87500000  0.87500000  0.87500000
   0.12500000  0.12500000  0.12500000
 
 position of ions in cartesian coordinates  (Angst):
   3.88662484  2.74825987  6.73183075
   0.55523212  0.39260855  0.96169011
 


--------------------------------------------------------------------------------------------------------


 k-point   1 :   0.0417 0.0417 0.0417  plane waves:     606
 k-point   2 :   0.1250 0.0417 0.0417  plane waves:     586
 k-point   3 :   0.2083 0.0417 0.0417  plane waves:     588
 k-point   4 :   0.2917 0.0417 0.0417  plane waves:     596
 k-point   5 :   0.3750 0.0417 0.0417  plane waves:     602
 k-point   6 :   0.4583 0.0417 0.0417  plane waves:     597
 k-point   7 :  -0.4583 0.0417 0.0417  plane waves:     597
 k-point   8 :  -0.3750 0.0417 0.0417  plane waves:     598
 k-point   9 :  -0.2917 0.0417 0.0417  plane waves:     600
 k-point  10 :  -0.2083 0.0417 0.0417  plane waves:     590
 k-point  11 :  -0.1250 0.0417 0.0417  plane waves:     586
 k-point  12 :  -0.0417 0.0417 0.0417  plane waves:     595
 k-point  13 :   0.1250 0.1250 0.0417  plane waves:     586
 k-point  14 :   0.2083 0.1250 0.0417  plane waves:     587
 k-point  15 :   0.2917 0.1250 0.0417  plane waves:     595
 k-point  16 :   0.3750 0.1250 0.0417  plane waves:     599
 k-point  17 :   0.4583 0.1250 0.0417  plane waves:     598
 k-point  18 :  -0.4583 0.1250 0.0417  plane waves:     595
 k-point  19 :  -0.3750 0.1250 0.0417  plane waves:     597
 k-point  20 :  -0.2917 0.1250 0.0417  plane waves:     598
 k-point  21 :  -0.2083 0.1250 0.0417  plane waves:     594
 k-point  22 :  -0.1250 0.1250 0.0417  plane waves:     590
 k-point  23 :  -0.0417 0.1250 0.0417  plane waves:     586
 k-point  24 :   0.2083 0.2083 0.0417  plane waves:     584
 k-point  25 :   0.2917 0.2083 0.0417  plane waves:     592
 k-point  26 :   0.3750 0.2083 0.0417  plane waves:     601
 k-point  27 :   0.4583 0.2083 0.0417  plane waves:     602
 k-point  28 :  -0.4583 0.2083 0.0417  plane waves:     597
 k-point  29 :  -0.3750 0.2083 0.0417  plane waves:     596
 k-point  30 :  -0.2917 0.2083 0.0417  plane waves:     601
 k-point  31 :  -0.2083 0.2083 0.0417  plane waves:     601
 k-point  32 :  -0.1250 0.2083 0.0417  plane waves:     594
 k-point  33 :  -0.0417 0.2083 0.0417  plane waves:     587
 k-point  34 :   0.2917 0.2917 0.0417  plane waves:     590
 k-point  35 :   0.3750 0.2917 0.0417  plane waves:     600
 k-point  36 :   0.4583 0.2917 0.0417  plane waves:     601
 k-point  37 :  -0.4583 0.2917 0.0417  plane waves:     600
 k-point  38 :  -0.3750 0.2917 0.0417  plane waves:     596
 k-point  39 :  -0.2917 0.2917 0.0417  plane waves:     601
 k-point  40 :  -0.2083 0.2917 0.0417  plane waves:     601
 k-point  41 :  -0.1250 0.2917 0.0417  plane waves:     601
 k-point  42 :  -0.0417 0.2917 0.0417  plane waves:     599
 k-point  43 :   0.3750 0.3750 0.0417  plane waves:     599
 k-point  44 :   0.4583 0.3750 0.0417  plane waves:     603
 k-point  45 :  -0.4583 0.3750 0.0417  plane waves:     605
 k-point  46 :  -0.3750 0.3750 0.0417  plane waves:     602
 k-point  47 :  -0.2917 0.3750 0.0417  plane waves:     600
 k-point  48 :  -0.2083 0.3750 0.0417  plane waves:     597
 k-point  49 :  -0.1250 0.3750 0.0417  plane waves:     595
 k-point  50 :  -0.0417 0.3750 0.0417  plane waves:     601
 k-point  51 :   0.4583 0.4583 0.0417  plane waves:     610
 k-point  52 :  -0.4583 0.4583 0.0417  plane waves:     606
 k-point  53 :  -0.3750 0.4583 0.0417  plane waves:     604
 k-point  54 :  -0.2917 0.4583 0.0417  plane waves:     602
 k-point  55 :  -0.2083 0.4583 0.0417  plane waves:     598
 k-point  56 :  -0.1250 0.4583 0.0417  plane waves:     598
 k-point  57 :  -0.0417 0.4583 0.0417  plane waves:     597
 k-point  58 :  -0.4583-0.4583 0.0417  plane waves:     604
 k-point  59 :  -0.3750-0.4583 0.0417  plane waves:     606
 k-point  60 :  -0.2917-0.4583 0.0417  plane waves:     599
 k-point  61 :  -0.2083-0.4583 0.0417  plane waves:     600
 k-point  62 :  -0.1250-0.4583 0.0417  plane waves:     596
 k-point  63 :  -0.3750-0.3750 0.0417  plane waves:     606
 k-point  64 :  -0.2917-0.3750 0.0417  plane waves:     600
 k-point  65 :  -0.2083-0.3750 0.0417  plane waves:     602
 k-point  66 :  -0.1250-0.3750 0.0417  plane waves:     599
 k-point  67 :  -0.2917-0.2917 0.0417  plane waves:     597
 k-point  68 :  -0.2083-0.2917 0.0417  plane waves:     597
 k-point  69 :  -0.1250-0.2917 0.0417  plane waves:     600
 k-point  70 :  -0.2083-0.2083 0.0417  plane waves:     586
 k-point  71 :  -0.1250-0.2083 0.0417  plane waves:     588
 k-point  72 :  -0.1250-0.1250 0.0417  plane waves:     587
 k-point  73 :   0.1250 0.1250 0.1250  plane waves:     585
 k-point  74 :   0.2083 0.1250 0.1250  plane waves:     588
 k-point  75 :   0.2917 0.1250 0.1250  plane waves:     594
 k-point  76 :   0.3750 0.1250 0.1250  plane waves:     598
 k-point  77 :   0.4583 0.1250 0.1250  plane waves:     596
 k-point  78 :  -0.4583 0.1250 0.1250  plane waves:     599
 k-point  79 :  -0.3750 0.1250 0.1250  plane waves:     596
 k-point  80 :  -0.2917 0.1250 0.1250  plane waves:     597
 k-point  81 :  -0.2083 0.1250 0.1250  plane waves:     600
 k-point  82 :  -0.1250 0.1250 0.1250  plane waves:     590
 k-point  83 :   0.2083 0.2083 0.1250  plane waves:     587
 k-point  84 :   0.2917 0.2083 0.1250  plane waves:     591
 k-point  85 :   0.3750 0.2083 0.1250  plane waves:     597
 k-point  86 :   0.4583 0.2083 0.1250  plane waves:     600
 k-point  87 :  -0.4583 0.2083 0.1250  plane waves:     597
 k-point  88 :  -0.3750 0.2083 0.1250  plane waves:     595
 k-point  89 :  -0.2917 0.2083 0.1250  plane waves:     597
 k-point  90 :  -0.2083 0.2083 0.1250  plane waves:     599
 k-point  91 :  -0.1250 0.2083 0.1250  plane waves:     595
 k-point  92 :   0.2917 0.2917 0.1250  plane waves:     595
 k-point  93 :   0.3750 0.2917 0.1250  plane waves:     600
 k-point  94 :   0.4583 0.2917 0.1250  plane waves:     597
 k-point  95 :  -0.4583 0.2917 0.1250  plane waves:     597
 k-point  96 :  -0.3750 0.2917 0.1250  plane waves:     599
 k-point  97 :  -0.2917 0.2917 0.1250  plane waves:     598
 k-point  98 :  -0.2083 0.2917 0.1250  plane waves:     598
 k-point  99 :  -0.1250 0.2917 0.1250  plane waves:     599
 k-point 100 :   0.3750 0.3750 0.1250  plane waves:     601
 k-point 101 :   0.4583 0.3750 0.1250  plane waves:     600
 k-point 102 :  -0.4583 0.3750 0.1250  plane waves:     597
 k-point 103 :  -0.3750 0.3750 0.1250  plane waves:     602
 k-point 104 :  -0.2917 0.3750 0.1250  plane waves:     601
 k-point 105 :  -0.2083 0.3750 0.1250  plane waves:     595
 k-point 106 :  -0.1250 0.3750 0.1250  plane waves:     599
 k-point 107 :   0.4583 0.4583 0.1250  plane waves:     597
 k-point 108 :  -0.4583 0.4583 0.1250  plane waves:     602
 k-point 109 :  -0.3750 0.4583 0.1250  plane waves:     603
 k-point 110 :  -0.2917 0.4583 0.1250  plane waves:     605
 k-point 111 :  -0.2083 0.4583 0.1250  plane waves:     602
 k-point 112 :  -0.1250 0.4583 0.1250  plane waves:     597
 k-point 113 :  -0.4583-0.4583 0.1250  plane waves:     605
 k-point 114 :  -0.3750-0.4583 0.1250  plane waves:     605
 k-point 115 :  -0.2917-0.4583 0.1250  plane waves:     601
 k-point 116 :  -0.2083-0.4583 0.1250  plane waves:     599
 k-point 117 :  -0.3750-0.3750 0.1250  plane waves:     605
 k-point 118 :  -0.2917-0.3750 0.1250  plane waves:     599
 k-point 119 :  -0.2083-0.3750 0.1250  plane waves:     599
 k-point 120 :  -0.2917-0.2917 0.1250  plane waves:     599
 k-point 121 :  -0.2083-0.2917 0.1250  plane waves:     602
 k-point 122 :  -0.2083-0.2083 0.1250  plane waves:     603
 k-point 123 :   0.2083 0.2083 0.2083  plane waves:     588
 k-point 124 :   0.2917 0.2083 0.2083  plane waves:     593
 k-point 125 :   0.3750 0.2083 0.2083  plane waves:     597
 k-point 126 :   0.4583 0.2083 0.2083  plane waves:     601
 k-point 127 :  -0.4583 0.2083 0.2083  plane waves:     597
 k-point 128 :  -0.3750 0.2083 0.2083  plane waves:     597
 k-point 129 :  -0.2917 0.2083 0.2083  plane waves:     600
 k-point 130 :  -0.2083 0.2083 0.2083  plane waves:     598
 k-point 131 :   0.2917 0.2917 0.2083  plane waves:     594
 k-point 132 :   0.3750 0.2917 0.2083  plane waves:     597
 k-point 133 :   0.4583 0.2917 0.2083  plane waves:     600
 k-point 134 :  -0.4583 0.2917 0.2083  plane waves:     598
 k-point 135 :  -0.3750 0.2917 0.2083  plane waves:     597
 k-point 136 :  -0.2917 0.2917 0.2083  plane waves:     599
 k-point 137 :  -0.2083 0.2917 0.2083  plane waves:     602
 k-point 138 :   0.3750 0.3750 0.2083  plane waves:     602
 k-point 139 :   0.4583 0.3750 0.2083  plane waves:     599
 k-point 140 :  -0.4583 0.3750 0.2083  plane waves:     595
 k-point 141 :  -0.3750 0.3750 0.2083  plane waves:     604
 k-point 142 :  -0.2917 0.3750 0.2083  plane waves:     601
 k-point 143 :  -0.2083 0.3750 0.2083  plane waves:     602
 k-point 144 :   0.4583 0.4583 0.2083  plane waves:     603
 k-point 145 :  -0.4583 0.4583 0.2083  plane waves:     598
 k-point 146 :  -0.3750 0.4583 0.2083  plane waves:     603
 k-point 147 :  -0.2917 0.4583 0.2083  plane waves:     608
 k-point 148 :  -0.2083 0.4583 0.2083  plane waves:     602
 k-point 149 :  -0.4583-0.4583 0.2083  plane waves:     603
 k-point 150 :  -0.3750-0.4583 0.2083  plane waves:     606
 k-point 151 :  -0.2917-0.4583 0.2083  plane waves:     605
 k-point 152 :  -0.3750-0.3750 0.2083  plane waves:     604
 k-point 153 :  -0.2917-0.3750 0.2083  plane waves:     600
 k-point 154 :  -0.2917-0.2917 0.2083  plane waves:     600
 k-point 155 :   0.2917 0.2917 0.2917  plane waves:     601
 k-point 156 :   0.3750 0.2917 0.2917  plane waves:     600
 k-point 157 :   0.4583 0.2917 0.2917  plane waves:     602
 k-point 158 :  -0.4583 0.2917 0.2917  plane waves:     603
 k-point 159 :  -0.3750 0.2917 0.2917  plane waves:     596
 k-point 160 :  -0.2917 0.2917 0.2917  plane waves:     601
 k-point 161 :   0.3750 0.3750 0.2917  plane waves:     601
 k-point 162 :   0.4583 0.3750 0.2917  plane waves:     597
 k-point 163 :  -0.4583 0.3750 0.2917  plane waves:     599
 k-point 164 :  -0.3750 0.3750 0.2917  plane waves:     595
 k-point 165 :  -0.2917 0.3750 0.2917  plane waves:     605
 k-point 166 :   0.4583 0.4583 0.2917  plane waves:     594
 k-point 167 :  -0.4583 0.4583 0.2917  plane waves:     599
 k-point 168 :  -0.3750 0.4583 0.2917  plane waves:     599
 k-point 169 :  -0.2917 0.4583 0.2917  plane waves:     598
 k-point 170 :  -0.4583-0.4583 0.2917  plane waves:     597
 k-point 171 :  -0.3750-0.4583 0.2917  plane waves:     600
 k-point 172 :  -0.3750-0.3750 0.2917  plane waves:     604
 k-point 173 :   0.3750 0.3750 0.3750  plane waves:     598
 k-point 174 :   0.4583 0.3750 0.3750  plane waves:     596
 k-point 175 :  -0.4583 0.3750 0.3750  plane waves:     595
 k-point 176 :  -0.3750 0.3750 0.3750  plane waves:     595
 k-point 177 :   0.4583 0.4583 0.3750  plane waves:     598
 k-point 178 :  -0.4583 0.4583 0.3750  plane waves:     597
 k-point 179 :  -0.3750 0.4583 0.3750  plane waves:     598
 k-point 180 :  -0.4583-0.4583 0.3750  plane waves:     598
 k-point 181 :   0.4583 0.4583 0.4583  plane waves:     595
 k-point 182 :  -0.4583 0.4583 0.4583  plane waves:     595

 maximum and minimum number of plane-waves per node :       610      584

 maximum number of plane-waves:       610
 maximum index in each direction: 
   IXMAX=    6   IYMAX=    6   IZMAX=    5
   IXMIN=   -6   IYMIN=   -6   IZMIN=   -6


 serial   3D FFT for wavefunctions
 parallel 3D FFT for charge:
    minimum data exchange during FFTs selected (reduces bandwidth)


 total amount of memory used by VASP MPI-rank0    46914. kBytes
=======================================================================

   base      :      30000. kBytes
   nonl-proj :       7148. kBytes
   fftplans  :       4177. kBytes
   grid      :       1926. kBytes
   one-center:          6. kBytes
   wavefun   :       3657. kBytes
 
     INWAV:  cpu time    0.0000: real time    0.0008
 Broyden mixing: mesh for mixing (old mesh)
   NGX = 11   NGY = 11   NGZ = 11
  (NGX  = 48   NGY  = 48   NGZ  = 48)
  gives a total of   1331 points

 initial charge density was supplied:
 charge density of overlapping atoms calculated
 number of electron       8.0000000 magnetization 
 keeping initial charge density in first step


--------------------------------------------------------------------------------------------------------


 Maximum index for augmentation-charges        22367 (set IRDMAX)


--------------------------------------------------------------------------------------------------------


 First call to EWALD:  gamma=   0.517
 Maximum number of real-space cells 3x 3x 3
 Maximum number of reciprocal cells 3x 3x 3

    FEWALD:  cpu time    0.0030: real time    0.0035


--------------------------------------- Iteration      1(   1)  ---------------------------------------


    POTLOK:  cpu time    0.0310: real time    0.0344
    SETDIJ:  cpu time    0.1780: real time    0.1782
     EDDAV:  cpu time    1.4718: real time    1.4743
       DOS:  cpu time    0.0040: real time    0.0031
    --------------------------------------------
      LOOP:  cpu time    1.6847: real time    1.6903

 eigenvalue-minimisations  :  2944
 total energy-change (2. order) : 0.1757134E+01  (-0.2604157E+03)
 number of electron       8.0000000 magnetization 
 augmentation part        8.0000000 magnetization 

 Free energy of the ion-electron system (eV)
  ---------------------------------------------------
  alpha Z        PSCENC =         3.34536709
  Ewald energy   TEWEN  =      -228.13741635
  -Hartree energ DENC   =       -11.08525653
  -exchange      EXHF   =         0.00000000
  -V(xc)+E(xc)   XCENC  =       -18.62384747
  PAW double counting   =       176.24759923     -141.06103558
  entropy T*S    EENTRO =        -0.00126995
  eigenvalues    EBANDS =        14.94173893
  atomic energy  EATOM  =       206.13125414
  Solvation  Ediel_sol  =         0.00000000
  ---------------------------------------------------
  free energy    TOTEN  =         1.75713351 eV

  energy without entropy =        1.75840346  energy(sigma->0) =        1.75776849


--------------------------------------------------------------------------------------------------------




--------------------------------------- Iteration      1(   2)  ---------------------------------------


     EDDAV:  cpu time    2.1257: real time    2.1452
       DOS:  cpu time    0.0010: real time    0.0020
    --------------------------------------------
      LOOP:  cpu time    2.1277: real time    2.1472

 eigenvalue-minimisations  :  4528
 total energy-change (2. order) :-0.1263377E+02  (-0.1186022E+02)
 number of electron       8.0000000 magnetization 
 augmentation part        8.0000000 magnetization 

 Free energy of the ion-electron system (eV)
  ---------------------------------------------------
  alpha Z        PSCENC =         3.34536709
  Ewald energy   TEWEN  =      -228.13741635
  -Hartree energ DENC   =       -11.08525653
  -exchange      EXHF   =         0.00000000
  -V(xc)+E(xc)   XCENC  =       -18.62384747
  PAW double counting   =       176.24759923     -141.06103558
  entropy T*S    EENTRO =        -0.00000000
  eigenvalues    EBANDS =         2.30669987
  atomic energy  EATOM  =       206.13125414
  Solvation  Ediel_sol  =         0.00000000
  ---------------------------------------------------
  free energy    TOTEN  =       -10.87663560 eV

  energy without entropy =      -10.87663560  energy(sigma->0) =      -10.87663560


--------------------------------------------------------------------------------------------------------




--------------------------------------- Iteration      1(   3)  ---------------------------------------


     EDDAV:  cpu time    1.7997: real time    1.8177
       DOS:  cpu time    0.0020: real time    0.0021
    --------------------------------------------
      LOOP:  cpu time    1.8007: real time    1.8198

 eigenvalue-minimisations  :  3728
 total energy-change (2. order) :-0.1447540E+00  (-0.1447540E+00)
 number of electron       8.0000000 magnetization 
 augmentation part        8.0000000 magnetization 

 Free energy of the ion-electron system (eV)
  ---------------------------------------------------
  alpha Z        PSCENC =         3.34536709
  Ewald energy   TEWEN  =      -228.13741635
  -Hartree energ DENC   =       -11.08525653
  -exchange      EXHF   =         0.00000000
  -V(xc)+E(xc)   XCENC  =       -18.62384747
  PAW double counting   =       176.24759923     -141.06103558
  entropy T*S    EENTRO =        -0.00000000
  eigenvalues    EBANDS =         2.16194590
  atomic energy  EATOM  =       206.13125414
  Solvation  Ediel_sol  =         0.00000000
  ---------------------------------------------------
  free energy    TOTEN  =       -11.02138958 eV

  energy without entropy =      -11.02138958  energy(sigma->0) =      -11.02138958


--------------------------------------------------------------------------------------------------------




--------------------------------------- Iteration      1(   4)  ---------------------------------------


     EDDAV:  cpu time    2.1777: real time    2.1969
       DOS:  cpu time    0.0020: real time    0.0021
    --------------------------------------------
      LOOP:  cpu time    2.1807: real time    2.1991

 eigenvalue-minimisations  :  4624
 total energy-change (2. order) :-0.5322258E-03  (-0.5322255E-03)
 number of electron       8.0000000 magnetization 
 augmentation part        8.0000000 magnetization 

 Free energy of the ion-electron system (eV)
  ---------------------------------------------------
  alpha Z        PSCENC =         3.34536709
  Ewald energy   TEWEN  =      -228.13741635
  -Hartree energ DENC   =       -11.08525653
  -exchange      EXHF   =         0.00000000
  -V(xc)+E(xc)   XCENC  =       -18.62384747
  PAW double counting   =       176.24759923     -141.06103558
  entropy T*S    EENTRO =        -0.00000000
  eigenvalues    EBANDS =         2.16141367
  atomic energy  EATOM  =       206.13125414
  Solvation  Ediel_sol  =         0.00000000
  ---------------------------------------------------
  free energy    TOTEN  =       -11.02192180 eV

  energy without entropy =      -11.02192180  energy(sigma->0) =      -11.02192180


--------------------------------------------------------------------------------------------------------




--------------------------------------- Iteration      1(   5)  ---------------------------------------


     EDDAV:  cpu time    1.8387: real time    1.8565
       DOS:  cpu time    0.0010: real time    0.0022
    CHARGE:  cpu time    0.1150: real time    0.1149
    MIXING:  cpu time    0.0010: real time    0.0015
    --------------------------------------------
      LOOP:  cpu time    1.9557: real time    1.9751

 eigenvalue-minimisations  :  3824
 total energy-change (2. order) :-0.6204623E-06  (-0.6207500E-06)
 number of electron       8.0000000 magnetization 
 augmentation part       -0.4704938 magnetization 

 Broyden mixing:
  rms(total) = 0.48713E+00    rms(broyden)= 0.48712E+00
  rms(prec ) = 0.94877E+00
  weight for this iteration     100.00

 Free energy of the ion-electron system (eV)
  ---------------------------------------------------
  alpha Z        PSCENC =         3.34536709
  Ewald energy   TEWEN  =      -228.13741635
  -Hartree energ DENC   =       -11.08525653
  -exchange      EXHF   =         0.00000000
  -V(xc)+E(xc)   XCENC  =       -18.62384747
  PAW double counting   =       176.24759923     -141.06103558
  entropy T*S    EENTRO =        -0.00000000
  eigenvalues    EBANDS =         2.16141305
  atomic energy  EATOM  =       206.13125414
  Solvation  Ediel_sol  =         0.00000000
  ---------------------------------------------------
  free energy    TOTEN  =       -11.02192242 eV

  energy without entropy =      -11.02192242  energy(sigma->0) =      -11.02192242


--------------------------------------------------------------------------------------------------------




--------------------------------------- Iteration      1(   6)  ---------------------------------------


    POTLOK:  cpu time    0.0320: real time    0.0481
    SETDIJ:  cpu time    0.1750: real time    0.1741
     EDDAV:  cpu time    1.6807: real time    1.6839
       DOS:  cpu time    0.0020: real time    0.0020
    CHARGE:  cpu time    0.1100: real time    0.1092
    MIXING:  cpu time    0.0000: real time    0.0016
    --------------------------------------------
      LOOP:  cpu time    1.9997: real time    2.0189

 eigenvalue-minimisations  :  3448
 total energy-change (2. order) : 0.1223373E+00  (-0.8068457E-02)
 number of electron       8.0000000 magnetization 
 augmentation part       -0.4647082 magnetization 

 Broyden mixing:
  rms(total) = 0.29808E+00    rms(broyden)= 0.29808E+00
  rms(prec ) = 0.56418E+00
  weight for this iteration     100.00

 eigenvalues of (default mixing * dielectric matrix)
  average eigenvalue GAMMA=   2.5672
  2.5672

 Free energy of the ion-electron system (eV)
  ---------------------------------------------------
  alpha Z        PSCENC =         3.34536709
  Ewald energy   TEWEN  =      -228.13741635
  -Hartree energ DENC   =       -12.57354961
  -exchange      EXHF   =         0.00000000
  -V(xc)+E(xc)   XCENC  =       -18.38804644
  PAW double counting   =       379.57287652     -344.49512893
  entropy T*S    EENTRO =        -0.00000000
  eigenvalues    EBANDS =         3.64505850
  atomic energy  EATOM  =       206.13125414
  Solvation  Ediel_sol  =         0.00000000
  ---------------------------------------------------
  free energy    TOTEN  =       -10.89958508 eV

  energy without entropy =      -10.89958508  energy(sigma->0) =      -10.89958508


--------------------------------------------------------------------------------------------------------




--------------------------------------- Iteration      1(   7)  ---------------------------------------


    POTLOK:  cpu time    0.0330: real time    0.0487
    SETDIJ:  cpu time    0.1720: real time    0.1730
     EDDAV:  cpu time    1.8317: real time    1.8335
       DOS:  cpu time    0.0020: real time    0.0021
    CHARGE:  cpu time    0.1080: real time    0.1086
    MIXING:  cpu time    0.0020: real time    0.0015
    --------------------------------------------
      LOOP:  cpu time    2.1477: real time    2.1675

 eigenvalue-minimisations  :  3808
 total energy-change (2. order) : 0.5584046E-01  (-0.1530889E-01)
 number of electron       8.0000000 magnetization 
 augmentation part       -0.4576822 magnetization 

 Broyden mixing:
  rms(total) = 0.18739E-01    rms(broyden)= 0.18739E-01
  rms(prec ) = 0.41441E-01
  weight for this iteration     100.00

 eigenvalues of (default mixing * dielectric matrix)
  average eigenvalue GAMMA=   2.0672
  1.7522  2.3823

 Free energy of the ion-electron system (eV)
  ---------------------------------------------------
  alpha Z        PSCENC =         3.34536709
  Ewald energy   TEWEN  =      -228.13741635
  -Hartree energ DENC   =       -15.00430323
  -exchange      EXHF   =         0.00000000
  -V(xc)+E(xc)   XCENC  =       -17.99536009
  PAW double counting   =       866.16268238     -831.22573846
  entropy T*S    EENTRO =        -0.00000000
  eigenvalues    EBANDS =         5.87976990
  atomic energy  EATOM  =       206.13125414
  Solvation  Ediel_sol  =         0.00000000
  ---------------------------------------------------
  free energy    TOTEN  =       -10.84374462 eV

  energy without entropy =      -10.84374462  energy(sigma->0) =      -10.84374462


--------------------------------------------------------------------------------------------------------




--------------------------------------- Iteration      1(   8)  ---------------------------------------


    POTLOK:  cpu time    0.0330: real time    0.0481
    SETDIJ:  cpu time    0.1730: real time    0.1730
     EDDAV:  cpu time    1.6128: real time    1.6142
       DOS:  cpu time    0.0010: real time    0.0020
    CHARGE:  cpu time    0.1080: real time    0.1084
    MIXING:  cpu time    0.0020: real time    0.0017
    --------------------------------------------
      LOOP:  cpu time    1.9307: real time    1.9473

 eigenvalue-minimisations  :  3280
 total energy-change (2. order) :-0.1053517E-02  (-0.3827608E-03)
 number of electron       8.0000000 magnetization 
 augmentation part       -0.4586417 magnetization 

 Broyden mixing:
  rms(total) = 0.73622E-02    rms(broyden)= 0.73619E-02
  rms(prec ) = 0.13188E-01
  weight for this iteration     100.00

 eigenvalues of (default mixing * dielectric matrix)
  average eigenvalue GAMMA=   2.2571
  2.8622  1.9545  1.9545

 Free energy of the ion-electron system (eV)
  ---------------------------------------------------
  alpha Z        PSCENC =         3.34536709
  Ewald energy   TEWEN  =      -228.13741635
  -Hartree energ DENC   =       -14.93119863
  -exchange      EXHF   =         0.00000000
  -V(xc)+E(xc)   XCENC  =       -17.99550165
  PAW double counting   =       876.16066187     -841.19688174
  entropy T*S    EENTRO =        -0.00000000
  eigenvalues    EBANDS =         5.77891714
  atomic energy  EATOM  =       206.13125414
  Solvation  Ediel_sol  =         0.00000000
  ---------------------------------------------------
  free energy    TOTEN  =       -10.84479814 eV

  energy without entropy =      -10.84479814  energy(sigma->0) =      -10.84479814


--------------------------------------------------------------------------------------------------------




--------------------------------------- Iteration      1(   9)  ---------------------------------------


    POTLOK:  cpu time    0.0320: real time    0.0480
    SETDIJ:  cpu time    0.1730: real time    0.1725
     EDDAV:  cpu time    2.0617: real time    2.0647
       DOS:  cpu time    0.0010: real time    0.0021
    CHARGE:  cpu time    0.1090: real time    0.1087
    MIXING:  cpu time    0.0020: real time    0.0015
    --------------------------------------------
      LOOP:  cpu time    2.3776: real time    2.3975

 eigenvalue-minimisations  :  4368
 total energy-change (2. order) :-0.1930821E-03  (-0.1910226E-04)
 number of electron       8.0000000 magnetization 
 augmentation part       -0.4587576 magnetization 

 Broyden mixing:
  rms(total) = 0.57635E-02    rms(broyden)= 0.57635E-02
  rms(prec ) = 0.66271E-02
  weight for this iteration     100.00

[...]
      3       1.7859      2.00000
      4       2.1868      2.00000
      5       9.5003      0.00000
      6      10.0776      0.00000
      7      10.7541      0.00000
      8      11.3744      0.00000

 k-point   148 :      -0.2083    0.4583    0.2083
  band No.  band energies     occupation 
      1      -2.5267      2.00000
      2      -1.2400      2.00000
      3       1.6973      2.00000
      4       2.4902      2.00000
      5       9.5135      0.00000
      6       9.8442      0.00000
      7      10.4811      0.00000
      8      12.1105      0.00000

 k-point   149 :      -0.4583   -0.4583    0.2083
  band No.  band energies     occupation 
      1      -2.8050      2.00000
      2      -1.0910      2.00000
      3       1.8431      2.00000
      4       3.2930      2.00000
      5       6.9192      0.00000
      6       9.1717      0.00000
      7      13.0487      0.00000
      8      13.1449      0.00000

 k-point   150 :      -0.3750   -0.4583    0.2083
  band No.  band energies     occupation 
      1      -2.3149      2.00000
      2      -1.5410      2.00000
      3       1.7533      2.00000
      4       2.8978      2.00000
      5       7.3957      0.00000
      6       9.1434      0.00000
      7      12.7069      0.00000
      8      13.5090      0.00000

 k-point   151 :      -0.2917   -0.4583    0.2083
  band No.  band energies     occupation 
      1      -2.1674      2.00000
      2      -1.6117      2.00000
      3       1.8829      2.00000
      4       2.2937      2.00000
      5       8.6430      0.00000
      6       9.2878      0.00000
      7      11.6434      0.00000
      8      12.3738      0.00000

 k-point   152 :      -0.3750   -0.3750    0.2083
  band No.  band energies     occupation 
      1      -2.3711      2.00000
      2      -1.5211      2.00000
      3       1.7052      2.00000
      4       3.2420      2.00000
      5       6.8489      0.00000
      6       9.0943      0.00000
      7      13.6219      0.00000
      8      13.9459      0.00000

 k-point   153 :      -0.2917   -0.3750    0.2083
  band No.  band energies     occupation 
      1      -2.7586      2.00000
      2      -1.1012      2.00000
      3       1.8681      2.00000
      4       2.9765      2.00000
      5       7.4579      0.00000
      6       9.2218      0.00000
      7      12.0221      0.00000
      8      14.0273      0.00000

 k-point   154 :      -0.2917   -0.2917    0.2083
  band No.  band energies     occupation 
      1      -3.2857      2.00000
      2      -0.6180      2.00000
      3       2.1161      2.00000
      4       3.3943      2.00000
      5       7.0571      0.00000
      6       9.3279      0.00000
      7      12.3523      0.00000
      8      12.4258      0.00000

 k-point   155 :       0.2917    0.2917    0.2917
  band No.  band energies     occupation 
      1      -5.0795      2.00000
      2       1.1340      2.00000
      3       4.8877      2.00000
      4       4.8877      2.00000
      5       7.6441      0.00000
      6       9.3099      0.00000
      7       9.3099      0.00000
      8      13.2802      0.00000

 k-point   156 :       0.3750    0.2917    0.2917
  band No.  band energies     occupation 
      1      -4.8031      2.00000
      2       0.7037      2.00000
      3       3.9961      2.00000
      4       4.9333      2.00000
      5       8.0708      0.00000
      6       9.3051      0.00000
      7       9.4661      0.00000
      8      12.7519      0.00000

 k-point   157 :       0.4583    0.2917    0.2917
  band No.  band energies     occupation 
      1      -4.3682      2.00000
      2       0.3340      2.00000
      3       2.7848      2.00000
      4       4.6609      2.00000
      5       8.3833      0.00000
      6       9.9097      0.00000
      7       9.9323      0.00000
      8      12.4210      0.00000

 k-point   158 :      -0.4583    0.2917    0.2917
  band No.  band energies     occupation 
      1      -3.8031      2.00000
      2      -0.1010      2.00000
      3       1.8497      2.00000
      4       4.2511      2.00000
      5       8.0062      0.00000
      6      10.8728      0.00000
      7      11.1314      0.00000
      8      12.3113      0.00000

 k-point   159 :      -0.3750    0.2917    0.2917
  band No.  band energies     occupation 
      1      -3.1934      2.00000
      2      -0.7251      2.00000
      3       1.5008      2.00000
      4       3.8592      2.00000
      5       7.5637      0.00000
      6      11.6935      0.00000
      7      11.8418      0.00000
      8      12.7230      0.00000

 k-point   160 :      -0.2917    0.2917    0.2917
  band No.  band energies     occupation 
      1      -2.8826      2.00000
      2      -1.0889      2.00000
      3       1.6509      2.00000
      4       3.5620      2.00000
      5       7.2364      0.00000
      6      10.8119      0.00000
      7      12.1032      0.00000
      8      12.2222      0.00000

 k-point   161 :       0.3750    0.3750    0.2917
  band No.  band energies     occupation 
      1      -4.5948      2.00000
      2       0.2752      2.00000
      3       4.3416      2.00000
      4       4.4044      2.00000
      5       7.9661      0.00000
      6       9.0614      0.00000
      7       9.7763      0.00000
      8      12.2207      0.00000

 k-point   162 :       0.4583    0.3750    0.2917
  band No.  band energies     occupation 
      1      -4.2287      2.00000
      2      -0.0654      2.00000
      3       3.2728      2.00000
      4       4.3339      2.00000
      5       8.3975      0.00000
      6       9.0669      0.00000
      7      10.3523      0.00000
      8      11.8724      0.00000

 k-point   163 :      -0.4583    0.3750    0.2917
  band No.  band energies     occupation 
      1      -3.7253      2.00000
      2      -0.3586      2.00000
      3       2.2126      2.00000
      4       3.9575      2.00000
      5       8.5639      0.00000
      6       9.4513      0.00000
      7      11.4879      0.00000
      8      11.7730      0.00000

 k-point   164 :      -0.3750    0.3750    0.2917
  band No.  band energies     occupation 
      1      -3.1310      2.00000
      2      -0.7522      2.00000
      3       1.5469      2.00000
      4       3.5232      2.00000
      5       8.0956      0.00000
      6      10.6996      0.00000
      7      11.7432      0.00000
      8      12.6379      0.00000

 k-point   165 :      -0.2917    0.3750    0.2917
  band No.  band energies     occupation 
      1      -2.6140      2.00000
      2      -1.2334      2.00000
      3       1.4764      2.00000
      4       3.1753      2.00000
      5       7.7061      0.00000
      6      10.7569      0.00000
      7      11.7601      0.00000
      8      12.5817      0.00000

 k-point   166 :       0.4583    0.4583    0.2917
  band No.  band energies     occupation 
      1      -3.9393      2.00000
      2      -0.4033      2.00000
      3       3.1669      2.00000
      4       3.9642      2.00000
      5       7.7923      0.00000
      6       9.9396      0.00000
      7      10.5292      0.00000
      8      11.4637      0.00000

 k-point   167 :      -0.4583    0.4583    0.2917
  band No.  band energies     occupation 
      1      -3.5184      2.00000
      2      -0.6622      2.00000
      3       2.4315      2.00000
      4       3.6261      2.00000
      5       8.0725      0.00000
      6       9.8341      0.00000
      7      11.2723      0.00000
      8      11.7121      0.00000

 k-point   168 :      -0.3750    0.4583    0.2917
  band No.  band energies     occupation 
      1      -2.9971      2.00000
      2      -0.9280      2.00000
      3       1.8096      2.00000
      4       3.0632      2.00000
      5       9.0841      0.00000
      6       9.3979      0.00000
      7      11.2359      0.00000
      8      12.9613      0.00000

 k-point   169 :      -0.2917    0.4583    0.2917
  band No.  band energies     occupation 
      1      -2.4285      2.00000
      2      -1.3443      2.00000
      3       1.6119      2.00000
      4       2.5676      2.00000
      5       8.9347      0.00000
      6      10.4364      0.00000
      7      11.0974      0.00000
      8      11.4963      0.00000

 k-point   170 :      -0.4583   -0.4583    0.2917
  band No.  band energies     occupation 
      1      -3.2059      2.00000
      2      -0.9033      2.00000
      3       2.0527      2.00000
      4       3.6542      2.00000
      5       7.3728      0.00000
      6      10.9027      0.00000
      7      11.4898      0.00000
      8      11.5350      0.00000

 k-point   171 :      -0.3750   -0.4583    0.2917
  band No.  band energies     occupation 
      1      -2.8254      2.00000
      2      -1.1022      2.00000
      3       1.6691      2.00000
      4       3.2468      2.00000
      5       7.7703      0.00000
      6      10.7221      0.00000
      7      11.2288      0.00000
      8      13.1217      0.00000

 k-point   172 :      -0.3750   -0.3750    0.2917
  band No.  band energies     occupation 
      1      -2.6766      2.00000
      2      -1.2068      2.00000
      3       1.4287      2.00000
      4       3.5153      2.00000
      5       7.1663      0.00000
      6      10.7538      0.00000
      7      12.6165      0.00000
      8      12.9863      0.00000

 k-point   173 :       0.3750    0.3750    0.3750
  band No.  band energies     occupation 
      1      -4.4638      2.00000
      2      -0.1521      2.00000
      3       4.6925      2.00000
      4       4.6925      2.00000
      5       7.4240      0.00000
      6       9.2282      0.00000
      7       9.2282      0.00000
      8      13.6475      0.00000

 k-point   174 :       0.4583    0.3750    0.3750
  band No.  band energies     occupation 
      1      -4.1802      2.00000
      2      -0.4689      2.00000
      3       3.9035      2.00000
      4       4.6557      2.00000
      5       7.8892      0.00000
      6       9.2575      0.00000
      7       9.3392      0.00000
      8      13.6250      0.00000

 k-point   175 :      -0.4583    0.3750    0.3750
  band No.  band energies     occupation 
      1      -3.7626      2.00000
      2      -0.6703      2.00000
      3       2.7483      2.00000
      4       4.3249      2.00000
      5       8.0785      0.00000
      6       9.8494      0.00000
      7      10.0825      0.00000
      8      13.6956      0.00000

 k-point   176 :      -0.3750    0.3750    0.3750
  band No.  band energies     occupation 
      1      -3.2417      2.00000
      2      -0.8482      2.00000
      3       1.8038      2.00000
      4       3.8982      2.00000
      5       7.6234      0.00000
      6      11.2251      0.00000
      7      11.2479      0.00000
      8      12.7177      0.00000

 k-point   177 :       0.4583    0.4583    0.3750
  band No.  band energies     occupation 
      1      -3.9922      2.00000
      2      -0.7697      2.00000
      3       4.0894      2.00000
      4       4.3753      2.00000
      5       7.8370      0.00000
      6       9.0302      0.00000
      7       9.5620      0.00000
      8      13.3281      0.00000

 k-point   178 :      -0.4583    0.4583    0.3750
  band No.  band energies     occupation 
      1      -3.6859      2.00000
      2      -0.9239      2.00000
      3       3.1958      2.00000
      4       4.1592      2.00000
      5       8.3523      0.00000
      6       8.9177      0.00000
      7      10.2753      0.00000
      8      13.2232      0.00000

 k-point   179 :      -0.3750    0.4583    0.3750
  band No.  band energies     occupation 
      1      -3.2887      2.00000
      2      -0.9717      2.00000
      3       2.2449      2.00000
      4       3.7069      2.00000
      5       8.2562      0.00000
      6       9.6001      0.00000
      7      11.6144      0.00000
      8      12.8237      0.00000

 k-point   180 :      -0.4583   -0.4583    0.3750
  band No.  band energies     occupation 
      1      -3.5204      2.00000
      2      -1.0210      2.00000
      3       2.8858      2.00000
      4       4.0837      2.00000
      5       7.8729      0.00000
      6       9.8418      0.00000
      7      10.2725      0.00000
      8      12.9511      0.00000

 k-point   181 :       0.4583    0.4583    0.4583
  band No.  band energies     occupation 
      1      -3.9250      2.00000
      2      -1.0312      2.00000
      3       4.5934      2.00000
      4       4.5934      2.00000
      5       7.3106      0.00000
      6       9.1331      0.00000
      7       9.1331      0.00000
      8      13.5188      0.00000

 k-point   182 :      -0.4583    0.4583    0.4583
  band No.  band energies     occupation 
      1      -3.7612      2.00000
      2      -1.1118      2.00000
      3       3.9383      2.00000
      4       4.4631      2.00000
      5       7.8090      0.00000
      6       9.0867      0.00000
      7       9.4031      0.00000
      8      13.8034      0.00000


--------------------------------------------------------------------------------------------------------


 soft charge-density along one line, spin component           1
         0         1         2         3         4         5         6         7         8         9
 total charge-density along one line
 
 pseudopotential strength for first ion, spin component:           1
 18.420  25.699   0.000   0.000   0.000   0.000   0.000   0.000
 25.699  35.859   0.000   0.000   0.000   0.000   0.000   0.000
  0.000   0.000   4.179  -0.000  -0.000   7.787  -0.000  -0.000
  0.000   0.000  -0.000   4.179  -0.000  -0.000   7.787  -0.000
  0.000   0.000  -0.000  -0.000   4.179  -0.000  -0.000   7.787
  0.000   0.000   7.787  -0.000  -0.000  14.522  -0.000  -0.000
  0.000   0.000  -0.000   7.787  -0.000  -0.000  14.522  -0.000
  0.000   0.000  -0.000  -0.000   7.787  -0.000  -0.000  14.522
 total augmentation occupancy for first ion, spin component:           1
  5.659  -2.136  -0.000   0.000  -0.000  -0.000  -0.000  -0.000
 -2.136   0.921   0.000   0.000  -0.000   0.000   0.000   0.000
 -0.000  -0.000   2.995   0.000   0.000  -0.679  -0.000  -0.000
  0.000   0.000   0.000   2.995   0.000  -0.000  -0.679  -0.000
 -0.000  -0.000   0.000   0.000   2.995  -0.000  -0.000  -0.679
  0.000   0.000  -0.679  -0.000  -0.000   0.162   0.000   0.000
  0.000   0.000  -0.000  -0.679   0.000   0.000   0.162   0.000
 -0.000   0.000  -0.000  -0.000  -0.679   0.000   0.000   0.162


------------------------ aborting loop because EDIFF is reached ----------------------------------------


    CHARGE:  cpu time    0.1080: real time    0.1085
    FORLOC:  cpu time    0.0020: real time    0.0017
    FORNL :  cpu time    0.1470: real time    0.1467
    STRESS:  cpu time    1.3168: real time    1.3168
    FORCOR:  cpu time    0.0300: real time    0.0312
    FORHAR:  cpu time    0.0070: real time    0.0060
    MIXING:  cpu time    0.0010: real time    0.0012
    OFIELD:  cpu time    0.0000: real time    0.0002

  FORCE on cell =-STRESS in cart. coord.  units (eV):
  Direction    XX          YY          ZZ          XY          YZ          ZX
  --------------------------------------------------------------------------------------
  Alpha Z     3.34537     3.34537     3.34537
  Ewald     -76.04582   -76.04589   -76.04581     0.00001    -0.00000    -0.00000
  Hartree     4.99424     4.99424     4.99424     0.00000     0.00000     0.00000
  E(xc)     -25.33850   -25.33850   -25.33850    -0.00000    -0.00000    -0.00000
  Local     -29.31392   -29.31391   -29.31391    -0.00000     0.00001     0.00001
  n-local    75.41007    77.78895    80.09160    -1.01463    -1.43934     0.08919
  augment   -11.65294   -11.65294   -11.65296    -0.00000    -0.00001    -0.00001
  Kinetic    55.21435    56.62431    57.95994    -0.06824     0.57977    -1.16617
  Fock        0.00000     0.00000     0.00000     0.00000     0.00000     0.00000
  -------------------------------------------------------------------------------------
  Total       0.35147     0.35147     0.35147    -0.00000     0.00000     0.00000
  in kB      13.99052    13.99053    13.99051    -0.00000     0.00000     0.00000
  external pressure =       13.99 kB  Pullay stress =        0.00 kB


 VOLUME and BASIS-vectors are now :
 -----------------------------------------------------------------------------
  energy-cutoff  :      350.00
  volume of cell :       40.25
      direct lattice vectors                 reciprocal lattice vectors
     3.331392723  0.000000000  1.923380214     0.300174757 -0.106127761  0.000000000
     1.110464241  3.140868425  1.923380214     0.000000000  0.318383283  0.000000000
     0.000000000  0.000000000  3.846760429    -0.150087378 -0.106127761  0.259959001

  length of vectors
     3.846760835  3.846761852  3.846760429     0.318383395  0.318383283  0.318383425


 FORCES acting on ions
    electron-ion (+dipol)            ewald-force                    non-local-force                 convergence-correction
 -----------------------------------------------------------------------------------------------
   0.526E-05 0.246E-04 0.406E-07   -.901E-05 -.422E-04 0.222E-13   0.189E-16 0.686E-17 -.243E-16   0.633E-07 0.465E-07 0.109E-06
   -.526E-05 -.246E-04 -.406E-07   0.901E-05 0.422E-04 -.221E-13   -.111E-16 -.686E-17 0.347E-16   -.633E-07 -.465E-07 -.109E-06
 -----------------------------------------------------------------------------------------------
   0.210E-13 -.680E-13 0.116E-12   0.241E-15 0.244E-17 0.114E-15   0.778E-17 0.000E+00 0.104E-16   -.254E-15 0.170E-15 0.121E-15
 
 
 POSITION                                       TOTAL-FORCE (eV/Angst)
 -----------------------------------------------------------------------------------
      3.88662      2.74826      6.73183         0.000000      0.000000     -0.000000
      0.55523      0.39261      0.96169        -0.000000     -0.000000      0.000000
 -----------------------------------------------------------------------------------
    total drift:                                0.000000     -0.000000      0.000000


--------------------------------------------------------------------------------------------------------



  FREE ENERGIE OF THE ION-ELECTRON SYSTEM (eV)
  ---------------------------------------------------
  free  energy   TOTEN  =       -10.84501587 eV

  energy  without entropy=      -10.84501587  energy(sigma->0) =      -10.84501587
 


--------------------------------------------------------------------------------------------------------


    POTLOK:  cpu time    0.2060: real time    0.2115


--------------------------------------------------------------------------------------------------------




--------------------------------------------------------------------------------------------------------


  
 reached required accuracy - stopping structural energy minimisation
     LOOP+:  cpu time   24.3993: real time   24.7560
    4ORBIT:  cpu time    0.0000: real time    0.0000

 total amount of memory used by VASP MPI-rank0    46914. kBytes
=======================================================================

   base      :      30000. kBytes
   nonl-proj :       7148. kBytes
   fftplans  :       4177. kBytes
   grid      :       1926. kBytes
   one-center:          6. kBytes
   wavefun   :       3657. kBytes
 
  
  
 General timing and accounting informations for this job:
 ========================================================
  
                  Total CPU time used (sec):       27.060
                            User time (sec):       26.672
                          System time (sec):        0.388
                         Elapsed time (sec):       28.223
  
                   Maximum memory used (kb):       71668.
                   Average memory used (kb):          N/A
  
                          Minor page faults:        15369
                          Major page faults:            1
                 Voluntary context switches:        19666
