<?xml version="1.0" encoding="ISO-8859-1"?>
<modeling>
 <generator>
  <i name="program" type="string">vasp </i>
  <i name="version" type="string">6.2.0  </i>
  <i name="subversion" type="string">18Jan21 (build Aug 12 2022 13:00:08) complex                          parallel </i>
  <i name="platform" type="string">LinuxIFC </i>
  <i name="date" type="string">2024 11 05 </i>
  <i name="time" type="string">05:58:39 </i>
 </generator>
 <incar>
  <i type="int" name="ISTART">     0</i>
  <i type="string" name="PREC">Accurate      (Accurate strictly avoids</i>
  <i type="logical" name="ADDGRID"> T  </i>
  <i type="int" name="ISPIN">     1</i>
  <i type="int" name="NELM">    90</i>
  <i type="int" name="NELMIN">     6</i>
  <i type="int" name="IBRION">     2</i>
  <i name="EDIFF">      0.00000100</i>
  <i name="EDIFFG">     -0.00200000</i>
  <i type="int" name="NSW">   100</i>
  <i type="int" name="ISIF">     2</i>
  <i type="int" name="ISYM">     2</i>
  <i name="ENCUT">    350.00000000</i>
  <i type="logical" name="LREAL"> F  </i>
  <i type="int" name="ISMEAR">     0</i>
  <i name="SIGMA">      0.05000000</i>
  <i type="logical" name="LWAVE"> F  </i>
  <i type="logical" name="LCHARG"> F  </i>
  <i type="logical" name="LASPH"> T  </i>
 </incar>
 <primitive_cell>
  <structure name="primitive_cell" >
   <crystal>
    <varray name="basis" >
     <v>       3.33139272       0.00000000       1.92338021 </v>
     <v>       1.11046424       3.14086843       1.92338021 </v>
     <v>       0.00000000       0.00000000       3.84676043 </v>
    </varray>
    <i name="volume">     40.25044779 </i>
    <varray name="rec_basis" >
     <v>       0.30017476      -0.10612776       0.00000000 </v>
     <v>       0.00000000       0.31838328       0.00000000 </v>
     <v>      -0.15008738      -0.10612776       0.25995900 </v>
    </varray>
   </crystal>
   <varray name="positions" >
    <v>       0.87500000       0.87500000       0.87500000 </v>
    <v>       0.12500000       0.12500000       0.12500000 </v>
   </varray>
  </structure>
  <varray name="primitive_index" >
   <v type="int" >        1 </v>
   <v type="int" >        2 </v>
  </varray>
 </primitive_cell>
 <kpoints>
  <generation param="Monkhorst-Pack">
   <v type="int" name="divisions">      12       12       12 </v>
   <v name="usershift">      0.00000000       0.00000000       0.00000000 </v>
   <v name="genvec1">      0.08333333       0.00000000       0.00000000 </v>
   <v name="genvec2">      0.00000000       0.08333333       0.00000000 </v>
   <v name="genvec3">      0.00000000       0.00000000       0.08333333 </v>
   <v name="shift">      0.50000000       0.50000000       0.50000000 </v>
  </generation>
  <varray name="kpointlist" >
   <v>       0.04166667       0.04166667       0.04166667 </v>
   <v>       0.12500000       0.04166667       0.04166667 </v>
   <v>       0.20833333       0.04166667       0.04166667 </v>
   <v>       0.29166667       0.04166667       0.04166667 </v>
   <v>       0.37500000       0.04166667       0.04166667 </v>
   <v>       0.45833333       0.04166667       0.04166667 </v>
   <v>      -0.45833333       0.04166667       0.04166667 </v>
   <v>      -0.37500000       0.04166667       0.04166667 </v>
   <v>      -0.29166667       0.04166667       0.04166667 </v>
   <v>      -0.20833333       0.04166667       0.04166667 </v>
   <v>      -0.12500000       0.04166667       0.04166667 </v>
   <v>      -0.04166667       0.04166667       0.04166667 </v>
   <v>       0.12500000       0.12500000       0.04166667 </v>
   <v>       0.20833333       0.12500000       0.04166667 </v>
   <v>       0.29166667       0.12500000       0.04166667 </v>
   <v>       0.37500000       0.12500000       0.04166667 </v>
   <v>       0.45833333       0.12500000       0.04166667 </v>
   <v>      -0.45833333       0.12500000       0.04166667 </v>
   <v>      -0.37500000       0.12500000       0.04166667 </v>
   <v>      -0.29166667       0.12500000       0.04166667 </v>
   <v>      -0.20833333       0.12500000       0.04166667 </v>
   <v>      -0.12500000       0.12500000       0.04166667 </v>
   <v>      -0.04166667       0.12500000       0.04166667 </v>
   <v>       0.20833333       0.20833333       0.04166667 </v>
   <v>       0.29166667       0.20833333       0.04166667 </v>
   <v>       0.37500000       0.20833333       0.04166667 </v>
   <v>       0.45833333       0.20833333       0.04166667 </v>
   <v>      -0.45833333       0.20833333       0.04166667 </v>
   <v>      -0.37500000       0.20833333       0.04166667 </v>
   <v>      -0.29166667       0.20833333       0.04166667 </v>
   <v>      -0.20833333       0.20833333       0.04166667 </v>
   <v>      -0.12500000       0.20833333       0.04166667 </v>
   <v>      -0.04166667       0.20833333       0.04166667 </v>
   <v>       0.29166667       0.29166667       0.04166667 </v>
   <v>       0.37500000       0.29166667       0.04166667 </v>
   <v>       0.45833333       0.29166667       0.04166667 </v>
   <v>      -0.45833333       0.29166667       0.04166667 </v>
   <v>      -0.37500000       0.29166667       0.04166667 </v>
   <v>      -0.29166667       0.29166667       0.04166667 </v>
   <v>      -0.20833333       0.29166667       0.04166667 </v>
   <v>      -0.12500000       0.29166667       0.04166667 </v>
   <v>      -0.04166667       0.29166667       0.04166667 </v>
   <v>       0.37500000       0.37500000       0.04166667 </v>
   <v>       0.45833333       0.37500000       0.04166667 </v>
   <v>      -0.45833333       0.37500000       0.04166667 </v>
   <v>      -0.37500000       0.37500000       0.04166667 </v>
   <v>      -0.29166667       0.37500000       0.04166667 </v>
   <v>      -0.20833333       0.37500000       0.04166667 </v>
   <v>      -0.12500000       0.37500000       0.04166667 </v>
   <v>      -0.04166667       0.37500000       0.04166667 </v>
   <v>       0.45833333       0.45833333       0.04166667 </v>
   <v>      -0.45833333       0.45833333       0.04166667 </v>
   <v>      -0.37500000       0.45833333       0.04166667 </v>
   <v>      -0.29166667       0.45833333       0.04166667 </v>
   <v>      -0.20833333       0.45833333       0.04166667 </v>
   <v>      -0.12500000       0.45833333       0.04166667 </v>
   <v>      -0.04166667       0.45833333       0.04166667 </v>
   <v>      -0.45833333      -0.45833333       0.04166667 </v>
   <v>      -0.37500000      -0.45833333       0.04166667 </v>
   <v>      -0.29166667      -0.45833333       0.04166667 </v>
   <v>      -0.20833333      -0.45833333       0.04166667 </v>
   <v>      -0.12500000      -0.45833333       0.04166667 </v>
   <v>      -0.37500000      -0.37500000       0.04166667 </v>
   <v>      -0.29166667      -0.37500000       0.04166667 </v>
   <v>      -0.20833333      -0.37500000       0.04166667 </v>
   <v>      -0.12500000      -0.37500000       0.04166667 </v>
   <v>      -0.29166667      -0.29166667       0.04166667 </v>
   <v>      -0.20833333      -0.29166667       0.04166667 </v>
   <v>      -0.12500000      -0.29166667       0.04166667 </v>
   <v>      -0.20833333      -0.20833333       0.04166667 </v>
   <v>      -0.12500000      -0.20833333       0.04166667 </v>
   <v>      -0.12500000      -0.12500000       0.04166667 </v>
   <v>       0.12500000       0.12500000       0.12500000 </v>
   <v>       0.20833333       0.12500000       0.12500000 </v>
   <v>       0.29166667       0.12500000       0.12500000 </v>
   <v>       0.37500000       0.12500000       0.12500000 </v>
   <v>       0.45833333       0.12500000       0.12500000 </v>
   <v>      -0.45833333       0.12500000       0.12500000 </v>
   <v>      -0.37500000       0.12500000       0.12500000 </v>
   <v>      -0.29166667       0.12500000       0.12500000 </v>
   <v>      -0.20833333       0.12500000       0.12500000 </v>
   <v>      -0.12500000       0.12500000       0.12500000 </v>
   <v>       0.20833333       0.20833333       0.12500000 </v>
   <v>       0.29166667       0.20833333       0.12500000 </v>
   <v>       0.37500000       0.20833333       0.12500000 </v>
   <v>       0.45833333       0.20833333       0.12500000 </v>
   <v>      -0.45833333       0.20833333       0.12500000 </v>
   <v>      -0.37500000       0.20833333       0.12500000 </v>
   <v>      -0.29166667       0.20833333       0.12500000 </v>
   <v>      -0.20833333       0.20833333       0.12500000 </v>
   <v>      -0.12500000       0.20833333       0.12500000 </v>
   <v>       0.29166667       0.29166667       0.12500000 </v>
   <v>       0.37500000       0.29166667       0.12500000 </v>
   <v>       0.45833333       0.29166667       0.12500000 </v>
   <v>      -0.45833333       0.29166667       0.12500000 </v>
   <v>      -0.37500000       0.29166667       0.12500000 </v>
   <v>      -0.29166667       0.29166667       0.12500000 </v>
   <v>      -0.20833333       0.29166667       0.12500000 </v>
   <v>      -0.12500000       0.29166667       0.12500000 </v>
   <v>       0.37500000       0.37500000       0.12500000 </v>
   <v>       0.45833333       0.37500000       0.12500000 </v>
   <v>      -0.45833333       0.37500000       0.12500000 </v>
   <v>      -0.37500000       0.37500000       0.12500000 </v>
   <v>      -0.29166667       0.37500000       0.12500000 </v>
   <v>      -0.20833333       0.37500000       0.12500000 </v>
   <v>      -0.12500000       0.37500000       0.12500000 </v>
   <v>       0.45833333       0.45833333       0.12500000 </v>
   <v>      -0.45833333       0.45833333       0.12500000 </v>
   <v>      -0.37500000       0.45833333       0.12500000 </v>
   <v>      -0.29166667       0.45833333       0.12500000 </v>
   <v>      -0.20833333       0.45833333       0.12500000 </v>
   <v>      -0.12500000       0.45833333       0.12500000 </v>
   <v>      -0.45833333      -0.45833333       0.12500000 </v>
   <v>      -0.37500000      -0.45833333       0.12500000 </v>
   <v>      -0.29166667      -0.45833333       0.12500000 </v>
   <v>      -0.20833333      -0.45833333       0.12500000 </v>
   <v>      -0.37500000      -0.37500000       0.12500000 </v>
   <v>      -0.29166667      -0.37500000       0.12500000 </v>
   <v>      -0.20833333      -0.37500000       0.12500000 </v>
   <v>      -0.29166667      -0.29166667       0.12500000 </v>
   <v>      -0.20833333      -0.29166667       0.12500000 </v>
   <v>      -0.20833333      -0.20833333       0.12500000 </v>
   <v>       0.20833333       0.20833333       0.20833333 </v>
   <v>       0.29166667       0.20833333       0.20833333 </v>
   <v>       0.37500000       0.20833333       0.20833333 </v>
   <v>       0.45833333       0.20833333       0.20833333 </v>
   <v>      -0.45833333       0.20833333       0.20833333 </v>
   <v>      -0.37500000       0.20833333       0.20833333 </v>
   <v>      -0.29166667       0.20833333       0.20833333 </v>
   <v>      -0.20833333       0.20833333       0.20833333 </v>
   <v>       0.29166667       0.29166667       0.20833333 </v>
   <v>       0.37500000       0.29166667       0.20833333 </v>
   <v>       0.45833333       0.29166667       0.20833333 </v>
   <v>      -0.45833333       0.29166667       0.20833333 </v>
   <v>      -0.37500000       0.29166667       0.20833333 </v>
   <v>      -0.29166667       0.29166667       0.20833333 </v>
   <v>      -0.20833333       0.29166667       0.20833333 </v>
   <v>       0.37500000       0.37500000       0.20833333 </v>
   <v>       0.45833333       0.37500000       0.20833333 </v>
   <v>      -0.45833333       0.37500000       0.20833333 </v>
   <v>      -0.37500000       0.37500000       0.20833333 </v>
   <v>      -0.29166667       0.37500000       0.20833333 </v>
   <v>      -0.20833333       0.37500000       0.20833333 </v>
   <v>       0.45833333       0.45833333       0.20833333 </v>
   <v>      -0.45833333       0.45833333       0.20833333 </v>
   <v>      -0.37500000       0.45833333       0.20833333 </v>
   <v>      -0.29166667       0.45833333       0.20833333 </v>
   <v>      -0.20833333       0.45833333       0.20833333 </v>
   <v>      -0.45833333      -0.45833333       0.20833333 </v>
   <v>      -0.37500000      -0.45833333       0.20833333 </v>
   <v>      -0.29166667      -0.45833333       0.20833333 </v>
   <v>      -0.37500000      -0.37500000       0.20833333 </v>
   <v>      -0.29166667      -0.37500000       0.20833333 </v>
   <v>      -0.29166667      -0.29166667       0.20833333 </v>
   <v>       0.29166667       0.29166667       0.29166667 </v>
   <v>       0.37500000       0.29166667       0.29166667 </v>
   <v>       0.45833333       0.29166667       0.29166667 </v>
   <v>      -0.45833333       0.29166667       0.29166667 </v>
   <v>      -0.37500000       0.29166667       0.29166667 </v>
   <v>      -0.29166667       0.29166667       0.29166667 </v>
   <v>       0.37500000       0.37500000       0.29166667 </v>
   <v>       0.45833333       0.37500000       0.29166667 </v>
   <v>      -0.45833333       0.37500000       0.29166667 </v>
   <v>      -0.37500000       0.37500000       0.29166667 </v>
   <v>      -0.29166667       0.37500000       0.29166667 </v>
   <v>       0.45833333       0.45833333       0.29166667 </v>
   <v>      -0.45833333       0.45833333       0.29166667 </v>
   <v>      -0.37500000       0.45833333       0.29166667 </v>
   <v>      -0.29166667       0.45833333       0.29166667 </v>
   <v>      -0.45833333      -0.45833333       0.29166667 </v>
   <v>      -0.37500000      -0.45833333       0.29166667 </v>
   <v>      -0.37500000      -0.37500000       0.29166667 </v>
   <v>       0.37500000       0.37500000       0.37500000 </v>
   <v>       0.45833333       0.37500000       0.37500000 </v>
   <v>      -0.45833333       0.37500000       0.37500000 </v>
   <v>      -0.37500000       0.37500000       0.37500000 </v>
   <v>       0.45833333       0.45833333       0.37500000 </v>
   <v>      -0.45833333       0.45833333       0.37500000 </v>
   <v>      -0.37500000       0.45833333       0.37500000 </v>
   <v>      -0.45833333      -0.45833333       0.37500000 </v>
   <v>       0.45833333       0.45833333       0.45833333 </v>
   <v>      -0.45833333       0.45833333       0.45833333 </v>
  </varray>
  <varray name="weights" >
   <v>       0.00115741 </v>
   <v>       0.00347222 </v>
   <v>       0.00347222 </v>
   <v>       0.00347222 </v>
   <v>       0.00347222 </v>
   <v>       0.00347222 </v>
   <v>       0.00347222 </v>
   <v>       0.00347222 </v>
   <v>       0.00347222 </v>
   <v>       0.00347222 </v>
   <v>       0.00347222 </v>
   <v>       0.00347222 </v>
   <v>       0.00347222 </v>
   <v>       0.00694444 </v>
   <v>       0.00694444 </v>
   <v>       0.00694444 </v>
   <v>       0.00694444 </v>
   <v>       0.00694444 </v>
   <v>       0.00694444 </v>
   <v>       0.00694444 </v>
   <v>       0.00694444 </v>
   <v>       0.00694444 </v>
   <v>       0.00694444 </v>
   <v>       0.00347222 </v>
   <v>       0.00694444 </v>
   <v>       0.00694444 </v>
   <v>       0.00694444 </v>
   <v>       0.00694444 </v>
   <v>       0.00694444 </v>
   <v>       0.00694444 </v>
   <v>       0.00694444 </v>
   <v>       0.00694444 </v>
   <v>       0.00694444 </v>
   <v>       0.00347222 </v>
   <v>       0.00694444 </v>
   <v>       0.00694444 </v>
   <v>       0.00694444 </v>
   <v>       0.00694444 </v>
   <v>       0.00694444 </v>
   <v>       0.00694444 </v>
   <v>       0.00694444 </v>
   <v>       0.00694444 </v>
   <v>       0.00347222 </v>
   <v>       0.00694444 </v>
   <v>       0.00694444 </v>
   <v>       0.00694444 </v>
   <v>       0.00694444 </v>
   <v>       0.00694444 </v>
   <v>       0.00694444 </v>
   <v>       0.00694444 </v>
   <v>       0.00347222 </v>
   <v>       0.00694444 </v>
   <v>       0.00694444 </v>
   <v>       0.00694444 </v>
   <v>       0.00694444 </v>
   <v>       0.00694444 </v>
   <v>       0.00694444 </v>
   <v>       0.00347222 </v>
   <v>       0.00694444 </v>
   <v>       0.00694444 </v>
   <v>       0.00694444 </v>
   <v>       0.00694444 </v>
   <v>       0.00347222 </v>
   <v>       0.00694444 </v>
   <v>       0.00694444 </v>
   <v>       0.00694444 </v>
   <v>       0.00347222 </v>
   <v>       0.00694444 </v>
   <v>       0.00694444 </v>
   <v>       0.00347222 </v>
   <v>       0.00694444 </v>
   <v>       0.00347222 </v>
   <v>       0.00115741 </v>
   <v>       0.00347222 </v>
   <v>       0.00347222 </v>
   <v>       0.00347222 </v>
   <v>       0.00347222 </v>
   <v>       0.00347222 </v>
   <v>       0.00347222 </v>
   <v>       0.00347222 </v>
   <v>       0.00347222 </v>
   <v>       0.00347222 </v>
   <v>       0.00347222 </v>
   <v>       0.00694444 </v>
   <v>       0.00694444 </v>
   <v>       0.00694444 </v>
   <v>       0.00694444 </v>
   <v>       0.00694444 </v>
   <v>       0.00694444 </v>
   <v>       0.00694444 </v>
   <v>       0.00694444 </v>
   <v>       0.00347222 </v>
   <v>       0.00694444 </v>
   <v>       0.00694444 </v>
   <v>       0.00694444 </v>
   <v>       0.00694444 </v>
   <v>       0.00694444 </v>
   <v>       0.00694444 </v>
   <v>       0.00694444 </v>
   <v>       0.00347222 </v>
   <v>       0.00694444 </v>
   <v>       0.00694444 </v>
   <v>       0.00694444 </v>
   <v>       0.00694444 </v>
   <v>       0.00694444 </v>
   <v>       0.00694444 </v>
   <v>       0.00347222 </v>
   <v>       0.00694444 </v>
   <v>       0.00694444 </v>
   <v>       0.00694444 </v>
   <v>       0.00694444 </v>
   <v>       0.00694444 </v>
   <v>       0.00347222 </v>
   <v>       0.00694444 </v>
   <v>       0.00694444 </v>
   <v>       0.00694444 </v>
   <v>       0.00347222 </v>
   <v>       0.00694444 </v>
   <v>       0.00694444 </v>
   <v>       0.00347222 </v>
   <v>       0.00694444 </v>
   <v>       0.00347222 </v>
   <v>       0.00115741 </v>
   <v>       0.00347222 </v>
   <v>       0.00347222 </v>
   <v>       0.00347222 </v>
   <v>       0.00347222 </v>
   <v>       0.00347222 </v>
   <v>       0.00347222 </v>
   <v>       0.00347222 </v>
   <v>       0.00347222 </v>
   <v>       0.00694444 </v>
   <v>       0.00694444 </v>
   <v>       0.00694444 </v>
   <v>       0.00694444 </v>
   <v>       0.00694444 </v>
   <v>       0.00694444 </v>
   <v>       0.00347222 </v>
   <v>       0.00694444 </v>
   <v>       0.00694444 </v>
   <v>       0.00694444 </v>
   <v>       0.00694444 </v>
   <v>       0.00694444 </v>
   <v>       0.00347222 </v>
   <v>       0.00694444 </v>
   <v>       0.00694444 </v>
   <v>       0.00694444 </v>
   <v>       0.00694444 </v>
   <v>       0.00347222 </v>
   <v>       0.00694444 </v>
   <v>       0.00694444 </v>
   <v>       0.00347222 </v>
   <v>       0.00694444 </v>
   <v>       0.00347222 </v>
   <v>       0.00115741 </v>
   <v>       0.00347222 </v>
   <v>       0.00347222 </v>
   <v>       0.00347222 </v>
   <v>       0.00347222 </v>
   <v>       0.00347222 </v>
   <v>       0.00347222 </v>
   <v>       0.00694444 </v>
   <v>       0.00694444 </v>
   <v>       0.00694444 </v>
   <v>       0.00694444 </v>
   <v>       0.00347222 </v>
   <v>       0.00694444 </v>
   <v>       0.00694444 </v>
   <v>       0.00694444 </v>
   <v>       0.00347222 </v>
   <v>       0.00694444 </v>
   <v>       0.00347222 </v>
   <v>       0.00115741 </v>
   <v>       0.00347222 </v>
   <v>       0.00347222 </v>
   <v>       0.00347222 </v>
   <v>       0.00347222 </v>
   <v>       0.00694444 </v>
   <v>       0.00694444 </v>
   <v>       0.00347222 </v>
   <v>       0.00115741 </v>
   <v>       0.00347222 </v>
  </varray>
 </kpoints>
 <parameters>
  <separator name="general" >
   <i type="string" name="SYSTEM">unknown system</i>
   <i type="logical" name="LCOMPAT"> F  </i>
  </separator>
  <separator name="electronic" >
   <i type="string" name="PREC">accura</i>
   <i name="ENMAX">    350.00000000</i>
   <i name="ENAUG">    322.06900000</i>
   <i name="EDIFF">      0.00000100</i>
   <i type="int" name="IALGO">    38</i>
   <i type="int" name="IWAVPR">    11</i>
   <i type="int" name="NBANDS">     8</i>
   <i type="int" name="NBANDSLOW">    -1</i>
   <i type="int" name="NBANDSHIGH">    -1</i>
   <i name="NELECT">      8.00000000</i>
   <i type="int" name="TURBO">     0</i>
   <i type="int" name="IRESTART">     0</i>
   <i type="int" name="NREBOOT">     0</i>
   <i type="int" name="NMIN">     0</i>
   <i name="EREF">      0.00000000</i>
   <separator name="electronic smearing" >
    <i type="int" name="ISMEAR">     0</i>
    <i name="SIGMA">      0.05000000</i>
    <i name="KSPACING">      0.50000000</i>
    <i type="logical" name="KGAMMA"> T  </i>
    <i type="logical" name="KBLOWUP"> T  </i>
   </separator>
   <separator name="electronic projectors" >
    <i type="logical" name="LREAL"> F  </i>
    <v name="ROPT">      0.00000000</v>
    <i type="int" name="LMAXPAW">  -100</i>
    <i type="int" name="LMAXMIX">     2</i>
    <i type="logical" name="NLSPLINE"> F  </i>
   </separator>
   <separator name="electronic startup" >
    <i type="int" name="ISTART">     0</i>
    <i type="int" name="ICHARG">     2</i>
    <i type="int" name="INIWAV">     1</i>
   </separator>
   <separator name="electronic spin" >
    <i type="int" name="ISPIN">     1</i>
    <i type="logical" name="LNONCOLLINEAR"> F  </i>
    <v name="MAGMOM">      1.00000000      1.00000000</v>
    <i name="NUPDOWN">     -1.00000000</i>
    <i type="logical" name="LSORBIT"> F  </i>
    <v name="SAXIS">      0.00000000      0.00000000      1.00000000</v>
    <i type="logical" name="LSPIRAL"> F  </i>
    <v name="QSPIRAL">      0.00000000      0.00000000      0.00000000</v>
    <i type="logical" name="LZEROZ"> F  </i>
   </separator>
   <separator name="electronic exchange-correlation" >
    <i type="logical" name="LASPH"> T  </i>
    <i type="logical" name="LMETAGGA"> F  </i>
   </separator>
   <separator name="electronic convergence" >
    <i type="int" name="NELM">    90</i>
    <i type="int" name="NELMDL">    -5</i>
    <i type="int" name="NELMIN">     6</i>
    <i name="ENINI">    350.00000000</i>
    <separator name="electronic convergence detail" >
     <i type="logical" name="LDIAG"> T  </i>
     <i type="logical" name="LSUBROT"> F  </i>
     <i name="WEIMIN">      0.00100000</i>
     <i name="EBREAK">      0.00000003</i>
     <i name="DEPER">      0.30000000</i>
     <i type="int" name="NRMM">     4</i>
     <i name="TIME">      0.40000000</i>
    </separator>
   </separator>
   <separator name="electronic mixer" >
    <i name="AMIX">      0.40000000</i>
    <i name="BMIX">      1.00000000</i>
    <i name="AMIN">      0.10000000</i>
    <i name="AMIX_MAG">      1.60000000</i>
    <i name="BMIX_MAG">      1.00000000</i>
    <separator name="electronic mixer details" >
     <i type="int" name="IMIX">     4</i>
     <i type="logical" name="MIXFIRST"> F  </i>
     <i type="int" name="MAXMIX">   -45</i>
     <i name="WC">    100.00000000</i>
     <i type="int" name="INIMIX">     1</i>
     <i type="int" name="MIXPRE">     1</i>
     <i type="int" name="MREMOVE">     5</i>
    </separator>
   </separator>
   <separator name="electronic dipolcorrection" >
    <i type="logical" name="LDIPOL"> F  </i>
    <i type="logical" name="LMONO"> F  </i>
    <i type="int" name="IDIPOL">     0</i>
    <i name="EPSILON">      1.00000000</i>
    <v name="DIPOL">   -100.00000000   -100.00000000   -100.00000000</v>
    <i name="EFIELD">      0.00000000</i>
   </separator>
  </separator>
  <separator name="grids" >
   <i type="int" name="NGX">    24</i>
   <i type="int" name="NGY">    24</i>
   <i type="int" name="NGZ">    24</i>
   <i type="int" name="NGXF">    48</i>
   <i type="int" name="NGYF">    48</i>
   <i type="int" name="NGZF">    48</i>
   <i type="logical" name="ADDGRID"> T  </i>
  </separator>
  <separator name="ionic" >
   <i type="int" name="NSW">   100</i>
   <i type="int" name="IBRION">     2</i>
   <i type="int" name="MDALGO">     0</i>
   <i type="int" name="ISIF">     2</i>
   <i name="PSTRESS">      0.00000000</i>
   <i name="EDIFFG">     -0.00200000</i>
   <i type="int" name="NFREE">     1</i>
   <i name="POTIM">      0.50000000</i>
   <i name="SMASS">     -3.00000000</i>
   <i name="SCALEE">      1.00000000</i>
  </separator>
  <separator name="ionic md" >
   <i name="TEBEG">      0.00010000</i>
   <i name="TEEND">      0.00010000</i>
   <i type="int" name="NBLOCK">     1</i>
   <i type="int" name="KBLOCK">   100</i>
   <i type="int" name="NPACO">   256</i>
   <i name="APACO">     16.00000000</i>
  </separator>
  <separator name="symmetry" >
   <i type="int" name="ISYM">     2</i>
   <i name="SYMPREC">      0.00001000</i>
  </separator>
  <separator name="dos" >
   <i type="int" name="LORBIT">     0</i>
   <v name="RWIGS">     -1.00000000</v>
   <i type="int" name="NEDOS">   301</i>
   <i name="EMIN">     10.00000000</i>
   <i name="EMAX">    -10.00000000</i>
   <i name="EFERMI">      0.00000000</i>
  </separator>
  <separator name="writing" >
   <i type="int" name="NWRITE">     2</i>
   <i type="logical" name="LWAVE"> F  </i>
   <i type="logical" name="LDOWNSAMPLE"> F  </i>
   <i type="logical" name="LCHARG"> F  </i>
   <i type="logical" name="LPARD"> F  </i>
   <i type="logical" name="LVTOT"> F  </i>
   <i type="logical" name="LVHAR"> F  </i>
   <i type="logical" name="LELF"> F  </i>
   <i type="logical" name="LOPTICS"> F  </i>
   <v name="STM">      0.00000000      0.00000000      0.00000000      0.00000000      0.00000000      0.00000000      0.00000000</v>
  </separator>
  <separator name="performance" >
   <i type="int" name="NPAR">     4</i>
   <i type="int" name="NSIM">     4</i>
   <i type="int" name="NBLK">    -1</i>
   <i type="logical" name="LPLANE"> T  </i>
   <i type="logical" name="LSCALAPACK"> T  </i>
   <i type="logical" name="LSCAAWARE"> F  </i>
   <i type="logical" name="LSCALU"> F  </i>
   <i type="logical" name="LASYNC"> F  </i>
   <i type="logical" name="LORBITALREAL"> F  </i>
  </separator>
  <separator name="miscellaneous" >
   <i type="int" name="IDIOT">     3</i>
   <i type="int" name="PHON_NSTRUCT">    -1</i>
   <i type="logical" name="LMUSIC"> F  </i>
   <v name="POMASS">     28.08500000</v>
   <v name="DARWINR">      0.00000000</v>
   <v name="DARWINV">      1.00000000</v>
   <i type="logical" name="LCORR"> T  </i>
  </separator>
  <i type="logical" name="GGA_COMPAT"> T  </i>
  <i type="logical" name="LBERRY"> F  </i>
  <i type="int" name="ICORELEVEL">     0</i>
  <i type="logical" name="LDAU"> F  </i>
  <i type="int" name="I_CONSTRAINED_M">     0</i>
  <separator name="electronic exchange-correlation" >
   <i type="string" name="GGA">--</i>
   <i type="int" name="VOSKOWN">     0</i>
   <i type="logical" name="LHFCALC"> F  </i>
   <i type="string" name="PRECFOCK"></i>
   <i type="logical" name="LSYMGRAD"> F  </i>
   <i type="logical" name="LHFONE"> F  </i>
   <i type="logical" name="LRHFCALC"> F  </i>
   <i type="logical" name="LTHOMAS"> F  </i>
   <i type="logical" name="LMODELHF"> F  </i>
   <i type="logical" name="LFOCKACE"> F  </i>
   <i name="ENCUT4O">     -1.00000000</i>
   <i type="int" name="EXXOEP">     0</i>
   <i type="int" name="FOURORBIT">     0</i>
   <i name="AEXX">      0.00000000</i>
   <i name="HFALPHA">      0.00000000</i>
   <i name="MCALPHA">      0.00000000</i>
   <i name="ALDAX">      1.00000000</i>
   <i name="AGGAX">      1.00000000</i>
   <i name="ALDAC">      1.00000000</i>
   <i name="AGGAC">      1.00000000</i>
   <i type="int" name="NKREDX">     1</i>
   <i type="int" name="NKREDY">     1</i>
   <i type="int" name="NKREDZ">     1</i>
   <i type="logical" name="SHIFTRED"> F  </i>
   <i type="logical" name="ODDONLY"> F  </i>
   <i type="logical" name="EVENONLY"> F  </i>
   <i type="int" name="LMAXFOCK">     0</i>
   <i type="int" name="NMAXFOCKAE">     0</i>
   <i type="logical" name="LFOCKAEDFT"> F  </i>
   <i name="HFSCREEN">      0.00000000</i>
   <i name="HFSCREENC">      0.00000000</i>
   <i type="int" name="NBANDSGWLOW">     0</i>
  </separator>
  <separator name="vdW DFT" >
   <i type="logical" name="LUSE_VDW"> F  </i>
   <i name="Zab_VDW">     -0.84910000</i>
   <i name="PARAM1">      0.12340000</i>
   <i name="PARAM2">      1.00000000</i>
   <i name="PARAM3">      0.00000000</i>
  </separator>
  <separator name="model GW" >
   <i type="int" name="MODEL_GW">     0</i>
   <i name="MODEL_EPS0">     12.07513434</i>
   <i name="MODEL_ALPHA">      1.00000000</i>
  </separator>
  <separator name="linear response parameters" >
   <i type="logical" name="LEPSILON"> F  </i>
   <i type="logical" name="LRPA"> F  </i>
   <i type="logical" name="LNABLA"> F  </i>
   <i type="logical" name="LVEL"> F  </i>
   <i type="int" name="KINTER">     0</i>
   <i name="CSHIFT">      0.10000000</i>
   <i name="OMEGAMAX">     -1.00000000</i>
   <i name="DEG_THRESHOLD">      0.00200000</i>
   <i name="RTIME">     -0.10000000</i>
   <i name="WPLASMAI">      0.00000000</i>
   <v name="DFIELD">      0.00000000      0.00000000      0.00000000</v>
   <v name="WPLASMA">      0.00000000      0.00000000      0.00000000      0.00000000      0.00000000      0.00000000      0.00000000      0.00000000      0.00000000</v>
  </separator>
  <separator name="orbital magnetization" >
   <i type="logical" name="NUCIND"> F  </i>
   <v name="MAGPOS">      0.00000000      0.00000000      0.00000000</v>
   <i type="logical" name="LNICSALL"> T  </i>
   <i type="logical" name="ORBITALMAG"> F  </i>
   <i type="logical" name="LMAGBLOCH"> F  </i>
   <i type="logical" name="LCHIMAG"> F  </i>
   <i type="logical" name="LGAUGE"> T  </i>
   <i type="int" name="MAGATOM">     0</i>
   <v name="MAGDIPOL">      0.00000000      0.00000000      0.00000000</v>
   <v name="AVECCONST">      0.00000000      0.00000000      0.00000000</v>
  </separator>
  <separator name="response functions" >
   <i type="logical" name="LFINITE_TEMPERATURE"> F  </i>
   <i type="logical" name="LADDER"> F  </i>
   <i type="logical" name="LRPAFORCE"> F  </i>
   <i type="logical" name="LFXC"> F  </i>
   <i type="logical" name="LHARTREE"> T  </i>
   <i type="int" name="IBSE">     0</i>
   <v type="int" name="KPOINT">    -1     0     0     0</v>
   <i type="logical" name="LTCTC"> F  </i>
   <i type="logical" name="LTCTE"> F  </i>
   <i type="logical" name="LTETE"> F  </i>
   <i type="logical" name="LTRIPLET"> F  </i>
   <i type="logical" name="LFXCEPS"> F  </i>
   <i type="logical" name="LFXHEG"> F  </i>
   <i type="int" name="NATURALO">     2</i>
   <i type="logical" name="LHOLEGF"> F  </i>
   <i type="logical" name="L2ORDER"> F  </i>
   <i type="logical" name="LDMP1"> F  </i>
   <i type="logical" name="LMP2LT"> F  </i>
   <i type="logical" name="LSMP2LT"> F  </i>
   <i type="logical" name="LGWLF"> F  </i>
   <i name="ENCUTGW">     -2.00000000</i>
   <i name="ENCUTGWSOFT">     -2.00000000</i>
   <i name="ENCUTLF">     -1.00000000</i>
   <i type="logical" name="LESF_SPLINES"> F  </i>
   <i type="int" name="LMAXMP2">    -1</i>
   <i name="SCISSOR">      0.00000000</i>
   <i type="int" name="NOMEGA">     0</i>
   <i type="int" name="NOMEGAR">     0</i>
   <i type="int" name="NBANDSGW">    -1</i>
   <i type="int" name="NBANDSO">    -1</i>
   <i type="int" name="NBANDSV">    -1</i>
   <i type="int" name="NELM">    90</i>
   <i type="int" name="NELMHF">     1</i>
   <i type="int" name="DIM">     3</i>
   <i type="int" name="IESPILON">     4</i>
   <i type="int" name="ANTIRES">     0</i>
   <i name="OMEGAMAX">    -30.00000000</i>
   <i name="OMEGAMIN">    -30.00000000</i>
   <i name="OMEGATL">   -200.00000000</i>
   <i type="int" name="OMEGAGRID">     0</i>
   <i name="CSHIFT">     -0.10000000</i>
   <i type="logical" name="LSELFENERGY"> F  </i>
   <i type="logical" name="LSPECTRAL"> F  </i>
   <i type="logical" name="LSPECTRALGW"> F  </i>
   <i type="logical" name="LSINGLES"> F  </i>
   <i type="logical" name="LFERMIGW"> F  </i>
   <i type="logical" name="ODDONLYGW"> F  </i>
   <i type="logical" name="EVENONLYGW"> F  </i>
   <i type="int" name="NKREDLFX">     1</i>
   <i type="int" name="NKREDLFY">     1</i>
   <i type="int" name="NKREDLFZ">     1</i>
   <i type="int" name="MAXMEM">  2800</i>
   <i type="int" name="TELESCOPE">     0</i>
   <i type="int" name="NTAUPAR">    -1</i>
   <i type="int" name="NOMEGAPAR">    -1</i>
   <i name="DAMP_NEWTON">      0.80000001</i>
   <i name="LAMBDA">      1.00000000</i>
  </separator>
  <separator name="External order field" >
   <i name="OFIELD_KAPPA">      0.00000000</i>
   <v name="OFIELD_K">      0.00000000      0.00000000      0.00000000</v>
   <i name="OFIELD_Q6_NEAR">      0.00000000</i>
   <i name="OFIELD_Q6_FAR">      0.00000000</i>
   <i name="OFIELD_A">      0.00000000</i>
  </separator>
 </parameters>
 <atominfo>
  <atoms>       2 </atoms>
  <types>       1 </types>
  <array name="atoms" >
   <dimension dim="1">ion</dimension>
   <field type="string">element</field>
   <field type="int">atomtype</field>
   <set>
    <rc><c>Si</c><c>   1</c></rc>
    <rc><c>Si</c><c>   1</c></rc>
   </set>
  </array>
  <array name="atomtypes" >
   <dimension dim="1">type</dimension>
   <field type="int">atomspertype</field>
   <field type="string">element</field>
   <field>mass</field>
   <field>valence</field>
   <field type="string">pseudopotential</field>
   <set>
    <rc><c>   2</c><c>Si</c><c>     28.08500000</c><c>      4.00000000</c><c>  PAW_PBE Si 05Jan2001                  </c></rc>
   </set>
  </array>
 </atominfo>
 <structure name="initialpos" >
  <crystal>
   <varray name="basis" >
    <v>       3.33139272       0.00000000       1.92338021 </v>
    <v>       1.11046424       3.14086843       1.92338021 </v>
    <v>       0.00000000       0.00000000       3.84676043 </v>
   </varray>
   <i name="volume">     40.25044779 </i>
   <varray name="rec_basis" >
    <v>       0.30017476      -0.10612776       0.00000000 </v>
    <v>       0.00000000       0.31838328       0.00000000 </v>
    <v>      -0.15008738      -0.10612776       0.25995900 </v>
   </varray>
  </crystal>
  <varray name="positions" >
   <v>       0.87500000       0.87500000       0.87500000 </v>
   <v>       0.12500000       0.12500000       0.12500000 </v>
  </varray>
 </structure>
 <calculation>
  <scstep>
   <time name="dav">    1.47    1.47</time>
   <time name="total">    1.68    1.69</time>
   <energy>
    <i name="alphaZ">      3.34536709 </i>
    <i name="ewald">   -228.13741635 </i>
    <i name="hartreedc">    -11.08525653 </i>
    <i name="XCdc">    -18.62384747 </i>
    <i name="pawpsdc">    176.24759923 </i>
    <i name="pawaedc">   -141.06103558 </i>
    <i name="eentropy">     -0.00126995 </i>
    <i name="bandstr">     14.94173893 </i>
    <i name="atom">    206.13125414 </i>
    <i name="e_fr_energy">      1.75713351 </i>
    <i name="e_wo_entrp">      1.75840346 </i>
    <i name="e_0_energy">      1.75776849 </i>
   </energy>
  </scstep>
  <scstep>
   <time name="dav">    2.13    2.15</time>
   <time name="total">    2.13    2.15</time>
   <energy>
    <i name="e_fr_energy">    -10.87663560 </i>
    <i name="e_wo_entrp">    -10.87663560 </i>
    <i name="e_0_energy">    -10.87663560 </i>
   </energy>
  </scstep>
  <scstep>
   <time name="dav">    1.80    1.82</time>
   <time name="total">    1.80    1.82</time>
   <energy>
    <i name="e_fr_energy">    -11.02138958 </i>
    <i name="e_wo_entrp">    -11.02138958 </i>
    <i name="e_0_energy">    -11.02138958 </i>
   </energy>
  </scstep>
  <scstep>
   <time name="dav">    2.18    2.20</time>
   <time name="total">    2.18    2.20</time>
   <energy>
    <i name="e_fr_energy">    -11.02192180 </i>
    <i name="e_wo_entrp">    -11.02192180 </i>
    <i name="e_0_energy">    -11.02192180 </i>
   </energy>
  </scstep>
  <scstep>
   <time name="dav">    1.84    1.86</time>
   <time name="total">    1.96    1.98</time>
   <energy>
    <i name="e_fr_energy">    -11.02192242 </i>
    <i name="e_wo_entrp">    -11.02192242 </i>
    <i name="e_0_energy">    -11.02192242 </i>
   </energy>
  </scstep>
  <scstep>
   <time name="dav">    1.68    1.68</time>
   <time name="total">    2.00    2.02</time>
   <energy>
    <i name="e_fr_energy">    -10.89958508 </i>
    <i name="e_wo_entrp">    -10.89958508 </i>
    <i name="e_0_energy">    -10.89958508 </i>
   </energy>
  </scstep>
  <scstep>
   <time name="dav">    1.83    1.83</time>
   <time name="total">    2.15    2.17</time>
   <energy>
    <i name="e_fr_energy">    -10.84374462 </i>
    <i name="e_wo_entrp">    -10.84374462 </i>
    <i name="e_0_energy">    -10.84374462 </i>
   </energy>
  </scstep>
  <scstep>
   <time name="dav">    1.61    1.61</time>
   <time name="total">    1.93    1.95</time>
   <energy>
    <i name="e_fr_energy">    -10.84479814 </i>
    <i name="e_wo_entrp">    -10.84479814 </i>
    <i name="e_0_energy">    -10.84479814 </i>
   </energy>
  </scstep>
  <scstep>
   <time name="dav">    2.06    2.06</time>
   <time name="total">    2.38    2.40</time>
   <energy>
    <i name="e_fr_energy">    -10.84499122 </i>
    <i name="e_wo_entrp">    -10.84499122 </i>
    <i name="e_0_energy">    -10.84499122 </i>
   </energy>
  </scstep>
  <scstep>
   <time name="dav">    1.67    1.67</time>
   <time name="total">    1.99    2.00</time>
   <energy>
    <i name="e_fr_energy">    -10.84501624 </i>
    <i name="e_wo_entrp">    -10.84501624 </i>
    <i name="e_0_energy">    -10.84501624 </i>
   </energy>
  </scstep>
  <scstep>
   <time name="dav">    1.96    1.96</time>
   <time name="total">    2.17    2.19</time>
   <energy>
    <i name="alphaZ">      3.34536709 </i>
    <i name="ewald">   -228.13741635 </i>
    <i name="hartreedc">    -14.98106549 </i>
    <i name="XCdc">    -17.98671320 </i>
    <i name="pawpsdc">    868.58982520 </i>
    <i name="pawaedc">   -833.62311798 </i>
    <i name="eentropy">     -0.00000000 </i>
    <i name="bandstr">      5.81685071 </i>
    <i name="atom">    206.13125414 </i>
    <i name="e_fr_energy">    -10.84501587 </i>
    <i name="e_wo_entrp">    -10.84501587 </i>
    <i name="e_0_energy">    -10.84501587 </i>
   </energy>
  </scstep>
  <structure>
   <crystal>
    <varray name="basis" >
     <v>       3.33139272       0.00000000       1.92338021 </v>
     <v>       1.11046424       3.14086843       1.92338021 </v>
     <v>       0.00000000       0.00000000       3.84676043 </v>
    </varray>
    <i name="volume">     40.25044779 </i>
    <varray name="rec_basis" >
     <v>       0.30017476      -0.10612776       0.00000000 </v>
     <v>       0.00000000       0.31838328       0.00000000 </v>
     <v>      -0.15008738      -0.10612776       0.25995900 </v>
    </varray>
   </crystal>
   <varray name="positions" >
    <v>       0.87500000       0.87500000       0.87500000 </v>
    <v>       0.12500000       0.12500000       0.12500000 </v>
   </varray>
  </structure>
  <varray name="forces" >
   <v>       0.00000000       0.00000000      -0.00000000 </v>
   <v>      -0.00000000      -0.00000000       0.00000000 </v>
  </varray>
  <varray name="stress" >
   <v>      13.99051719       0.00000000       0.00000000 </v>
   <v>      -0.00000000      13.99052828       0.00000000 </v>
   <v>       0.00000000       0.00000000      13.99051325 </v>
  </varray>
  <energy>
   <i name="e_fr_energy">    -10.84501587 </i>
   <i name="e_wo_entrp">    -10.84501587 </i>
   <i name="e_0_energy">    -10.84501587 </i>
  </energy>
  <time name="totalsc">   24.40   24.76</time>
  <eigenvalues>
   <array>
    <dimension dim="1">band</dimension>
    <dimension dim="2">kpoint</dimension>
    <dimension dim="3">spin</dimension>
    <field>eigene</field>
    <field>occ</field>
    <set>
     <set comment="spin 1">
      <set comment="kpoint 1">
       <r>   -6.1261    1.0000 </r>
       <r>    5.5174    1.0000 </r>
       <r>    5.7351    1.0000 </r>
       <r>    5.7351    1.0000 </r>
       <r>    8.3872    0.0000 </r>
       <r>    8.3944    0.0000 </r>
       <r>    8.3944    0.0000 </r>
       <r>    9.2540    0.0000 </r>
      </set>
      <set comment="kpoint 2">
       <r>   -6.0054    1.0000 </r>
       <r>    4.6315    1.0000 </r>
       <r>    5.3154    1.0000 </r>
       <r>    5.6830    1.0000 </r>
       <r>    8.4647    0.0000 </r>
       <r>    8.5119    0.0000 </r>
       <r>    8.7102    0.0000 </r>
       <r>   10.0760    0.0000 </r>
      </set>
      <set comment="kpoint 3">
       <r>   -5.7076    1.0000 </r>
       <r>    3.1289    1.0000 </r>
       <r>    4.9477    1.0000 </r>
       <r>    5.4149    1.0000 </r>
       <r>    8.2016    0.0000 </r>
       <r>    8.9002    0.0000 </r>
       <r>    9.2007    0.0000 </r>
       <r>   11.4009    0.0000 </r>
      </set>
      <set comment="kpoint 4">
       <r>   -5.2455    1.0000 </r>
       <r>    1.6161    1.0000 </r>
       <r>    4.6530    1.0000 </r>
       <r>    5.0999    1.0000 </r>
       <r>    7.8928    0.0000 </r>
       <r>    9.1851    0.0000 </r>
       <r>    9.4387    0.0000 </r>
       <r>   12.5169    0.0000 </r>
      </set>
      <set comment="kpoint 5">
       <r>   -4.6546    1.0000 </r>
       <r>    0.2545    1.0000 </r>
       <r>    4.4611    1.0000 </r>
       <r>    4.8279    1.0000 </r>
       <r>    7.6475    0.0000 </r>
       <r>    9.2189    0.0000 </r>
       <r>    9.3541    0.0000 </r>
       <r>   13.4073    0.0000 </r>
      </set>
      <set comment="kpoint 6">
       <r>   -4.0524    1.0000 </r>
       <r>   -0.7976    1.0000 </r>
       <r>    4.3806    1.0000 </r>
       <r>    4.6342    1.0000 </r>
       <r>    7.5012    0.0000 </r>
       <r>    9.1779    0.0000 </r>
       <r>    9.1810    0.0000 </r>
       <r>   13.6173    0.0000 </r>
      </set>
      <set comment="kpoint 7">
       <r>   -3.8214    1.0000 </r>
       <r>   -1.1421    1.0000 </r>
       <r>    4.4095    1.0000 </r>
       <r>    4.5342    1.0000 </r>
       <r>    7.4653    0.0000 </r>
       <r>    9.0791    0.0000 </r>
       <r>    9.2098    0.0000 </r>
       <r>   13.5841    0.0000 </r>
      </set>
      <set comment="kpoint 8">
       <r>   -4.2387    1.0000 </r>
       <r>   -0.4984    1.0000 </r>
       <r>    4.5372    1.0000 </r>
       <r>    4.5410    1.0000 </r>
       <r>    7.5416    0.0000 </r>
       <r>    9.0863    0.0000 </r>
       <r>    9.3435    0.0000 </r>
       <r>   13.5169    0.0000 </r>
      </set>
      <set comment="kpoint 9">
       <r>   -4.8615    1.0000 </r>
       <r>    0.6837    1.0000 </r>
       <r>    4.6487    1.0000 </r>
       <r>    4.7652    1.0000 </r>
       <r>    7.7244    0.0000 </r>
       <r>    9.1362    0.0000 </r>
       <r>    9.5062    0.0000 </r>
       <r>   12.7236    0.0000 </r>
      </set>
      <set comment="kpoint 10">
       <r>   -5.4163    1.0000 </r>
       <r>    2.1095    1.0000 </r>
       <r>    4.8671    1.0000 </r>
       <r>    5.0634    1.0000 </r>
       <r>    7.9940    0.0000 </r>
       <r>    9.0378    0.0000 </r>
       <r>    9.5055    0.0000 </r>
       <r>   11.9427    0.0000 </r>
      </set>
      <set comment="kpoint 11">
       <r>   -5.8260    1.0000 </r>
       <r>    3.6478    1.0000 </r>
       <r>    5.1740    1.0000 </r>
       <r>    5.3880    1.0000 </r>
       <r>    8.2754    0.0000 </r>
       <r>    8.7040    0.0000 </r>
       <r>    9.1756    0.0000 </r>
       <r>   10.9237    0.0000 </r>
      </set>
      <set comment="kpoint 12">
       <r>   -6.0656    1.0000 </r>
       <r>    5.0978    1.0000 </r>
       <r>    5.5107    1.0000 </r>
       <r>    5.6136    1.0000 </r>
       <r>    8.2565    0.0000 </r>
       <r>    8.5950    0.0000 </r>
       <r>    8.6914    0.0000 </r>
       <r>    9.6421    0.0000 </r>
      </set>
      <set comment="kpoint 13">
       <r>   -5.9450    1.0000 </r>
       <r>    4.5493    1.0000 </r>
       <r>    5.1656    1.0000 </r>
       <r>    5.2696    1.0000 </r>
       <r>    8.0172    0.0000 </r>
       <r>    9.0261    0.0000 </r>
       <r>    9.1797    0.0000 </r>
       <r>   10.1364    0.0000 </r>
      </set>
      <set comment="kpoint 14">
       <r>   -5.7058    1.0000 </r>
       <r>    3.5119    1.0000 </r>
       <r>    4.5774    1.0000 </r>
       <r>    5.1259    1.0000 </r>
       <r>    8.0305    0.0000 </r>
       <r>    9.2110    0.0000 </r>
       <r>    9.6826    0.0000 </r>
       <r>   10.7067    0.0000 </r>
      </set>
      <set comment="kpoint 15">
       <r>   -5.2968    1.0000 </r>
       <r>    2.0924    1.0000 </r>
       <r>    4.1970    1.0000 </r>
       <r>    4.8352    1.0000 </r>
       <r>    8.2290    0.0000 </r>
       <r>    9.1627    0.0000 </r>
       <r>   10.0600    0.0000 </r>
       <r>   10.8958    0.0000 </r>
      </set>
      <set comment="kpoint 16">
       <r>   -4.7428    1.0000 </r>
       <r>    0.7140    1.0000 </r>
       <r>    3.9381    1.0000 </r>
       <r>    4.5320    1.0000 </r>
       <r>    8.1786    0.0000 </r>
       <r>    9.1545    0.0000 </r>
       <r>   10.0572    0.0000 </r>
       <r>   11.4954    0.0000 </r>
      </set>
      <set comment="kpoint 17">
       <r>   -4.1197    1.0000 </r>
       <r>   -0.4472    1.0000 </r>
       <r>    3.7590    1.0000 </r>
       <r>    4.3393    1.0000 </r>
       <r>    8.0689    0.0000 </r>
       <r>    9.0611    0.0000 </r>
       <r>    9.8822    0.0000 </r>
       <r>   12.6274    0.0000 </r>
      </set>
      <set comment="kpoint 18">
       <r>   -3.7007    1.0000 </r>
       <r>   -1.0848    1.0000 </r>
       <r>    3.6356    1.0000 </r>
       <r>    4.3148    1.0000 </r>
       <r>    8.0341    0.0000 </r>
       <r>    9.0095    0.0000 </r>
       <r>    9.7430    0.0000 </r>
       <r>   13.7730    0.0000 </r>
      </set>
      <set comment="kpoint 19">
       <r>   -3.9342    1.0000 </r>
       <r>   -0.7404    1.0000 </r>
       <r>    3.5865    1.0000 </r>
       <r>    4.4499    1.0000 </r>
       <r>    8.0978    0.0000 </r>
       <r>    9.0515    0.0000 </r>
       <r>    9.7225    0.0000 </r>
       <r>   13.4619    0.0000 </r>
      </set>
      <set comment="kpoint 20">
       <r>   -4.5376    1.0000 </r>
       <r>    0.2976    1.0000 </r>
       <r>    3.6464    1.0000 </r>
       <r>    4.7052    1.0000 </r>
       <r>    8.2519    0.0000 </r>
       <r>    9.1388    0.0000 </r>
       <r>    9.8037    0.0000 </r>
       <r>   12.2905    0.0000 </r>
      </set>
      <set comment="kpoint 21">
       <r>   -5.1276    1.0000 </r>
       <r>    1.6183    1.0000 </r>
       <r>    3.8433    1.0000 </r>
       <r>    5.0317    1.0000 </r>
       <r>    8.4624    0.0000 </r>
       <r>    9.0937    0.0000 </r>
       <r>    9.8297    0.0000 </r>
       <r>   11.4466    0.0000 </r>
      </set>
      <set comment="kpoint 22">
       <r>   -5.5885    1.0000 </r>
       <r>    3.0110    1.0000 </r>
       <r>    4.2249    1.0000 </r>
       <r>    5.3481    1.0000 </r>
       <r>    8.5215    0.0000 </r>
       <r>    8.9156    0.0000 </r>
       <r>    9.5059    0.0000 </r>
       <r>   11.1193    0.0000 </r>
      </set>
      <set comment="kpoint 23">
       <r>   -5.8853    1.0000 </r>
       <r>    4.0871    1.0000 </r>
       <r>    4.9673    1.0000 </r>
       <r>    5.5020    1.0000 </r>
       <r>    8.3028    0.0000 </r>
       <r>    8.7675    0.0000 </r>
       <r>    9.1007    0.0000 </r>
       <r>   10.5795    0.0000 </r>
      </set>
      <set comment="kpoint 24">
       <r>   -5.5252    1.0000 </r>
       <r>    3.2566    1.0000 </r>
       <r>    4.4102    1.0000 </r>
       <r>    4.4248    1.0000 </r>
       <r>    7.4202    0.0000 </r>
       <r>    9.8185    0.0000 </r>
       <r>   10.3932    0.0000 </r>
       <r>   10.4253    0.0000 </r>
      </set>
      <set comment="kpoint 25">
       <r>   -5.1719    1.0000 </r>
       <r>    2.2964    1.0000 </r>
       <r>    3.8263    1.0000 </r>
       <r>    4.2444    1.0000 </r>
       <r>    7.4545    0.0000 </r>
       <r>    9.4507    0.0000 </r>
       <r>   10.5985    0.0000 </r>
       <r>   11.0316    0.0000 </r>
      </set>
      <set comment="kpoint 26">
       <r>   -4.6629    1.0000 </r>
       <r>    1.0915    1.0000 </r>
       <r>    3.3733    1.0000 </r>
       <r>    3.9801    1.0000 </r>
       <r>    7.7136    0.0000 </r>
       <r>    9.6705    0.0000 </r>
       <r>   10.3988    0.0000 </r>
       <r>   11.2306    0.0000 </r>
      </set>
      <set comment="kpoint 27">
       <r>   -4.0474    1.0000 </r>
       <r>   -0.0608    1.0000 </r>
       <r>    2.9811    1.0000 </r>
       <r>    3.8421    1.0000 </r>
       <r>    7.7836    0.0000 </r>
       <r>   10.1314    0.0000 </r>
       <r>   10.6661    0.0000 </r>
       <r>   11.0987    0.0000 </r>
      </set>
      <set comment="kpoint 28">
       <r>   -3.5043    1.0000 </r>
       <r>   -0.8845    1.0000 </r>
       <r>    2.6716    1.0000 </r>
       <r>    3.8784    1.0000 </r>
       <r>    7.8596    0.0000 </r>
       <r>    9.9066    0.0000 </r>
       <r>   10.9079    0.0000 </r>
       <r>   12.0931    0.0000 </r>
      </set>
      <set comment="kpoint 29">
       <r>   -3.5149    1.0000 </r>
       <r>   -0.8659    1.0000 </r>
       <r>    2.4899    1.0000 </r>
       <r>    4.0683    1.0000 </r>
       <r>    8.0561    0.0000 </r>
       <r>    9.7617    0.0000 </r>
       <r>   10.7776    0.0000 </r>
       <r>   13.4234    0.0000 </r>
      </set>
      <set comment="kpoint 30">
       <r>   -4.0642    1.0000 </r>
       <r>   -0.0294    1.0000 </r>
       <r>    2.4799    1.0000 </r>
       <r>    4.3788    1.0000 </r>
       <r>    8.3696    0.0000 </r>
       <r>    9.6769    0.0000 </r>
       <r>   10.6979    0.0000 </r>
       <r>   12.0681    0.0000 </r>
      </set>
      <set comment="kpoint 31">
       <r>   -4.6768    1.0000 </r>
       <r>    1.0663    1.0000 </r>
       <r>    2.7269    1.0000 </r>
       <r>    4.7569    1.0000 </r>
       <r>    8.7289    0.0000 </r>
       <r>    9.4545    0.0000 </r>
       <r>   10.5193    0.0000 </r>
       <r>   11.1467    0.0000 </r>
      </set>
      <set comment="kpoint 32">
       <r>   -5.1817    1.0000 </r>
       <r>    1.9912    1.0000 </r>
       <r>    3.4502    1.0000 </r>
       <r>    5.0980    1.0000 </r>
       <r>    8.8198    0.0000 </r>
       <r>    9.0304    0.0000 </r>
       <r>    9.9676    0.0000 </r>
       <r>   11.0726    0.0000 </r>
      </set>
      <set comment="kpoint 33">
       <r>   -5.5309    1.0000 </r>
       <r>    2.6053    1.0000 </r>
       <r>    4.5864    1.0000 </r>
       <r>    5.2230    1.0000 </r>
       <r>    8.2954    0.0000 </r>
       <r>    8.8988    0.0000 </r>
       <r>    9.5616    0.0000 </r>
       <r>   11.4267    0.0000 </r>
      </set>
      <set comment="kpoint 34">
       <r>   -4.8739    1.0000 </r>
       <r>    1.8362    1.0000 </r>
       <r>    3.7034    1.0000 </r>
       <r>    3.7565    1.0000 </r>
       <r>    6.8822    0.0000 </r>
       <r>    8.6583    0.0000 </r>
       <r>   11.7558    0.0000 </r>
       <r>   11.8268    0.0000 </r>
      </set>
      <set comment="kpoint 35">
       <r>   -4.4143    1.0000 </r>
       <r>    0.9918    1.0000 </r>
       <r>    3.2110    1.0000 </r>
       <r>    3.5282    1.0000 </r>
       <r>    6.9972    0.0000 </r>
       <r>    8.3432    0.0000 </r>
       <r>   11.9016    0.0000 </r>
       <r>   12.5064    0.0000 </r>
      </set>
      <set comment="kpoint 36">
       <r>   -3.8249    1.0000 </r>
       <r>    0.0550    1.0000 </r>
       <r>    2.5791    1.0000 </r>
       <r>    3.3993    1.0000 </r>
       <r>    7.2343    0.0000 </r>
       <r>    8.8774    0.0000 </r>
       <r>   11.6819    0.0000 </r>
       <r>   12.5901    0.0000 </r>
      </set>
      <set comment="kpoint 37">
       <r>   -3.2173    1.0000 </r>
       <r>   -0.7662    1.0000 </r>
       <r>    2.0321    1.0000 </r>
       <r>    3.4392    1.0000 </r>
       <r>    7.3483    0.0000 </r>
       <r>   10.1295    0.0000 </r>
       <r>   11.4194    0.0000 </r>
       <r>   12.4243    0.0000 </r>
      </set>
      <set comment="kpoint 38">
       <r>   -3.0130    1.0000 </r>
       <r>   -1.0073    1.0000 </r>
       <r>    1.6937    1.0000 </r>
       <r>    3.6334    1.0000 </r>
       <r>    7.5657    0.0000 </r>
       <r>   11.0637    0.0000 </r>
       <r>   11.7918    0.0000 </r>
       <r>   12.2753    0.0000 </r>
      </set>
      <set comment="kpoint 39">
       <r>   -3.4783    1.0000 </r>
       <r>   -0.4360    1.0000 </r>
       <r>    1.6576    1.0000 </r>
       <r>    3.9568    1.0000 </r>
       <r>    7.9248    0.0000 </r>
       <r>   10.8313    0.0000 </r>
       <r>   11.8998    0.0000 </r>
       <r>   12.1050    0.0000 </r>
      </set>
      <set comment="kpoint 40">
       <r>   -4.0955    1.0000 </r>
       <r>    0.2536    1.0000 </r>
       <r>    2.1114    1.0000 </r>
       <r>    4.3609    1.0000 </r>
       <r>    8.3660    0.0000 </r>
       <r>   10.0828    0.0000 </r>
       <r>   11.1694    0.0000 </r>
       <r>   11.5089    0.0000 </r>
      </set>
      <set comment="kpoint 41">
       <r>   -4.6297    1.0000 </r>
       <r>    0.7307    1.0000 </r>
       <r>    3.1179    1.0000 </r>
       <r>    4.7412    1.0000 </r>
       <r>    8.5846    0.0000 </r>
       <r>    9.2650    0.0000 </r>
       <r>   10.1665    0.0000 </r>
       <r>   11.6304    0.0000 </r>
      </set>
      <set comment="kpoint 42">
       <r>   -5.0202    1.0000 </r>
       <r>    1.1485    1.0000 </r>
       <r>    4.3198    1.0000 </r>
       <r>    4.9037    1.0000 </r>
       <r>    8.0505    0.0000 </r>
       <r>    9.0979    0.0000 </r>
       <r>    9.6735    0.0000 </r>
       <r>   12.0279    0.0000 </r>
      </set>
      <set comment="kpoint 43">
       <r>   -4.0035    1.0000 </r>
       <r>    0.3857    1.0000 </r>
       <r>    3.1907    1.0000 </r>
       <r>    3.2812    1.0000 </r>
       <r>    6.5348    0.0000 </r>
       <r>    7.6084    0.0000 </r>
       <r>   13.2753    0.0000 </r>
       <r>   13.3023    0.0000 </r>
      </set>
      <set comment="kpoint 44">
       <r>   -3.4506    1.0000 </r>
       <r>   -0.3612    1.0000 </r>
       <r>    2.7910    1.0000 </r>
       <r>    3.0812    1.0000 </r>
       <r>    6.7448    0.0000 </r>
       <r>    7.5138    0.0000 </r>
       <r>   13.3170    0.0000 </r>
       <r>   14.0542    0.0000 </r>
      </set>
      <set comment="kpoint 45">
       <r>   -2.8218    1.0000 </r>
       <r>   -1.0650    1.0000 </r>
       <r>    2.0791    1.0000 </r>
       <r>    3.0976    1.0000 </r>
       <r>    6.9363    0.0000 </r>
       <r>    8.4318    0.0000 </r>
       <r>   13.0596    0.0000 </r>
       <r>   14.0736    0.0000 </r>
      </set>
      <set comment="kpoint 46">
       <r>   -2.4763    1.0000 </r>
       <r>   -1.3926    1.0000 </r>
       <r>    1.5342    1.0000 </r>
       <r>    3.2721    1.0000 </r>
       <r>    7.1429    0.0000 </r>
       <r>    9.9198    0.0000 </r>
       <r>   12.7274    0.0000 </r>
       <r>   13.5804    0.0000 </r>
      </set>
      <set comment="kpoint 47">
       <r>   -2.9000    1.0000 </r>
       <r>   -0.9912    1.0000 </r>
       <r>    1.4363    1.0000 </r>
       <r>    3.5843    1.0000 </r>
       <r>    7.5010    0.0000 </r>
       <r>   11.4495    0.0000 </r>
       <r>   11.9499    0.0000 </r>
       <r>   12.7105    0.0000 </r>
      </set>
      <set comment="kpoint 48">
       <r>   -3.4866    1.0000 </r>
       <r>   -0.6286    1.0000 </r>
       <r>    1.9829    1.0000 </r>
       <r>    3.9945    1.0000 </r>
       <r>    7.9733    0.0000 </r>
       <r>   10.3198    0.0000 </r>
       <r>   11.3889    0.0000 </r>
       <r>   12.6890    0.0000 </r>
      </set>
      <set comment="kpoint 49">
       <r>   -4.0067    1.0000 </r>
       <r>   -0.3985    1.0000 </r>
       <r>    3.0145    1.0000 </r>
       <r>    4.4108    1.0000 </r>
       <r>    8.3212    0.0000 </r>
       <r>    9.2634    0.0000 </r>
       <r>   10.1738    0.0000 </r>
       <r>   12.7774    0.0000 </r>
      </set>
      <set comment="kpoint 50">
       <r>   -4.4046    1.0000 </r>
       <r>   -0.1254    1.0000 </r>
       <r>    4.1634    1.0000 </r>
       <r>    4.6409    1.0000 </r>
       <r>    7.8471    0.0000 </r>
       <r>    9.0855    0.0000 </r>
       <r>    9.5330    0.0000 </r>
       <r>   13.0020    0.0000 </r>
      </set>
      <set comment="kpoint 51">
       <r>   -2.9340    1.0000 </r>
       <r>   -1.0243    1.0000 </r>
       <r>    2.9029    1.0000 </r>
       <r>    3.0112    1.0000 </r>
       <r>    6.4398    0.0000 </r>
       <r>    6.8987    0.0000 </r>
       <r>   14.8217    0.0000 </r>
       <r>   14.8428    0.0000 </r>
      </set>
      <set comment="kpoint 52">
       <r>   -2.3102    1.0000 </r>
       <r>   -1.6812    1.0000 </r>
       <r>    2.6051    1.0000 </r>
       <r>    2.8944    1.0000 </r>
       <r>    6.7000    0.0000 </r>
       <r>    7.0868    0.0000 </r>
       <r>   14.7888    0.0000 </r>
       <r>   15.3564    0.0000 </r>
      </set>
      <set comment="kpoint 53">
       <r>   -2.3020    1.0000 </r>
       <r>   -1.6115    1.0000 </r>
       <r>    1.9779    1.0000 </r>
       <r>    3.0384    1.0000 </r>
       <r>    6.8741    0.0000 </r>
       <r>    8.3443    0.0000 </r>
       <r>   13.7590    0.0000 </r>
       <r>   14.5056    0.0000 </r>
      </set>
      <set comment="kpoint 54">
       <r>   -2.7998    1.0000 </r>
       <r>   -1.1117    1.0000 </r>
       <r>    1.7063    1.0000 </r>
       <r>    3.3276    1.0000 </r>
       <r>    7.2122    0.0000 </r>
       <r>    9.9897    0.0000 </r>
       <r>   12.0796    0.0000 </r>
       <r>   13.1412    0.0000 </r>
      </set>
      <set comment="kpoint 55">
       <r>   -3.2250    1.0000 </r>
       <r>   -0.9842    1.0000 </r>
       <r>    2.1332    1.0000 </r>
       <r>    3.7313    1.0000 </r>
       <r>    7.6900    0.0000 </r>
       <r>   10.4847    0.0000 </r>
       <r>   11.5225    0.0000 </r>
       <r>   11.9507    0.0000 </r>
      </set>
      <set comment="kpoint 56">
       <r>   -3.5820    1.0000 </r>
       <r>   -1.0360    1.0000 </r>
       <r>    3.0671    1.0000 </r>
       <r>    4.1756    1.0000 </r>
       <r>    8.1232    0.0000 </r>
       <r>    9.2763    0.0000 </r>
       <r>   10.2126    0.0000 </r>
       <r>   13.7826    0.0000 </r>
      </set>
      <set comment="kpoint 57">
       <r>   -3.8649    1.0000 </r>
       <r>   -1.0006    1.0000 </r>
       <r>    4.1004    1.0000 </r>
       <r>    4.4884    1.0000 </r>
       <r>    7.7391    0.0000 </r>
       <r>    9.0353    0.0000 </r>
       <r>    9.3952    0.0000 </r>
       <r>   13.6891    0.0000 </r>
      </set>
      <set comment="kpoint 58">
       <r>   -2.3334    1.0000 </r>
       <r>   -1.6945    1.0000 </r>
       <r>    2.8451    1.0000 </r>
       <r>    2.9568    1.0000 </r>
       <r>    6.4888    0.0000 </r>
       <r>    6.6876    0.0000 </r>
       <r>   15.5211    0.0000 </r>
       <r>   15.5749    0.0000 </r>
      </set>
      <set comment="kpoint 59">
       <r>   -2.8999    1.0000 </r>
       <r>   -1.0308    1.0000 </r>
       <r>    2.6674    1.0000 </r>
       <r>    2.9563    1.0000 </r>
       <r>    6.7024    0.0000 </r>
       <r>    7.2419    0.0000 </r>
       <r>   14.0518    0.0000 </r>
       <r>   14.8300    0.0000 </r>
      </set>
      <set comment="kpoint 60">
       <r>   -3.3400    1.0000 </r>
       <r>   -0.4973    1.0000 </r>
       <r>    2.2813    1.0000 </r>
       <r>    3.2171    1.0000 </r>
       <r>    7.0581    0.0000 </r>
       <r>    8.6088    0.0000 </r>
       <r>   12.3603    0.0000 </r>
       <r>   13.3271    0.0000 </r>
      </set>
      <set comment="kpoint 61">
       <r>   -3.6429    1.0000 </r>
       <r>   -0.4163    1.0000 </r>
       <r>    2.4743    1.0000 </r>
       <r>    3.6089    1.0000 </r>
       <r>    7.5438    0.0000 </r>
       <r>   10.3306    0.0000 </r>
       <r>   10.7937    0.0000 </r>
       <r>   11.7317    0.0000 </r>
      </set>
      <set comment="kpoint 62">
       <r>   -3.8127    1.0000 </r>
       <r>   -0.7031    1.0000 </r>
       <r>    3.2385    1.0000 </r>
       <r>    4.0781    1.0000 </r>
       <r>    8.0314    0.0000 </r>
       <r>    9.3864    0.0000 </r>
       <r>   10.3461    0.0000 </r>
       <r>   12.3253    0.0000 </r>
      </set>
      <set comment="kpoint 63">
       <r>   -3.4921    1.0000 </r>
       <r>   -0.3283    1.0000 </r>
       <r>    3.0182    1.0000 </r>
       <r>    3.1197    1.0000 </r>
       <r>    6.4535    0.0000 </r>
       <r>    7.2086    0.0000 </r>
       <r>   14.0568    0.0000 </r>
       <r>   14.0598    0.0000 </r>
      </set>
      <set comment="kpoint 64">
       <r>   -3.9567    1.0000 </r>
       <r>    0.3165    1.0000 </r>
       <r>    2.9736    1.0000 </r>
       <r>    3.2710    1.0000 </r>
       <r>    6.8428    0.0000 </r>
       <r>    7.8836    0.0000 </r>
       <r>   12.6001    0.0000 </r>
       <r>   13.2740    0.0000 </r>
      </set>
      <set comment="kpoint 65">
       <r>   -4.2676    1.0000 </r>
       <r>    0.5835    1.0000 </r>
       <r>    2.9549    1.0000 </r>
       <r>    3.6503    1.0000 </r>
       <r>    7.4567    0.0000 </r>
       <r>    9.2377    0.0000 </r>
       <r>   11.0230    0.0000 </r>
       <r>   11.8874    0.0000 </r>
      </set>
      <set comment="kpoint 66">
       <r>   -4.4168    1.0000 </r>
       <r>    0.3127    1.0000 </r>
       <r>    3.4889    1.0000 </r>
       <r>    4.1506    1.0000 </r>
       <r>    8.0318    0.0000 </r>
       <r>    9.5710    0.0000 </r>
       <r>   10.5279    0.0000 </r>
       <r>   11.0410    0.0000 </r>
      </set>
      <set comment="kpoint 67">
       <r>   -4.4651    1.0000 </r>
       <r>    1.1100    1.0000 </r>
       <r>    3.4195    1.0000 </r>
       <r>    3.4944    1.0000 </r>
       <r>    6.6798    0.0000 </r>
       <r>    8.0946    0.0000 </r>
       <r>   12.5064    0.0000 </r>
       <r>   12.5570    0.0000 </r>
      </set>
      <set comment="kpoint 68">
       <r>   -4.8201    1.0000 </r>
       <r>    1.6543    1.0000 </r>
       <r>    3.4974    1.0000 </r>
       <r>    3.8543    1.0000 </r>
       <r>    7.2038    0.0000 </r>
       <r>    8.8805    0.0000 </r>
       <r>   11.2248    0.0000 </r>
       <r>   11.7573    0.0000 </r>
      </set>
      <set comment="kpoint 69">
       <r>   -5.0068    1.0000 </r>
       <r>    1.5904    1.0000 </r>
       <r>    3.7931    1.0000 </r>
       <r>    4.3890    1.0000 </r>
       <r>    7.9858    0.0000 </r>
       <r>    9.6707    0.0000 </r>
       <r>   10.3117    0.0000 </r>
       <r>   10.6319    0.0000 </r>
      </set>
      <set comment="kpoint 70">
       <r>   -5.2278    1.0000 </r>
       <r>    2.5552    1.0000 </r>
       <r>    4.0401    1.0000 </r>
       <r>    4.0639    1.0000 </r>
       <r>    7.1332    0.0000 </r>
       <r>    9.2717    0.0000 </r>
       <r>   11.0321    0.0000 </r>
       <r>   11.1141    0.0000 </r>
      </set>
      <set comment="kpoint 71">
       <r>   -5.4676    1.0000 </r>
       <r>    2.9152    1.0000 </r>
       <r>    4.1900    1.0000 </r>
       <r>    4.6812    1.0000 </r>
       <r>    7.7366    0.0000 </r>
       <r>    9.6732    0.0000 </r>
       <r>   10.3336    0.0000 </r>
       <r>   10.3663    0.0000 </r>
      </set>
      <set comment="kpoint 72">
       <r>   -5.7646    1.0000 </r>
       <r>    3.9270    1.0000 </r>
       <r>    4.7844    1.0000 </r>
       <r>    4.8457    1.0000 </r>
       <r>    7.7244    0.0000 </r>
       <r>    9.5800    0.0000 </r>
       <r>    9.7727    0.0000 </r>
       <r>   10.3516    0.0000 </r>
      </set>
      <set comment="kpoint 73">
       <r>   -5.9455    1.0000 </r>
       <r>    4.1785    1.0000 </r>
       <r>    5.4867    1.0000 </r>
       <r>    5.4867    1.0000 </r>
       <r>    8.2645    0.0000 </r>
       <r>    8.7604    0.0000 </r>
       <r>    8.7604    0.0000 </r>
       <r>   10.4437    0.0000 </r>
      </set>
      <set comment="kpoint 74">
       <r>   -5.7663    1.0000 </r>
       <r>    3.5555    1.0000 </r>
       <r>    4.6165    1.0000 </r>
       <r>    5.5611    1.0000 </r>
       <r>    8.6124    0.0000 </r>
       <r>    8.7468    0.0000 </r>
       <r>    9.0299    0.0000 </r>
       <r>   11.0641    0.0000 </r>
      </set>
      <set comment="kpoint 75">
       <r>   -5.4134    1.0000 </r>
       <r>    2.4985    1.0000 </r>
       <r>    3.8337    1.0000 </r>
       <r>    5.3474    1.0000 </r>
       <r>    8.7436    0.0000 </r>
       <r>    9.1004    0.0000 </r>
       <r>    9.3897    0.0000 </r>
       <r>   11.4542    0.0000 </r>
      </set>
      <set comment="kpoint 76">
       <r>   -4.9044    1.0000 </r>
       <r>    1.1613    1.0000 </r>
       <r>    3.4757    1.0000 </r>
       <r>    5.0036    1.0000 </r>
       <r>    8.4799    0.0000 </r>
       <r>    9.4501    0.0000 </r>
       <r>    9.6268    0.0000 </r>
       <r>   12.0537    0.0000 </r>
      </set>
      <set comment="kpoint 77">
       <r>   -4.2895    1.0000 </r>
       <r>   -0.0764    1.0000 </r>
       <r>    3.3339    1.0000 </r>
       <r>    4.6622    1.0000 </r>
       <r>    8.2274    0.0000 </r>
       <r>    9.4836    0.0000 </r>
       <r>    9.5977    0.0000 </r>
       <r>   13.1297    0.0000 </r>
      </set>
      <set comment="kpoint 78">
       <r>   -3.7468    1.0000 </r>
       <r>   -0.9441    1.0000 </r>
       <r>    3.3506    1.0000 </r>
       <r>    4.3899    1.0000 </r>
       <r>    8.0448    0.0000 </r>
       <r>    9.3281    0.0000 </r>
       <r>    9.7004    0.0000 </r>
       <r>   14.0109    0.0000 </r>
      </set>
      <set comment="kpoint 79">
       <r>   -3.7439    1.0000 </r>
       <r>   -0.9496    1.0000 </r>
       <r>    3.5040    1.0000 </r>
       <r>    4.2204    1.0000 </r>
       <r>    7.9628    0.0000 </r>
       <r>    9.2843    0.0000 </r>
       <r>    9.8753    0.0000 </r>
       <r>   13.1306    0.0000 </r>
      </set>
      <set comment="kpoint 80">
       <r>   -4.2847    1.0000 </r>
       <r>   -0.0874    1.0000 </r>
       <r>    3.7753    1.0000 </r>
       <r>    4.1721    1.0000 </r>
       <r>    7.9852    0.0000 </r>
       <r>    9.3521    0.0000 </r>
       <r>   10.1184    0.0000 </r>
       <r>   11.7995    0.0000 </r>
      </set>
      <set comment="kpoint 81">
       <r>   -4.9003    1.0000 </r>
       <r>    1.1568    1.0000 </r>
       <r>    4.1376    1.0000 </r>
       <r>    4.2537    1.0000 </r>
       <r>    8.0406    0.0000 </r>
       <r>    9.4460    0.0000 </r>
       <r>   10.3155    0.0000 </r>
       <r>   10.8151    0.0000 </r>
      </set>
      <set comment="kpoint 82">
       <r>   -5.4105    1.0000 </r>
       <r>    2.5561    1.0000 </r>
       <r>    4.4637    1.0000 </r>
       <r>    4.5367    1.0000 </r>
       <r>    7.9233    0.0000 </r>
       <r>    9.4646    0.0000 </r>
       <r>   10.2342    0.0000 </r>
       <r>   10.5246    0.0000 </r>
      </set>
      <set comment="kpoint 83">
       <r>   -5.6473    1.0000 </r>
       <r>    3.1034    1.0000 </r>
       <r>    4.8188    1.0000 </r>
       <r>    5.0247    1.0000 </r>
       <r>    8.1816    0.0000 </r>
       <r>    8.9502    0.0000 </r>
       <r>    9.6813    0.0000 </r>
       <r>   10.9855    0.0000 </r>
      </set>
      <set comment="kpoint 84">
       <r>   -5.3528    1.0000 </r>
       <r>    2.4643    1.0000 </r>
       <r>    3.8387    1.0000 </r>
       <r>    4.9524    1.0000 </r>
       <r>    8.2645    0.0000 </r>
       <r>    9.2995    0.0000 </r>
       <r>   10.1728    0.0000 </r>
       <r>   10.6177    0.0000 </r>
      </set>
      <set comment="kpoint 85">
       <r>   -4.8949    1.0000 </r>
       <r>    1.4923    1.0000 </r>
       <r>    3.0976    1.0000 </r>
       <r>    4.6783    1.0000 </r>
       <r>    8.6680    0.0000 </r>
       <r>    9.2497    0.0000 </r>
       <r>   10.4616    0.0000 </r>
       <r>   10.7405    0.0000 </r>
      </set>
      <set comment="kpoint 86">
       <r>   -4.3072    1.0000 </r>
       <r>    0.3277    1.0000 </r>
       <r>    2.7816    1.0000 </r>
       <r>    4.3249    1.0000 </r>
       <r>    8.7646    0.0000 </r>
       <r>    9.0801    0.0000 </r>
       <r>   10.8506    0.0000 </r>
       <r>   11.2198    0.0000 </r>
      </set>
      <set comment="kpoint 87">
       <r>   -3.7013    1.0000 </r>
       <r>   -0.6613    1.0000 </r>
       <r>    2.6897    1.0000 </r>
       <r>    4.0387    1.0000 </r>
       <r>    8.5742    0.0000 </r>
       <r>    9.0231    0.0000 </r>
       <r>   10.8966    0.0000 </r>
       <r>   12.4600    0.0000 </r>
      </set>
      <set comment="kpoint 88">
       <r>   -3.4618    1.0000 </r>
       <r>   -1.0029    1.0000 </r>
       <r>    2.7324    1.0000 </r>
       <r>    3.8986    1.0000 </r>
       <r>    8.3768    0.0000 </r>
       <r>    9.1313    0.0000 </r>
       <r>   10.9217    0.0000 </r>
       <r>   13.0158    0.0000 </r>
      </set>
      <set comment="kpoint 89">
       <r>   -3.8847    1.0000 </r>
       <r>   -0.3846    1.0000 </r>
       <r>    2.8663    1.0000 </r>
       <r>    3.9475    1.0000 </r>
       <r>    8.2757    0.0000 </r>
       <r>    9.3634    0.0000 </r>
       <r>   10.9986    0.0000 </r>
       <r>   11.5344    0.0000 </r>
      </set>
      <set comment="kpoint 90">
       <r>   -4.5084    1.0000 </r>
       <r>    0.7088    1.0000 </r>
       <r>    3.0917    1.0000 </r>
       <r>    4.1739    1.0000 </r>
       <r>    8.2218    0.0000 </r>
       <r>    9.6546    0.0000 </r>
       <r>   10.3546    0.0000 </r>
       <r>   11.0942    0.0000 </r>
      </set>
      <set comment="kpoint 91">
       <r>   -5.0605    1.0000 </r>
       <r>    1.9141    1.0000 </r>
       <r>    3.4801    1.0000 </r>
       <r>    4.4848    1.0000 </r>
       <r>    7.9973    0.0000 </r>
       <r>    9.6660    0.0000 </r>
       <r>   10.1331    0.0000 </r>
       <r>   10.9013    0.0000 </r>
      </set>
      <set comment="kpoint 92">
       <r>   -5.1166    1.0000 </r>
       <r>    2.0025    1.0000 </r>
       <r>    4.0230    1.0000 </r>
       <r>    4.1311    1.0000 </r>
       <r>    7.6396    0.0000 </r>
       <r>    9.6516    0.0000 </r>
       <r>   10.3875    0.0000 </r>
       <r>   10.8136    0.0000 </r>
      </set>
      <set comment="kpoint 93">
       <r>   -4.7134    1.0000 </r>
       <r>    1.3540    1.0000 </r>
       <r>    3.1609    1.0000 </r>
       <r>    4.0174    1.0000 </r>
       <r>    7.7525    0.0000 </r>
       <r>    9.3034    0.0000 </r>
       <r>   10.4737    0.0000 </r>
       <r>   11.6595    0.0000 </r>
      </set>
      <set comment="kpoint 94">
       <r>   -4.1654    1.0000 </r>
       <r>    0.4987    1.0000 </r>
       <r>    2.5312    1.0000 </r>
       <r>    3.6928    1.0000 </r>
       <r>    8.2425    0.0000 </r>
       <r>    9.4434    0.0000 </r>
       <r>   10.1692    0.0000 </r>
       <r>   12.3491    0.0000 </r>
      </set>
      <set comment="kpoint 95">
       <r>   -3.5416    1.0000 </r>
       <r>   -0.4179    1.0000 </r>
       <r>    2.1867    1.0000 </r>
       <r>    3.4179    1.0000 </r>
       <r>    8.4488    0.0000 </r>
       <r>    9.7598    0.0000 </r>
       <r>   10.5291    0.0000 </r>
       <r>   12.5009    0.0000 </r>
      </set>
      <set comment="kpoint 96">
       <r>   -3.1109    1.0000 </r>
       <r>   -0.9839    1.0000 </r>
       <r>    2.0139    1.0000 </r>
       <r>    3.3426    1.0000 </r>
       <r>    8.6220    0.0000 </r>
       <r>    9.4693    0.0000 </r>
       <r>   12.0108    0.0000 </r>
       <r>   12.4710    0.0000 </r>
      </set>
      <set comment="kpoint 97">
       <r>   -3.3633    1.0000 </r>
       <r>   -0.6566    1.0000 </r>
       <r>    1.9881    1.0000 </r>
       <r>    3.4910    1.0000 </r>
       <r>    8.9095    0.0000 </r>
       <r>    9.2631    0.0000 </r>
       <r>   11.4295    0.0000 </r>
       <r>   12.4275    0.0000 </r>
      </set>
      <set comment="kpoint 98">
       <r>   -3.9730    1.0000 </r>
       <r>    0.1887    1.0000 </r>
       <r>    2.1900    1.0000 </r>
       <r>    3.8104    1.0000 </r>
       <r>    9.0412    0.0000 </r>
       <r>    9.2998    0.0000 </r>
       <r>   10.2244    0.0000 </r>
       <r>   12.2344    0.0000 </r>
      </set>
      <set comment="kpoint 99">
       <r>   -4.5551    1.0000 </r>
       <r>    0.9974    1.0000 </r>
       <r>    2.7888    1.0000 </r>
       <r>    4.1859    1.0000 </r>
       <r>    8.4434    0.0000 </r>
       <r>    9.6636    0.0000 </r>
       <r>    9.9257    0.0000 </r>
       <r>   11.5263    0.0000 </r>
      </set>
      <set comment="kpoint 100">
       <r>   -4.3650    1.0000 </r>
       <r>    0.8414    1.0000 </r>
       <r>    3.1188    1.0000 </r>
       <r>    3.5788    1.0000 </r>
       <r>    7.1318    0.0000 </r>
       <r>    8.6729    0.0000 </r>
       <r>   11.7521    0.0000 </r>
       <r>   12.0304    0.0000 </r>
      </set>
      <set comment="kpoint 101">
       <r>   -3.8645    1.0000 </r>
       <r>    0.1806    1.0000 </r>
       <r>    2.6652    1.0000 </r>
       <r>    3.2420    1.0000 </r>
       <r>    7.3827    0.0000 </r>
       <r>    8.3865    0.0000 </r>
       <r>   11.6828    0.0000 </r>
       <r>   13.2396    0.0000 </r>
      </set>
      <set comment="kpoint 102">
       <r>   -3.2533    1.0000 </r>
       <r>   -0.5422    1.0000 </r>
       <r>    2.1878    1.0000 </r>
       <r>    2.8837    1.0000 </r>
       <r>    7.9594    0.0000 </r>
       <r>    8.7572    0.0000 </r>
       <r>   11.3343    0.0000 </r>
       <r>   14.0287    0.0000 </r>
      </set>
      <set comment="kpoint 103">
       <r>   -2.6983    1.0000 </r>
       <r>   -1.1422    1.0000 </r>
       <r>    1.7386    1.0000 </r>
       <r>    2.8327    1.0000 </r>
       <r>    8.1660    0.0000 </r>
       <r>   10.0538    0.0000 </r>
       <r>   11.0377    0.0000 </r>
       <r>   13.1952    0.0000 </r>
      </set>
      <set comment="kpoint 104">
       <r>   -2.7749    1.0000 </r>
       <r>   -1.0538    1.0000 </r>
       <r>    1.5288    1.0000 </r>
       <r>    3.0352    1.0000 </r>
       <r>    8.4515    0.0000 </r>
       <r>   10.5789    0.0000 </r>
       <r>   11.4865    0.0000 </r>
       <r>   11.9652    0.0000 </r>
      </set>
      <set comment="kpoint 105">
       <r>   -3.3544    1.0000 </r>
       <r>   -0.4993    1.0000 </r>
       <r>    1.7453    1.0000 </r>
       <r>    3.4107    1.0000 </r>
       <r>    8.8617    0.0000 </r>
       <r>    9.7697    0.0000 </r>
       <r>   10.7871    0.0000 </r>
       <r>   13.0198    0.0000 </r>
      </set>
      <set comment="kpoint 106">
       <r>   -3.9419    1.0000 </r>
       <r>   -0.0521    1.0000 </r>
       <r>    2.4709    1.0000 </r>
       <r>    3.8563    1.0000 </r>
       <r>    8.6505    0.0000 </r>
       <r>    9.3243    0.0000 </r>
       <r>   10.7854    0.0000 </r>
       <r>   11.6983    0.0000 </r>
      </set>
      <set comment="kpoint 107">
       <r>   -3.4128    1.0000 </r>
       <r>   -0.4065    1.0000 </r>
       <r>    2.5261    1.0000 </r>
       <r>    3.2128    1.0000 </r>
       <r>    6.7820    0.0000 </r>
       <r>    7.9553    0.0000 </r>
       <r>   13.3055    0.0000 </r>
       <r>   13.3371    0.0000 </r>
      </set>
      <set comment="kpoint 108">
       <r>   -2.8344    1.0000 </r>
       <r>   -1.0491    1.0000 </r>
       <r>    2.3814    1.0000 </r>
       <r>    2.7955    1.0000 </r>
       <r>    7.2039    0.0000 </r>
       <r>    7.8224    0.0000 </r>
       <r>   13.0413    0.0000 </r>
       <r>   14.7947    0.0000 </r>
      </set>
      <set comment="kpoint 109">
       <r>   -2.2161    1.0000 </r>
       <r>   -1.6328    1.0000 </r>
       <r>    2.0693    1.0000 </r>
       <r>    2.4825    1.0000 </r>
       <r>    7.8466    0.0000 </r>
       <r>    8.4496    0.0000 </r>
       <r>   12.6931    0.0000 </r>
       <r>   13.4445    0.0000 </r>
      </set>
      <set comment="kpoint 110">
       <r>   -2.3557    1.0000 </r>
       <r>   -1.4492    1.0000 </r>
       <r>    1.6285    1.0000 </r>
       <r>    2.7180    1.0000 </r>
       <r>    8.1069    0.0000 </r>
       <r>    9.9989    0.0000 </r>
       <r>   11.6792    0.0000 </r>
       <r>   12.4448    0.0000 </r>
      </set>
      <set comment="kpoint 111">
       <r>   -2.8931    1.0000 </r>
       <r>   -1.0415    1.0000 </r>
       <r>    1.7129    1.0000 </r>
       <r>    3.1355    1.0000 </r>
       <r>    8.5093    0.0000 </r>
       <r>   10.0210    0.0000 </r>
       <r>   11.8421    0.0000 </r>
       <r>   12.3393    0.0000 </r>
      </set>
      <set comment="kpoint 112">
       <r>   -3.3930    1.0000 </r>
       <r>   -0.8582    1.0000 </r>
       <r>    2.3541    1.0000 </r>
       <r>    3.6554    1.0000 </r>
       <r>    8.7705    0.0000 </r>
       <r>    9.0031    0.0000 </r>
       <r>   11.6738    0.0000 </r>
       <r>   12.2072    0.0000 </r>
      </set>
      <set comment="kpoint 113">
       <r>   -2.3048    1.0000 </r>
       <r>   -1.6582    1.0000 </r>
       <r>    2.2768    1.0000 </r>
       <r>    3.0531    1.0000 </r>
       <r>    6.6277    0.0000 </r>
       <r>    7.6436    0.0000 </r>
       <r>   14.6560    0.0000 </r>
       <r>   14.8936    0.0000 </r>
      </set>
      <set comment="kpoint 114">
       <r>   -2.2681    1.0000 </r>
       <r>   -1.6584    1.0000 </r>
       <r>    2.3237    1.0000 </r>
       <r>    2.7066    1.0000 </r>
       <r>    7.1771    0.0000 </r>
       <r>    7.6997    0.0000 </r>
       <r>   13.7660    0.0000 </r>
       <r>   14.5151    0.0000 </r>
      </set>
      <set comment="kpoint 115">
       <r>   -2.7436    1.0000 </r>
       <r>   -1.0871    1.0000 </r>
       <r>    2.1038    1.0000 </r>
       <r>    2.6224    1.0000 </r>
       <r>    7.8829    0.0000 </r>
       <r>    8.5535    0.0000 </r>
       <r>   11.9916    0.0000 </r>
       <r>   14.2060    0.0000 </r>
      </set>
      <set comment="kpoint 116">
       <r>   -3.1190    1.0000 </r>
       <r>   -0.7806    1.0000 </r>
       <r>    1.9355    1.0000 </r>
       <r>    3.0671    1.0000 </r>
       <r>    8.2819    0.0000 </r>
       <r>   10.0905    0.0000 </r>
       <r>   10.5313    0.0000 </r>
       <r>   13.3208    0.0000 </r>
      </set>
      <set comment="kpoint 117">
       <r>   -2.8723    1.0000 </r>
       <r>   -1.0415    1.0000 </r>
       <r>    2.3594    1.0000 </r>
       <r>    3.1065    1.0000 </r>
       <r>    6.6793    0.0000 </r>
       <r>    7.7475    0.0000 </r>
       <r>   14.0211    0.0000 </r>
       <r>   14.1012    0.0000 </r>
      </set>
      <set comment="kpoint 118">
       <r>   -3.3696    1.0000 </r>
       <r>   -0.4312    1.0000 </r>
       <r>    2.4957    1.0000 </r>
       <r>    2.9741    1.0000 </r>
       <r>    7.2696    0.0000 </r>
       <r>    8.0552    0.0000 </r>
       <r>   12.3451    0.0000 </r>
       <r>   14.0448    0.0000 </r>
      </set>
      <set comment="kpoint 119">
       <r>   -3.7297    1.0000 </r>
       <r>   -0.0128    1.0000 </r>
       <r>    2.3300    1.0000 </r>
       <r>    3.2478    1.0000 </r>
       <r>    8.0794    0.0000 </r>
       <r>    9.0552    0.0000 </r>
       <r>   10.7254    0.0000 </r>
       <r>   13.1878    0.0000 </r>
      </set>
      <set comment="kpoint 120">
       <r>   -3.9122    1.0000 </r>
       <r>    0.2255    1.0000 </r>
       <r>    2.7791    1.0000 </r>
       <r>    3.3708    1.0000 </r>
       <r>    6.9338    0.0000 </r>
       <r>    8.2652    0.0000 </r>
       <r>   12.5202    0.0000 </r>
       <r>   12.6716    0.0000 </r>
      </set>
      <set comment="kpoint 121">
       <r>   -4.3137    1.0000 </r>
       <r>    0.7770    1.0000 </r>
       <r>    2.8879    1.0000 </r>
       <r>    3.5943    1.0000 </r>
       <r>    7.5449    0.0000 </r>
       <r>    8.8085    0.0000 </r>
       <r>   11.0554    0.0000 </r>
       <r>   12.4416    0.0000 </r>
      </set>
      <set comment="kpoint 122">
       <r>   -4.7674    1.0000 </r>
       <r>    1.4336    1.0000 </r>
[...]
       <r>   -1.1022    1.0000 </r>
       <r>    1.6691    1.0000 </r>
       <r>    3.2468    1.0000 </r>
       <r>    7.7703    0.0000 </r>
       <r>   10.7221    0.0000 </r>
       <r>   11.2288    0.0000 </r>
       <r>   13.1217    0.0000 </r>
      </set>
      <set comment="kpoint 172">
       <r>   -2.6766    1.0000 </r>
       <r>   -1.2068    1.0000 </r>
       <r>    1.4287    1.0000 </r>
       <r>    3.5153    1.0000 </r>
       <r>    7.1663    0.0000 </r>
       <r>   10.7538    0.0000 </r>
       <r>   12.6165    0.0000 </r>
       <r>   12.9863    0.0000 </r>
      </set>
      <set comment="kpoint 173">
       <r>   -4.4638    1.0000 </r>
       <r>   -0.1521    1.0000 </r>
       <r>    4.6925    1.0000 </r>
       <r>    4.6925    1.0000 </r>
       <r>    7.4240    0.0000 </r>
       <r>    9.2282    0.0000 </r>
       <r>    9.2282    0.0000 </r>
       <r>   13.6475    0.0000 </r>
      </set>
      <set comment="kpoint 174">
       <r>   -4.1802    1.0000 </r>
       <r>   -0.4689    1.0000 </r>
       <r>    3.9035    1.0000 </r>
       <r>    4.6557    1.0000 </r>
       <r>    7.8892    0.0000 </r>
       <r>    9.2575    0.0000 </r>
       <r>    9.3392    0.0000 </r>
       <r>   13.6250    0.0000 </r>
      </set>
      <set comment="kpoint 175">
       <r>   -3.7626    1.0000 </r>
       <r>   -0.6703    1.0000 </r>
       <r>    2.7483    1.0000 </r>
       <r>    4.3249    1.0000 </r>
       <r>    8.0785    0.0000 </r>
       <r>    9.8494    0.0000 </r>
       <r>   10.0825    0.0000 </r>
       <r>   13.6956    0.0000 </r>
      </set>
      <set comment="kpoint 176">
       <r>   -3.2417    1.0000 </r>
       <r>   -0.8482    1.0000 </r>
       <r>    1.8038    1.0000 </r>
       <r>    3.8982    1.0000 </r>
       <r>    7.6234    0.0000 </r>
       <r>   11.2251    0.0000 </r>
       <r>   11.2479    0.0000 </r>
       <r>   12.7177    0.0000 </r>
      </set>
      <set comment="kpoint 177">
       <r>   -3.9922    1.0000 </r>
       <r>   -0.7697    1.0000 </r>
       <r>    4.0894    1.0000 </r>
       <r>    4.3753    1.0000 </r>
       <r>    7.8370    0.0000 </r>
       <r>    9.0302    0.0000 </r>
       <r>    9.5620    0.0000 </r>
       <r>   13.3281    0.0000 </r>
      </set>
      <set comment="kpoint 178">
       <r>   -3.6859    1.0000 </r>
       <r>   -0.9239    1.0000 </r>
       <r>    3.1958    1.0000 </r>
       <r>    4.1592    1.0000 </r>
       <r>    8.3523    0.0000 </r>
       <r>    8.9177    0.0000 </r>
       <r>   10.2753    0.0000 </r>
       <r>   13.2232    0.0000 </r>
      </set>
      <set comment="kpoint 179">
       <r>   -3.2887    1.0000 </r>
       <r>   -0.9717    1.0000 </r>
       <r>    2.2449    1.0000 </r>
       <r>    3.7069    1.0000 </r>
       <r>    8.2562    0.0000 </r>
       <r>    9.6001    0.0000 </r>
       <r>   11.6144    0.0000 </r>
       <r>   12.8237    0.0000 </r>
      </set>
      <set comment="kpoint 180">
       <r>   -3.5204    1.0000 </r>
       <r>   -1.0210    1.0000 </r>
       <r>    2.8858    1.0000 </r>
       <r>    4.0837    1.0000 </r>
       <r>    7.8729    0.0000 </r>
       <r>    9.8418    0.0000 </r>
       <r>   10.2725    0.0000 </r>
       <r>   12.9511    0.0000 </r>
      </set>
      <set comment="kpoint 181">
       <r>   -3.9250    1.0000 </r>
       <r>   -1.0312    1.0000 </r>
       <r>    4.5934    1.0000 </r>
       <r>    4.5934    1.0000 </r>
       <r>    7.3106    0.0000 </r>
       <r>    9.1331    0.0000 </r>
       <r>    9.1331    0.0000 </r>
       <r>   13.5188    0.0000 </r>
      </set>
      <set comment="kpoint 182">
       <r>   -3.7612    1.0000 </r>
       <r>   -1.1118    1.0000 </r>
       <r>    3.9383    1.0000 </r>
       <r>    4.4631    1.0000 </r>
       <r>    7.8090    0.0000 </r>
       <r>    9.0867    0.0000 </r>
       <r>    9.4031    0.0000 </r>
       <r>   13.8034    0.0000 </r>
      </set>
     </set>
    </set>
   </array>
  </eigenvalues>
  <separator name="orbital magnetization" >
   <v name="MAGDIPOLOUT">      0.00000000      0.00000000      0.00000000</v>
  </separator>
  <dos>
   <i name="efermi">      5.99879667 </i>
   <total>
    <array>
     <dimension dim="1">gridpoints</dimension>
     <dimension dim="2">spin</dimension>
     <field>energy</field>
     <field>total</field>
     <field>integrated</field>
     <set>
      <set comment="spin 1">
       <r>    -7.2111     0.0000     0.0000 </r>
       <r>    -7.1316     0.0000     0.0000 </r>
       <r>    -7.0520     0.0000     0.0000 </r>
       <r>    -6.9724     0.0000     0.0000 </r>
       <r>    -6.8929     0.0000     0.0000 </r>
       <r>    -6.8133     0.0000     0.0000 </r>
       <r>    -6.7337     0.0000     0.0000 </r>
       <r>    -6.6541     0.0000     0.0000 </r>
       <r>    -6.5746     0.0000     0.0000 </r>
       <r>    -6.4950     0.0000     0.0000 </r>
       <r>    -6.4154     0.0000     0.0000 </r>
       <r>    -6.3359     0.0000     0.0000 </r>
       <r>    -6.2563     0.0000     0.0000 </r>
       <r>    -6.1767     0.0023     0.0002 </r>
       <r>    -6.0971     0.0375     0.0032 </r>
       <r>    -6.0176     0.1033     0.0114 </r>
       <r>    -5.9380     0.1375     0.0223 </r>
       <r>    -5.8584     0.1906     0.0375 </r>
       <r>    -5.7789     0.1693     0.0510 </r>
       <r>    -5.6993     0.2687     0.0723 </r>
       <r>    -5.6197     0.2158     0.0895 </r>
       <r>    -5.5402     0.2691     0.1109 </r>
       <r>    -5.4606     0.2952     0.1344 </r>
       <r>    -5.3810     0.3301     0.1607 </r>
       <r>    -5.3014     0.3168     0.1859 </r>
       <r>    -5.2219     0.2695     0.2073 </r>
       <r>    -5.1423     0.4627     0.2441 </r>
       <r>    -5.0627     0.3693     0.2735 </r>
       <r>    -4.9832     0.3816     0.3039 </r>
       <r>    -4.9036     0.3232     0.3296 </r>
       <r>    -4.8240     0.5468     0.3731 </r>
       <r>    -4.7445     0.4090     0.4057 </r>
       <r>    -4.6649     0.4950     0.4450 </r>
       <r>    -4.5853     0.4753     0.4829 </r>
       <r>    -4.5057     0.4769     0.5208 </r>
       <r>    -4.4262     0.4337     0.5553 </r>
       <r>    -4.3466     0.6678     0.6085 </r>
       <r>    -4.2670     0.6569     0.6607 </r>
       <r>    -4.1875     0.4938     0.7000 </r>
       <r>    -4.1079     0.5622     0.7448 </r>
       <r>    -4.0283     0.6393     0.7956 </r>
       <r>    -3.9487     0.7648     0.8565 </r>
       <r>    -3.8692     0.7838     0.9188 </r>
       <r>    -3.7896     0.7728     0.9803 </r>
       <r>    -3.7100     1.0909     1.0671 </r>
       <r>    -3.6305     0.7509     1.1269 </r>
       <r>    -3.5509     0.5432     1.1701 </r>
       <r>    -3.4713     1.0685     1.2551 </r>
       <r>    -3.3918     0.7284     1.3131 </r>
       <r>    -3.3122     0.7625     1.3738 </r>
       <r>    -3.2326     0.7149     1.4306 </r>
       <r>    -3.1530     0.8288     1.4966 </r>
       <r>    -3.0735     0.6689     1.5498 </r>
       <r>    -2.9939     0.3086     1.5744 </r>
       <r>    -2.9143     0.5106     1.6150 </r>
       <r>    -2.8348     0.7965     1.6784 </r>
       <r>    -2.7552     0.8086     1.7427 </r>
       <r>    -2.6756     0.5224     1.7843 </r>
       <r>    -2.5961     0.4512     1.8202 </r>
       <r>    -2.5165     0.2079     1.8367 </r>
       <r>    -2.4369     0.2707     1.8583 </r>
       <r>    -2.3573     0.3350     1.8849 </r>
       <r>    -2.2778     0.6965     1.9404 </r>
       <r>    -2.1982     0.3833     1.9708 </r>
       <r>    -2.1186     0.2995     1.9947 </r>
       <r>    -2.0391     0.0663     2.0000 </r>
       <r>    -1.9595     0.0005     2.0000 </r>
       <r>    -1.8799     0.0000     2.0000 </r>
       <r>    -1.8003     0.0002     2.0000 </r>
       <r>    -1.7208     0.0544     2.0043 </r>
       <r>    -1.6412     0.5217     2.0459 </r>
       <r>    -1.5616     0.6494     2.0975 </r>
       <r>    -1.4821     0.2696     2.1190 </r>
       <r>    -1.4025     0.2234     2.1368 </r>
       <r>    -1.3229     0.2395     2.1558 </r>
       <r>    -1.2434     0.2155     2.1730 </r>
       <r>    -1.1638     0.5288     2.2150 </r>
       <r>    -1.0842     1.2443     2.3140 </r>
       <r>    -1.0046     1.8409     2.4605 </r>
       <r>    -0.9251     1.4212     2.5736 </r>
       <r>    -0.8455     1.0896     2.6603 </r>
       <r>    -0.7659     0.7258     2.7181 </r>
       <r>    -0.6864     0.9018     2.7898 </r>
       <r>    -0.6068     0.9358     2.8643 </r>
       <r>    -0.5272     0.3770     2.8943 </r>
       <r>    -0.4476     0.7455     2.9536 </r>
       <r>    -0.3681     1.1585     3.0458 </r>
       <r>    -0.2885     0.4983     3.0854 </r>
       <r>    -0.2089     0.1888     3.1005 </r>
       <r>    -0.1294     0.4467     3.1360 </r>
       <r>    -0.0498     0.7922     3.1990 </r>
       <r>     0.0298     0.5339     3.2415 </r>
       <r>     0.1093     0.1598     3.2542 </r>
       <r>     0.1889     0.2209     3.2718 </r>
       <r>     0.2685     0.6131     3.3206 </r>
       <r>     0.3481     0.8556     3.3887 </r>
       <r>     0.4276     0.2279     3.4068 </r>
       <r>     0.5072     0.1141     3.4159 </r>
       <r>     0.5868     0.1900     3.4310 </r>
       <r>     0.6663     0.3533     3.4591 </r>
       <r>     0.7459     0.6347     3.5096 </r>
       <r>     0.8255     0.2989     3.5334 </r>
       <r>     0.9050     0.0735     3.5393 </r>
       <r>     0.9846     0.1390     3.5503 </r>
       <r>     1.0642     0.3362     3.5771 </r>
       <r>     1.1438     0.5019     3.6170 </r>
       <r>     1.2233     0.3484     3.6447 </r>
       <r>     1.3029     0.0268     3.6469 </r>
       <r>     1.3825     0.1518     3.6589 </r>
       <r>     1.4620     0.4045     3.6911 </r>
       <r>     1.5416     0.7374     3.7498 </r>
       <r>     1.6212     0.8798     3.8198 </r>
       <r>     1.7008     1.4688     3.9367 </r>
       <r>     1.7803     1.1329     4.0268 </r>
       <r>     1.8599     0.9242     4.1004 </r>
       <r>     1.9395     0.9953     4.1796 </r>
       <r>     2.0190     1.1466     4.2708 </r>
       <r>     2.0986     1.2491     4.3702 </r>
       <r>     2.1782     1.0482     4.4536 </r>
       <r>     2.2577     0.8827     4.5238 </r>
       <r>     2.3373     0.9275     4.5976 </r>
       <r>     2.4169     0.8649     4.6665 </r>
       <r>     2.4965     1.3732     4.7757 </r>
       <r>     2.5760     1.3054     4.8796 </r>
       <r>     2.6556     0.9403     4.9544 </r>
       <r>     2.7352     1.2050     5.0503 </r>
       <r>     2.8147     1.2242     5.1477 </r>
       <r>     2.8943     1.2025     5.2434 </r>
       <r>     2.9739     1.4305     5.3572 </r>
       <r>     3.0534     1.5772     5.4827 </r>
       <r>     3.1330     1.7586     5.6227 </r>
       <r>     3.2126     1.3729     5.7319 </r>
       <r>     3.2922     1.5444     5.8548 </r>
       <r>     3.3717     1.1330     5.9449 </r>
       <r>     3.4513     1.3834     6.0550 </r>
       <r>     3.5309     1.5853     6.1812 </r>
       <r>     3.6104     1.5197     6.3021 </r>
       <r>     3.6900     1.3852     6.4123 </r>
       <r>     3.7696     1.0086     6.4926 </r>
       <r>     3.8492     1.3266     6.5981 </r>
       <r>     3.9287     1.4028     6.7097 </r>
       <r>     4.0083     1.3665     6.8185 </r>
       <r>     4.0879     1.1063     6.9065 </r>
       <r>     4.1674     1.2224     7.0038 </r>
       <r>     4.2470     1.3046     7.1076 </r>
       <r>     4.3266     1.0364     7.1900 </r>
       <r>     4.4061     1.4086     7.3021 </r>
       <r>     4.4857     1.0006     7.3817 </r>
       <r>     4.5653     0.9085     7.4540 </r>
       <r>     4.6449     1.0867     7.5405 </r>
       <r>     4.7244     1.1297     7.6304 </r>
       <r>     4.8040     0.5818     7.6767 </r>
       <r>     4.8836     0.5138     7.7176 </r>
       <r>     4.9631     0.5309     7.7598 </r>
       <r>     5.0427     0.5315     7.8021 </r>
       <r>     5.1223     0.5471     7.8456 </r>
       <r>     5.2018     0.4082     7.8781 </r>
       <r>     5.2814     0.2967     7.9017 </r>
       <r>     5.3610     0.3143     7.9267 </r>
       <r>     5.4406     0.2395     7.9458 </r>
       <r>     5.5201     0.2612     7.9666 </r>
       <r>     5.5997     0.2052     7.9829 </r>
       <r>     5.6793     0.1100     7.9916 </r>
       <r>     5.7588     0.0890     7.9987 </r>
       <r>     5.8384     0.0159     8.0000 </r>
       <r>     5.9180     0.0001     8.0000 </r>
       <r>     5.9976     0.0000     8.0000 </r>
       <r>     6.0771     0.0000     8.0000 </r>
       <r>     6.1567     0.0000     8.0000 </r>
       <r>     6.2363     0.0000     8.0000 </r>
       <r>     6.3158     0.0000     8.0000 </r>
       <r>     6.3954     0.0138     8.0011 </r>
       <r>     6.4750     0.1574     8.0136 </r>
       <r>     6.5545     0.1515     8.0257 </r>
       <r>     6.6341     0.1095     8.0344 </r>
       <r>     6.7137     0.4743     8.0721 </r>
       <r>     6.7933     0.3748     8.1020 </r>
       <r>     6.8728     0.3909     8.1331 </r>
       <r>     6.9524     0.5071     8.1734 </r>
       <r>     7.0320     0.3071     8.1978 </r>
       <r>     7.1115     0.4287     8.2320 </r>
       <r>     7.1911     0.7176     8.2891 </r>
       <r>     7.2707     0.9589     8.3654 </r>
       <r>     7.3503     0.4221     8.3990 </r>
       <r>     7.4298     0.6688     8.4522 </r>
       <r>     7.5094     0.9051     8.5242 </r>
       <r>     7.5890     1.0018     8.6039 </r>
       <r>     7.6685     0.6784     8.6579 </r>
       <r>     7.7481     1.2627     8.7584 </r>
       <r>     7.8277     1.2508     8.8579 </r>
       <r>     7.9072     1.2237     8.9553 </r>
       <r>     7.9868     1.3450     9.0623 </r>
       <r>     8.0664     2.0610     9.2263 </r>
       <r>     8.1460     1.5633     9.3507 </r>
       <r>     8.2255     1.0626     9.4352 </r>
       <r>     8.3051     1.5745     9.5605 </r>
       <r>     8.3847     1.5011     9.6799 </r>
       <r>     8.4642     1.5144     9.8004 </r>
       <r>     8.5438     1.1089     9.8887 </r>
       <r>     8.6234     1.0900     9.9754 </r>
       <r>     8.7029     1.1295    10.0653 </r>
       <r>     8.7825     1.2229    10.1626 </r>
       <r>     8.8621     0.8974    10.2340 </r>
       <r>     8.9417     1.2748    10.3354 </r>
       <r>     9.0212     1.3045    10.4392 </r>
       <r>     9.1008     2.4350    10.6330 </r>
       <r>     9.1804     1.9833    10.7908 </r>
       <r>     9.2599     1.9937    10.9494 </r>
       <r>     9.3395     2.0769    11.1147 </r>
       <r>     9.4191     1.5659    11.2393 </r>
       <r>     9.4987     1.6429    11.3700 </r>
       <r>     9.5782     1.3685    11.4789 </r>
       <r>     9.6578     1.5608    11.6031 </r>
       <r>     9.7374     1.7080    11.7390 </r>
       <r>     9.8169     1.0989    11.8265 </r>
       <r>     9.8965     1.2770    11.9281 </r>
       <r>     9.9761     1.3778    12.0377 </r>
       <r>    10.0556     1.0956    12.1249 </r>
       <r>    10.1352     1.4343    12.2390 </r>
       <r>    10.2148     1.3785    12.3487 </r>
       <r>    10.2944     0.7660    12.4096 </r>
       <r>    10.3739     1.5827    12.5356 </r>
       <r>    10.4535     1.2690    12.6366 </r>
       <r>    10.5331     1.3315    12.7425 </r>
       <r>    10.6126     1.2069    12.8385 </r>
       <r>    10.6922     0.9573    12.9147 </r>
       <r>    10.7718     1.5342    13.0368 </r>
       <r>    10.8513     1.3216    13.1419 </r>
       <r>    10.9309     1.1441    13.2330 </r>
       <r>    11.0105     0.9371    13.3075 </r>
       <r>    11.0901     1.6298    13.4372 </r>
       <r>    11.1696     1.3174    13.5421 </r>
       <r>    11.2492     1.0000    13.6216 </r>
       <r>    11.3288     0.6716    13.6751 </r>
       <r>    11.4083     0.9987    13.7545 </r>
       <r>    11.4879     1.4391    13.8691 </r>
       <r>    11.5675     1.2075    13.9651 </r>
       <r>    11.6471     0.7212    14.0225 </r>
       <r>    11.7266     1.3392    14.1291 </r>
       <r>    11.8062     1.2859    14.2314 </r>
       <r>    11.8858     1.0009    14.3110 </r>
       <r>    11.9653     0.8952    14.3823 </r>
       <r>    12.0449     0.9292    14.4562 </r>
       <r>    12.1245     1.0073    14.5364 </r>
       <r>    12.2040     0.5556    14.5806 </r>
       <r>    12.2836     0.7407    14.6395 </r>
       <r>    12.3632     1.0238    14.7210 </r>
       <r>    12.4428     1.2236    14.8183 </r>
       <r>    12.5223     1.1427    14.9093 </r>
       <r>    12.6019     0.8433    14.9764 </r>
       <r>    12.6815     0.8440    15.0435 </r>
       <r>    12.7610     0.9624    15.1201 </r>
       <r>    12.8406     0.4266    15.1540 </r>
       <r>    12.9202     0.2368    15.1729 </r>
       <r>    12.9997     0.5790    15.2189 </r>
       <r>    13.0793     0.7903    15.2818 </r>
       <r>    13.1589     0.8402    15.3487 </r>
       <r>    13.2385     0.7285    15.4067 </r>
       <r>    13.3180     0.8639    15.4754 </r>
       <r>    13.3976     0.6775    15.5293 </r>
       <r>    13.4772     0.4784    15.5674 </r>
       <r>    13.5567     0.3865    15.5981 </r>
       <r>    13.6363     0.4056    15.6304 </r>
       <r>    13.7159     0.3510    15.6583 </r>
       <r>    13.7955     0.5811    15.7046 </r>
       <r>    13.8750     0.2245    15.7224 </r>
       <r>    13.9546     0.1704    15.7360 </r>
       <r>    14.0342     0.6463    15.7874 </r>
       <r>    14.1137     0.8400    15.8543 </r>
       <r>    14.1933     0.1483    15.8661 </r>
       <r>    14.2729     0.1072    15.8746 </r>
       <r>    14.3524     0.0051    15.8750 </r>
       <r>    14.4320     0.0049    15.8754 </r>
       <r>    14.5116     0.1746    15.8893 </r>
       <r>    14.5912     0.1684    15.9027 </r>
       <r>    14.6707     0.0591    15.9074 </r>
       <r>    14.7503     0.0758    15.9134 </r>
       <r>    14.8299     0.4262    15.9473 </r>
       <r>    14.9094     0.2788    15.9695 </r>
       <r>    14.9890     0.0337    15.9722 </r>
       <r>    15.0686     0.0003    15.9722 </r>
       <r>    15.1481     0.0000    15.9722 </r>
       <r>    15.2277     0.0000    15.9722 </r>
       <r>    15.3073     0.0144    15.9734 </r>
       <r>    15.3869     0.1262    15.9834 </r>
       <r>    15.4664     0.0392    15.9865 </r>
       <r>    15.5460     0.0790    15.9928 </r>
       <r>    15.6256     0.0835    15.9995 </r>
       <r>    15.7051     0.0068    16.0000 </r>
       <r>    15.7847     0.0000    16.0000 </r>
       <r>    15.8643     0.0000    16.0000 </r>
       <r>    15.9439     0.0000    16.0000 </r>
       <r>    16.0234     0.0000    16.0000 </r>
       <r>    16.1030     0.0000    16.0000 </r>
       <r>    16.1826     0.0000    16.0000 </r>
       <r>    16.2621     0.0000    16.0000 </r>
       <r>    16.3417     0.0000    16.0000 </r>
       <r>    16.4213     0.0000    16.0000 </r>
       <r>    16.5008     0.0000    16.0000 </r>
       <r>    16.5804     0.0000    16.0000 </r>
       <r>    16.6600     0.0000    16.0000 </r>
      </set>
     </set>
    </array>
   </total>
  </dos>
 </calculation>
 <structure name="finalpos" >
  <crystal>
   <varray name="basis" >
    <v>       3.33139272       0.00000000       1.92338021 </v>
    <v>       1.11046424       3.14086843       1.92338021 </v>
    <v>       0.00000000       0.00000000       3.84676043 </v>
   </varray>
   <i name="volume">     40.25044779 </i>
   <varray name="rec_basis" >
    <v>       0.30017476      -0.10612776       0.00000000 </v>
    <v>       0.00000000       0.31838328       0.00000000 </v>
    <v>      -0.15008738      -0.10612776       0.25995900 </v>
   </varray>
  </crystal>
  <varray name="positions" >
   <v>       0.87500000       0.87500000       0.87500000 </v>
   <v>       0.12500000       0.12500000       0.12500000 </v>
  </varray>
 </structure>
</modeling>
