unknown system                          
           1
     3.331393    0.000000    1.923380
     1.110464    3.140868    1.923380
     0.000000    0.000000    3.846760
   Si
     2
Direct configuration=     1
   0.87500000  0.87500000  0.87500000
   0.12500000  0.12500000  0.12500000
