   1   1   0   0
  0.1408159E+02  0.2710538E-09  0.2710538E-09  0.2710538E-09  0.5000000E-15
  1.000000000000000E-004
  CAR 
 unknown system                          
     35.25923129     -6.39603473  301      8.53373974      1.00000000
     -6.396  0.0000E+00  0.0000E+00
     -6.257  0.0000E+00  0.0000E+00
     -6.118  0.0000E+00  0.0000E+00
     -5.979  0.0000E+00  0.0000E+00
     -5.841  0.0000E+00  0.0000E+00
     -5.702  0.0000E+00  0.0000E+00
     -5.563  0.0000E+00  0.0000E+00
     -5.424  0.0000E+00  0.0000E+00
     -5.285  0.0000E+00  0.0000E+00
     -5.146  0.0000E+00  0.0000E+00
     -5.008  0.0000E+00  0.0000E+00
     -4.869  0.0000E+00  0.0000E+00
     -4.730  0.7524E-13  0.1045E-13
     -4.591  0.7172E-05  0.9958E-06
     -4.452  0.1057E-02  0.1477E-03
     -4.313  0.8830E-04  0.1600E-03
     -4.174  0.4918E-10  0.1600E-03
     -4.036  0.0000E+00  0.1600E-03
     -3.897  0.0000E+00  0.1600E-03
     -3.758  0.0000E+00  0.1600E-03
     -3.619  0.2533E-12  0.1600E-03
     -3.480  0.3940E-04  0.1655E-03
     -3.341  0.8283E-02  0.1316E-02
     -3.202  0.8960E-03  0.1440E-02
     -3.064  0.6154E-03  0.1525E-02
     -2.925  0.6264E-02  0.2395E-02
     -2.786  0.3412E-04  0.2400E-02
     -2.647  0.2639E-12  0.2400E-02
     -2.508  0.0000E+00  0.2400E-02
     -2.369  0.0000E+00  0.2400E-02
     -2.231  0.0000E+00  0.2400E-02
     -2.092  0.0000E+00  0.2400E-02
     -1.953  0.0000E+00  0.2400E-02
     -1.814  0.1113E-15  0.2400E-02
     -1.675  0.1215E-05  0.2400E-02
     -1.536  0.7877E-02  0.3494E-02
     -1.397  0.5949E-02  0.4320E-02
     -1.259  0.2819E-06  0.4320E-02
     -1.120  0.0000E+00  0.4320E-02
     -0.981  0.0000E+00  0.4320E-02
     -0.842  0.0000E+00  0.4320E-02
     -0.703  0.2997E-14  0.4320E-02
     -0.564  0.8957E-05  0.4321E-02
     -0.425  0.1927E-01  0.6997E-02
     -0.287  0.8373E-02  0.8160E-02
     -0.148  0.4766E-03  0.8226E-02
     -0.009  0.8643E-02  0.9426E-02
      0.130  0.9924E-04  0.9440E-02
      0.269  0.2208E-11  0.9440E-02
      0.408  0.0000E+00  0.9440E-02
      0.547  0.0000E+00  0.9440E-02
      0.685  0.0000E+00  0.9440E-02
      0.824  0.0000E+00  0.9440E-02
      0.963  0.0000E+00  0.9440E-02
      1.102  0.1842E-16  0.9440E-02
      1.241  0.3432E-06  0.9440E-02
      1.380  0.3553E-02  0.9933E-02
      1.518  0.3360E-02  0.1040E-01
      1.657  0.2567E-06  0.1040E-01
      1.796  0.0000E+00  0.1040E-01
      1.935  0.0000E+00  0.1040E-01
      2.074  0.0000E+00  0.1040E-01
      2.213  0.4233E-08  0.1040E-01
      2.352  0.3224E-02  0.1085E-01
      2.490  0.2435E-01  0.1423E-01
      2.629  0.8628E-04  0.1424E-01
      2.768  0.4522E-02  0.1487E-01
      2.907  0.2309E-01  0.1807E-01
      3.046  0.4433E-04  0.1808E-01
      3.185  0.8600E-13  0.1808E-01
      3.324  0.0000E+00  0.1808E-01
      3.462  0.0000E+00  0.1808E-01
      3.601  0.0000E+00  0.1808E-01
      3.740  0.0000E+00  0.1808E-01
      3.879  0.0000E+00  0.1808E-01
      4.018  0.0000E+00  0.1808E-01
      4.157  0.2870E-10  0.1808E-01
      4.295  0.5389E-03  0.1815E-01
      4.434  0.2625E-01  0.2180E-01
      4.573  0.8641E-03  0.2192E-01
      4.712  0.9727E-10  0.2192E-01
      4.851  0.3304E-09  0.2192E-01
      4.990  0.8678E-03  0.2204E-01
      5.129  0.1285E-01  0.2382E-01
      5.267  0.1168E-03  0.2384E-01
      5.406  0.6149E-02  0.2469E-01
      5.545  0.1569E-01  0.2687E-01
      5.684  0.1206E-02  0.2704E-01
      5.823  0.8666E-09  0.2704E-01
      5.962  0.0000E+00  0.2704E-01
      6.101  0.0000E+00  0.2704E-01
      6.239  0.0000E+00  0.2704E-01
      6.378  0.0000E+00  0.2704E-01
      6.517  0.0000E+00  0.2704E-01
      6.656  0.0000E+00  0.2704E-01
      6.795  0.0000E+00  0.2704E-01
      6.934  0.0000E+00  0.2704E-01
      7.073  0.1013E-12  0.2704E-01
      7.211  0.3280E-04  0.2704E-01
      7.350  0.1193E-01  0.2870E-01
      7.489  0.1866E-02  0.2896E-01
      7.628  0.3383E-08  0.2896E-01
      7.767  0.2265E-03  0.2899E-01
      7.906  0.2568E-01  0.3256E-01
      8.044  0.1753E-02  0.3280E-01
      8.183  0.7454E-09  0.3280E-01
      8.322  0.7418E-03  0.3290E-01
      8.461  0.2890E-01  0.3692E-01
      8.600  0.3225E-01  0.4139E-01
      8.739  0.3281E-03  0.4144E-01
      8.878  0.7871E-11  0.4144E-01
      9.016  0.0000E+00  0.4144E-01
      9.155  0.0000E+00  0.4144E-01
      9.294  0.0000E+00  0.4144E-01
      9.433  0.0000E+00  0.4144E-01
      9.572  0.0000E+00  0.4144E-01
      9.711  0.0000E+00  0.4144E-01
      9.850  0.0000E+00  0.4144E-01
      9.988  0.1032E-10  0.4144E-01
     10.127  0.3573E-03  0.4149E-01
     10.266  0.2606E-01  0.4511E-01
     10.405  0.1236E-02  0.4528E-01
     10.544  0.5483E-04  0.4529E-01
     10.683  0.1237E-01  0.4700E-01
     10.821  0.1405E-02  0.4720E-01
     10.960  0.1381E-08  0.4720E-01
     11.099  0.3512E-07  0.4720E-01
     11.238  0.5080E-02  0.4791E-01
     11.377  0.3611E-01  0.5292E-01
     11.516  0.2982E-03  0.5296E-01
     11.655  0.6284E-11  0.5296E-01
     11.793  0.0000E+00  0.5296E-01
     11.932  0.0000E+00  0.5296E-01
     12.071  0.0000E+00  0.5296E-01
     12.210  0.0000E+00  0.5296E-01
     12.349  0.8188E-17  0.5296E-01
     12.488  0.2589E-06  0.5296E-01
     12.627  0.4239E-02  0.5355E-01
     12.765  0.1225E-01  0.5525E-01
     12.904  0.6556E-02  0.5616E-01
     13.043  0.1786E-02  0.5641E-01
     13.182  0.1201E-01  0.5808E-01
     13.321  0.3568E-04  0.5808E-01
     13.460  0.2645E-03  0.5812E-01
     13.598  0.2583E-01  0.6170E-01
     13.737  0.1565E-02  0.6192E-01
     13.876  0.4919E-09  0.6192E-01
     14.015  0.8060E-16  0.6192E-01
     14.154  0.7354E-06  0.6192E-01
     14.293  0.4249E-02  0.6251E-01
     14.432  0.2826E-01  0.6643E-01
     14.570  0.2057E-02  0.6672E-01
     14.709  0.1081E-08  0.6672E-01
     14.848  0.0000E+00  0.6672E-01
     14.987  0.0000E+00  0.6672E-01
     15.126  0.6979E-08  0.6672E-01
     15.265  0.3797E-02  0.6725E-01
     15.404  0.3563E-01  0.7219E-01
     15.542  0.2559E-02  0.7255E-01
     15.681  0.1310E-01  0.7437E-01
     15.820  0.2299E-03  0.7440E-01
     15.959  0.9627E-11  0.7440E-01
     16.098  0.3677E-07  0.7440E-01
     16.237  0.2191E-02  0.7470E-01
     16.376  0.4721E-02  0.7536E-01
     16.514  0.1932E-05  0.7536E-01
     16.653  0.3421E-03  0.7541E-01
     16.792  0.6493E-02  0.7631E-01
     16.931  0.7869E-04  0.7632E-01
     17.070  0.2867E-02  0.7672E-01
     17.209  0.3017E-01  0.8091E-01
     17.347  0.1563E-02  0.8112E-01
     17.486  0.1563E-01  0.8330E-01
     17.625  0.2768E-02  0.8368E-01
     17.764  0.2007E-06  0.8368E-01
     17.903  0.5490E-02  0.8444E-01
     18.042  0.1121E-01  0.8600E-01
     18.181  0.4273E-01  0.9193E-01
     18.319  0.4887E-03  0.9200E-01
     18.458  0.1713E-10  0.9200E-01
     18.597  0.0000E+00  0.9200E-01
     18.736  0.0000E+00  0.9200E-01
     18.875  0.0000E+00  0.9200E-01
     19.014  0.0000E+00  0.9200E-01
     19.153  0.0000E+00  0.9200E-01
     19.291  0.0000E+00  0.9200E-01
     19.430  0.0000E+00  0.9200E-01
     19.569  0.3838E-18  0.9200E-01
     19.708  0.3285E-07  0.9200E-01
     19.847  0.1257E-02  0.9217E-01
     19.986  0.6138E-02  0.9303E-01
     20.124  0.2976E-02  0.9344E-01
     20.263  0.1411E-06  0.9344E-01
     20.402  0.2050E-07  0.9344E-01
     20.541  0.3881E-02  0.9398E-01
     20.680  0.1454E-01  0.9600E-01
     20.819  0.1652E-04  0.9600E-01
     20.958  0.6349E-05  0.9600E-01
     21.096  0.1030E-01  0.9743E-01
     21.235  0.1254E-01  0.9917E-01
     21.374  0.8266E-02  0.1003E+00
     21.513  0.1581E-05  0.1003E+00
     21.652  0.1255E-10  0.1003E+00
     21.791  0.3869E-03  0.1004E+00
     21.930  0.2638E-01  0.1040E+00
     22.068  0.3575E-01  0.1090E+00
     22.207  0.1123E-01  0.1106E+00
     22.346  0.1551E-02  0.1108E+00
     22.485  0.2584E-01  0.1144E+00
     22.624  0.2692E-03  0.1144E+00
     22.763  0.5196E-11  0.1144E+00
     22.902  0.1338E-05  0.1144E+00
     23.040  0.1016E-01  0.1158E+00
     23.179  0.8278E-02  0.1170E+00
     23.318  0.4613E-06  0.1170E+00
     23.457  0.0000E+00  0.1170E+00
     23.596  0.2917E-16  0.1170E+00
     23.735  0.6077E-06  0.1170E+00
     23.873  0.6947E-02  0.1179E+00
     24.012  0.2293E-01  0.1211E+00
     24.151  0.2541E-01  0.1246E+00
     24.290  0.1589E-04  0.1246E+00
     24.429  0.8985E-02  0.1259E+00
     24.568  0.1866E-01  0.1285E+00
     24.707  0.1449E-03  0.1285E+00
     24.845  0.1293E-01  0.1303E+00
     24.984  0.7585E-03  0.1304E+00
     25.123  0.2255E-09  0.1304E+00
     25.262  0.1338E-07  0.1304E+00
     25.401  0.2088E-02  0.1307E+00
     25.540  0.7123E-02  0.1317E+00
     25.679  0.6858E-05  0.1317E+00
     25.817  0.3213E-10  0.1317E+00
     25.956  0.8704E-03  0.1318E+00
     26.095  0.6018E-01  0.1402E+00
     26.234  0.3495E-02  0.1406E+00
     26.373  0.1082E-02  0.1408E+00
     26.512  0.5710E-04  0.1408E+00
     26.650  0.1414E-10  0.1408E+00
     26.789  0.0000E+00  0.1408E+00
     26.928  0.0000E+00  0.1408E+00
     27.067  0.2695E-13  0.1408E+00
     27.206  0.1785E-04  0.1408E+00
     27.345  0.1132E-01  0.1424E+00
     27.484  0.2495E-02  0.1427E+00
     27.622  0.8928E-08  0.1427E+00
     27.761  0.0000E+00  0.1427E+00
     27.900  0.8185E-09  0.1427E+00
     28.039  0.1869E-02  0.1430E+00
     28.178  0.2558E-01  0.1465E+00
     28.317  0.2069E-03  0.1466E+00
     28.456  0.2778E-11  0.1466E+00
     28.594  0.0000E+00  0.1466E+00
     28.733  0.0000E+00  0.1466E+00
     28.872  0.0000E+00  0.1466E+00
     29.011  0.0000E+00  0.1466E+00
     29.150  0.0000E+00  0.1466E+00
     29.289  0.5992E-10  0.1466E+00
     29.427  0.7182E-03  0.1467E+00
     29.566  0.2628E-01  0.1503E+00
     29.705  0.7098E-03  0.1504E+00
     29.844  0.2355E-01  0.1537E+00
     29.983  0.4049E-02  0.1542E+00
     30.122  0.8829E-08  0.1542E+00
     30.261  0.3944E-04  0.1542E+00
     30.399  0.1210E-01  0.1559E+00
     30.538  0.1693E-02  0.1562E+00
     30.677  0.2472E-08  0.1562E+00
     30.816  0.0000E+00  0.1562E+00
     30.955  0.0000E+00  0.1562E+00
     31.094  0.0000E+00  0.1562E+00
     31.233  0.0000E+00  0.1562E+00
     31.371  0.0000E+00  0.1562E+00
     31.510  0.2303E-17  0.1562E+00
     31.649  0.1631E-06  0.1562E+00
     31.788  0.5280E-02  0.1569E+00
     31.927  0.8546E-02  0.1581E+00
     32.066  0.1985E-05  0.1581E+00
     32.205  0.2437E-03  0.1581E+00
     32.343  0.6552E-02  0.1590E+00
     32.482  0.1180E-03  0.1590E+00
     32.621  0.5138E-11  0.1590E+00
     32.760  0.0000E+00  0.1590E+00
     32.899  0.0000E+00  0.1590E+00
     33.038  0.0000E+00  0.1590E+00
     33.176  0.2951E-09  0.1590E+00
     33.315  0.5298E-03  0.1591E+00
     33.454  0.6341E-02  0.1600E+00
     33.593  0.4303E-04  0.1600E+00
     33.732  0.4514E-12  0.1600E+00
     33.871  0.0000E+00  0.1600E+00
     34.010  0.0000E+00  0.1600E+00
     34.148  0.0000E+00  0.1600E+00
     34.287  0.0000E+00  0.1600E+00
     34.426  0.0000E+00  0.1600E+00
     34.565  0.0000E+00  0.1600E+00
     34.704  0.0000E+00  0.1600E+00
     34.843  0.0000E+00  0.1600E+00
     34.982  0.0000E+00  0.1600E+00
     35.120  0.0000E+00  0.1600E+00
     35.259  0.0000E+00  0.1600E+00
