    1    1  100    1
  0.1408159E+02  0.2710538E-09  0.2710538E-09  0.2710538E-09  0.5000000E-15
  1.000000000000000E-004
  CAR 
 unknown system                          
      4     10      8
 
  0.0000000E+00  0.0000000E+00  0.0000000E+00  0.8000000E-02
    1       -4.502614   1.000000
    2       19.859114   0.000000
    3       19.859121   0.000000
    4       19.859129   0.000000
    5       21.151060   0.000000
    6       21.151069   0.000000
    7       21.151078   0.000000
    8       26.314465   0.000000
 
  0.2000000E+00  0.0000000E+00  0.0000000E+00  0.6400000E-01
    1       -3.387196   1.000000
    2       12.630110   0.000000
    3       18.106434   0.000000
    4       18.106443   0.000000
    5       22.095215   0.000000
    6       23.035818   0.000000
    7       23.035829   0.000000
    8       26.057757   0.000000
 
  0.4000000E+00  0.0000000E+00  0.0000000E+00  0.6400000E-01
    1       -0.090160   1.000000
    2        5.391747   1.000000
    3       17.449692   0.000000
    4       17.449696   0.000000
    5       20.569481   0.000000
    6       20.569493   0.000000
    7       22.000400   0.000000
    8       25.427344   0.000000
 
  0.2000000E+00  0.2000000E+00  0.0000000E+00  0.4800000E-01
    1       -3.015992   1.000000
    2       15.366042   0.000000
    3       15.366043   0.000000
    4       16.711544   0.000000
    5       17.179560   0.000000
    6       19.979428   0.000000
    7       27.312423   0.000000
    8       27.312424   0.000000
 
  0.4000000E+00  0.2000000E+00  0.0000000E+00  0.1920000E+00
    1       -0.443708   1.000000
    2        8.519545   0.655967
    3       13.542482   0.000000
    4       14.380547   0.000000
    5       17.114391   0.000000
    6       22.402342   0.000000
    7       26.031675   0.000000
    8       28.091804   0.000000
 
 -0.4000000E+00  0.2000000E+00  0.0000000E+00  0.1920000E+00
    1        2.393726   1.000000
    2        4.368475   1.000000
    3       11.295319   0.000000
    4       15.303496   0.000000
    5       18.091048   0.000000
    6       24.036046   0.000000
    7       26.033539   0.000000
    8       29.496212   0.000000
 
 -0.2000000E+00  0.2000000E+00  0.0000000E+00  0.9600000E-01
    1       -1.542467   1.000000
    2       10.637643   0.000000
    3       11.260533   0.000000
    4       17.912098   0.000000
    5       21.074773   0.000000
    6       23.873263   0.000000
    7       23.997813   0.000000
    8       24.788863   0.000000
 
  0.4000000E+00  0.4000000E+00  0.0000000E+00  0.4800000E-01
    1        1.378379   1.000000
    2        8.492857   0.876231
    3       12.763088   0.000000
    4       12.763089   0.000000
    5       14.284832   0.000000
    6       16.253507   0.000000
    7       32.268461   0.000000
    8       33.365810   0.000000
 
 -0.4000000E+00  0.4000000E+00  0.0000000E+00  0.9600000E-01
    1        5.043904   1.000000
    2        5.497121   1.000000
    3        7.311194   1.000000
    4       13.083059   0.000000
    5       15.605982   0.000000
    6       21.243859   0.000000
    7       30.358332   0.000000
    8       31.798589   0.000000
 
 -0.4000000E+00  0.4000000E+00  0.2000000E+00  0.1920000E+00
    1        2.802774   1.000000
    2        7.851623   1.000000
    3        8.390385   0.999975
    4       10.206013   0.000000
    5       21.868392   0.000000
    6       22.029953   0.000000
    7       24.444915   0.000000
    8       29.806857   0.000000
