       N       E                     dE             d eps       ncg     rms          rms(c)
DAV:   1    -0.335081689081E+01   -0.33508E+01   -0.14599E+03   184   0.269E+02
DAV:   2    -0.478044121234E+01   -0.14296E+01   -0.10085E+01   248   0.208E+01
DAV:   3    -0.478808830033E+01   -0.76471E-02   -0.76471E-02   200   0.161E+00
DAV:   4    -0.478809295138E+01   -0.46511E-05   -0.46522E-05   248   0.342E-02
DAV:   5    -0.478809295226E+01   -0.88329E-09   -0.48928E-10   208   0.146E-04    0.283E+00
DAV:   6    -0.477497177633E+01    0.13121E-01   -0.36616E-03   168   0.265E-01    0.157E+00
DAV:   7    -0.476732819882E+01    0.76436E-02   -0.76022E-03   176   0.382E-01    0.136E-01
DAV:   8    -0.476729364540E+01    0.34553E-04   -0.25638E-05   232   0.402E-02    0.140E-02
DAV:   9    -0.476729395585E+01   -0.31045E-06   -0.41307E-07   160   0.373E-03
   1 F= -.47672940E+01 E0= -.47645866E+01  d E =-.476729E+01
       N       E                     dE             d eps       ncg     rms          rms(c)
DAV:   1    -0.477892962870E+01   -0.11636E-01   -0.18803E-01   168   0.167E+00    0.436E-01
DAV:   2    -0.477627677881E+01    0.26528E-02   -0.12168E-03   168   0.235E-01    0.241E-01
DAV:   3    -0.477485259759E+01    0.14242E-02   -0.16826E-03   168   0.171E-01    0.694E-02
DAV:   4    -0.477485001715E+01    0.25804E-05   -0.30222E-06   216   0.150E-02    0.601E-02
DAV:   5    -0.477484016833E+01    0.98488E-05   -0.92912E-07   176   0.648E-03    0.131E-02
DAV:   6    -0.477484066389E+01   -0.49556E-06   -0.22516E-08   104   0.122E-03
   2 F= -.47748407E+01 E0= -.47712036E+01  d E =-.754671E-02
       N       E                     dE             d eps       ncg     rms          rms(c)
DAV:   1    -0.478625552266E+01   -0.11415E-01   -0.27142E-01   168   0.202E+00    0.498E-01
DAV:   2    -0.478253076363E+01    0.37248E-02   -0.17126E-03   176   0.277E-01    0.280E-01
DAV:   3    -0.478041595319E+01    0.21148E-02   -0.26414E-03   168   0.212E-01    0.865E-02
DAV:   4    -0.478041383677E+01    0.21164E-05   -0.48994E-06   200   0.188E-02    0.761E-02
DAV:   5    -0.478040390567E+01    0.99311E-05   -0.11440E-06   152   0.673E-03    0.219E-02
DAV:   6    -0.478040440703E+01   -0.50136E-06   -0.41287E-08    88   0.152E-03
   3 F= -.47804044E+01 E0= -.47775982E+01  d E =-.131105E-01
       N       E                     dE             d eps       ncg     rms          rms(c)
DAV:   1    -0.478056310856E+01   -0.15920E-03   -0.77108E-03   168   0.347E-01    0.785E-02
DAV:   2    -0.478047251930E+01    0.90589E-04   -0.42256E-05   168   0.451E-02    0.444E-02
DAV:   3    -0.478042156459E+01    0.50955E-04   -0.62324E-05   168   0.326E-02    0.140E-02
DAV:   4    -0.478042162470E+01   -0.60108E-07   -0.11074E-07   128   0.286E-03    0.123E-02
DAV:   5    -0.478042220017E+01   -0.57547E-06   -0.31163E-08    80   0.127E-03    0.266E-03
DAV:   6    -0.478042209950E+01    0.10067E-06   -0.12530E-09    80   0.269E-04
   4 F= -.47804221E+01 E0= -.47775426E+01  d E =-.131281E-01
       N       E                     dE             d eps       ncg     rms          rms(c)
DAV:   1    -0.478050751769E+01   -0.85318E-04   -0.16636E-03   168   0.161E-01    0.368E-02
DAV:   2    -0.478048800160E+01    0.19516E-04   -0.91800E-06   168   0.210E-02    0.208E-02
DAV:   3    -0.478047629485E+01    0.11707E-04   -0.13537E-05   168   0.152E-02    0.643E-03
DAV:   4    -0.478047624437E+01    0.50474E-07   -0.24075E-08    96   0.133E-03    0.561E-03
DAV:   5    -0.478047588806E+01    0.35632E-06   -0.70154E-09    80   0.605E-04    0.111E-03
DAV:   6    -0.478047592945E+01   -0.41391E-07   -0.26671E-10    80   0.121E-04
   5 F= -.47804759E+01 E0= -.47776298E+01  d E =-.131820E-01
