<?xml version="1.0" encoding="ISO-8859-1"?>
<modeling>
 <generator>
  <i name="program" type="string">vasp </i>
  <i name="version" type="string">6.2.0  </i>
  <i name="subversion" type="string">18Jan21 (build Aug 12 2022 13:00:08) complex                          parallel </i>
  <i name="platform" type="string">LinuxIFC </i>
  <i name="date" type="string">2024 11 03 </i>
  <i name="time" type="string">21:52:59 </i>
 </generator>
 <incar>
  <i type="int" name="ISTART">     0</i>
  <i type="string" name="PREC">Accurate      (Accurate strictly avoids</i>
  <i type="logical" name="ADDGRID"> T  </i>
  <i type="int" name="ISPIN">     1</i>
  <i type="int" name="NELM">    90</i>
  <i type="int" name="NELMIN">     6</i>
  <i type="int" name="IBRION">     2</i>
  <i name="EDIFF">      0.00000100</i>
  <i name="EDIFFG">     -0.00200000</i>
  <i type="int" name="NSW">   100</i>
  <i type="int" name="ISIF">     3</i>
  <i type="int" name="ISYM">     2</i>
  <i name="ENCUT">    350.00000000</i>
  <i type="logical" name="LREAL"> F  </i>
  <i type="int" name="ISMEAR">     0</i>
  <i name="SIGMA">      0.05000000</i>
  <i type="logical" name="LWAVE"> F  </i>
  <i type="logical" name="LCHARG"> F  </i>
  <i type="logical" name="LASPH"> T  </i>
 </incar>
 <primitive_cell>
  <structure name="primitive_cell" >
   <crystal>
    <varray name="basis" >
     <v>       2.34739500       0.00000000       1.35526800 </v>
     <v>       0.78246500       2.21314500       1.35526800 </v>
     <v>       0.00000000       0.00000000       2.71053800 </v>
    </varray>
    <i name="volume">     14.08158510 </i>
    <varray name="rec_basis" >
     <v>       0.42600415      -0.15061523       0.00000000 </v>
     <v>       0.00000000       0.45184568       0.00000000 </v>
     <v>      -0.21300192      -0.15061511       0.36893045 </v>
    </varray>
   </crystal>
   <varray name="positions" >
    <v>       0.00000000       0.00000000       0.00000000 </v>
   </varray>
  </structure>
  <varray name="primitive_index" >
   <v type="int" >        1 </v>
  </varray>
 </primitive_cell>
 <kpoints>
  <generation param="Monkhorst-Pack">
   <v type="int" name="divisions">       5        5        5 </v>
   <v name="usershift">      0.00000000       0.00000000       0.00000000 </v>
   <v name="genvec1">      0.20000000      -0.00000000       0.00000000 </v>
   <v name="genvec2">      0.00000000       0.20000000       0.00000000 </v>
   <v name="genvec3">      0.00000000       0.00000000       0.20000000 </v>
   <v name="shift">      0.00000000       0.00000000       0.00000000 </v>
  </generation>
  <varray name="kpointlist" >
   <v>       0.00000000       0.00000000       0.00000000 </v>
   <v>       0.20000000       0.00000000       0.00000000 </v>
   <v>       0.40000000       0.00000000       0.00000000 </v>
   <v>       0.20000000       0.20000000       0.00000000 </v>
   <v>       0.40000000       0.20000000       0.00000000 </v>
   <v>      -0.40000000       0.20000000       0.00000000 </v>
   <v>      -0.20000000       0.20000000       0.00000000 </v>
   <v>       0.40000000       0.40000000       0.00000000 </v>
   <v>      -0.40000000       0.40000000       0.00000000 </v>
   <v>      -0.40000000       0.40000000       0.20000000 </v>
  </varray>
  <varray name="weights" >
   <v>       0.00800000 </v>
   <v>       0.06400000 </v>
   <v>       0.06400000 </v>
   <v>       0.04800000 </v>
   <v>       0.19200000 </v>
   <v>       0.19200000 </v>
   <v>       0.09600000 </v>
   <v>       0.04800000 </v>
   <v>       0.09600000 </v>
   <v>       0.19200000 </v>
  </varray>
 </kpoints>
 <parameters>
  <separator name="general" >
   <i type="string" name="SYSTEM">unknown system</i>
   <i type="logical" name="LCOMPAT"> F  </i>
  </separator>
  <separator name="electronic" >
   <i type="string" name="PREC">accura</i>
   <i name="ENMAX">    350.00000000</i>
   <i name="ENAUG">    322.06900000</i>
   <i name="EDIFF">      0.00000100</i>
   <i type="int" name="IALGO">    38</i>
   <i type="int" name="IWAVPR">    11</i>
   <i type="int" name="NBANDS">     8</i>
   <i type="int" name="NBANDSLOW">    -1</i>
   <i type="int" name="NBANDSHIGH">    -1</i>
   <i name="NELECT">      4.00000000</i>
   <i type="int" name="TURBO">     0</i>
   <i type="int" name="IRESTART">     0</i>
   <i type="int" name="NREBOOT">     0</i>
   <i type="int" name="NMIN">     0</i>
   <i name="EREF">      0.00000000</i>
   <separator name="electronic smearing" >
    <i type="int" name="ISMEAR">     0</i>
    <i name="SIGMA">      0.05000000</i>
    <i name="KSPACING">      0.50000000</i>
    <i type="logical" name="KGAMMA"> T  </i>
    <i type="logical" name="KBLOWUP"> T  </i>
   </separator>
   <separator name="electronic projectors" >
    <i type="logical" name="LREAL"> F  </i>
    <v name="ROPT">      0.00000000</v>
    <i type="int" name="LMAXPAW">  -100</i>
    <i type="int" name="LMAXMIX">     2</i>
    <i type="logical" name="NLSPLINE"> F  </i>
   </separator>
   <separator name="electronic startup" >
    <i type="int" name="ISTART">     0</i>
    <i type="int" name="ICHARG">     2</i>
    <i type="int" name="INIWAV">     1</i>
   </separator>
   <separator name="electronic spin" >
    <i type="int" name="ISPIN">     1</i>
    <i type="logical" name="LNONCOLLINEAR"> F  </i>
    <v name="MAGMOM">      1.00000000</v>
    <i name="NUPDOWN">     -1.00000000</i>
    <i type="logical" name="LSORBIT"> F  </i>
    <v name="SAXIS">      0.00000000      0.00000000      1.00000000</v>
    <i type="logical" name="LSPIRAL"> F  </i>
    <v name="QSPIRAL">      0.00000000      0.00000000      0.00000000</v>
    <i type="logical" name="LZEROZ"> F  </i>
   </separator>
   <separator name="electronic exchange-correlation" >
    <i type="logical" name="LASPH"> T  </i>
    <i type="logical" name="LMETAGGA"> F  </i>
   </separator>
   <separator name="electronic convergence" >
    <i type="int" name="NELM">    90</i>
    <i type="int" name="NELMDL">    -5</i>
    <i type="int" name="NELMIN">     6</i>
    <i name="ENINI">    350.00000000</i>
    <separator name="electronic convergence detail" >
     <i type="logical" name="LDIAG"> T  </i>
     <i type="logical" name="LSUBROT"> F  </i>
     <i name="WEIMIN">      0.00100000</i>
     <i name="EBREAK">      0.00000003</i>
     <i name="DEPER">      0.30000000</i>
     <i type="int" name="NRMM">     4</i>
     <i name="TIME">      0.40000000</i>
    </separator>
   </separator>
   <separator name="electronic mixer" >
    <i name="AMIX">      0.40000000</i>
    <i name="BMIX">      1.00000000</i>
    <i name="AMIN">      0.10000000</i>
    <i name="AMIX_MAG">      1.60000000</i>
    <i name="BMIX_MAG">      1.00000000</i>
    <separator name="electronic mixer details" >
     <i type="int" name="IMIX">     4</i>
     <i type="logical" name="MIXFIRST"> F  </i>
     <i type="int" name="MAXMIX">   -45</i>
     <i name="WC">    100.00000000</i>
     <i type="int" name="INIMIX">     1</i>
     <i type="int" name="MIXPRE">     1</i>
     <i type="int" name="MREMOVE">     5</i>
    </separator>
   </separator>
   <separator name="electronic dipolcorrection" >
    <i type="logical" name="LDIPOL"> F  </i>
    <i type="logical" name="LMONO"> F  </i>
    <i type="int" name="IDIPOL">     0</i>
    <i name="EPSILON">      1.00000000</i>
    <v name="DIPOL">   -100.00000000   -100.00000000   -100.00000000</v>
    <i name="EFIELD">      0.00000000</i>
   </separator>
  </separator>
  <separator name="grids" >
   <i type="int" name="NGX">    18</i>
   <i type="int" name="NGY">    18</i>
   <i type="int" name="NGZ">    18</i>
   <i type="int" name="NGXF">    36</i>
   <i type="int" name="NGYF">    36</i>
   <i type="int" name="NGZF">    36</i>
   <i type="logical" name="ADDGRID"> T  </i>
  </separator>
  <separator name="ionic" >
   <i type="int" name="NSW">   100</i>
   <i type="int" name="IBRION">     2</i>
   <i type="int" name="MDALGO">     0</i>
   <i type="int" name="ISIF">     3</i>
   <i name="PSTRESS">      0.00000000</i>
   <i name="EDIFFG">     -0.00200000</i>
   <i type="int" name="NFREE">     1</i>
   <i name="POTIM">      0.50000000</i>
   <i name="SMASS">     -3.00000000</i>
   <i name="SCALEE">      1.00000000</i>
  </separator>
  <separator name="ionic md" >
   <i name="TEBEG">      0.00010000</i>
   <i name="TEEND">      0.00010000</i>
   <i type="int" name="NBLOCK">     1</i>
   <i type="int" name="KBLOCK">   100</i>
   <i type="int" name="NPACO">   256</i>
   <i name="APACO">     16.00000000</i>
  </separator>
  <separator name="symmetry" >
   <i type="int" name="ISYM">     2</i>
   <i name="SYMPREC">      0.00001000</i>
  </separator>
  <separator name="dos" >
   <i type="int" name="LORBIT">     0</i>
   <v name="RWIGS">     -1.00000000</v>
   <i type="int" name="NEDOS">   301</i>
   <i name="EMIN">     10.00000000</i>
   <i name="EMAX">    -10.00000000</i>
   <i name="EFERMI">      0.00000000</i>
  </separator>
  <separator name="writing" >
   <i type="int" name="NWRITE">     2</i>
   <i type="logical" name="LWAVE"> F  </i>
   <i type="logical" name="LDOWNSAMPLE"> F  </i>
   <i type="logical" name="LCHARG"> F  </i>
   <i type="logical" name="LPARD"> F  </i>
   <i type="logical" name="LVTOT"> F  </i>
   <i type="logical" name="LVHAR"> F  </i>
   <i type="logical" name="LELF"> F  </i>
   <i type="logical" name="LOPTICS"> F  </i>
   <v name="STM">      0.00000000      0.00000000      0.00000000      0.00000000      0.00000000      0.00000000      0.00000000</v>
  </separator>
  <separator name="performance" >
   <i type="int" name="NPAR">     4</i>
   <i type="int" name="NSIM">     4</i>
   <i type="int" name="NBLK">    -1</i>
   <i type="logical" name="LPLANE"> T  </i>
   <i type="logical" name="LSCALAPACK"> T  </i>
   <i type="logical" name="LSCAAWARE"> F  </i>
   <i type="logical" name="LSCALU"> F  </i>
   <i type="logical" name="LASYNC"> F  </i>
   <i type="logical" name="LORBITALREAL"> F  </i>
  </separator>
  <separator name="miscellaneous" >
   <i type="int" name="IDIOT">     3</i>
   <i type="int" name="PHON_NSTRUCT">    -1</i>
   <i type="logical" name="LMUSIC"> F  </i>
   <v name="POMASS">     28.08500000</v>
   <v name="DARWINR">      0.00000000</v>
   <v name="DARWINV">      1.00000000</v>
   <i type="logical" name="LCORR"> T  </i>
  </separator>
  <i type="logical" name="GGA_COMPAT"> T  </i>
  <i type="logical" name="LBERRY"> F  </i>
  <i type="int" name="ICORELEVEL">     0</i>
  <i type="logical" name="LDAU"> F  </i>
  <i type="int" name="I_CONSTRAINED_M">     0</i>
  <separator name="electronic exchange-correlation" >
   <i type="string" name="GGA">--</i>
   <i type="int" name="VOSKOWN">     0</i>
   <i type="logical" name="LHFCALC"> F  </i>
   <i type="string" name="PRECFOCK"></i>
   <i type="logical" name="LSYMGRAD"> F  </i>
   <i type="logical" name="LHFONE"> F  </i>
   <i type="logical" name="LRHFCALC"> F  </i>
   <i type="logical" name="LTHOMAS"> F  </i>
   <i type="logical" name="LMODELHF"> F  </i>
   <i type="logical" name="LFOCKACE"> F  </i>
   <i name="ENCUT4O">     -1.00000000</i>
   <i type="int" name="EXXOEP">     0</i>
   <i type="int" name="FOURORBIT">     0</i>
   <i name="AEXX">      0.00000000</i>
   <i name="HFALPHA">      0.00000000</i>
   <i name="MCALPHA">      0.00000000</i>
   <i name="ALDAX">      1.00000000</i>
   <i name="AGGAX">      1.00000000</i>
   <i name="ALDAC">      1.00000000</i>
   <i name="AGGAC">      1.00000000</i>
   <i type="int" name="NKREDX">     1</i>
   <i type="int" name="NKREDY">     1</i>
   <i type="int" name="NKREDZ">     1</i>
   <i type="logical" name="SHIFTRED"> F  </i>
   <i type="logical" name="ODDONLY"> F  </i>
   <i type="logical" name="EVENONLY"> F  </i>
   <i type="int" name="LMAXFOCK">     0</i>
   <i type="int" name="NMAXFOCKAE">     0</i>
   <i type="logical" name="LFOCKAEDFT"> F  </i>
   <i name="HFSCREEN">      0.00000000</i>
   <i name="HFSCREENC">      0.00000000</i>
   <i type="int" name="NBANDSGWLOW">     0</i>
  </separator>
  <separator name="vdW DFT" >
   <i type="logical" name="LUSE_VDW"> F  </i>
   <i name="Zab_VDW">     -0.84910000</i>
   <i name="PARAM1">      0.12340000</i>
   <i name="PARAM2">      1.00000000</i>
   <i name="PARAM3">      0.00000000</i>
  </separator>
  <separator name="model GW" >
   <i type="int" name="MODEL_GW">     0</i>
   <i name="MODEL_EPS0">      8.44895106</i>
   <i name="MODEL_ALPHA">      1.00000000</i>
  </separator>
  <separator name="linear response parameters" >
   <i type="logical" name="LEPSILON"> F  </i>
   <i type="logical" name="LRPA"> F  </i>
   <i type="logical" name="LNABLA"> F  </i>
   <i type="logical" name="LVEL"> F  </i>
   <i type="int" name="KINTER">     0</i>
   <i name="CSHIFT">      0.10000000</i>
   <i name="OMEGAMAX">     -1.00000000</i>
   <i name="DEG_THRESHOLD">      0.00200000</i>
   <i name="RTIME">     -0.10000000</i>
   <i name="WPLASMAI">      0.00000000</i>
   <v name="DFIELD">      0.00000000      0.00000000      0.00000000</v>
   <v name="WPLASMA">      0.00000000      0.00000000      0.00000000      0.00000000      0.00000000      0.00000000      0.00000000      0.00000000      0.00000000</v>
  </separator>
  <separator name="orbital magnetization" >
   <i type="logical" name="NUCIND"> F  </i>
   <v name="MAGPOS">      0.00000000      0.00000000      0.00000000</v>
   <i type="logical" name="LNICSALL"> T  </i>
   <i type="logical" name="ORBITALMAG"> F  </i>
   <i type="logical" name="LMAGBLOCH"> F  </i>
   <i type="logical" name="LCHIMAG"> F  </i>
   <i type="logical" name="LGAUGE"> T  </i>
   <i type="int" name="MAGATOM">     0</i>
   <v name="MAGDIPOL">      0.00000000      0.00000000      0.00000000</v>
   <v name="AVECCONST">      0.00000000      0.00000000      0.00000000</v>
  </separator>
  <separator name="response functions" >
   <i type="logical" name="LFINITE_TEMPERATURE"> F  </i>
   <i type="logical" name="LADDER"> F  </i>
   <i type="logical" name="LRPAFORCE"> F  </i>
   <i type="logical" name="LFXC"> F  </i>
   <i type="logical" name="LHARTREE"> T  </i>
   <i type="int" name="IBSE">     0</i>
   <v type="int" name="KPOINT">    -1     0     0     0</v>
   <i type="logical" name="LTCTC"> F  </i>
   <i type="logical" name="LTCTE"> F  </i>
   <i type="logical" name="LTETE"> F  </i>
   <i type="logical" name="LTRIPLET"> F  </i>
   <i type="logical" name="LFXCEPS"> F  </i>
   <i type="logical" name="LFXHEG"> F  </i>
   <i type="int" name="NATURALO">     2</i>
   <i type="logical" name="LHOLEGF"> F  </i>
   <i type="logical" name="L2ORDER"> F  </i>
   <i type="logical" name="LDMP1"> F  </i>
   <i type="logical" name="LMP2LT"> F  </i>
   <i type="logical" name="LSMP2LT"> F  </i>
   <i type="logical" name="LGWLF"> F  </i>
   <i name="ENCUTGW">     -2.00000000</i>
   <i name="ENCUTGWSOFT">     -2.00000000</i>
   <i name="ENCUTLF">     -1.00000000</i>
   <i type="logical" name="LESF_SPLINES"> F  </i>
   <i type="int" name="LMAXMP2">    -1</i>
   <i name="SCISSOR">      0.00000000</i>
   <i type="int" name="NOMEGA">     0</i>
   <i type="int" name="NOMEGAR">     0</i>
   <i type="int" name="NBANDSGW">    -1</i>
   <i type="int" name="NBANDSO">    -1</i>
   <i type="int" name="NBANDSV">    -1</i>
   <i type="int" name="NELM">    90</i>
   <i type="int" name="NELMHF">     1</i>
   <i type="int" name="DIM">     3</i>
   <i type="int" name="IESPILON">     4</i>
   <i type="int" name="ANTIRES">     0</i>
   <i name="OMEGAMAX">    -30.00000000</i>
   <i name="OMEGAMIN">    -30.00000000</i>
   <i name="OMEGATL">   -200.00000000</i>
   <i type="int" name="OMEGAGRID">     0</i>
   <i name="CSHIFT">     -0.10000000</i>
   <i type="logical" name="LSELFENERGY"> F  </i>
   <i type="logical" name="LSPECTRAL"> F  </i>
   <i type="logical" name="LSPECTRALGW"> F  </i>
   <i type="logical" name="LSINGLES"> F  </i>
   <i type="logical" name="LFERMIGW"> F  </i>
   <i type="logical" name="ODDONLYGW"> F  </i>
   <i type="logical" name="EVENONLYGW"> F  </i>
   <i type="int" name="NKREDLFX">     1</i>
   <i type="int" name="NKREDLFY">     1</i>
   <i type="int" name="NKREDLFZ">     1</i>
   <i type="int" name="MAXMEM">  2800</i>
   <i type="int" name="TELESCOPE">     0</i>
   <i type="int" name="NTAUPAR">    -1</i>
   <i type="int" name="NOMEGAPAR">    -1</i>
   <i name="DAMP_NEWTON">      0.80000001</i>
   <i name="LAMBDA">      1.00000000</i>
  </separator>
  <separator name="External order field" >
   <i name="OFIELD_KAPPA">      0.00000000</i>
   <v name="OFIELD_K">      0.00000000      0.00000000      0.00000000</v>
   <i name="OFIELD_Q6_NEAR">      0.00000000</i>
   <i name="OFIELD_Q6_FAR">      0.00000000</i>
   <i name="OFIELD_A">      0.00000000</i>
  </separator>
 </parameters>
 <atominfo>
  <atoms>       1 </atoms>
  <types>       1 </types>
  <array name="atoms" >
   <dimension dim="1">ion</dimension>
   <field type="string">element</field>
   <field type="int">atomtype</field>
   <set>
    <rc><c>Si</c><c>   1</c></rc>
   </set>
  </array>
  <array name="atomtypes" >
   <dimension dim="1">type</dimension>
   <field type="int">atomspertype</field>
   <field type="string">element</field>
   <field>mass</field>
   <field>valence</field>
   <field type="string">pseudopotential</field>
   <set>
    <rc><c>   1</c><c>Si</c><c>     28.08500000</c><c>      4.00000000</c><c>  PAW_PBE Si 05Jan2001                  </c></rc>
   </set>
  </array>
 </atominfo>
 <structure name="initialpos" >
  <crystal>
   <varray name="basis" >
    <v>       2.34739500       0.00000000       1.35526800 </v>
    <v>       0.78246500       2.21314500       1.35526800 </v>
    <v>       0.00000000       0.00000000       2.71053800 </v>
   </varray>
   <i name="volume">     14.08158510 </i>
   <varray name="rec_basis" >
    <v>       0.42600415      -0.15061523       0.00000000 </v>
    <v>       0.00000000       0.45184568       0.00000000 </v>
    <v>      -0.21300192      -0.15061511       0.36893045 </v>
   </varray>
  </crystal>
  <varray name="positions" >
   <v>       0.00000000       0.00000000       0.00000000 </v>
  </varray>
 </structure>
 <calculation>
  <scstep>
   <time name="dav">    0.05    0.05</time>
   <time name="total">    0.24    0.24</time>
   <energy>
    <i name="alphaZ">      2.39057823 </i>
    <i name="ewald">   -137.78496289 </i>
    <i name="hartreedc">     -0.54229904 </i>
    <i name="XCdc">     -8.73348015 </i>
    <i name="pawpsdc">     88.12379961 </i>
    <i name="pawaedc">    -70.53051779 </i>
    <i name="eentropy">     -0.00514813 </i>
    <i name="bandstr">     20.66558619 </i>
    <i name="atom">    103.06562707 </i>
    <i name="e_fr_energy">     -3.35081689 </i>
    <i name="e_wo_entrp">     -3.34566877 </i>
    <i name="e_0_energy">     -3.34824283 </i>
   </energy>
  </scstep>
  <scstep>
   <time name="dav">    0.07    0.09</time>
   <time name="total">    0.08    0.09</time>
   <energy>
    <i name="e_fr_energy">     -4.78044121 </i>
    <i name="e_wo_entrp">     -4.77518907 </i>
    <i name="e_0_energy">     -4.77781514 </i>
   </energy>
  </scstep>
  <scstep>
   <time name="dav">    0.06    0.07</time>
   <time name="total">    0.06    0.07</time>
   <energy>
    <i name="e_fr_energy">     -4.78808830 </i>
    <i name="e_wo_entrp">     -4.78283244 </i>
    <i name="e_0_energy">     -4.78546037 </i>
   </energy>
  </scstep>
  <scstep>
   <time name="dav">    0.07    0.08</time>
   <time name="total">    0.07    0.08</time>
   <energy>
    <i name="e_fr_energy">     -4.78809295 </i>
    <i name="e_wo_entrp">     -4.78283709 </i>
    <i name="e_0_energy">     -4.78546502 </i>
   </energy>
  </scstep>
  <scstep>
   <time name="dav">    0.06    0.07</time>
   <time name="total">    0.08    0.08</time>
   <energy>
    <i name="e_fr_energy">     -4.78809295 </i>
    <i name="e_wo_entrp">     -4.78283709 </i>
    <i name="e_0_energy">     -4.78546502 </i>
   </energy>
  </scstep>
  <scstep>
   <time name="dav">    0.05    0.05</time>
   <time name="total">    0.25    0.26</time>
   <energy>
    <i name="e_fr_energy">     -4.77497178 </i>
    <i name="e_wo_entrp">     -4.76966516 </i>
    <i name="e_0_energy">     -4.77231847 </i>
   </energy>
  </scstep>
  <scstep>
   <time name="dav">    0.05    0.05</time>
   <time name="total">    0.25    0.26</time>
   <energy>
    <i name="e_fr_energy">     -4.76732820 </i>
    <i name="e_wo_entrp">     -4.76191742 </i>
    <i name="e_0_energy">     -4.76462281 </i>
   </energy>
  </scstep>
  <scstep>
   <time name="dav">    0.06    0.06</time>
   <time name="total">    0.26    0.27</time>
   <energy>
    <i name="e_fr_energy">     -4.76729365 </i>
    <i name="e_wo_entrp">     -4.76187979 </i>
    <i name="e_0_energy">     -4.76458672 </i>
   </energy>
  </scstep>
  <scstep>
   <time name="dav">    0.05    0.05</time>
   <time name="total">    0.23    0.24</time>
   <energy>
    <i name="alphaZ">      2.39057823 </i>
    <i name="ewald">   -137.78496289 </i>
    <i name="hartreedc">     -0.42634687 </i>
    <i name="XCdc">     -8.66745950 </i>
    <i name="pawpsdc">    321.19477921 </i>
    <i name="pawaedc">   -303.61671573 </i>
    <i name="eentropy">     -0.00541477 </i>
    <i name="bandstr">     19.08262129 </i>
    <i name="atom">    103.06562707 </i>
    <i name="e_fr_energy">     -4.76729396 </i>
    <i name="e_wo_entrp">     -4.76187919 </i>
    <i name="e_0_energy">     -4.76458657 </i>
   </energy>
  </scstep>
  <structure>
   <crystal>
    <varray name="basis" >
     <v>       2.34739500       0.00000000       1.35526800 </v>
     <v>       0.78246500       2.21314500       1.35526800 </v>
     <v>       0.00000000       0.00000000       2.71053800 </v>
    </varray>
    <i name="volume">     14.08158510 </i>
    <varray name="rec_basis" >
     <v>       0.42600415      -0.15061523       0.00000000 </v>
     <v>       0.00000000       0.45184568       0.00000000 </v>
     <v>      -0.21300192      -0.15061511       0.36893045 </v>
    </varray>
   </crystal>
   <varray name="positions" >
    <v>       0.00000000       0.00000000       0.00000000 </v>
   </varray>
  </structure>
  <varray name="forces" >
   <v>       0.00000000       0.00000000      -0.00000000 </v>
  </varray>
  <varray name="stress" >
   <v>      32.74223992      -0.00000000      -0.00001395 </v>
   <v>      -0.00000000      32.74223311      -0.00000986 </v>
   <v>      -0.00001395      -0.00000986      32.74223339 </v>
  </varray>
  <energy>
   <i name="e_fr_energy">     -4.76729396 </i>
   <i name="e_wo_entrp">     -4.76187919 </i>
   <i name="e_0_energy">     -4.76458657 </i>
  </energy>
  <time name="totalsc">    2.14    2.27</time>
 </calculation>
 <calculation>
  <scstep>
   <time name="dav">    0.05    0.05</time>
   <time name="total">    0.24    0.25</time>
   <energy>
    <i name="alphaZ">      2.29371552 </i>
    <i name="ewald">   -135.89829915 </i>
    <i name="hartreedc">     -0.42044016 </i>
    <i name="XCdc">     -8.77532774 </i>
    <i name="pawpsdc">    321.23504756 </i>
    <i name="pawaedc">   -303.65668728 </i>
    <i name="eentropy">     -0.00723006 </i>
    <i name="bandstr">     17.38466460 </i>
    <i name="atom">    103.06562707 </i>
    <i name="e_fr_energy">     -4.77892963 </i>
    <i name="e_wo_entrp">     -4.77169956 </i>
    <i name="e_0_energy">     -4.77531460 </i>
   </energy>
  </scstep>
  <scstep>
   <time name="dav">    0.05    0.05</time>
   <time name="total">    0.24    0.25</time>
   <energy>
    <i name="e_fr_energy">     -4.77627678 </i>
    <i name="e_wo_entrp">     -4.76900576 </i>
    <i name="e_0_energy">     -4.77264127 </i>
   </energy>
  </scstep>
  <scstep>
   <time name="dav">    0.05    0.05</time>
   <time name="total">    0.24    0.25</time>
   <energy>
    <i name="e_fr_energy">     -4.77485260 </i>
    <i name="e_wo_entrp">     -4.76757820 </i>
    <i name="e_0_energy">     -4.77121540 </i>
   </energy>
  </scstep>
  <scstep>
   <time name="dav">    0.06    0.06</time>
   <time name="total">    0.26    0.26</time>
   <energy>
    <i name="e_fr_energy">     -4.77485002 </i>
    <i name="e_wo_entrp">     -4.76757559 </i>
    <i name="e_0_energy">     -4.77121280 </i>
   </energy>
  </scstep>
  <scstep>
   <time name="dav">    0.05    0.05</time>
   <time name="total">    0.24    0.25</time>
   <energy>
    <i name="e_fr_energy">     -4.77484017 </i>
    <i name="e_wo_entrp">     -4.76756610 </i>
    <i name="e_0_energy">     -4.77120314 </i>
   </energy>
  </scstep>
  <scstep>
   <time name="dav">    0.03    0.03</time>
   <time name="total">    0.22    0.23</time>
   <energy>
    <i name="alphaZ">      2.29371552 </i>
    <i name="ewald">   -135.89829915 </i>
    <i name="hartreedc">     -0.49394935 </i>
    <i name="XCdc">     -8.78996154 </i>
    <i name="pawpsdc">    296.55538166 </i>
    <i name="pawaedc">   -278.97419695 </i>
    <i name="eentropy">     -0.00727410 </i>
    <i name="bandstr">     17.47411617 </i>
    <i name="atom">    103.06562707 </i>
    <i name="e_fr_energy">     -4.77484066 </i>
    <i name="e_wo_entrp">     -4.76756656 </i>
    <i name="e_0_energy">     -4.77120361 </i>
   </energy>
  </scstep>
  <structure>
   <crystal>
    <varray name="basis" >
     <v>       2.37998367      -0.00000001       1.37408305 </v>
     <v>       0.79332788       2.24386988       1.37408305 </v>
     <v>      -0.00000002      -0.00000001       2.74816815 </v>
    </varray>
    <i name="volume">     14.67624493 </i>
    <varray name="rec_basis" >
     <v>       0.42017095      -0.14855288       0.00000000 </v>
     <v>       0.00000000       0.44565864       0.00000000 </v>
     <v>      -0.21008532      -0.14855277       0.36387875 </v>
    </varray>
   </crystal>
   <varray name="positions" >
    <v>       0.00000000       0.00000000      -0.00000000 </v>
   </varray>
  </structure>
  <varray name="forces" >
   <v>       0.00000000       0.00000000       0.00000000 </v>
  </varray>
  <varray name="stress" >
   <v>      17.28160146       0.00000000      -0.00000756 </v>
   <v>       0.00000000      17.28159777      -0.00000535 </v>
   <v>      -0.00000756      -0.00000535      17.28159792 </v>
  </varray>
  <energy>
   <i name="e_fr_energy">     -4.77484066 </i>
   <i name="e_wo_entrp">     -4.76756656 </i>
   <i name="e_0_energy">     -4.77120361 </i>
  </energy>
  <time name="totalsc">    2.06    2.17</time>
 </calculation>
 <calculation>
  <scstep>
   <time name="dav">    0.05    0.05</time>
   <time name="total">    0.24    0.25</time>
   <energy>
    <i name="alphaZ">      2.18226259 </i>
    <i name="ewald">   -133.66052818 </i>
    <i name="hartreedc">     -0.48581613 </i>
    <i name="XCdc">     -8.91758156 </i>
    <i name="pawpsdc">    296.30434965 </i>
    <i name="pawaedc">   -278.72318161 </i>
    <i name="eentropy">     -0.00549991 </i>
    <i name="bandstr">     15.45411255 </i>
    <i name="atom">    103.06562707 </i>
    <i name="e_fr_energy">     -4.78625552 </i>
    <i name="e_wo_entrp">     -4.78075561 </i>
    <i name="e_0_energy">     -4.78350557 </i>
   </energy>
  </scstep>
  <scstep>
   <time name="dav">    0.05    0.05</time>
   <time name="total">    0.24    0.25</time>
   <energy>
    <i name="e_fr_energy">     -4.78253076 </i>
    <i name="e_wo_entrp">     -4.77698482 </i>
    <i name="e_0_energy">     -4.77975779 </i>
   </energy>
  </scstep>
  <scstep>
   <time name="dav">    0.05    0.05</time>
   <time name="total">    0.24    0.25</time>
   <energy>
    <i name="e_fr_energy">     -4.78041595 </i>
    <i name="e_wo_entrp">     -4.77480327 </i>
    <i name="e_0_energy">     -4.77760961 </i>
   </energy>
  </scstep>
  <scstep>
   <time name="dav">    0.08    0.08</time>
   <time name="total">    0.27    0.28</time>
   <energy>
    <i name="e_fr_energy">     -4.78041384 </i>
    <i name="e_wo_entrp">     -4.77480139 </i>
    <i name="e_0_energy">     -4.77760761 </i>
   </energy>
  </scstep>
  <scstep>
   <time name="dav">    0.05    0.05</time>
   <time name="total">    0.24    0.25</time>
   <energy>
    <i name="e_fr_energy">     -4.78040391 </i>
    <i name="e_wo_entrp">     -4.77479148 </i>
    <i name="e_0_energy">     -4.77759769 </i>
   </energy>
  </scstep>
  <scstep>
   <time name="dav">    0.03    0.03</time>
   <time name="total">    0.21    0.23</time>
   <energy>
    <i name="alphaZ">      2.18226259 </i>
    <i name="ewald">   -133.66052818 </i>
    <i name="hartreedc">     -0.59486104 </i>
    <i name="XCdc">     -8.93152322 </i>
    <i name="pawpsdc">    270.17182583 </i>
    <i name="pawaedc">   -252.58661528 </i>
    <i name="eentropy">     -0.00561246 </i>
    <i name="bandstr">     15.57902028 </i>
    <i name="atom">    103.06562707 </i>
    <i name="e_fr_energy">     -4.78040441 </i>
    <i name="e_wo_entrp">     -4.77479195 </i>
    <i name="e_0_energy">     -4.77759818 </i>
   </energy>
  </scstep>
  <structure>
   <crystal>
    <varray name="basis" >
     <v>       2.41982982      -0.00000001       1.39708820 </v>
     <v>       0.80660993       2.28143719       1.39708820 </v>
     <v>      -0.00000004      -0.00000003       2.79417852 </v>
    </varray>
    <i name="volume">     15.42579289 </i>
    <varray name="rec_basis" >
     <v>       0.41325220      -0.14610673       0.00000000 </v>
     <v>       0.00000000       0.43832020       0.00000000 </v>
     <v>      -0.20662594      -0.14610662       0.35788694 </v>
    </varray>
   </crystal>
   <varray name="positions" >
    <v>      -0.00000000      -0.00000000      -0.00000000 </v>
   </varray>
  </structure>
  <varray name="forces" >
   <v>      -0.00000000      -0.00000000       0.00000000 </v>
  </varray>
  <varray name="stress" >
   <v>      -3.32966253       0.00000000       0.00000150 </v>
   <v>      -0.00000000      -3.32966179       0.00000106 </v>
   <v>       0.00000150       0.00000106      -3.32966182 </v>
  </varray>
  <energy>
   <i name="e_fr_energy">     -4.78040441 </i>
   <i name="e_wo_entrp">     -4.77479195 </i>
   <i name="e_0_energy">     -4.77759818 </i>
  </energy>
  <time name="totalsc">    2.07    2.17</time>
 </calculation>
 <calculation>
  <scstep>
   <time name="dav">    0.05    0.05</time>
   <time name="total">    0.24    0.25</time>
   <energy>
    <i name="alphaZ">      2.20051847 </i>
    <i name="ewald">   -134.03220929 </i>
    <i name="hartreedc">     -0.59650247 </i>
    <i name="XCdc">     -8.91063672 </i>
    <i name="pawpsdc">    269.87690383 </i>
    <i name="pawaedc">   -252.29169474 </i>
    <i name="eentropy">     -0.00577468 </i>
    <i name="bandstr">     15.91320542 </i>
    <i name="atom">    103.06562707 </i>
    <i name="e_fr_energy">     -4.78056311 </i>
    <i name="e_wo_entrp">     -4.77478843 </i>
    <i name="e_0_energy">     -4.77767577 </i>
   </energy>
  </scstep>
  <scstep>
   <time name="dav">    0.05    0.05</time>
   <time name="total">    0.24    0.25</time>
   <energy>
    <i name="e_fr_energy">     -4.78047252 </i>
    <i name="e_wo_entrp">     -4.77470427 </i>
    <i name="e_0_energy">     -4.77758840 </i>
   </energy>
  </scstep>
  <scstep>
   <time name="dav">    0.05    0.05</time>
   <time name="total">    0.24    0.25</time>
   <energy>
    <i name="e_fr_energy">     -4.78042156 </i>
    <i name="e_wo_entrp">     -4.77466266 </i>
    <i name="e_0_energy">     -4.77754211 </i>
   </energy>
  </scstep>
  <scstep>
   <time name="dav">    0.04    0.04</time>
   <time name="total">    0.23    0.24</time>
   <energy>
    <i name="e_fr_energy">     -4.78042162 </i>
    <i name="e_wo_entrp">     -4.77466268 </i>
    <i name="e_0_energy">     -4.77754215 </i>
   </energy>
  </scstep>
  <scstep>
   <time name="dav">    0.03    0.03</time>
   <time name="total">    0.22    0.24</time>
   <energy>
    <i name="e_fr_energy">     -4.78042220 </i>
    <i name="e_wo_entrp">     -4.77466327 </i>
    <i name="e_0_energy">     -4.77754274 </i>
   </energy>
  </scstep>
  <scstep>
   <time name="dav">    0.03    0.03</time>
   <time name="total">    0.21    0.22</time>
   <energy>
    <i name="alphaZ">      2.20051847 </i>
    <i name="ewald">   -134.03220929 </i>
    <i name="hartreedc">     -0.57780463 </i>
    <i name="XCdc">     -8.90835281 </i>
    <i name="pawpsdc">    274.06932359 </i>
    <i name="pawaedc">   -256.48544033 </i>
    <i name="eentropy">     -0.00575893 </i>
    <i name="bandstr">     15.89367475 </i>
    <i name="atom">    103.06562707 </i>
    <i name="e_fr_energy">     -4.78042210 </i>
    <i name="e_wo_entrp">     -4.77466317 </i>
    <i name="e_0_energy">     -4.77754264 </i>
   </energy>
  </scstep>
  <structure>
   <crystal>
    <varray name="basis" >
     <v>       2.41311946      -0.00000001       1.39321397 </v>
     <v>       0.80437314       2.27511060       1.39321397 </v>
     <v>      -0.00000003      -0.00000002       2.78643006 </v>
    </varray>
    <i name="volume">     15.29781788 </i>
    <varray name="rec_basis" >
     <v>       0.41440136      -0.14651302       0.00000000 </v>
     <v>       0.00000000       0.43953907       0.00000000 </v>
     <v>      -0.20720052      -0.14651291       0.35888214 </v>
    </varray>
   </crystal>
   <varray name="positions" >
    <v>      -0.00000000      -0.00000000      -0.00000000 </v>
   </varray>
  </structure>
  <varray name="forces" >
   <v>      -0.00000000      -0.00000000      -0.00000000 </v>
  </varray>
  <varray name="stress" >
   <v>       2.91770084       0.00000000      -0.00000131 </v>
   <v>       0.00000000       2.91770020      -0.00000093 </v>
   <v>      -0.00000131      -0.00000093       2.91770023 </v>
  </varray>
  <energy>
   <i name="e_fr_energy">     -4.78042210 </i>
   <i name="e_wo_entrp">     -4.77466317 </i>
   <i name="e_0_energy">     -4.77754264 </i>
  </energy>
  <time name="totalsc">    2.01    2.12</time>
 </calculation>
 <calculation>
  <scstep>
   <time name="dav">    0.05    0.05</time>
   <time name="total">    0.24    0.24</time>
   <energy>
    <i name="alphaZ">      2.19200506 </i>
    <i name="ewald">   -133.85913710 </i>
    <i name="hartreedc">     -0.57705935 </i>
    <i name="XCdc">     -8.91810969 </i>
    <i name="pawpsdc">    274.09431624 </i>
    <i name="pawaedc">   -256.51043258 </i>
    <i name="eentropy">     -0.00568429 </i>
    <i name="bandstr">     15.73796712 </i>
    <i name="atom">    103.06562707 </i>
    <i name="e_fr_energy">     -4.78050752 </i>
    <i name="e_wo_entrp">     -4.77482323 </i>
    <i name="e_0_energy">     -4.77766538 </i>
   </energy>
  </scstep>
  <scstep>
   <time name="dav">    0.05    0.05</time>
   <time name="total">    0.24    0.25</time>
   <energy>
    <i name="e_fr_energy">     -4.78048800 </i>
    <i name="e_wo_entrp">     -4.77480047 </i>
    <i name="e_0_energy">     -4.77764424 </i>
   </energy>
  </scstep>
  <scstep>
   <time name="dav">    0.05    0.05</time>
   <time name="total">    0.24    0.26</time>
   <energy>
    <i name="e_fr_energy">     -4.78047629 </i>
    <i name="e_wo_entrp">     -4.77478412 </i>
    <i name="e_0_energy">     -4.77763021 </i>
   </energy>
  </scstep>
  <scstep>
   <time name="dav">    0.03    0.03</time>
   <time name="total">    0.23    0.23</time>
   <energy>
    <i name="e_fr_energy">     -4.78047624 </i>
    <i name="e_wo_entrp">     -4.77478409 </i>
    <i name="e_0_energy">     -4.77763017 </i>
   </energy>
  </scstep>
  <scstep>
   <time name="dav">    0.03    0.03</time>
   <time name="total">    0.22    0.24</time>
   <energy>
    <i name="e_fr_energy">     -4.78047589 </i>
    <i name="e_wo_entrp">     -4.77478373 </i>
    <i name="e_0_energy">     -4.77762981 </i>
   </energy>
  </scstep>
  <scstep>
   <time name="dav">    0.03    0.03</time>
   <time name="total">    0.21    0.22</time>
   <energy>
    <i name="alphaZ">      2.19200506 </i>
    <i name="ewald">   -133.85913710 </i>
    <i name="hartreedc">     -0.58569498 </i>
    <i name="XCdc">     -8.91916023 </i>
    <i name="pawpsdc">    272.05987784 </i>
    <i name="pawaedc">   -254.47538381 </i>
    <i name="eentropy">     -0.00569216 </i>
    <i name="bandstr">     15.74708238 </i>
    <i name="atom">    103.06562707 </i>
    <i name="e_fr_energy">     -4.78047593 </i>
    <i name="e_wo_entrp">     -4.77478377 </i>
    <i name="e_0_energy">     -4.77762985 </i>
   </energy>
  </scstep>
  <structure>
   <crystal>
    <varray name="basis" >
     <v>       2.41623948      -0.00000001       1.39501532 </v>
     <v>       0.80541315       2.27805218       1.39501532 </v>
     <v>      -0.00000003      -0.00000002       2.79003276 </v>
    </varray>
    <i name="volume">     15.35723223 </i>
    <varray name="rec_basis" >
     <v>       0.41386626      -0.14632383       0.00000000 </v>
     <v>       0.00000000       0.43897150       0.00000000 </v>
     <v>      -0.20693297      -0.14632372       0.35841873 </v>
    </varray>
   </crystal>
   <varray name="positions" >
    <v>      -0.00000000      -0.00000000      -0.00000000 </v>
   </varray>
  </structure>
  <varray name="forces" >
   <v>      -0.00000000      -0.00000000      -0.00000000 </v>
  </varray>
  <varray name="stress" >
   <v>       0.02611686       0.00000000      -0.00000001 </v>
   <v>       0.00000000       0.02611685      -0.00000001 </v>
   <v>      -0.00000001      -0.00000001       0.02611685 </v>
  </varray>
  <energy>
   <i name="e_fr_energy">     -4.78047593 </i>
   <i name="e_wo_entrp">     -4.77478377 </i>
   <i name="e_0_energy">     -4.77762985 </i>
  </energy>
  <time name="totalsc">    2.00    2.12</time>
  <eigenvalues>
   <array>
    <dimension dim="1">band</dimension>
    <dimension dim="2">kpoint</dimension>
    <dimension dim="3">spin</dimension>
    <field>eigene</field>
    <field>occ</field>
    <set>
     <set comment="spin 1">
      <set comment="kpoint 1">
       <r>   -4.5026    1.0000 </r>
       <r>   19.8591    0.0000 </r>
       <r>   19.8591    0.0000 </r>
       <r>   19.8591    0.0000 </r>
       <r>   21.1511    0.0000 </r>
       <r>   21.1511    0.0000 </r>
       <r>   21.1511    0.0000 </r>
       <r>   26.3145    0.0000 </r>
      </set>
      <set comment="kpoint 2">
       <r>   -3.3872    1.0000 </r>
       <r>   12.6301    0.0000 </r>
       <r>   18.1064    0.0000 </r>
       <r>   18.1064    0.0000 </r>
       <r>   22.0952    0.0000 </r>
       <r>   23.0358    0.0000 </r>
       <r>   23.0358    0.0000 </r>
       <r>   26.0578    0.0000 </r>
      </set>
      <set comment="kpoint 3">
       <r>   -0.0902    1.0000 </r>
       <r>    5.3917    1.0000 </r>
       <r>   17.4497    0.0000 </r>
       <r>   17.4497    0.0000 </r>
       <r>   20.5695    0.0000 </r>
       <r>   20.5695    0.0000 </r>
       <r>   22.0004    0.0000 </r>
       <r>   25.4273    0.0000 </r>
      </set>
      <set comment="kpoint 4">
       <r>   -3.0160    1.0000 </r>
       <r>   15.3660    0.0000 </r>
       <r>   15.3660    0.0000 </r>
       <r>   16.7115    0.0000 </r>
       <r>   17.1796    0.0000 </r>
       <r>   19.9794    0.0000 </r>
       <r>   27.3124    0.0000 </r>
       <r>   27.3124    0.0000 </r>
      </set>
      <set comment="kpoint 5">
       <r>   -0.4437    1.0000 </r>
       <r>    8.5195    0.6560 </r>
       <r>   13.5425    0.0000 </r>
       <r>   14.3805    0.0000 </r>
       <r>   17.1144    0.0000 </r>
       <r>   22.4023    0.0000 </r>
       <r>   26.0317    0.0000 </r>
       <r>   28.0918    0.0000 </r>
      </set>
      <set comment="kpoint 6">
       <r>    2.3937    1.0000 </r>
       <r>    4.3685    1.0000 </r>
       <r>   11.2953    0.0000 </r>
       <r>   15.3035    0.0000 </r>
       <r>   18.0910    0.0000 </r>
       <r>   24.0360    0.0000 </r>
       <r>   26.0335    0.0000 </r>
       <r>   29.4962    0.0000 </r>
      </set>
      <set comment="kpoint 7">
       <r>   -1.5425    1.0000 </r>
       <r>   10.6376    0.0000 </r>
       <r>   11.2605    0.0000 </r>
       <r>   17.9121    0.0000 </r>
       <r>   21.0748    0.0000 </r>
       <r>   23.8733    0.0000 </r>
       <r>   23.9978    0.0000 </r>
       <r>   24.7889    0.0000 </r>
      </set>
      <set comment="kpoint 8">
       <r>    1.3784    1.0000 </r>
       <r>    8.4929    0.8762 </r>
       <r>   12.7631    0.0000 </r>
       <r>   12.7631    0.0000 </r>
       <r>   14.2848    0.0000 </r>
       <r>   16.2535    0.0000 </r>
       <r>   32.2685    0.0000 </r>
       <r>   33.3658    0.0000 </r>
      </set>
      <set comment="kpoint 9">
       <r>    5.0439    1.0000 </r>
       <r>    5.4971    1.0000 </r>
       <r>    7.3112    1.0000 </r>
       <r>   13.0831    0.0000 </r>
       <r>   15.6060    0.0000 </r>
       <r>   21.2439    0.0000 </r>
       <r>   30.3583    0.0000 </r>
       <r>   31.7986    0.0000 </r>
      </set>
      <set comment="kpoint 10">
       <r>    2.8028    1.0000 </r>
       <r>    7.8516    1.0000 </r>
       <r>    8.3904    1.0000 </r>
       <r>   10.2060    0.0000 </r>
       <r>   21.8684    0.0000 </r>
       <r>   22.0300    0.0000 </r>
       <r>   24.4449    0.0000 </r>
       <r>   29.8069    0.0000 </r>
      </set>
     </set>
    </set>
   </array>
  </eigenvalues>
  <separator name="orbital magnetization" >
   <v name="MAGDIPOLOUT">      0.00000000      0.00000000      0.00000000</v>
  </separator>
  <dos>
   <i name="efermi">      8.53373974 </i>
   <total>
    <array>
     <dimension dim="1">gridpoints</dimension>
     <dimension dim="2">spin</dimension>
     <field>energy</field>
     <field>total</field>
     <field>integrated</field>
     <set>
      <set comment="spin 1">
       <r>    -6.3960     0.0000     0.0000 </r>
       <r>    -6.2572     0.0000     0.0000 </r>
       <r>    -6.1183     0.0000     0.0000 </r>
       <r>    -5.9795     0.0000     0.0000 </r>
       <r>    -5.8406     0.0000     0.0000 </r>
       <r>    -5.7018     0.0000     0.0000 </r>
       <r>    -5.5629     0.0000     0.0000 </r>
       <r>    -5.4241     0.0000     0.0000 </r>
       <r>    -5.2852     0.0000     0.0000 </r>
       <r>    -5.1464     0.0000     0.0000 </r>
       <r>    -5.0075     0.0000     0.0000 </r>
       <r>    -4.8687     0.0000     0.0000 </r>
       <r>    -4.7298     0.0000     0.0000 </r>
       <r>    -4.5910     0.0007     0.0001 </r>
       <r>    -4.4521     0.1057     0.0148 </r>
       <r>    -4.3133     0.0088     0.0160 </r>
       <r>    -4.1744     0.0000     0.0160 </r>
       <r>    -4.0356     0.0000     0.0160 </r>
       <r>    -3.8967     0.0000     0.0160 </r>
       <r>    -3.7579     0.0000     0.0160 </r>
       <r>    -3.6190     0.0000     0.0160 </r>
       <r>    -3.4802     0.0039     0.0165 </r>
       <r>    -3.3413     0.8283     0.1316 </r>
       <r>    -3.2025     0.0896     0.1440 </r>
       <r>    -3.0636     0.0615     0.1525 </r>
       <r>    -2.9248     0.6264     0.2395 </r>
       <r>    -2.7859     0.0034     0.2400 </r>
       <r>    -2.6471     0.0000     0.2400 </r>
       <r>    -2.5082     0.0000     0.2400 </r>
       <r>    -2.3694     0.0000     0.2400 </r>
       <r>    -2.2305     0.0000     0.2400 </r>
       <r>    -2.0917     0.0000     0.2400 </r>
       <r>    -1.9528     0.0000     0.2400 </r>
       <r>    -1.8140     0.0000     0.2400 </r>
       <r>    -1.6751     0.0001     0.2400 </r>
       <r>    -1.5363     0.7877     0.3494 </r>
       <r>    -1.3974     0.5949     0.4320 </r>
       <r>    -1.2586     0.0000     0.4320 </r>
       <r>    -1.1197     0.0000     0.4320 </r>
       <r>    -0.9809     0.0000     0.4320 </r>
       <r>    -0.8420     0.0000     0.4320 </r>
       <r>    -0.7031     0.0000     0.4320 </r>
       <r>    -0.5643     0.0009     0.4321 </r>
       <r>    -0.4254     1.9274     0.6997 </r>
       <r>    -0.2866     0.8373     0.8160 </r>
       <r>    -0.1477     0.0477     0.8226 </r>
       <r>    -0.0089     0.8643     0.9426 </r>
       <r>     0.1300     0.0099     0.9440 </r>
       <r>     0.2688     0.0000     0.9440 </r>
       <r>     0.4077     0.0000     0.9440 </r>
       <r>     0.5465     0.0000     0.9440 </r>
       <r>     0.6854     0.0000     0.9440 </r>
       <r>     0.8242     0.0000     0.9440 </r>
       <r>     0.9631     0.0000     0.9440 </r>
       <r>     1.1019     0.0000     0.9440 </r>
       <r>     1.2408     0.0000     0.9440 </r>
       <r>     1.3796     0.3553     0.9933 </r>
       <r>     1.5185     0.3360     1.0400 </r>
       <r>     1.6573     0.0000     1.0400 </r>
       <r>     1.7962     0.0000     1.0400 </r>
       <r>     1.9350     0.0000     1.0400 </r>
       <r>     2.0739     0.0000     1.0400 </r>
       <r>     2.2127     0.0000     1.0400 </r>
       <r>     2.3516     0.3224     1.0848 </r>
       <r>     2.4904     2.4346     1.4228 </r>
       <r>     2.6293     0.0086     1.4240 </r>
       <r>     2.7681     0.4522     1.4868 </r>
       <r>     2.9070     2.3089     1.8074 </r>
       <r>     3.0458     0.0044     1.8080 </r>
       <r>     3.1847     0.0000     1.8080 </r>
       <r>     3.3235     0.0000     1.8080 </r>
       <r>     3.4624     0.0000     1.8080 </r>
       <r>     3.6012     0.0000     1.8080 </r>
       <r>     3.7401     0.0000     1.8080 </r>
       <r>     3.8789     0.0000     1.8080 </r>
       <r>     4.0178     0.0000     1.8080 </r>
       <r>     4.1566     0.0000     1.8080 </r>
       <r>     4.2955     0.0539     1.8155 </r>
       <r>     4.4343     2.6253     2.1800 </r>
       <r>     4.5732     0.0864     2.1920 </r>
       <r>     4.7120     0.0000     2.1920 </r>
       <r>     4.8509     0.0000     2.1920 </r>
       <r>     4.9897     0.0868     2.2040 </r>
       <r>     5.1286     1.2845     2.3824 </r>
       <r>     5.2674     0.0117     2.3840 </r>
       <r>     5.4063     0.6149     2.4694 </r>
       <r>     5.5451     1.5690     2.6873 </r>
       <r>     5.6840     0.1206     2.7040 </r>
       <r>     5.8228     0.0000     2.7040 </r>
       <r>     5.9617     0.0000     2.7040 </r>
       <r>     6.1005     0.0000     2.7040 </r>
       <r>     6.2394     0.0000     2.7040 </r>
       <r>     6.3782     0.0000     2.7040 </r>
       <r>     6.5171     0.0000     2.7040 </r>
       <r>     6.6559     0.0000     2.7040 </r>
       <r>     6.7948     0.0000     2.7040 </r>
       <r>     6.9337     0.0000     2.7040 </r>
       <r>     7.0725     0.0000     2.7040 </r>
       <r>     7.2114     0.0033     2.7045 </r>
       <r>     7.3502     1.1929     2.8701 </r>
       <r>     7.4891     0.1866     2.8960 </r>
       <r>     7.6279     0.0000     2.8960 </r>
       <r>     7.7668     0.0226     2.8991 </r>
       <r>     7.9056     2.5676     3.2557 </r>
       <r>     8.0445     0.1753     3.2800 </r>
       <r>     8.1833     0.0000     3.2800 </r>
       <r>     8.3222     0.0742     3.2903 </r>
       <r>     8.4610     2.8905     3.6916 </r>
       <r>     8.5999     3.2251     4.1394 </r>
       <r>     8.7387     0.0328     4.1440 </r>
       <r>     8.8776     0.0000     4.1440 </r>
       <r>     9.0164     0.0000     4.1440 </r>
       <r>     9.1553     0.0000     4.1440 </r>
       <r>     9.2941     0.0000     4.1440 </r>
       <r>     9.4330     0.0000     4.1440 </r>
       <r>     9.5718     0.0000     4.1440 </r>
       <r>     9.7107     0.0000     4.1440 </r>
       <r>     9.8495     0.0000     4.1440 </r>
       <r>     9.9884     0.0000     4.1440 </r>
       <r>    10.1272     0.0357     4.1490 </r>
       <r>    10.2661     2.6062     4.5108 </r>
       <r>    10.4049     0.1236     4.5280 </r>
       <r>    10.5438     0.0055     4.5288 </r>
       <r>    10.6826     1.2368     4.7005 </r>
       <r>    10.8215     0.1405     4.7200 </r>
       <r>    10.9603     0.0000     4.7200 </r>
       <r>    11.0992     0.0000     4.7200 </r>
       <r>    11.2380     0.5080     4.7905 </r>
       <r>    11.3769     3.6106     5.2919 </r>
       <r>    11.5157     0.0298     5.2960 </r>
       <r>    11.6546     0.0000     5.2960 </r>
       <r>    11.7934     0.0000     5.2960 </r>
       <r>    11.9323     0.0000     5.2960 </r>
       <r>    12.0711     0.0000     5.2960 </r>
       <r>    12.2100     0.0000     5.2960 </r>
       <r>    12.3488     0.0000     5.2960 </r>
       <r>    12.4877     0.0000     5.2960 </r>
       <r>    12.6265     0.4239     5.3549 </r>
       <r>    12.7654     1.2251     5.5250 </r>
       <r>    12.9042     0.6556     5.6160 </r>
       <r>    13.0431     0.1786     5.6408 </r>
       <r>    13.1819     1.2007     5.8075 </r>
       <r>    13.3208     0.0036     5.8080 </r>
       <r>    13.4596     0.0264     5.8117 </r>
       <r>    13.5985     2.5827     6.1703 </r>
       <r>    13.7373     0.1565     6.1920 </r>
       <r>    13.8762     0.0000     6.1920 </r>
       <r>    14.0150     0.0000     6.1920 </r>
       <r>    14.1539     0.0001     6.1920 </r>
       <r>    14.2927     0.4249     6.2510 </r>
       <r>    14.4316     2.8263     6.6434 </r>
       <r>    14.5704     0.2057     6.6720 </r>
       <r>    14.7093     0.0000     6.6720 </r>
       <r>    14.8482     0.0000     6.6720 </r>
       <r>    14.9870     0.0000     6.6720 </r>
       <r>    15.1259     0.0000     6.6720 </r>
       <r>    15.2647     0.3797     6.7247 </r>
       <r>    15.4036     3.5626     7.2194 </r>
       <r>    15.5424     0.2559     7.2549 </r>
       <r>    15.6813     1.3099     7.4368 </r>
       <r>    15.8201     0.0230     7.4400 </r>
       <r>    15.9590     0.0000     7.4400 </r>
       <r>    16.0978     0.0000     7.4400 </r>
       <r>    16.2367     0.2191     7.4704 </r>
       <r>    16.3755     0.4721     7.5360 </r>
       <r>    16.5144     0.0002     7.5360 </r>
       <r>    16.6532     0.0342     7.5408 </r>
       <r>    16.7921     0.6493     7.6309 </r>
       <r>    16.9309     0.0079     7.6320 </r>
       <r>    17.0698     0.2867     7.6718 </r>
       <r>    17.2086     3.0174     8.0908 </r>
       <r>    17.3475     0.1563     8.1125 </r>
       <r>    17.4863     1.5634     8.3296 </r>
       <r>    17.6252     0.2768     8.3680 </r>
       <r>    17.7640     0.0000     8.3680 </r>
       <r>    17.9029     0.5490     8.4442 </r>
       <r>    18.0417     1.1208     8.5999 </r>
       <r>    18.1806     4.2733     9.1932 </r>
       <r>    18.3194     0.0489     9.2000 </r>
       <r>    18.4583     0.0000     9.2000 </r>
       <r>    18.5971     0.0000     9.2000 </r>
       <r>    18.7360     0.0000     9.2000 </r>
       <r>    18.8748     0.0000     9.2000 </r>
       <r>    19.0137     0.0000     9.2000 </r>
       <r>    19.1525     0.0000     9.2000 </r>
       <r>    19.2914     0.0000     9.2000 </r>
       <r>    19.4302     0.0000     9.2000 </r>
       <r>    19.5691     0.0000     9.2000 </r>
       <r>    19.7079     0.0000     9.2000 </r>
       <r>    19.8468     0.1257     9.2175 </r>
       <r>    19.9856     0.6138     9.3027 </r>
       <r>    20.1245     0.2976     9.3440 </r>
       <r>    20.2633     0.0000     9.3440 </r>
       <r>    20.4022     0.0000     9.3440 </r>
       <r>    20.5410     0.3881     9.3979 </r>
       <r>    20.6799     1.4539     9.5998 </r>
       <r>    20.8187     0.0017     9.6000 </r>
       <r>    20.9576     0.0006     9.6001 </r>
       <r>    21.0964     1.0300     9.7431 </r>
       <r>    21.2353     1.2539     9.9172 </r>
       <r>    21.3741     0.8266    10.0320 </r>
       <r>    21.5130     0.0002    10.0320 </r>
       <r>    21.6518     0.0000    10.0320 </r>
       <r>    21.7907     0.0387    10.0374 </r>
       <r>    21.9295     2.6382    10.4037 </r>
       <r>    22.0684     3.5747    10.9000 </r>
       <r>    22.2072     1.1225    11.0559 </r>
       <r>    22.3461     0.1551    11.0774 </r>
       <r>    22.4849     2.5842    11.4363 </r>
       <r>    22.6238     0.0269    11.4400 </r>
       <r>    22.7627     0.0000    11.4400 </r>
       <r>    22.9015     0.0001    11.4400 </r>
       <r>    23.0404     1.0157    11.5810 </r>
       <r>    23.1792     0.8278    11.6960 </r>
       <r>    23.3181     0.0000    11.6960 </r>
       <r>    23.4569     0.0000    11.6960 </r>
       <r>    23.5958     0.0000    11.6960 </r>
       <r>    23.7346     0.0001    11.6960 </r>
       <r>    23.8735     0.6947    11.7925 </r>
       <r>    24.0123     2.2935    12.1109 </r>
       <r>    24.1512     2.5413    12.4638 </r>
       <r>    24.2900     0.0016    12.4640 </r>
       <r>    24.4289     0.8985    12.5888 </r>
       <r>    24.5677     1.8663    12.8479 </r>
       <r>    24.7066     0.0145    12.8499 </r>
       <r>    24.8454     1.2932    13.0295 </r>
       <r>    24.9843     0.0758    13.0400 </r>
       <r>    25.1231     0.0000    13.0400 </r>
       <r>    25.2620     0.0000    13.0400 </r>
       <r>    25.4008     0.2088    13.0690 </r>
       <r>    25.5397     0.7123    13.1679 </r>
       <r>    25.6785     0.0007    13.1680 </r>
       <r>    25.8174     0.0000    13.1680 </r>
       <r>    25.9562     0.0870    13.1801 </r>
       <r>    26.0951     6.0177    14.0157 </r>
       <r>    26.2339     0.3495    14.0642 </r>
       <r>    26.3728     0.1082    14.0792 </r>
       <r>    26.5116     0.0057    14.0800 </r>
       <r>    26.6505     0.0000    14.0800 </r>
       <r>    26.7893     0.0000    14.0800 </r>
       <r>    26.9282     0.0000    14.0800 </r>
       <r>    27.0670     0.0000    14.0800 </r>
       <r>    27.2059     0.0018    14.0802 </r>
       <r>    27.3447     1.1315    14.2374 </r>
       <r>    27.4836     0.2495    14.2720 </r>
       <r>    27.6224     0.0000    14.2720 </r>
       <r>    27.7613     0.0000    14.2720 </r>
       <r>    27.9001     0.0000    14.2720 </r>
       <r>    28.0390     0.1869    14.2980 </r>
       <r>    28.1778     2.5579    14.6531 </r>
       <r>    28.3167     0.0207    14.6560 </r>
       <r>    28.4555     0.0000    14.6560 </r>
       <r>    28.5944     0.0000    14.6560 </r>
       <r>    28.7332     0.0000    14.6560 </r>
       <r>    28.8721     0.0000    14.6560 </r>
       <r>    29.0109     0.0000    14.6560 </r>
       <r>    29.1498     0.0000    14.6560 </r>
       <r>    29.2886     0.0000    14.6560 </r>
       <r>    29.4275     0.0718    14.6660 </r>
       <r>    29.5663     2.6283    15.0309 </r>
       <r>    29.7052     0.0710    15.0408 </r>
       <r>    29.8440     2.3550    15.3678 </r>
       <r>    29.9829     0.4049    15.4240 </r>
       <r>    30.1217     0.0000    15.4240 </r>
       <r>    30.2606     0.0039    15.4245 </r>
       <r>    30.3995     1.2096    15.5925 </r>
       <r>    30.5383     0.1693    15.6160 </r>
       <r>    30.6772     0.0000    15.6160 </r>
       <r>    30.8160     0.0000    15.6160 </r>
       <r>    30.9549     0.0000    15.6160 </r>
       <r>    31.0937     0.0000    15.6160 </r>
       <r>    31.2326     0.0000    15.6160 </r>
       <r>    31.3714     0.0000    15.6160 </r>
       <r>    31.5103     0.0000    15.6160 </r>
       <r>    31.6491     0.0000    15.6160 </r>
       <r>    31.7880     0.5280    15.6893 </r>
       <r>    31.9268     0.8546    15.8080 </r>
       <r>    32.0657     0.0002    15.8080 </r>
       <r>    32.2045     0.0244    15.8114 </r>
       <r>    32.3434     0.6552    15.9024 </r>
       <r>    32.4822     0.0118    15.9040 </r>
       <r>    32.6211     0.0000    15.9040 </r>
       <r>    32.7599     0.0000    15.9040 </r>
       <r>    32.8988     0.0000    15.9040 </r>
       <r>    33.0376     0.0000    15.9040 </r>
       <r>    33.1765     0.0000    15.9040 </r>
       <r>    33.3153     0.0530    15.9114 </r>
       <r>    33.4542     0.6341    15.9994 </r>
       <r>    33.5930     0.0043    16.0000 </r>
       <r>    33.7319     0.0000    16.0000 </r>
       <r>    33.8707     0.0000    16.0000 </r>
       <r>    34.0096     0.0000    16.0000 </r>
       <r>    34.1484     0.0000    16.0000 </r>
       <r>    34.2873     0.0000    16.0000 </r>
       <r>    34.4261     0.0000    16.0000 </r>
       <r>    34.5650     0.0000    16.0000 </r>
       <r>    34.7038     0.0000    16.0000 </r>
       <r>    34.8427     0.0000    16.0000 </r>
       <r>    34.9815     0.0000    16.0000 </r>
       <r>    35.1204     0.0000    16.0000 </r>
       <r>    35.2592     0.0000    16.0000 </r>
      </set>
     </set>
    </array>
   </total>
  </dos>
 </calculation>
 <structure name="finalpos" >
  <crystal>
   <varray name="basis" >
    <v>       2.41623948      -0.00000001       1.39501532 </v>
    <v>       0.80541315       2.27805218       1.39501532 </v>
    <v>      -0.00000003      -0.00000002       2.79003276 </v>
   </varray>
   <i name="volume">     15.35723223 </i>
   <varray name="rec_basis" >
    <v>       0.41386626      -0.14632383       0.00000000 </v>
    <v>       0.00000000       0.43897150       0.00000000 </v>
    <v>      -0.20693297      -0.14632372       0.35841873 </v>
   </varray>
  </crystal>
  <varray name="positions" >
   <v>      -0.00000000      -0.00000000      -0.00000000 </v>
  </varray>
 </structure>
</modeling>
