unknown system                          
           1
     2.347395    0.000000    1.355268
     0.782465    2.213145    1.355268
     0.000000    0.000000    2.710538
   Si
     1
Direct configuration=     1
   0.00000000  0.00000000  0.00000000
unknown system                          
           1
     2.379984   -0.000000    1.374083
     0.793328    2.243870    1.374083
    -0.000000   -0.000000    2.748168
   Si
     1
Direct configuration=     2
   0.00000000  0.00000000 -0.00000000
unknown system                          
           1
     2.419830   -0.000000    1.397088
     0.806610    2.281437    1.397088
    -0.000000   -0.000000    2.794179
   Si
     1
Direct configuration=     3
  -0.00000000 -0.00000000 -0.00000000
unknown system                          
           1
     2.413119   -0.000000    1.393214
     0.804373    2.275111    1.393214
    -0.000000   -0.000000    2.786430
   Si
     1
Direct configuration=     4
  -0.00000000 -0.00000000 -0.00000000
unknown system                          
           1
     2.416239   -0.000000    1.395015
     0.805413    2.278052    1.395015
    -0.000000   -0.000000    2.790033
   Si
     1
Direct configuration=     5
  -0.00000000 -0.00000000 -0.00000000
