unknown system                          
   1.00000000000000     
     3.348724    0.000000    1.933386
     1.116241    3.157208    1.933386
     0.000000    0.000000    3.866772
   Si
     2
Direct
  0.875000  0.875000  0.875000
  0.125000  0.125000  0.125000
 
   56   56   56
  22.960      22.926      22.820      22.640      22.377      22.007      21.493      20.812      19.968      19.002    
  17.987      17.026      16.231      15.705      15.521      15.705      16.231      17.026      17.987      19.002    
  19.968      20.812      21.493      22.007      22.377      22.640      22.820      22.926      22.960      22.926    
  22.820      22.640      22.377      22.007      21.493      20.812      19.968      19.002      17.987      17.026    
  16.231      15.705      15.521      15.705      16.231      17.026      17.987      19.002      19.968      20.812    
  21.493      22.007      22.377      22.640      22.820      22.926      22.926      22.986      22.966      22.853    
  22.612      22.190      21.550      20.683      19.621      18.437      17.245      16.178      15.372      14.939    
  14.939      15.372      16.178      17.245      18.437      19.621      20.683      21.550      22.190      22.612    
  22.853      22.965      22.986      22.926      22.794      22.595      22.333      22.006      21.611      21.138    
  20.563      19.874      19.085      18.239      17.404      16.666      16.113      15.817      15.817      16.113    
  16.666      17.404      18.239      19.085      19.874      20.563      21.138      21.611      22.006      22.333    
  22.595      22.794      22.820      22.966      23.015      22.923      22.622      22.060      21.210      20.091    
  18.769      17.358      16.010      14.889      14.146      13.886      14.146      14.889      16.010      17.358    
  18.769      20.091      21.210      22.060      22.622      22.923      23.015      22.966      22.820      22.595    
  22.303      21.952      21.549      21.097      20.597      20.047      19.439      18.770      18.057      17.340    
  16.679      16.141      15.788      15.665      15.788      16.141      16.679      17.340      18.057      18.770    
  19.439      20.047      20.597      21.097      21.549      21.952      22.303      22.595      22.640      22.853    
  22.923      22.769      22.320      21.534      20.408      18.995      17.403      15.790      14.344      13.252    
  12.663      12.663      13.252      14.344      15.790      17.403      18.995      20.408      21.534      22.320    
  22.769      22.923      22.853      22.640      22.333      21.952      21.513      21.029      20.508      19.958    
  19.382      18.784      18.168      17.537      16.909      16.320      15.815      15.443      15.245      15.245    
  15.442      15.814      16.320      16.910      17.537      18.168      18.785      19.382      19.958      20.508    
  21.029      21.513      21.952      22.333      22.377      22.612      22.622      22.320      21.643      20.568    
  19.127      17.413      15.582      13.832      12.378      11.415      11.078      11.415      12.379      13.832    
  15.582      17.413      19.127      20.568      21.643      22.320      22.622      22.612      22.377      22.006    
  21.549      21.029      20.464      19.871      19.260      18.641      18.021      17.404      16.799      16.217    
  15.675      15.200      14.826      14.585      14.502      14.585      14.826      15.200      15.675      16.217    
  16.799      17.404      18.021      18.641      19.260      19.871      20.464      21.029      21.549      22.006    
  22.007      22.190      22.060      21.534      20.568      19.170      17.412      15.435      13.437      11.649    
  10.300      9.5746      9.5745      10.300      11.649      13.437      15.435      17.412      19.170      20.568    
  21.534      22.060      22.190      22.007      21.611      21.097      20.508      19.871      19.206      18.531    
  17.860      17.203      16.566      15.957      15.382      14.855      14.392      14.015      13.747      13.607    
  13.607      13.747      14.015      14.392      14.855      15.382      15.956      16.566      17.203      17.860    
  18.531      19.206      19.871      20.508      21.097      21.611      21.493      21.550      21.210      20.408    
  19.127      17.412      15.382      13.222      11.166      9.4624      8.3362      7.9423      8.3362      9.4624    
  11.166      13.222      15.382      17.412      19.127      20.408      21.210      21.550      21.493      21.138    
  20.597      19.958      19.260      18.531      17.793      17.067      16.364      15.696      15.069      14.487    
  13.958      13.493      13.105      12.811      12.627      12.565      12.628      12.811      13.105      13.492    
  13.958      14.487      15.069      15.696      16.364      17.067      17.793      18.531      19.260      19.958    
  20.597      21.138      20.812      20.683      20.091      18.995      17.413      15.435      13.222      10.997    
  9.0133      7.5215      6.7204      6.7204      7.5216      9.0133      10.996      13.222      15.435      17.413    
  18.995      20.091      20.683      20.812      20.563      20.047      19.382      18.642      17.860      17.067    
  16.285      15.534      14.827      14.171      13.572      13.033      12.559      12.160      11.844      11.626    
  11.513      11.513      11.626      11.844      12.160      12.559      13.033      13.572      14.171      14.827    
  15.534      16.285      17.067      17.860      18.641      19.382      20.047      20.563      19.968      19.621    
  18.769      17.403      15.582      13.437      11.166      9.0133      7.2375      6.0662      5.6571      6.0662    
  7.2375      9.0133      11.166      13.437      15.582      17.403      18.769      19.621      19.968      19.874    
  19.439      18.785      18.021      17.203      16.364      15.534      14.736      13.987      13.297      12.672    
  12.115      11.627      11.213      10.879      10.631      10.479      10.427      10.479      10.631      10.879    
  11.213      11.627      12.115      12.672      13.297      13.987      14.736      15.534      16.364      17.203    
  18.021      18.785      19.439      19.874      19.002      18.437      17.358      15.790      13.832      11.649    
  9.4624      7.5215      6.0662      5.2862      5.2862      6.0663      7.5216      9.4624      11.649      13.832    
  15.790      17.358      18.437      19.002      19.085      18.770      18.168      17.404      16.566      15.696    
  14.827      13.987      13.196      12.470      11.815      11.233      10.727      10.296      9.9422      9.6696    
  9.4836      9.3891      9.3891      9.4836      9.6696      9.9422      10.296      10.727      11.233      11.815    
  12.470      13.196      13.987      14.827      15.696      16.566      17.404      18.168      18.770      19.085    
  17.987      17.245      16.010      14.344      12.378      10.300      8.3362      6.7204      5.6571      5.2862    
  5.6571      6.7204      8.3362      10.300      12.378      14.344      16.010      17.245      17.987      18.239    
  18.057      17.537      16.799      15.956      15.069      14.171      13.297      12.470      11.708      11.021    
  10.412      9.8836      9.4327      9.0589      8.7632      8.5482      8.4172      8.3732      8.4172      8.5482    
  8.7632      9.0589      9.4326      9.8836      10.413      11.021      11.708      12.470      13.297      14.171    
  15.069      15.956      16.799      17.537      18.057      18.239      17.026      16.178      14.889      13.252    
  11.415      9.5746      7.9423      6.7204      6.0662      6.0663      6.7204      7.9423      9.5745      11.415    
  13.252      14.889      16.178      17.026      17.404      17.340      16.910      16.217      15.382      14.487    
  13.572      12.672      11.814      11.021      10.303      9.6670      9.1139      8.6415      8.2471      7.9294    
  7.6884      7.5260      7.4441      7.4441      7.5260      7.6884      7.9294      8.2471      8.6415      9.1139    
  9.6670      10.303      11.021      11.815      12.672      13.572      14.487      15.382      16.217      16.910    
  17.340      17.404      16.231      15.372      14.146      12.663      11.078      9.5745      8.3362      7.5216    
  7.2375      7.5216      8.3362      9.5745      11.078      12.663      14.146      15.372      16.231      16.666    
  16.679      16.320      15.675      14.855      13.958      13.033      12.115      11.233      10.413      9.6669    
  9.0047      8.4274      7.9330      7.5180      7.1792      6.9147      6.7246      6.6097      6.5713      6.6097    
  6.7246      6.9147      7.1792      7.5180      7.9330      8.4273      9.0047      9.6670      10.413      11.233    
  12.115      13.033      13.958      14.855      15.675      16.320      16.679      16.666      15.705      14.939    
  13.886      12.663      11.415      10.300      9.4624      9.0133      9.0133      9.4624      10.300      11.415    
  12.663      13.886      14.939      15.705      16.113      16.141      15.814      15.200      14.392      13.492    
  12.559      11.627      10.727      9.8836      9.1139      8.4274      7.8271      7.3114      6.8763      6.5175    
  6.2316      6.0169      5.8732      5.8011      5.8011      5.8732      6.0169      6.2316      6.5175      6.8764    
  7.3114      7.8271      8.4273      9.1139      9.8836      10.727      11.627      12.559      13.492      14.392    
  15.200      15.814      16.141      16.113      15.521      14.939      14.146      13.252      12.379      11.649    
  11.166      10.997      11.166      11.649      12.378      13.252      14.146      14.939      15.521      15.817    
  15.788      15.442      14.826      14.015      13.105      12.160      11.213      10.296      9.4326      8.6415    
  7.9330      7.3114      6.7755      6.3214      5.9437      5.6382      5.4016      5.2328      5.1312      5.0974    
  5.1312      5.2328      5.4016      5.6382      5.9437      6.3213      6.7755      7.3114      7.9330      8.6415    
  9.4326      10.296      11.213      12.160      13.105      14.015      14.826      15.442      15.788      15.817    
  15.705      15.372      14.889      14.344      13.832      13.437      13.222      13.222      13.437      13.832    
  14.344      14.889      15.372      15.705      15.817      15.665      15.245      14.585      13.747      12.811    
  11.844      10.879      9.9422      9.0589      8.2471      7.5180      6.8763      6.3213      5.8490      5.4537    
  5.1302      4.8742      4.6832      4.5560      4.4923      4.4923      4.5560      4.6832      4.8742      5.1302    
  5.4538      5.8490      6.3213      6.8764      7.5180      8.2471      9.0589      9.9422      10.879      11.844    
  12.811      13.747      14.585      15.245      15.665      15.817      16.231      16.178      16.010      15.790    
  15.582      15.435      15.382      15.435      15.582      15.790      16.010      16.178      16.231      16.113    
  15.788      15.245      14.502      13.607      12.628      11.626      10.631      9.6696      8.7632      7.9294    
  7.1792      6.5175      5.9437      5.4538      5.0417      4.7014      4.4277      4.2172      4.0675      3.9779    
  3.9480      3.9779      4.0675      4.2172      4.4277      4.7014      5.0416      5.4538      5.9437      6.5175    
  7.1792      7.9294      8.7632      9.6696      10.631      11.626      12.628      13.607      14.502      15.245    
  15.788      16.113      17.026      17.245      17.358      17.403      17.413      17.412      17.412      17.413    
  17.403      17.358      17.245      17.026      16.666      16.141      15.442      14.585      13.607      12.565    
  11.513      10.479      9.4836      8.5482      7.6884      6.9148      6.2315      5.6381      5.1302      4.7014    
  4.3450      4.0549      3.8267      3.6573      3.5449      3.4888      3.4888      3.5449      3.6573      3.8267    
  4.0550      4.3450      4.7014      5.1302      5.6382      6.2316      6.9147      7.6884      8.5482      9.4836    
  10.479      11.513      12.565      13.607      14.585      15.443      16.141      16.666      17.987      18.437    
  18.769      18.995      19.127      19.170      19.127      18.995      18.769      18.437      17.987      17.404    
  16.679      15.814      14.826      13.747      12.628      11.513      10.427      9.3890      8.4172      7.5260    
  6.7246      6.0169      5.4016      4.8742      4.4277      4.0550      3.7490      3.5043      3.3170      3.1846    
  3.1055      3.0792      3.1055      3.1846      3.3170      3.5043      3.7489      4.0550      4.4277      4.8742    
  5.4016      6.0169      6.7246      7.5260      8.4172      9.3891      10.427      11.513      12.627      13.747    
  14.826      15.815      16.679      17.404      19.002      19.621      20.091      20.408      20.568      20.568    
  20.408      20.091      19.621      19.002      18.239      17.340      16.320      15.200      14.015      12.811    
  11.626      10.479      9.3890      8.3732      7.4441      6.6097      5.8732      5.2327      4.6832      4.2172    
  3.8267      3.5043      3.2436      3.0396      2.8891      2.7896      2.7402      2.7402      2.7896      2.8891    
  3.0396      3.2436      3.5043      3.8267      4.2172      4.6832      5.2328      5.8732      6.6097      7.4441    
  8.3732      9.3891      10.479      11.626      12.811      14.015      15.200      16.320      17.340      18.239    
  19.968      20.683      21.210      21.534      21.643      21.534      21.210      20.683      19.968      19.085    
  18.057      16.910      15.675      14.392      13.105      11.844      10.631      9.4836      8.4172      7.4441    
  6.5713      5.8011      5.1312      4.5560      4.0675      3.6573      3.3170      3.0396      2.8193      2.6518    
  2.5339      2.4639      2.4407      2.4639      2.5339      2.6518      2.8193      3.0396      3.3170      3.6573    
  4.0675      4.5560      5.1312      5.8011      6.5713      7.4441      8.4172      9.4836      10.631      11.844    
  13.105      14.392      15.675      16.909      18.057      19.085      20.812      21.550      22.060      22.320    
  22.320      22.060      21.550      20.812      19.874      18.770      17.537      16.217      14.855      13.492    
  12.160      10.879      9.6696      8.5482      7.5260      6.6097      5.8011      5.0973      4.4923      3.9779    
  3.5449      3.1846      2.8891      2.6517      2.4675      2.3324      2.2437      2.1998      2.1998      2.2437    
  2.3324      2.4675      2.6518      2.8891      3.1846      3.5449      3.9779      4.4923      5.0974      5.8011    
  6.6097      7.5260      8.5482      9.6696      10.879      12.160      13.493      14.855      16.217      17.537    
  18.770      19.874      21.493      22.190      22.622      22.769      22.622      22.190      21.493      20.563    
  19.439      18.168      16.799      15.382      13.958      12.559      11.213      9.9422      8.7632      7.6884    
  6.7246      5.8732      5.1312      4.4923      3.9480      3.4888      3.1055      2.7896      2.5339      2.3324    
  2.1803      2.0741      2.0113      1.9906      2.0113      2.0741      2.1803      2.3324      2.5339      2.7896    
  3.1055      3.4888      3.9480      4.4923      5.1312      5.8732      6.7246      7.6884      8.7632      9.9422    
  11.213      12.559      13.958      15.382      16.799      18.168      19.439      20.563      22.007      22.612    
  22.923      22.923      22.612      22.007      21.138      20.047      18.785      17.404      15.956      14.487    
  13.033      11.627      10.296      9.0589      7.9294      6.9148      6.0169      5.2327      4.5560      3.9779    
  3.4888      3.0792      2.7402      2.4639      2.2437      2.0741      1.9507      1.8703      1.8306      1.8306    
  1.8703      1.9507      2.0741      2.2437      2.4639      2.7402      3.0792      3.4888      3.9779      4.5560    
  5.2328      6.0169      6.9147      7.9294      9.0589      10.296      11.627      13.033      14.487      15.957    
  17.404      18.784      20.047      21.138      22.377      22.853      23.015      22.853      22.377      21.611    
  20.597      19.382      18.021      16.566      15.069      13.572      12.115      10.727      9.4326      8.2471    
  7.1792      6.2315      5.4016      4.6832      4.0675      3.5449      3.1055      2.7402      2.4407      2.1998    
  2.0113      1.8703      1.7725      1.7151      1.6962      1.7151      1.7725      1.8703      2.0113      2.1998    
  2.4407      2.7402      3.1055      3.5449      4.0675      4.6832      5.4016      6.2316      7.1792      8.2471    
  9.4327      10.727      12.115      13.572      15.069      16.566      18.021      19.382      20.597      21.611    
  22.640      22.965      22.966      22.640      22.006      21.097      19.958      18.642      17.203      15.696    
  14.171      12.672      11.233      9.8836      8.6415      7.5180      6.5175      5.6381      4.8742      4.2172    
  3.6573      3.1846      2.7896      2.4639      2.1998      1.9906      1.8306      1.7151      1.6403      1.6036    
  1.6036      1.6403      1.7151      1.8306      1.9906      2.1998      2.4639      2.7896      3.1846      3.6573    
  4.2172      4.8742      5.6382      6.5175      7.5180      8.6415      9.8836      11.233      12.672      14.171    
  15.696      17.203      18.641      19.958      21.097      22.006      22.820      22.986      22.820      22.333    
  21.549      20.508      19.260      17.860      16.364      14.827      13.297      11.814      10.413      9.1139    
  7.9330      6.8763      5.9437      5.1302      4.4277      3.8267      3.3170      2.8891      2.5339      2.2437    
  2.0113      1.8306      1.6962      1.6036      1.5494      1.5316      1.5494      1.6036      1.6962      1.8306    
  2.0113      2.2437      2.5339      2.8891      3.3170      3.8267      4.4277      5.1302      5.9437      6.8763    
  7.9330      9.1139      10.412      11.815      13.297      14.827      16.364      17.860      19.260      20.508    
  21.549      22.333      22.926      22.926      22.595      21.952      21.029      19.871      18.531      17.067    
  15.534      13.987      12.470      11.021      9.6669      8.4274      7.3114      6.3213      5.4538      4.7014    
  4.0550      3.5043      3.0396      2.6517      2.3324      2.0741      1.8703      1.7151      1.6036      1.5316    
  1.4964      1.4964      1.5316      1.6036      1.7151      1.8703      2.0741      2.3324      2.6518      3.0396    
  3.5043      4.0549      4.7014      5.4537      6.3214      7.3114      8.4274      9.6670      11.021      12.470    
  13.987      15.534      17.067      18.531      19.871      21.029      21.952      22.595      22.960      22.794    
  22.303      21.513      20.464      19.206      17.793      16.285      14.736      13.196      11.708      10.303    
  9.0047      7.8271      6.7755      5.8490      5.0417      4.3450      3.7490      3.2436      2.8193      2.4675    
  2.1803      1.9507      1.7725      1.6403      1.5494      1.4964      1.4790      1.4964      1.5494      1.6403    
  1.7725      1.9507      2.1803      2.4675      2.8193      3.2436      3.7490      4.3450      5.0417      5.8490    
  6.7755      7.8271      9.0047      10.303      11.708      13.196      14.736      16.285      17.793      19.206    
  20.464      21.513      22.303      22.794      22.926      22.595      21.952      21.029      19.871      18.531    
  17.067      15.534      13.987      12.470      11.021      9.6670      8.4274      7.3114      6.3214      5.4537    
  4.7014      4.0549      3.5043      3.0396      2.6518      2.3324      2.0741      1.8703      1.7151      1.6036    
  1.5316      1.4964      1.4964      1.5316      1.6036      1.7151      1.8703      2.0741      2.3324      2.6517    
  3.0396      3.5043      4.0550      4.7014      5.4538      6.3213      7.3114      8.4274      9.6669      11.021    
  12.470      13.987      15.534      17.067      18.531      19.871      21.029      21.952      22.595      22.926    
  22.820      22.333      21.549      20.508      19.260      17.860      16.364      14.827      13.297      11.815    
  10.412      9.1139      7.9330      6.8763      5.9437      5.1302      4.4277      3.8267      3.3170      2.8891    
  2.5339      2.2437      2.0113      1.8306      1.6962      1.6036      1.5494      1.5316      1.5494      1.6036    
  1.6962      1.8306      2.0113      2.2437      2.5339      2.8891      3.3170      3.8267      4.4277      5.1302    
  5.9437      6.8763      7.9330      9.1139      10.413      11.814      13.297      14.827      16.364      17.860    
  19.260      20.508      21.549      22.333      22.820      22.986      22.640      22.006      21.097      19.958    
  18.641      17.203      15.696      14.171      12.672      11.233      9.8836      8.6415      7.5180      6.5175    
  5.6382      4.8742      4.2172      3.6573      3.1846      2.7896      2.4639      2.1998      1.9906      1.8306    
  1.7151      1.6403      1.6036      1.6036      1.6403      1.7151      1.8306      1.9906      2.1998      2.4639    
  2.7896      3.1846      3.6573      4.2172      4.8742      5.6381      6.5175      7.5180      8.6415      9.8836    
  11.233      12.672      14.171      15.696      17.203      18.642      19.958      21.097      22.006      22.640    
  22.966      22.965      22.377      21.611      20.597      19.382      18.021      16.566      15.069      13.572    
  12.115      10.727      9.4327      8.2471      7.1792      6.2316      5.4016      4.6832      4.0675      3.5449    
  3.1055      2.7402      2.4407      2.1998      2.0113      1.8703      1.7725      1.7151      1.6962      1.7151    
  1.7725      1.8703      2.0113      2.1998      2.4407      2.7402      3.1055      3.5449      4.0675      4.6832    
  5.4016      6.2315      7.1792      8.2471      9.4326      10.727      12.115      13.572      15.069      16.566    
  18.021      19.382      20.597      21.611      22.377      22.853      23.015      22.853      22.007      21.138    
  20.047      18.784      17.404      15.957      14.487      13.033      11.627      10.296      9.0589      7.9294    
  6.9147      6.0169      5.2328      4.5560      3.9779      3.4888      3.0792      2.7402      2.4639      2.2437    
  2.0741      1.9507      1.8703      1.8306      1.8306      1.8703      1.9507      2.0741      2.2437      2.4639    
  2.7402      3.0792      3.4888      3.9779      4.5560      5.2327      6.0169      6.9148      7.9294      9.0589    
  10.296      11.627      13.033      14.487      15.956      17.404      18.785      20.047      21.138      22.007    
  22.612      22.923      22.923      22.612      21.493      20.563      19.439      18.168      16.799      15.382    
  13.958      12.559      11.213      9.9422      8.7632      7.6884      6.7246      5.8732      5.1312      4.4923    
  3.9480      3.4888      3.1055      2.7896      2.5339      2.3324      2.1803      2.0741      2.0113      1.9906    
  2.0113      2.0741      2.1803      2.3324      2.5339      2.7896      3.1055      3.4888      3.9480      4.4923    
  5.1312      5.8732      6.7246      7.6884      8.7632      9.9422      11.213      12.559      13.958      15.382    
  16.799      18.168      19.439      20.563      21.493      22.190      22.622      22.769      22.622      22.190    
  20.812      19.874      18.770      17.537      16.217      14.855      13.493      12.160      10.879      9.6696    
  8.5482      7.5260      6.6097      5.8011      5.0974      4.4923      3.9779      3.5449      3.1846      2.8891    
  2.6518      2.4675      2.3324      2.2437      2.1998      2.1998      2.2437      2.3324      2.4675      2.6517    
  2.8891      3.1846      3.5449      3.9779      4.4923      5.0973      5.8011      6.6097      7.5260      8.5482    
  9.6696      10.879      12.160      13.492      14.855      16.217      17.537      18.770      19.874      20.812    
  21.550      22.060      22.320      22.320      22.060      21.550      19.968      19.085      18.057      16.909    
  15.675      14.392      13.105      11.844      10.631      9.4836      8.4172      7.4441      6.5713      5.8011    
  5.1312      4.5560      4.0675      3.6573      3.3170      3.0396      2.8193      2.6518      2.5339      2.4639    
  2.4407      2.4639      2.5339      2.6518      2.8193      3.0396      3.3170      3.6573      4.0675      4.5560    
  5.1312      5.8011      6.5713      7.4441      8.4172      9.4836      10.631      11.844      13.105      14.392    
  15.675      16.910      18.057      19.085      19.968      20.683      21.210      21.534      21.643      21.534    
  21.210      20.683      19.002      18.239      17.340      16.320      15.200      14.015      12.811      11.626    
  10.479      9.3891      8.3732      7.4441      6.6097      5.8732      5.2328      4.6832      4.2172      3.8267    
  3.5043      3.2436      3.0396      2.8891      2.7896      2.7402      2.7402      2.7896      2.8891      3.0396    
  3.2436      3.5043      3.8267      4.2172      4.6832      5.2327      5.8732      6.6097      7.4441      8.3732    
  9.3890      10.479      11.626      12.811      14.015      15.200      16.320      17.340      18.239      19.002    
  19.621      20.091      20.408      20.568      20.568      20.408      20.091      19.621      17.987      17.404    
  16.679      15.815      14.826      13.747      12.627      11.513      10.427      9.3891      8.4172      7.5260    
  6.7246      6.0169      5.4016      4.8742      4.4277      4.0550      3.7489      3.5043      3.3170      3.1846    
  3.1055      3.0792      3.1055      3.1846      3.3170      3.5043      3.7490      4.0550      4.4277      4.8742    
  5.4016      6.0169      6.7246      7.5260      8.4172      9.3890      10.427      11.513      12.628      13.747    
  14.826      15.814      16.679      17.404      17.987      18.437      18.769      18.995      19.127      19.170    
  19.127      18.995      18.769      18.437      17.026      16.666      16.141      15.443      14.585      13.607    
  12.565      11.513      10.479      9.4836      8.5482      7.6884      6.9147      6.2316      5.6382      5.1302    
  4.7014      4.3450      4.0550      3.8267      3.6573      3.5449      3.4888      3.4888      3.5449      3.6573    
  3.8267      4.0549      4.3450      4.7014      5.1302      5.6381      6.2315      6.9148      7.6884      8.5482    
  9.4836      10.479      11.513      12.565      13.607      14.585      15.442      16.141      16.666      17.026    
  17.245      17.358      17.403      17.413      17.412      17.412      17.413      17.403      17.358      17.245    
  16.231      16.113      15.788      15.245      14.502      13.607      12.628      11.626      10.631      9.6696    
  8.7632      7.9294      7.1792      6.5175      5.9437      5.4538      5.0416      4.7014      4.4277      4.2172    
  4.0675      3.9779      3.9480      3.9779      4.0675      4.2172      4.4277      4.7014      5.0417      5.4538    
  5.9437      6.5175      7.1792      7.9294      8.7632      9.6696      10.631      11.626      12.628      13.607    
  14.502      15.245      15.788      16.113      16.231      16.178      16.010      15.790      15.582      15.435    
  15.382      15.435      15.582      15.790      16.010      16.178      15.705      15.817      15.665      15.245    
  14.585      13.747      12.811      11.844      10.879      9.9422      9.0589      8.2471      7.5180      6.8764    
  6.3213      5.8490      5.4538      5.1302      4.8742      4.6832      4.5560      4.4923      4.4923      4.5560    
  4.6832      4.8742      5.1302      5.4537      5.8490      6.3213      6.8763      7.5180      8.2471      9.0589    
  9.9422      10.879      11.844      12.811      13.747      14.585      15.245      15.665      15.817      15.705    
  15.372      14.889      14.344      13.832      13.437      13.222      13.222      13.437      13.832      14.344    
  14.889      15.372      15.521      15.817      15.788      15.442      14.826      14.015      13.105      12.160    
  11.213      10.296      9.4326      8.6415      7.9330      7.3114      6.7755      6.3213      5.9437      5.6382    
  5.4016      5.2328      5.1312      5.0974      5.1312      5.2328      5.4016      5.6382      5.9437      6.3214    
  6.7755      7.3114      7.9330      8.6415      9.4326      10.296      11.213      12.160      13.105      14.015    
  14.826      15.442      15.788      15.817      15.521      14.939      14.146      13.252      12.378      11.649    
  11.166      10.997      11.166      11.649      12.379      13.252      14.146      14.939      15.705      16.113    
  16.141      15.814      15.200      14.392      13.492      12.559      11.627      10.727      9.8836      9.1139    
  8.4273      7.8271      7.3114      6.8764      6.5175      6.2316      6.0169      5.8732      5.8011      5.8011    
  5.8732      6.0169      6.2316      6.5175      6.8763      7.3114      7.8271      8.4274      9.1139      9.8836    
  10.727      11.627      12.559      13.492      14.392      15.200      15.814      16.141      16.113      15.705    