unknown system                          
   1.00000000000000     
     3.348724    0.000000    1.933386
     1.116241    3.157208    1.933386
     0.000000    0.000000    3.866772
   Si
     2
Direct
  0.875000  0.875000  0.875000
  0.125000  0.125000  0.125000
 
   56   56   56
 0.22960450943E+02 0.22925708715E+02 0.22820372824E+02 0.22639637103E+02 0.22376627545E+02
 0.22007220374E+02 0.21493444443E+02 0.20811658010E+02 0.19967968240E+02 0.19001682303E+02
 0.17987131160E+02 0.17025897533E+02 0.16230910425E+02 0.15705163621E+02 0.15521298634E+02
 0.15705197932E+02 0.16230993186E+02 0.17026012888E+02 0.17987170185E+02 0.19001634107E+02
 0.19968007091E+02 0.20811764163E+02 0.21493295032E+02 0.22007341101E+02 0.22376608739E+02
 0.22639637717E+02 0.22820406375E+02 0.22925657966E+02 0.22960484844E+02 0.22925657966E+02
 0.22820406375E+02 0.22639637717E+02 0.22376608739E+02 0.22007341101E+02 0.21493295032E+02
 0.20811764163E+02 0.19968007091E+02 0.19001634107E+02 0.17987170185E+02 0.17026012888E+02
 0.16230993186E+02 0.15705197932E+02 0.15521298634E+02 0.15705163621E+02 0.16230910425E+02
 0.17025897533E+02 0.17987131160E+02 0.19001682303E+02 0.19967968240E+02 0.20811658010E+02
 0.21493444443E+02 0.22007220374E+02 0.22376627545E+02 0.22639637103E+02 0.22820372824E+02
 0.22925708715E+02 0.22925708715E+02 0.22985756763E+02 0.22965528248E+02 0.22852889982E+02
 0.22612359898E+02 0.22190446932E+02 0.21549769467E+02 0.20683003504E+02 0.19620854840E+02
 0.18437401128E+02 0.17244789389E+02 0.16177911026E+02 0.15372434948E+02 0.14938737712E+02
 0.14938666689E+02 0.15372340160E+02 0.16177799829E+02 0.17244755582E+02 0.18437453192E+02
 0.19620800777E+02 0.20682918415E+02 0.21549914536E+02 0.22190372563E+02 0.22612377644E+02
 0.22852932372E+02 0.22965485817E+02 0.22985829159E+02 0.22925666921E+02 0.22793941819E+02
 0.22595374994E+02 0.22332936838E+02 0.22005636882E+02 0.21611253888E+02 0.21138292986E+02
 0.20562983059E+02 0.19873872342E+02 0.19085002881E+02 0.18238789636E+02 0.17404087375E+02
 0.16666414556E+02 0.16113372048E+02 0.15816582712E+02 0.15816581257E+02 0.16113347513E+02
 0.16666495369E+02 0.17404195561E+02 0.18238868906E+02 0.19084883310E+02 0.19873895849E+02
 0.20563048690E+02 0.21138149021E+02 0.21611342535E+02 0.22005597064E+02 0.22332927746E+02
 0.22595404879E+02 0.22793882180E+02 0.22820372824E+02 0.22965528248E+02 0.23014607990E+02
 0.22922935611E+02 0.22622436489E+02 0.22059667250E+02 0.21210344268E+02 0.20091187384E+02
 0.18768886644E+02 0.17358110468E+02 0.16009726701E+02 0.14889106042E+02 0.14146230633E+02
 0.13886089478E+02 0.14146294355E+02 0.14889148678E+02 0.16009705736E+02 0.17358096336E+02
 0.18768930728E+02 0.20091238539E+02 0.21210216634E+02 0.22059768976E+02 0.22622400608E+02
 0.22922951348E+02 0.23014636662E+02 0.22965501146E+02 0.22820385124E+02 0.22595384181E+02
 0.22303092399E+02 0.21952142116E+02 0.21548987708E+02 0.21096692253E+02 0.20596556247E+02
 0.20047274005E+02 0.19439447384E+02 0.18769802969E+02 0.18056801175E+02 0.17340387230E+02
 0.16679487017E+02 0.16141160033E+02 0.15788339227E+02 0.15665315675E+02 0.15788404803E+02
 0.16141182364E+02 0.16679436537E+02 0.17340260493E+02 0.18056727567E+02 0.18769963788E+02
 0.19439353125E+02 0.20047212928E+02 0.20596681883E+02 0.21096562363E+02 0.21549063669E+02
 0.21952107718E+02 0.22303109025E+02 0.22595404879E+02 0.22639637103E+02 0.22852889979E+02
 0.22922935598E+02 0.22768831969E+02 0.22320275744E+02 0.21533943240E+02 0.20408160100E+02
 0.18995112771E+02 0.17403253351E+02 0.15790495876E+02 0.14344388975E+02 0.13251606982E+02
 0.12663003771E+02 0.12663060546E+02 0.13251595199E+02 0.14344447072E+02 0.15790468085E+02
 0.17403260066E+02 0.18995113619E+02 0.20408239193E+02 0.21533817893E+02 0.22320336356E+02
 0.22768801084E+02 0.22922947382E+02 0.22852919649E+02 0.22639641581E+02 0.22332949403E+02
 0.21952116366E+02 0.21513367617E+02 0.21028801298E+02 0.20508180400E+02 0.19957786526E+02
 0.19381940271E+02 0.18784453710E+02 0.18168366866E+02 0.17537249833E+02 0.16909480024E+02
 0.16319782838E+02 0.15814500602E+02 0.15442516334E+02 0.15244865155E+02 0.15244835661E+02
 0.15442465579E+02 0.15814484575E+02 0.16319883528E+02 0.16909631341E+02 0.17537212039E+02
 0.18168165751E+02 0.18784642641E+02 0.19381854344E+02 0.19957759800E+02 0.20508248081E+02
 0.21028763659E+02 0.21513400110E+02 0.21952107718E+02 0.22332927745E+02 0.22376627542E+02
 0.22612359865E+02 0.22622436424E+02 0.22320275686E+02 0.21643053643E+02 0.20567878769E+02
 0.19126615328E+02 0.17413312026E+02 0.15582047993E+02 0.13832049813E+02 0.12378448681E+02
 0.11415482607E+02 0.11078282138E+02 0.11415485026E+02 0.12378518017E+02 0.13832079510E+02
 0.15582020690E+02 0.17413278743E+02 0.19126599676E+02 0.20567946529E+02 0.21642992995E+02
 0.22320334207E+02 0.22622401324E+02 0.22612367679E+02 0.22376627407E+02 0.22005587511E+02
 0.21549053910E+02 0.21028771087E+02 0.20464248672E+02 0.19870559063E+02 0.19260123311E+02
 0.18641387655E+02 0.18020826261E+02 0.17403958858E+02 0.16799090075E+02 0.16217182207E+02
 0.15675138014E+02 0.15200104913E+02 0.14825908936E+02 0.14585365434E+02 0.14502306463E+02
 0.14585399842E+02 0.14825980896E+02 0.15200064467E+02 0.15675001240E+02 0.16217070709E+02
 0.16799265285E+02 0.17403967746E+02 0.18020688420E+02 0.18641495438E+02 0.19260106076E+02
 0.19870544876E+02 0.20464280256E+02 0.21028763659E+02 0.21549063669E+02 0.22005597065E+02
 0.22007220333E+02 0.22190446819E+02 0.22059667087E+02 0.21533943079E+02 0.20567878669E+02
 0.19169767598E+02 0.17412102289E+02 0.15435003346E+02 0.13436708147E+02 0.11648963114E+02
 0.10300296285E+02 0.95745772853E+01 0.95745368726E+01 0.10300213963E+02 0.11648912904E+02
 0.13436734418E+02 0.15434997699E+02 0.17412037393E+02 0.19169757973E+02 0.20567871530E+02
 0.21533866394E+02 0.22059717971E+02 0.22190424027E+02 0.22007254664E+02 0.21611350923E+02
 0.21096584871E+02 0.20508236114E+02 0.19870554178E+02 0.19205595893E+02 0.18530782884E+02
 0.17860005166E+02 0.17202839145E+02 0.16566339882E+02 0.15956616456E+02 0.15381884562E+02
 0.14854636887E+02 0.14392191070E+02 0.14015352876E+02 0.13747038146E+02 0.13607036772E+02
 0.13607039846E+02 0.13746979200E+02 0.14015344916E+02 0.14392278290E+02 0.14854807874E+02
 0.15381828079E+02 0.15956491747E+02 0.16566394680E+02 0.17202896764E+02 0.17859930726E+02
 0.18530819624E+02 0.19205612056E+02 0.19870544875E+02 0.20508248081E+02 0.21096562363E+02
 0.21611342534E+02 0.21493444310E+02 0.21549769231E+02 0.21210343971E+02 0.20408159814E+02
 0.19126615116E+02 0.17412102188E+02 0.15382218964E+02 0.13222067992E+02 0.11165633429E+02
 0.94624283453E+01 0.83362119322E+01 0.79422698518E+01 0.83362147442E+01 0.94623923494E+01
 0.11165633446E+02 0.13222115901E+02 0.15382258757E+02 0.17412049276E+02 0.19126652492E+02
 0.20408168669E+02 0.21210293652E+02 0.21549820012E+02 0.21493380383E+02 0.21138184532E+02
 0.20596643191E+02 0.19957793548E+02 0.19260076949E+02 0.18530838795E+02 0.17793307258E+02
 0.17066547147E+02 0.16364305085E+02 0.15696246351E+02 0.15068513710E+02 0.14486755986E+02
 0.13957886431E+02 0.13492511183E+02 0.13104697146E+02 0.12811219401E+02 0.12627480877E+02
 0.12564935531E+02 0.12627515939E+02 0.12811245881E+02 0.13104676089E+02 0.13492355769E+02
 0.13957826753E+02 0.14486848731E+02 0.15068573104E+02 0.15696188942E+02 0.16364294521E+02
 0.17066600009E+02 0.17793293981E+02 0.18530819624E+02 0.19260106076E+02 0.19957759799E+02
 0.20596681884E+02 0.21138148988E+02 0.20811657744E+02 0.20683003119E+02 0.20091186950E+02
 0.18995112373E+02 0.17413311732E+02 0.15435003185E+02 0.13222067945E+02 0.10996535135E+02
 0.90132846117E+01 0.75215493057E+01 0.67203889782E+01 0.67203626319E+01 0.75215878722E+01
 0.90133114650E+01 0.10996499567E+02 0.13222134290E+02 0.15435051023E+02 0.17413245832E+02
 0.18995171666E+02 0.20091146544E+02 0.20682980463E+02 0.20811700310E+02 0.20563031491E+02
 0.20047260967E+02 0.19381828130E+02 0.18641531444E+02 0.17859914409E+02 0.17066588481E+02
 0.16285057766E+02 0.15534368886E+02 0.14827069514E+02 0.14171423047E+02 0.13571972693E+02
 0.13032868902E+02 0.12559305884E+02 0.12159585909E+02 0.11844416415E+02 0.11625558046E+02
 0.11513155219E+02 0.11513134968E+02 0.11625532286E+02 0.11844421456E+02 0.12159664507E+02
 0.12559418740E+02 0.13032857710E+02 0.13571906597E+02 0.14171395266E+02 0.14827130284E+02
 0.15534370438E+02 0.16285030097E+02 0.17066600009E+02 0.17859930726E+02 0.18641495438E+02
 0.19381854345E+02 0.20047212912E+02 0.20563048571E+02 0.19967967828E+02 0.19620854318E+02
 0.18768886108E+02 0.17403252896E+02 0.15582047688E+02 0.13436708010E+02 0.11165633429E+02
 0.90132846679E+01 0.72374577719E+01 0.60662005069E+01 0.56571111231E+01 0.60662425598E+01
 0.72375142535E+01 0.90132738172E+01 0.11165665033E+02 0.13436747016E+02 0.15582099105E+02
 0.17403220815E+02 0.18768974208E+02 0.19620808907E+02 0.19967977246E+02 0.19873890414E+02
 0.19439328582E+02 0.18784669229E+02 0.18020675535E+02 0.17202918285E+02 0.16364315034E+02
 0.15534346425E+02 0.14736189040E+02 0.13986804829E+02 0.13296833036E+02 0.12671864769E+02
 0.12114648004E+02 0.11627252563E+02 0.11213350944E+02 0.10878725122E+02 0.10631182245E+02
 0.10478614063E+02 0.10427060952E+02 0.10478631853E+02 0.10631183878E+02 0.10878669476E+02
 0.11213282976E+02 0.11627185036E+02 0.12114670453E+02 0.12671919928E+02 0.13296847385E+02
 0.13986759967E+02 0.14736196556E+02 0.15534370438E+02 0.16364294521E+02 0.17202896765E+02
 0.18020688420E+02 0.18784642639E+02 0.19439353046E+02 0.19873895605E+02 0.19001681763E+02
 0.18437400517E+02 0.17358109902E+02 0.15790495455E+02 0.13832049599E+02 0.11648963114E+02
 0.94624285103E+01 0.75215495425E+01 0.60662006933E+01 0.52861540804E+01 0.52861792559E+01
 0.60662984103E+01 0.75215607629E+01 0.94624447625E+01 0.11648902985E+02 0.13832096603E+02
 0.15790449170E+02 0.17358111372E+02 0.18437454511E+02 0.19001656277E+02 0.19084916719E+02
 0.18769965642E+02 0.18168181900E+02 0.17403975603E+02 0.16566406702E+02 0.15696169816E+02
 0.14827162066E+02 0.13986771970E+02 0.13196430065E+02 0.12469762706E+02 0.11814543824E+02
 0.11233441447E+02 0.10727149328E+02 0.10296026509E+02 0.99421918521E+01 0.96695982511E+01
 0.94835973733E+01 0.93890702621E+01 0.93890666639E+01 0.94835886183E+01 0.96696286125E+01
 0.99422363660E+01 0.10296068662E+02 0.10727199042E+02 0.11233414609E+02 0.11814501146E+02
 0.12469760601E+02 0.13196463334E+02 0.13986759967E+02 0.14827130283E+02 0.15696188943E+02
 0.16566394679E+02 0.17403967748E+02 0.18168165719E+02 0.18769963607E+02 0.19084882933E+02
 0.17987130547E+02 0.17244788773E+02 0.16009726206E+02 0.14344388704E+02 0.12378448681E+02
 0.10300296547E+02 0.83362123895E+01 0.67203895240E+01 0.56571116238E+01 0.52861795729E+01
 0.56571103899E+01 0.67204219530E+01 0.83362109025E+01 0.10300251833E+02 0.12378496387E+02
 0.14344415738E+02 0.16009674478E+02 0.17244825751E+02 0.17987108961E+02 0.18238862544E+02
 0.18056718243E+02 0.17537210169E+02 0.16799264131E+02 0.15956486491E+02 0.15068603937E+02
 0.14171374982E+02 0.13296848501E+02 0.12469789460E+02 0.11707683382E+02 0.11020568858E+02
 0.10412476424E+02 0.98836354837E+01 0.94326794261E+01 0.90589222266E+01 0.87631888571E+01
 0.85481874365E+01 0.84171918309E+01 0.83732017815E+01 0.84171844489E+01 0.85481645228E+01
 0.87631539166E+01 0.90588865096E+01 0.94326384577E+01 0.98836014784E+01 0.10412501132E+02
 0.11020607147E+02 0.11707672826E+02 0.12469760601E+02 0.13296847386E+02 0.14171395265E+02
 0.15068573105E+02 0.15956491747E+02 0.16799265282E+02 0.17537211942E+02 0.18056727276E+02
 0.18238868419E+02 0.17025896932E+02 0.16177910508E+02 0.14889105737E+02 0.13251606983E+02
 0.11415482944E+02 0.95745779292E+01 0.79422707190E+01 0.67203636017E+01 0.60662434899E+01
 0.60662991543E+01 0.67204223769E+01 0.79422766802E+01 0.95745434656E+01 0.11415422783E+02
 0.13251596072E+02 0.14889087200E+02 0.16177871502E+02 0.17025947523E+02 0.17404169429E+02
 0.17340291987E+02 0.16909597542E+02 0.16217078836E+02 0.15381821809E+02 0.14486829295E+02
 0.13571927053E+02 0.12671936289E+02 0.11814481730E+02 0.11020602786E+02 0.10302745526E+02
 0.96669953362E+01 0.91138563681E+01 0.86414592722E+01 0.82470925611E+01 0.79293720346E+01
 0.76884380303E+01 0.75259852292E+01 0.74440776017E+01 0.74440777993E+01 0.75260142112E+01
 0.76884490304E+01 0.79293987277E+01 0.82471211542E+01 0.86414914764E+01 0.91138833405E+01
 0.96669680618E+01 0.10302712337E+02 0.11020607147E+02 0.11814501146E+02 0.12671919928E+02
 0.13571906598E+02 0.14486848730E+02 0.15381828081E+02 0.16217070681E+02 0.16909631165E+02
 0.17340260113E+02 0.17404195017E+02 0.16230909934E+02 0.15372434639E+02 0.14146230633E+02
 0.12663004155E+02 0.11078282920E+02 0.95745379994E+01 0.83362161164E+01 0.75215893525E+01
 0.72375156915E+01 0.75215620062E+01 0.83362118175E+01 0.95745439482E+01 0.11078237759E+02
 0.12662981424E+02 0.14146306313E+02 0.15372361167E+02 0.16230932673E+02 0.16666468179E+02
 0.16679409579E+02 0.16319883205E+02 0.15674983852E+02 0.14854812449E+02 0.13957836400E+02
 0.13032852741E+02 0.12114650398E+02 0.11233443597E+02 0.10412508183E+02 0.96669496495E+01
 0.90047051674E+01 0.84273556440E+01 0.79330464225E+01 0.75180058189E+01 0.71792196276E+01
 0.69147286985E+01 0.67246362111E+01 0.66097199609E+01 0.65713006754E+01 0.66096975673E+01
 0.67246153365E+01 0.69147154499E+01 0.71791951951E+01 0.75179774718E+01 0.79330238119E+01
 0.84273292800E+01 0.90047360405E+01 0.96669680622E+01 0.10412501131E+02 0.11233414610E+02
 0.12114670453E+02 0.13032857711E+02 0.13957826752E+02 0.14854807875E+02 0.15675001172E+02
 0.16319883287E+02 0.16679436117E+02 0.16666494845E+02 0.15705163336E+02 0.14938737712E+02
 0.13886089877E+02 0.12663061401E+02 0.11415486326E+02 0.10300215636E+02 0.94623942758E+01
 0.90133134970E+01 0.90132757932E+01 0.94624465244E+01 0.10300253244E+02 0.11415423746E+02
 0.12662981894E+02 0.13886112144E+02 0.14938650780E+02 0.15705192810E+02 0.16113360043E+02
 0.16141206281E+02 0.15814494714E+02 0.15200058476E+02 0.14392280307E+02 0.13492322698E+02
 0.12559427928E+02 0.11627195321E+02 0.10727182864E+02 0.98835904239E+01 0.91139044150E+01
 0.84273588105E+01 0.78271244585E+01 0.73114100907E+01 0.68763435089E+01 0.65174682548E+01
 0.62315515537E+01 0.60168586252E+01 0.58732018854E+01 0.58010989641E+01 0.58011142998E+01
 0.58732175879E+01 0.60168766583E+01 0.62315662349E+01 0.65174929807E+01 0.68763692132E+01
 0.73114316691E+01 0.78271443501E+01 0.84273292797E+01 0.91138833405E+01 0.98836014785E+01
 0.10727199043E+02 0.11627185036E+02 0.12559418740E+02 0.13492355769E+02 0.14392278283E+02
 0.15200064362E+02 0.15814484304E+02 0.16141181965E+02 0.16113347095E+02 0.15521298634E+02
 0.14938667069E+02 0.14146295211E+02 0.13251596567E+02 0.12378519861E+02 0.11648915133E+02
 0.11165635922E+02 0.10996502128E+02 0.11165667508E+02 0.11648905213E+02 0.12378498231E+02
 0.13251597439E+02 0.14146307169E+02 0.14938651161E+02 0.15521280317E+02 0.15816562871E+02
 0.15788371517E+02 0.15442462388E+02 0.14825960360E+02 0.14015340129E+02 0.13104693278E+02
 0.12159660864E+02 0.11213262078E+02 0.10296081946E+02 0.94326476891E+01 0.86414754854E+01
 0.79329944253E+01 0.73114483910E+01 0.67755445022E+01 0.63213697009E+01 0.59436888324E+01
 0.56381594420E+01 0.54016189798E+01 0.52327632943E+01 0.51312243377E+01 0.50973693454E+01
 0.51312169852E+01 0.52327541650E+01 0.54016035204E+01 0.56381505176E+01 0.59436673839E+01
 0.63213495284E+01 0.67755261758E+01 0.73114316693E+01 0.79330238120E+01 0.86414914767E+01
 0.94326384574E+01 0.10296068662E+02 0.11213282976E+02 0.12159664507E+02 0.13104676090E+02
 0.14015344897E+02 0.14825980770E+02 0.15442465324E+02 0.15788404491E+02 0.15816581022E+02
 0.15705198260E+02 0.15372340947E+02 0.14889149999E+02 0.14344448936E+02 0.13832081861E+02
 0.13436737142E+02 0.13222118846E+02 0.13222137284E+02 0.13436749878E+02 0.13832099167E+02
 0.14344417873E+02 0.14889088825E+02 0.15372362263E+02 0.15705193423E+02 0.15816563106E+02
 0.15665379748E+02 0.15244818459E+02 0.14585433366E+02 0.13746972011E+02 0.12811244124E+02
 0.11844409245E+02 0.10878690925E+02 0.99422157331E+01 0.90588807043E+01 0.82471234398E+01
 0.75180131888E+01 0.68763473985E+01 0.63213406760E+01 0.58490146539E+01 0.54537431061E+01
 0.51302058266E+01 0.48741925169E+01 0.46831663276E+01 0.45559683695E+01 0.44923378027E+01
 0.44923395903E+01 0.45559696644E+01 0.46831869145E+01 0.48742042790E+01 0.51302251734E+01
 0.54537586241E+01 0.58490405422E+01 0.63213495283E+01 0.68763692131E+01 0.75179774718E+01
 0.82471211540E+01 0.90588865102E+01 0.99422363659E+01 0.10878669476E+02 0.11844421455E+02
 0.12811245883E+02 0.13746979173E+02 0.14585399722E+02 0.15244835467E+02 0.15665315504E+02
 0.15816582712E+02 0.16230993841E+02 0.16177800996E+02 0.16009707467E+02 0.15790470366E+02
 0.15582023441E+02 0.15435000789E+02 0.15382262019E+02 0.15435054273E+02 0.15582102161E+02
 0.15790451872E+02 0.16009676705E+02 0.16177873188E+02 0.16230933818E+02 0.16113360715E+02
 0.15788371829E+02 0.15244818551E+02 0.14502339138E+02 0.13607006043E+02 0.12627559038E+02
 0.11625519812E+02 0.10631188170E+02 0.96696308440E+01 0.87631709499E+01 0.79293817032E+01
 0.71791704149E+01 0.65174989236E+01 0.59436868554E+01 0.54537720578E+01 0.50416595019E+01
 0.47014140439E+01 0.44277340933E+01 0.42171685328E+01 0.40674698086E+01 0.39778828007E+01
 0.39479775801E+01 0.39778910582E+01 0.40674649248E+01 0.42171627530E+01 0.44277179818E+01
 0.47014072399E+01 0.50416347042E+01 0.54537586241E+01 0.59436673841E+01 0.65174929808E+01
 0.71791951954E+01 0.79293987277E+01 0.87631539166E+01 0.96696286124E+01 0.10631183879E+02
 0.11625532285E+02 0.12627515940E+02 0.13607039819E+02 0.14502306374E+02 0.15244865053E+02
 0.15788339227E+02 0.16113372302E+02 0.17026013817E+02 0.17244757045E+02 0.17358098361E+02
 0.17403262615E+02 0.17413281716E+02 0.17412040643E+02 0.17412052628E+02 0.17413249099E+02
 0.17403223820E+02 0.17358113964E+02 0.17244827831E+02 0.17025949053E+02 0.16666469186E+02
 0.16141206849E+02 0.15442462642E+02 0.14585433442E+02 0.13607006051E+02 0.12564966528E+02
 0.11513116032E+02 0.10478673954E+02 0.94835645588E+01 0.85481633225E+01 0.76884446281E+01
 0.69147521136E+01 0.62315468751E+01 0.56381453034E+01 0.51302043519E+01 0.47013956731E+01
 0.43449732155E+01 0.40549449873E+01 0.38267118369E+01 0.36572557977E+01 0.35448733689E+01
 0.34888191848E+01 0.34888131865E+01 0.35448755955E+01 0.36572555898E+01 0.38267279667E+01
 0.40549527294E+01 0.43449881126E+01 0.47014072400E+01 0.51302251734E+01 0.56381505176E+01
 0.62315662348E+01 0.69147154500E+01 0.76884490303E+01 0.85481645233E+01 0.94835886183E+01
 0.10478631854E+02 0.11513134967E+02 0.12564935531E+02 0.13607036754E+02 0.14585365390E+02
 0.15442516335E+02 0.16141160202E+02 0.16666415039E+02 0.17987171289E+02 0.18437454816E+02
 0.18768932875E+02 0.18995116233E+02 0.19126602641E+02 0.19169761133E+02 0.19126655668E+02
 0.18995174678E+02 0.18768976892E+02 0.18437456746E+02 0.17987110677E+02 0.17404170620E+02
 0.16679410300E+02 0.15814495074E+02 0.14825960486E+02 0.13746972030E+02 0.12627559038E+02
 0.11513116032E+02 0.10427083392E+02 0.93890485039E+01 0.84172243716E+01 0.75259967201E+01
 0.67245984536E+01 0.60168711917E+01 0.54016263126E+01 0.48742084396E+01 0.44277470594E+01
 0.40549567820E+01 0.37489582020E+01 0.35043336460E+01 0.33170188222E+01 0.31845801194E+01
 0.31055059427E+01 0.30792448632E+01 0.31055047097E+01 0.31845882281E+01 0.33170117048E+01
 0.35043290821E+01 0.37489374825E+01 0.40549527293E+01 0.44277179818E+01 0.48742042789E+01
 0.54016035208E+01 0.60168766584E+01 0.67246153369E+01 0.75260142113E+01 0.84171844490E+01
 0.93890666639E+01 0.10427060953E+02 0.11513155219E+02 0.12627480878E+02 0.13747038139E+02
 0.14825908936E+02 0.15814500690E+02 0.16679487318E+02 0.17404088022E+02 0.19001635248E+02
 0.19620802389E+02 0.20091240605E+02 0.20408241637E+02 0.20567949230E+02 0.20567874330E+02
 0.20408171399E+02 0.20091149043E+02 0.19620811043E+02 0.19001657958E+02 0.18238863742E+02
 0.17340292735E+02 0.16319883588E+02 0.15200058610E+02 0.14015340148E+02 0.12811244122E+02
 0.11625519813E+02 0.10478673954E+02 0.93890485039E+01 0.83732137361E+01 0.74440587458E+01
 0.66097354803E+01 0.58732018164E+01 0.52327498357E+01 0.46831687707E+01 0.42171511581E+01
 0.38267158659E+01 0.35043231158E+01 0.32435962204E+01 0.30396479235E+01 0.28890522924E+01
 0.27896492079E+01 0.27402087672E+01 0.27402135315E+01 0.27896450710E+01 0.28890507622E+01
 0.30396454622E+01 0.32436067254E+01 0.35043290821E+01 0.38267279667E+01 0.42171627532E+01
 0.46831869145E+01 0.52327541650E+01 0.58732175879E+01 0.66096975674E+01 0.74440777994E+01
 0.83732017820E+01 0.93890702622E+01 0.10478614063E+02 0.11625558046E+02 0.12811219401E+02
 0.14015352877E+02 0.15200104942E+02 0.16319782979E+02 0.17340387598E+02 0.18238790346E+02
 0.19968008123E+02 0.20682919837E+02 0.21210218413E+02 0.21533819947E+02 0.21642995202E+02
 0.21533868609E+02 0.21210295728E+02 0.20682982269E+02 0.19967978689E+02 0.19084917758E+02
 0.18056718891E+02 0.16909597864E+02 0.15674983953E+02 0.14392280316E+02 0.13104693277E+02
 0.11844409246E+02 0.10631188170E+02 0.94835645590E+01 0.84172243716E+01 0.74440587458E+01
 0.65712919641E+01 0.58011064806E+01 0.51312378591E+01 0.45559680855E+01 0.40674922607E+01
 0.36572562332E+01 0.33170316706E+01 0.30396487024E+01 0.28193252346E+01 0.26517554843E+01
 0.25339195610E+01 0.24639204248E+01 0.24406894189E+01 0.24639206064E+01 0.25339159144E+01
 0.26517621386E+01 0.28193168922E+01 0.30396454622E+01 0.33170117048E+01 0.36572555898E+01
 0.40674649249E+01 0.45559696644E+01 0.51312169855E+01 0.58011142999E+01 0.65713006758E+01
 0.74440776018E+01 0.84171918309E+01 0.94835973734E+01 0.10631182245E+02 0.11844416415E+02
 0.13104697146E+02 0.14392191071E+02 0.15675138049E+02 0.16909480169E+02 0.18056801531E+02
 0.19085003543E+02 0.20811764957E+02 0.21549915619E+02 0.22059770307E+02 0.22320337853E+02
 0.22320335761E+02 0.22059719463E+02 0.21549821331E+02 0.20811701371E+02 0.19873891169E+02
 0.18769966094E+02 0.17537210370E+02 0.16217078883E+02 0.14854812447E+02 0.13492322697E+02
 0.12159660864E+02 0.10878690925E+02 0.96696308442E+01 0.85481633224E+01 0.75259967201E+01
 0.66097354803E+01 0.58011064806E+01 0.50973400109E+01 0.44923475167E+01 0.39778572650E+01
 0.35448826106E+01 0.31845615560E+01 0.28890594885E+01 0.26517465827E+01 0.24674865221E+01
 0.23323580509E+01 0.22437053316E+01 0.21997689969E+01 0.21997825503E+01 0.22436901840E+01
 0.23323715511E+01 0.24674656786E+01 0.26517621386E+01 0.28890507623E+01 0.31845882282E+01
 0.35448755956E+01 0.39778910583E+01 0.44923395904E+01 0.50973693453E+01 0.58010989642E+01
 0.66097199609E+01 0.75259852293E+01 0.85481874369E+01 0.96695982512E+01 0.10878725122E+02
 0.12159585909E+02 0.13492511184E+02 0.14854636887E+02 0.16217182226E+02 0.17537249938E+02
 0.18769803239E+02 0.19873872852E+02 0.21493295519E+02 0.22190373230E+02 0.22622401416E+02
 0.22768801968E+02 0.22622402199E+02 0.22190424809E+02 0.21493381003E+02 0.20563031910E+02
 0.19439328804E+02 0.18168181975E+02 0.16799264137E+02 0.15381821806E+02 0.13957836402E+02
 0.12559427927E+02 0.11213262078E+02 0.99422157334E+01 0.87631709498E+01 0.76884446282E+01
 0.67245984536E+01 0.58732018165E+01 0.51312378591E+01 0.44923475167E+01 0.39479930823E+01
 0.34888190814E+01 0.31055146541E+01 0.27896498098E+01 0.25339171698E+01 0.23323673542E+01
 0.21802597921E+01 0.20740801841E+01 0.20113326048E+01 0.19905865666E+01 0.20113319279E+01
 0.20740785927E+01 0.21802578054E+01 0.23323715511E+01 0.25339159144E+01 0.27896450711E+01
 0.31055047097E+01 0.34888131866E+01 0.39479775802E+01 0.44923378028E+01 0.51312243379E+01
 0.58732018856E+01 0.67246362114E+01 0.76884380305E+01 0.87631888569E+01 0.99421918523E+01
 0.11213350944E+02 0.12559305885E+02 0.13957886431E+02 0.15381884562E+02 0.16799090077E+02
 0.18168366907E+02 0.19439447529E+02 0.20562983360E+02 0.22007341291E+02 0.22612377920E+02
 0.22922951682E+02 0.22922947728E+02 0.22612367988E+02 0.22007254895E+02 0.21138184666E+02
 0.20047261018E+02 0.18784669234E+02 0.17403975598E+02 0.15956486492E+02 0.14486829296E+02
 0.13032852740E+02 0.11627195321E+02 0.10296081946E+02 0.90588807041E+01 0.79293817033E+01
 0.69147521136E+01 0.60168711918E+01 0.52327498357E+01 0.45559680855E+01 0.39778572650E+01
 0.34888190814E+01 0.30792271093E+01 0.27402110717E+01 0.24639129644E+01 0.22436989050E+01
 0.20740734171E+01 0.19506974256E+01 0.18702764110E+01 0.18306269722E+01 0.18306220817E+01
 0.18702797397E+01 0.19506919443E+01 0.20740785927E+01 0.22436901840E+01 0.24639206064E+01
 0.27402135315E+01 0.30792448633E+01 0.34888191849E+01 0.39778828008E+01 0.45559683696E+01
 0.52327632942E+01 0.60168586253E+01 0.69147286985E+01 0.79293720347E+01 0.90589222271E+01
 0.10296026509E+02 0.11627252562E+02 0.13032868902E+02 0.14486755987E+02 0.15956616456E+02
 0.17403958859E+02 0.18784453712E+02 0.20047274037E+02 0.21138293087E+02 0.22376608757E+02
 0.22852932407E+02 0.23014636706E+02 0.22852919688E+02 0.22376627430E+02 0.21611350928E+02
 0.20596643186E+02 0.19381828127E+02 0.18020675537E+02 0.16566406703E+02 0.15068603936E+02
 0.13571927052E+02 0.12114650398E+02 0.10727182864E+02 0.94326476892E+01 0.82471234400E+01
 0.71791704149E+01 0.62315468752E+01 0.54016263126E+01 0.46831687708E+01 0.40674922607E+01
 0.35448826107E+01 0.31055146541E+01 0.27402110717E+01 0.24406882123E+01 0.21997757045E+01
 0.20113324166E+01 0.18702799531E+01 0.17725356211E+01 0.17151243714E+01 0.16961890262E+01
 0.17151237408E+01 0.17725348508E+01 0.18702797397E+01 0.20113319279E+01 0.21997825504E+01
 0.24406894189E+01 0.27402087673E+01 0.31055059427E+01 0.35448733690E+01 0.40674698087E+01
 0.46831663278E+01 0.54016189800E+01 0.62315515538E+01 0.71792196279E+01 0.82470925613E+01
 0.94326794259E+01 0.10727149328E+02 0.12114648005E+02 0.13571972693E+02 0.15068513710E+02
 0.16566339882E+02 0.18020826261E+02 0.19381940271E+02 0.20596556246E+02 0.21611253892E+02
 0.22639637716E+02 0.22965485815E+02 0.22965501143E+02 0.22639641579E+02 0.22005587511E+02
 0.21096584873E+02 0.19957793551E+02 0.18641531445E+02 0.17202918284E+02 0.15696169815E+02
 0.14171374983E+02 0.12671936289E+02 0.11233443596E+02 0.98835904241E+01 0.86414754854E+01
 0.75180131887E+01 0.65174989237E+01 0.56381453034E+01 0.48742084397E+01 0.42171511581E+01
 0.36572562332E+01 0.31845615560E+01 0.27896498099E+01 0.24639129644E+01 0.21997757045E+01
 0.19905795804E+01 0.18306258476E+01 0.17151199166E+01 0.16403170767E+01 0.16035831882E+01
 0.16035871198E+01 0.16403123430E+01 0.17151237408E+01 0.18306220817E+01 0.19905865666E+01
 0.21997689970E+01 0.24639204248E+01 0.27896492080E+01 0.31845801195E+01 0.36572557978E+01
 0.42171685330E+01 0.48741925170E+01 0.56381594420E+01 0.65174682550E+01 0.75180058188E+01
 0.86414592723E+01 0.98836354842E+01 0.11233441447E+02 0.12671864769E+02 0.14171423047E+02
 0.15696246352E+02 0.17202839145E+02 0.18641387655E+02 0.19957786526E+02 0.21096692254E+02
 0.22005636882E+02 0.22820406375E+02 0.22985829160E+02 0.22820385125E+02 0.22332949404E+02
 0.21549053910E+02 0.20508236113E+02 0.19260076947E+02 0.17859914409E+02 0.16364315035E+02
 0.14827162066E+02 0.13296848500E+02 0.11814481730E+02 0.10412508183E+02 0.91139044149E+01
 0.79329944255E+01 0.68763473987E+01 0.59436868554E+01 0.51302043520E+01 0.44277470594E+01
 0.38267158659E+01 0.33170316706E+01 0.28890594886E+01 0.25339171698E+01 0.22436989050E+01
 0.20113324166E+01 0.18306258476E+01 0.16961888553E+01 0.16035873449E+01 0.15494336036E+01
 0.15316285716E+01 0.15494332912E+01 0.16035871198E+01 0.16961890262E+01 0.18306269722E+01
 0.20113326049E+01 0.22437053317E+01 0.25339195610E+01 0.28890522925E+01 0.33170188222E+01
 0.38267118370E+01 0.44277340934E+01 0.51302058268E+01 0.59436888327E+01 0.68763435090E+01
 0.79330464228E+01 0.91138563682E+01 0.10412476424E+02 0.11814543825E+02 0.13296833037E+02
 0.14827069514E+02 0.16364305085E+02 0.17860005165E+02 0.19260123311E+02 0.20508180401E+02
 0.21548987707E+02 0.22332936838E+02 0.22925657967E+02 0.22925666921E+02 0.22595384181E+02
 0.21952116366E+02 0.21028771088E+02 0.19870554179E+02 0.18530838796E+02 0.17066588481E+02
 0.15534346424E+02 0.13986771969E+02 0.12469789460E+02 0.11020602786E+02 0.96669496492E+01
 0.84273588107E+01 0.73114483909E+01 0.63213406759E+01 0.54537720579E+01 0.47013956731E+01
 0.40549567821E+01 0.35043231159E+01 0.30396487025E+01 0.26517465827E+01 0.23323673542E+01
 0.20740734171E+01 0.18702799531E+01 0.17151199166E+01 0.16035873449E+01 0.15316245783E+01
 0.14963914915E+01 0.14963872798E+01 0.15316285716E+01 0.16035831882E+01 0.17151243714E+01
 0.18702764110E+01 0.20740801841E+01 0.23323580509E+01 0.26517554844E+01 0.30396479235E+01
 0.35043336461E+01 0.40549449873E+01 0.47014140440E+01 0.54537431061E+01 0.63213697009E+01
 0.73114100908E+01 0.84273556439E+01 0.96669953364E+01 0.11020568858E+02 0.12469762706E+02
 0.13986804829E+02 0.15534368887E+02 0.17066547148E+02 0.18530782885E+02 0.19870559063E+02
 0.21028801298E+02 0.21952142116E+02 0.22595374994E+02 0.22960484844E+02 0.22793941819E+02
 0.22303092399E+02 0.21513367617E+02 0.20464248672E+02 0.19205595892E+02 0.17793307257E+02
 0.16285057766E+02 0.14736189041E+02 0.13196430066E+02 0.11707683381E+02 0.10302745526E+02
 0.90047051678E+01 0.78271244585E+01 0.67755445024E+01 0.58490146541E+01 0.50416595019E+01
 0.43449732156E+01 0.37489582020E+01 0.32435962204E+01 0.28193252346E+01 0.24674865222E+01
 0.21802597921E+01 0.19506974257E+01 0.17725356211E+01 0.16403170767E+01 0.15494336036E+01
 0.14963914915E+01 0.14789582566E+01 0.14963914915E+01 0.15494336036E+01 0.16403170767E+01
 0.17725356211E+01 0.19506974257E+01 0.21802597921E+01 0.24674865222E+01 0.28193252346E+01
 0.32435962204E+01 0.37489582020E+01 0.43449732156E+01 0.50416595019E+01 0.58490146541E+01
 0.67755445024E+01 0.78271244585E+01 0.90047051678E+01 0.10302745526E+02 0.11707683381E+02
 0.13196430066E+02 0.14736189041E+02 0.16285057766E+02 0.17793307257E+02 0.19205595892E+02
 0.20464248672E+02 0.21513367617E+02 0.22303092399E+02 0.22793941819E+02 0.22925657967E+02
 0.22595374994E+02 0.21952142116E+02 0.21028801298E+02 0.19870559063E+02 0.18530782885E+02