   2   2   1   0
  0.2044095E+02  0.3866773E-09  0.3866774E-09  0.3866772E-09  0.5000000E-15
  1.000000000000000E-004
  CAR 
 unknown system                          
     16.58654248     -7.28330241  301      5.84635550      1.00000000
     -7.283  0.0000E+00  0.0000E+00
     -7.204  0.0000E+00  0.0000E+00
     -7.124  0.0000E+00  0.0000E+00
     -7.045  0.0000E+00  0.0000E+00
     -6.965  0.0000E+00  0.0000E+00
     -6.885  0.0000E+00  0.0000E+00
     -6.806  0.0000E+00  0.0000E+00
     -6.726  0.0000E+00  0.0000E+00
     -6.647  0.0000E+00  0.0000E+00
     -6.567  0.0000E+00  0.0000E+00
     -6.488  0.9368E-19  0.7453E-20
     -6.408  0.2509E-11  0.1996E-12
     -6.329  0.3510E-06  0.2793E-07
     -6.249  0.5696E-03  0.4535E-04
     -6.169  0.2246E-01  0.1833E-02
     -6.090  0.8711E-01  0.8764E-02
     -6.010  0.1353E+00  0.1953E-01
     -5.931  0.1703E+00  0.3308E-01
     -5.851  0.1977E+00  0.4881E-01
     -5.772  0.2200E+00  0.6631E-01
     -5.692  0.2536E+00  0.8649E-01
     -5.612  0.2627E+00  0.1074E+00
     -5.533  0.2931E+00  0.1307E+00
     -5.453  0.3048E+00  0.1550E+00
     -5.374  0.3331E+00  0.1815E+00
     -5.294  0.3412E+00  0.2086E+00
     -5.215  0.3756E+00  0.2385E+00
     -5.135  0.3649E+00  0.2675E+00
     -5.055  0.4205E+00  0.3010E+00
     -4.976  0.4003E+00  0.3328E+00
     -4.896  0.4513E+00  0.3688E+00
     -4.817  0.4526E+00  0.4048E+00
     -4.737  0.4518E+00  0.4407E+00
     -4.658  0.5293E+00  0.4828E+00
     -4.578  0.4833E+00  0.5213E+00
     -4.498  0.5357E+00  0.5639E+00
     -4.419  0.5805E+00  0.6101E+00
     -4.339  0.5422E+00  0.6532E+00
     -4.260  0.6172E+00  0.7023E+00
     -4.180  0.6695E+00  0.7556E+00
     -4.101  0.6070E+00  0.8039E+00
     -4.021  0.7522E+00  0.8638E+00
     -3.942  0.8143E+00  0.9286E+00
     -3.862  0.8044E+00  0.9926E+00
     -3.782  0.9692E+00  0.1070E+01
     -3.703  0.8413E+00  0.1137E+01
     -3.623  0.7849E+00  0.1199E+01
     -3.544  0.8749E+00  0.1269E+01
     -3.464  0.7520E+00  0.1329E+01
     -3.385  0.7311E+00  0.1387E+01
     -3.305  0.7484E+00  0.1446E+01
     -3.225  0.6794E+00  0.1500E+01
     -3.146  0.6698E+00  0.1554E+01
     -3.066  0.6357E+00  0.1604E+01
     -2.987  0.6044E+00  0.1652E+01
     -2.907  0.5867E+00  0.1699E+01
     -2.828  0.5295E+00  0.1741E+01
     -2.748  0.5250E+00  0.1783E+01
     -2.668  0.5044E+00  0.1823E+01
     -2.589  0.3921E+00  0.1854E+01
     -2.509  0.4703E+00  0.1892E+01
     -2.430  0.3478E+00  0.1919E+01
     -2.350  0.3035E+00  0.1943E+01
     -2.271  0.3482E+00  0.1971E+01
     -2.191  0.1592E+00  0.1984E+01
     -2.112  0.1461E+00  0.1995E+01
     -2.032  0.1155E+00  0.2005E+01
     -1.952  0.5695E-01  0.2009E+01
     -1.873  0.1260E+00  0.2019E+01
     -1.793  0.2791E+00  0.2041E+01
     -1.714  0.2041E+00  0.2058E+01
     -1.634  0.2799E+00  0.2080E+01
     -1.555  0.4596E+00  0.2116E+01
     -1.475  0.3364E+00  0.2143E+01
     -1.395  0.4230E+00  0.2177E+01
     -1.316  0.6663E+00  0.2230E+01
     -1.236  0.5041E+00  0.2270E+01
     -1.157  0.1093E+01  0.2357E+01
     -1.077  0.1625E+01  0.2486E+01
     -0.998  0.1433E+01  0.2600E+01
     -0.918  0.1097E+01  0.2688E+01
     -0.838  0.9710E+00  0.2765E+01
     -0.759  0.8073E+00  0.2829E+01
     -0.679  0.7403E+00  0.2888E+01
     -0.600  0.7024E+00  0.2944E+01
     -0.520  0.6912E+00  0.2999E+01
     -0.441  0.5560E+00  0.3043E+01
     -0.361  0.5841E+00  0.3090E+01
     -0.281  0.5649E+00  0.3134E+01
     -0.202  0.5143E+00  0.3175E+01
     -0.122  0.4296E+00  0.3210E+01
     -0.043  0.5358E+00  0.3252E+01
      0.037  0.3993E+00  0.3284E+01
      0.116  0.4374E+00  0.3319E+01
      0.196  0.3635E+00  0.3348E+01
      0.275  0.4371E+00  0.3382E+01
      0.355  0.3352E+00  0.3409E+01
      0.435  0.3618E+00  0.3438E+01
      0.514  0.2906E+00  0.3461E+01
      0.594  0.4077E+00  0.3494E+01
      0.673  0.2261E+00  0.3512E+01
      0.753  0.3494E+00  0.3539E+01
      0.832  0.2247E+00  0.3557E+01
      0.912  0.3260E+00  0.3583E+01
      0.992  0.2350E+00  0.3602E+01
      1.071  0.2643E+00  0.3623E+01
      1.151  0.1915E+00  0.3638E+01
      1.230  0.2770E+00  0.3660E+01
      1.310  0.2534E+00  0.3680E+01
      1.389  0.4863E+00  0.3719E+01
      1.469  0.7228E+00  0.3777E+01
      1.549  0.9293E+00  0.3850E+01
      1.628  0.1271E+01  0.3952E+01
      1.708  0.1187E+01  0.4046E+01
      1.787  0.1175E+01  0.4140E+01
      1.867  0.1052E+01  0.4223E+01
      1.946  0.1098E+01  0.4311E+01
      2.026  0.1074E+01  0.4396E+01
      2.106  0.9612E+00  0.4473E+01
      2.185  0.1105E+01  0.4561E+01
      2.265  0.1034E+01  0.4643E+01
      2.344  0.1050E+01  0.4726E+01
      2.424  0.1158E+01  0.4818E+01
      2.503  0.1122E+01  0.4908E+01
      2.583  0.1182E+01  0.5002E+01
      2.662  0.1170E+01  0.5095E+01
      2.742  0.1280E+01  0.5197E+01
      2.822  0.1523E+01  0.5318E+01
      2.901  0.1508E+01  0.5438E+01
      2.981  0.1483E+01  0.5556E+01
      3.060  0.1485E+01  0.5674E+01
      3.140  0.1584E+01  0.5800E+01
      3.219  0.1451E+01  0.5915E+01
      3.299  0.1474E+01  0.6033E+01
      3.379  0.1318E+01  0.6138E+01
      3.458  0.1436E+01  0.6252E+01
      3.538  0.1463E+01  0.6368E+01
      3.617  0.1263E+01  0.6469E+01
      3.697  0.1382E+01  0.6579E+01
      3.776  0.1290E+01  0.6681E+01
      3.856  0.1297E+01  0.6785E+01
      3.936  0.1257E+01  0.6885E+01
      4.015  0.1264E+01  0.6985E+01
      4.095  0.1230E+01  0.7083E+01
      4.174  0.1206E+01  0.7179E+01
      4.254  0.1188E+01  0.7273E+01
      4.333  0.1155E+01  0.7365E+01
      4.413  0.1153E+01  0.7457E+01
      4.492  0.1021E+01  0.7538E+01
      4.572  0.8851E+00  0.7609E+01
      4.652  0.7056E+00  0.7665E+01
      4.731  0.6435E+00  0.7716E+01
      4.811  0.5861E+00  0.7763E+01
      4.890  0.5241E+00  0.7804E+01
      4.970  0.4693E+00  0.7842E+01
      5.049  0.3911E+00  0.7873E+01
      5.129  0.3505E+00  0.7901E+01
      5.209  0.3264E+00  0.7927E+01
      5.288  0.2852E+00  0.7949E+01
      5.368  0.2162E+00  0.7967E+01
      5.447  0.1783E+00  0.7981E+01
      5.527  0.1545E+00  0.7993E+01
      5.606  0.7231E-01  0.7999E+01
      5.686  0.1430E-01  0.8000E+01
      5.766  0.2198E-03  0.8000E+01
      5.845  0.6058E-07  0.8000E+01
      5.925  0.1835E-12  0.8000E+01
      6.004  0.7343E-12  0.8000E+01
      6.084  0.1404E-06  0.8000E+01
      6.163  0.2715E-03  0.8000E+01
      6.243  0.1361E-01  0.8001E+01
      6.323  0.7975E-01  0.8007E+01
      6.402  0.1517E+00  0.8020E+01
      6.482  0.2429E+00  0.8039E+01
      6.561  0.3107E+00  0.8064E+01
      6.641  0.3378E+00  0.8090E+01
      6.720  0.3886E+00  0.8121E+01
      6.800  0.4757E+00  0.8159E+01
      6.879  0.5130E+00  0.8200E+01
      6.959  0.5156E+00  0.8241E+01
      7.039  0.5355E+00  0.8284E+01
      7.118  0.6495E+00  0.8335E+01
      7.198  0.7373E+00  0.8394E+01
      7.277  0.8457E+00  0.8461E+01
      7.357  0.8226E+00  0.8527E+01
      7.436  0.9232E+00  0.8600E+01
      7.516  0.9937E+00  0.8679E+01
      7.596  0.1081E+01  0.8765E+01
      7.675  0.1303E+01  0.8869E+01
      7.755  0.1381E+01  0.8979E+01
      7.834  0.1629E+01  0.9108E+01
      7.914  0.1569E+01  0.9233E+01
      7.993  0.1567E+01  0.9358E+01
      8.073  0.1545E+01  0.9481E+01
      8.153  0.1520E+01  0.9602E+01
      8.232  0.1433E+01  0.9716E+01
      8.312  0.1277E+01  0.9817E+01
      8.391  0.1213E+01  0.9914E+01
      8.471  0.1102E+01  0.1000E+02
      8.550  0.1060E+01  0.1009E+02
      8.630  0.1073E+01  0.1017E+02
      8.709  0.1016E+01  0.1025E+02
      8.789  0.1125E+01  0.1034E+02
      8.869  0.1787E+01  0.1048E+02
      8.948  0.2438E+01  0.1068E+02
      9.028  0.2159E+01  0.1085E+02
      9.107  0.1789E+01  0.1099E+02
      9.187  0.1732E+01  0.1113E+02
      9.266  0.1688E+01  0.1126E+02
      9.346  0.1648E+01  0.1140E+02
      9.426  0.1595E+01  0.1152E+02
      9.505  0.1696E+01  0.1166E+02
      9.585  0.1641E+01  0.1179E+02
      9.664  0.1342E+01  0.1189E+02
      9.744  0.1017E+01  0.1198E+02
      9.823  0.1024E+01  0.1206E+02
      9.903  0.1128E+01  0.1215E+02
      9.983  0.1303E+01  0.1225E+02
     10.062  0.1631E+01  0.1238E+02
     10.142  0.1303E+01  0.1248E+02
     10.221  0.1338E+01  0.1259E+02
     10.301  0.1176E+01  0.1268E+02
     10.380  0.1151E+01  0.1278E+02
     10.460  0.1245E+01  0.1287E+02
     10.540  0.1476E+01  0.1299E+02
     10.619  0.1446E+01  0.1311E+02
     10.699  0.1155E+01  0.1320E+02
     10.778  0.1044E+01  0.1328E+02
     10.858  0.1085E+01  0.1337E+02
     10.937  0.1175E+01  0.1346E+02
     11.017  0.1280E+01  0.1356E+02
     11.096  0.1261E+01  0.1366E+02
     11.176  0.1232E+01  0.1376E+02
     11.256  0.1185E+01  0.1386E+02
     11.335  0.9335E+00  0.1393E+02
     11.415  0.9533E+00  0.1401E+02
     11.494  0.1010E+01  0.1409E+02
     11.574  0.1061E+01  0.1417E+02
     11.653  0.1315E+01  0.1428E+02
     11.733  0.1141E+01  0.1437E+02
     11.813  0.9680E+00  0.1444E+02
     11.892  0.7941E+00  0.1451E+02
     11.972  0.8762E+00  0.1458E+02
     12.051  0.7379E+00  0.1463E+02
     12.131  0.8268E+00  0.1470E+02
     12.210  0.1220E+01  0.1480E+02
     12.290  0.1192E+01  0.1489E+02
     12.370  0.9831E+00  0.1497E+02
     12.449  0.7208E+00  0.1503E+02
     12.529  0.6395E+00  0.1508E+02
     12.608  0.6512E+00  0.1513E+02
     12.688  0.5859E+00  0.1518E+02
     12.767  0.6743E+00  0.1523E+02
     12.847  0.8181E+00  0.1530E+02
     12.926  0.8809E+00  0.1537E+02
     13.006  0.6852E+00  0.1542E+02
     13.086  0.3914E+00  0.1545E+02
     13.165  0.4393E+00  0.1549E+02
     13.245  0.4247E+00  0.1552E+02
     13.324  0.5075E+00  0.1556E+02
     13.404  0.5996E+00  0.1561E+02
     13.483  0.8147E+00  0.1567E+02
     13.563  0.7005E+00  0.1573E+02
     13.643  0.3795E+00  0.1576E+02
     13.722  0.2181E+00  0.1578E+02
     13.802  0.2191E+00  0.1579E+02
     13.881  0.1852E+00  0.1581E+02
     13.961  0.2712E+00  0.1583E+02
     14.040  0.3600E+00  0.1586E+02
     14.120  0.3590E+00  0.1589E+02
     14.200  0.1050E+00  0.1590E+02
     14.279  0.6523E-01  0.1590E+02
     14.359  0.1130E+00  0.1591E+02
     14.438  0.1283E+00  0.1592E+02
     14.518  0.5944E-01  0.1593E+02
     14.597  0.2212E+00  0.1594E+02
     14.677  0.2211E+00  0.1596E+02
     14.757  0.7849E-01  0.1597E+02
     14.836  0.1648E-01  0.1597E+02
     14.916  0.4541E-01  0.1597E+02
     14.995  0.7132E-01  0.1598E+02
     15.075  0.4885E-01  0.1598E+02
     15.154  0.9664E-01  0.1599E+02
     15.234  0.7328E-01  0.1599E+02
     15.313  0.1618E-01  0.1600E+02
     15.393  0.1058E-01  0.1600E+02
     15.473  0.2454E-01  0.1600E+02
     15.552  0.1460E-01  0.1600E+02
     15.632  0.8571E-03  0.1600E+02
     15.711  0.1180E-05  0.1600E+02
     15.791  0.1506E-10  0.1600E+02
     15.870  0.1124E-17  0.1600E+02
     15.950  0.0000E+00  0.1600E+02
     16.030  0.0000E+00  0.1600E+02
     16.109  0.0000E+00  0.1600E+02
     16.189  0.0000E+00  0.1600E+02
     16.268  0.0000E+00  0.1600E+02
     16.348  0.0000E+00  0.1600E+02
     16.427  0.0000E+00  0.1600E+02
     16.507  0.0000E+00  0.1600E+02
     16.587  0.0000E+00  0.1600E+02
     16.58654248     -7.28330241  301      5.84635550      1.00000000
     -7.283  0.0000E+00  0.0000E+00  0.0000E+00  0.0000E+00  0.0000E+00  0.0000E+00  0.0000E+00  0.0000E+00  0.0000E+00
     -7.204  0.0000E+00  0.0000E+00  0.0000E+00  0.0000E+00  0.0000E+00  0.0000E+00  0.0000E+00  0.0000E+00  0.0000E+00
     -7.124  0.0000E+00  0.0000E+00  0.0000E+00  0.0000E+00  0.0000E+00  0.0000E+00  0.0000E+00  0.0000E+00  0.0000E+00
     -7.045  0.0000E+00  0.0000E+00  0.0000E+00  0.0000E+00  0.0000E+00  0.0000E+00  0.0000E+00  0.0000E+00  0.0000E+00
     -6.965  0.0000E+00  0.0000E+00  0.0000E+00  0.0000E+00  0.0000E+00  0.0000E+00  0.0000E+00  0.0000E+00  0.0000E+00
     -6.885  0.0000E+00  0.0000E+00  0.0000E+00  0.0000E+00  0.0000E+00  0.0000E+00  0.0000E+00  0.0000E+00  0.0000E+00
     -6.806  0.0000E+00  0.0000E+00  0.0000E+00  0.0000E+00  0.0000E+00  0.0000E+00  0.0000E+00  0.0000E+00  0.0000E+00
     -6.726  0.0000E+00  0.0000E+00  0.0000E+00  0.0000E+00  0.0000E+00  0.0000E+00  0.0000E+00  0.0000E+00  0.0000E+00
     -6.647  0.0000E+00  0.0000E+00  0.0000E+00  0.0000E+00  0.0000E+00  0.0000E+00  0.0000E+00  0.0000E+00  0.0000E+00
     -6.567  0.0000E+00  0.0000E+00  0.0000E+00  0.0000E+00  0.0000E+00  0.0000E+00  0.0000E+00  0.0000E+00  0.0000E+00
     -6.488  0.1986E-19  0.1347E-32  0.1347E-32  0.1347E-32  0.0000E+00  0.0000E+00  0.0000E+00  0.0000E+00  0.0000E+00
     -6.408  0.5317E-12  0.6766E-16  0.6766E-16  0.6766E-16  0.0000E+00  0.0000E+00  0.0000E+00  0.0000E+00  0.0000E+00
     -6.329  0.7439E-07  0.1516E-10  0.1516E-10  0.1516E-10  0.0000E+00  0.0000E+00  0.0000E+00  0.0000E+00  0.0000E+00
     -6.249  0.1207E-03  0.4121E-07  0.4121E-07  0.4121E-07  0.0000E+00  0.0000E+00  0.0000E+00  0.0000E+00  0.0000E+00
     -6.169  0.4758E-02  0.3221E-05  0.3221E-05  0.3221E-05  0.0000E+00  0.0000E+00  0.0000E+00  0.0000E+00  0.0000E+00
     -6.090  0.1843E-01  0.2639E-04  0.2639E-04  0.2639E-04  0.0000E+00  0.0000E+00  0.0000E+00  0.0000E+00  0.0000E+00
     -6.010  0.2857E-01  0.7478E-04  0.7478E-04  0.7478E-04  0.0000E+00  0.0000E+00  0.0000E+00  0.0000E+00  0.0000E+00
     -5.931  0.3592E-01  0.1410E-03  0.1410E-03  0.1410E-03  0.0000E+00  0.0000E+00  0.0000E+00  0.0000E+00  0.0000E+00
     -5.851  0.4162E-01  0.2187E-03  0.2187E-03  0.2187E-03  0.0000E+00  0.0000E+00  0.0000E+00  0.0000E+00  0.0000E+00
     -5.772  0.4624E-01  0.3017E-03  0.3017E-03  0.3017E-03  0.0000E+00  0.0000E+00  0.0000E+00  0.0000E+00  0.0000E+00
     -5.692  0.5322E-01  0.4177E-03  0.4177E-03  0.4177E-03  0.0000E+00  0.0000E+00  0.0000E+00  0.0000E+00  0.0000E+00
     -5.612  0.5505E-01  0.5061E-03  0.5061E-03  0.5061E-03  0.0000E+00  0.0000E+00  0.0000E+00  0.0000E+00  0.0000E+00
     -5.533  0.6136E-01  0.6377E-03  0.6377E-03  0.6377E-03  0.0000E+00  0.0000E+00  0.0000E+00  0.0000E+00  0.0000E+00
     -5.453  0.6371E-01  0.7493E-03  0.7493E-03  0.7493E-03  0.0000E+00  0.0000E+00  0.0000E+00  0.0000E+00  0.0000E+00
     -5.374  0.6956E-01  0.8984E-03  0.8984E-03  0.8984E-03  0.0000E+00  0.0000E+00  0.0000E+00  0.0000E+00  0.0000E+00
     -5.294  0.7116E-01  0.1017E-02  0.1017E-02  0.1017E-02  0.0000E+00  0.0000E+00  0.0000E+00  0.0000E+00  0.0000E+00
     -5.215  0.7828E-01  0.1206E-02  0.1206E-02  0.1206E-02  0.0000E+00  0.0000E+00  0.0000E+00  0.0000E+00  0.0000E+00
     -5.135  0.7597E-01  0.1271E-02  0.1271E-02  0.1271E-02  0.0000E+00  0.0000E+00  0.0000E+00  0.0000E+00  0.0000E+00
     -5.055  0.8749E-01  0.1561E-02  0.1561E-02  0.1561E-02  0.0000E+00  0.0000E+00  0.0000E+00  0.0000E+00  0.0000E+00
     -4.976  0.8323E-01  0.1583E-02  0.1583E-02  0.1583E-02  0.0000E+00  0.0000E+00  0.0000E+00  0.0000E+00  0.0000E+00
     -4.896  0.9379E-01  0.1899E-02  0.1899E-02  0.1899E-02  0.0000E+00  0.0000E+00  0.0000E+00  0.0000E+00  0.0000E+00
     -4.817  0.9404E-01  0.1999E-02  0.1999E-02  0.1999E-02  0.0000E+00  0.0000E+00  0.0000E+00  0.0000E+00  0.0000E+00
     -4.737  0.9385E-01  0.2107E-02  0.2107E-02  0.2107E-02  0.0000E+00  0.0000E+00  0.0000E+00  0.0000E+00  0.0000E+00
     -4.658  0.1100E+00  0.2579E-02  0.2579E-02  0.2579E-02  0.0000E+00  0.0000E+00  0.0000E+00  0.0000E+00  0.0000E+00
     -4.578  0.1004E+00  0.2461E-02  0.2461E-02  0.2461E-02  0.0000E+00  0.0000E+00  0.0000E+00  0.0000E+00  0.0000E+00
     -4.498  0.1114E+00  0.2844E-02  0.2844E-02  0.2844E-02  0.0000E+00  0.0000E+00  0.0000E+00  0.0000E+00  0.0000E+00
     -4.419  0.1208E+00  0.3186E-02  0.3186E-02  0.3186E-02  0.0000E+00  0.0000E+00  0.0000E+00  0.0000E+00  0.0000E+00
     -4.339  0.1129E+00  0.3085E-02  0.3085E-02  0.3085E-02  0.0000E+00  0.0000E+00  0.0000E+00  0.0000E+00  0.0000E+00
     -4.260  0.1288E+00  0.3624E-02  0.3624E-02  0.3624E-02  0.0000E+00  0.0000E+00  0.0000E+00  0.0000E+00  0.0000E+00
     -4.180  0.1399E+00  0.4041E-02  0.4041E-02  0.4041E-02  0.0000E+00  0.0000E+00  0.0000E+00  0.0000E+00  0.0000E+00
     -4.101  0.1273E+00  0.3728E-02  0.3728E-02  0.3728E-02  0.0000E+00  0.0000E+00  0.0000E+00  0.0000E+00  0.0000E+00
     -4.021  0.1579E+00  0.4765E-02  0.4765E-02  0.4765E-02  0.0000E+00  0.0000E+00  0.0000E+00  0.0000E+00  0.0000E+00
     -3.942  0.1721E+00  0.5148E-02  0.5148E-02  0.5148E-02  0.0000E+00  0.0000E+00  0.0000E+00  0.0000E+00  0.0000E+00
     -3.862  0.1712E+00  0.5078E-02  0.5078E-02  0.5078E-02  0.0000E+00  0.0000E+00  0.0000E+00  0.0000E+00  0.0000E+00
     -3.782  0.2060E+00  0.6400E-02  0.6400E-02  0.6400E-02  0.0000E+00  0.0000E+00  0.0000E+00  0.0000E+00  0.0000E+00
     -3.703  0.1788E+00  0.5746E-02  0.5746E-02  0.5746E-02  0.0000E+00  0.0000E+00  0.0000E+00  0.0000E+00  0.0000E+00
     -3.623  0.1664E+00  0.5627E-02  0.5627E-02  0.5627E-02  0.0000E+00  0.0000E+00  0.0000E+00  0.0000E+00  0.0000E+00
     -3.544  0.1854E+00  0.6481E-02  0.6481E-02  0.6481E-02  0.0000E+00  0.0000E+00  0.0000E+00  0.0000E+00  0.0000E+00
     -3.464  0.1590E+00  0.5824E-02  0.5824E-02  0.5824E-02  0.0000E+00  0.0000E+00  0.0000E+00  0.0000E+00  0.0000E+00
     -3.385  0.1543E+00  0.5895E-02  0.5895E-02  0.5895E-02  0.0000E+00  0.0000E+00  0.0000E+00  0.0000E+00  0.0000E+00
     -3.305  0.1581E+00  0.6168E-02  0.6168E-02  0.6168E-02  0.0000E+00  0.0000E+00  0.0000E+00  0.0000E+00  0.0000E+00
     -3.225  0.1427E+00  0.5907E-02  0.5907E-02  0.5907E-02  0.0000E+00  0.0000E+00  0.0000E+00  0.0000E+00  0.0000E+00
     -3.146  0.1409E+00  0.5955E-02  0.5955E-02  0.5955E-02  0.0000E+00  0.0000E+00  0.0000E+00  0.0000E+00  0.0000E+00
     -3.066  0.1336E+00  0.5833E-02  0.5833E-02  0.5833E-02  0.0000E+00  0.0000E+00  0.0000E+00  0.0000E+00  0.0000E+00
     -2.987  0.1264E+00  0.5783E-02  0.5783E-02  0.5783E-02  0.0000E+00  0.0000E+00  0.0000E+00  0.0000E+00  0.0000E+00
     -2.907  0.1226E+00  0.5775E-02  0.5775E-02  0.5775E-02  0.0000E+00  0.0000E+00  0.0000E+00  0.0000E+00  0.0000E+00
     -2.828  0.1108E+00  0.5312E-02  0.5312E-02  0.5312E-02  0.0000E+00  0.0000E+00  0.0000E+00  0.0000E+00  0.0000E+00
     -2.748  0.1089E+00  0.5563E-02  0.5563E-02  0.5563E-02  0.0000E+00  0.0000E+00  0.0000E+00  0.0000E+00  0.0000E+00
     -2.668  0.1050E+00  0.5394E-02  0.5394E-02  0.5394E-02  0.0000E+00  0.0000E+00  0.0000E+00  0.0000E+00  0.0000E+00
     -2.589  0.8133E-01  0.4344E-02  0.4344E-02  0.4344E-02  0.0000E+00  0.0000E+00  0.0000E+00  0.0000E+00  0.0000E+00
     -2.509  0.9663E-01  0.5460E-02  0.5460E-02  0.5460E-02  0.0000E+00  0.0000E+00  0.0000E+00  0.0000E+00  0.0000E+00
     -2.430  0.7201E-01  0.4032E-02  0.4032E-02  0.4032E-02  0.0000E+00  0.0000E+00  0.0000E+00  0.0000E+00  0.0000E+00
     -2.350  0.6197E-01  0.3736E-02  0.3736E-02  0.3736E-02  0.0000E+00  0.0000E+00  0.0000E+00  0.0000E+00  0.0000E+00
     -2.271  0.7077E-01  0.4408E-02  0.4408E-02  0.4408E-02  0.0000E+00  0.0000E+00  0.0000E+00  0.0000E+00  0.0000E+00
     -2.191  0.3246E-01  0.2032E-02  0.2032E-02  0.2032E-02  0.0000E+00  0.0000E+00  0.0000E+00  0.0000E+00  0.0000E+00
     -2.112  0.2930E-01  0.1989E-02  0.1989E-02  0.1989E-02  0.0000E+00  0.0000E+00  0.0000E+00  0.0000E+00  0.0000E+00
     -2.032  0.2296E-01  0.1615E-02  0.1615E-02  0.1615E-02  0.0000E+00  0.0000E+00  0.0000E+00  0.0000E+00  0.0000E+00
     -1.952  0.1108E-01  0.8494E-03  0.8494E-03  0.8494E-03  0.0000E+00  0.0000E+00  0.0000E+00  0.0000E+00  0.0000E+00
     -1.873  0.2454E-01  0.1920E-02  0.1920E-02  0.1920E-02  0.0000E+00  0.0000E+00  0.0000E+00  0.0000E+00  0.0000E+00
     -1.793  0.5452E-01  0.4272E-02  0.4272E-02  0.4272E-02  0.0000E+00  0.0000E+00  0.0000E+00  0.0000E+00  0.0000E+00
     -1.714  0.3965E-01  0.3206E-02  0.3206E-02  0.3206E-02  0.0000E+00  0.0000E+00  0.0000E+00  0.0000E+00  0.0000E+00
     -1.634  0.5417E-01  0.4516E-02  0.4516E-02  0.4516E-02  0.0000E+00  0.0000E+00  0.0000E+00  0.0000E+00  0.0000E+00
     -1.555  0.8867E-01  0.7534E-02  0.7534E-02  0.7534E-02  0.0000E+00  0.0000E+00  0.0000E+00  0.0000E+00  0.0000E+00
     -1.475  0.6398E-01  0.5738E-02  0.5738E-02  0.5738E-02  0.0000E+00  0.0000E+00  0.0000E+00  0.0000E+00  0.0000E+00
     -1.395  0.8030E-01  0.7368E-02  0.7368E-02  0.7368E-02  0.0000E+00  0.0000E+00  0.0000E+00  0.0000E+00  0.0000E+00
     -1.316  0.1248E+00  0.1195E-01  0.1195E-01  0.1195E-01  0.0000E+00  0.0000E+00  0.0000E+00  0.0000E+00  0.0000E+00
     -1.236  0.8801E-01  0.1011E-01  0.1011E-01  0.1011E-01  0.0000E+00  0.0000E+00  0.0000E+00  0.0000E+00  0.0000E+00
     -1.157  0.1742E+00  0.2456E-01  0.2456E-01  0.2456E-01  0.0000E+00  0.0000E+00  0.0000E+00  0.0000E+00  0.0000E+00
     -1.077  0.2425E+00  0.3915E-01  0.3915E-01  0.3915E-01  0.0000E+00  0.0000E+00  0.0000E+00  0.0000E+00  0.0000E+00
     -0.998  0.2104E+00  0.3529E-01  0.3529E-01  0.3529E-01  0.0000E+00  0.0000E+00  0.0000E+00  0.0000E+00  0.0000E+00
     -0.918  0.1655E+00  0.2663E-01  0.2663E-01  0.2663E-01  0.0000E+00  0.0000E+00  0.0000E+00  0.0000E+00  0.0000E+00
     -0.838  0.1488E+00  0.2348E-01  0.2348E-01  0.2348E-01  0.0000E+00  0.0000E+00  0.0000E+00  0.0000E+00  0.0000E+00
     -0.759  0.1222E+00  0.1993E-01  0.1993E-01  0.1993E-01  0.0000E+00  0.0000E+00  0.0000E+00  0.0000E+00  0.0000E+00
     -0.679  0.1123E+00  0.1840E-01  0.1840E-01  0.1840E-01  0.0000E+00  0.0000E+00  0.0000E+00  0.0000E+00  0.0000E+00
     -0.600  0.1075E+00  0.1749E-01  0.1749E-01  0.1749E-01  0.0000E+00  0.0000E+00  0.0000E+00  0.0000E+00  0.0000E+00
     -0.520  0.1053E+00  0.1743E-01  0.1743E-01  0.1743E-01  0.0000E+00  0.0000E+00  0.0000E+00  0.0000E+00  0.0000E+00
     -0.441  0.8320E-01  0.1437E-01  0.1437E-01  0.1437E-01  0.0000E+00  0.0000E+00  0.0000E+00  0.0000E+00  0.0000E+00
     -0.361  0.8872E-01  0.1504E-01  0.1504E-01  0.1504E-01  0.0000E+00  0.0000E+00  0.0000E+00  0.0000E+00  0.0000E+00
     -0.281  0.8531E-01  0.1474E-01  0.1474E-01  0.1474E-01  0.0000E+00  0.0000E+00  0.0000E+00  0.0000E+00  0.0000E+00
     -0.202  0.7680E-01  0.1367E-01  0.1367E-01  0.1367E-01  0.0000E+00  0.0000E+00  0.0000E+00  0.0000E+00  0.0000E+00
     -0.122  0.6357E-01  0.1158E-01  0.1158E-01  0.1158E-01  0.0000E+00  0.0000E+00  0.0000E+00  0.0000E+00  0.0000E+00
     -0.043  0.8003E-01  0.1449E-01  0.1449E-01  0.1449E-01  0.0000E+00  0.0000E+00  0.0000E+00  0.0000E+00  0.0000E+00
      0.037  0.5937E-01  0.1091E-01  0.1091E-01  0.1091E-01  0.0000E+00  0.0000E+00  0.0000E+00  0.0000E+00  0.0000E+00
      0.116  0.6286E-01  0.1236E-01  0.1236E-01  0.1236E-01  0.0000E+00  0.0000E+00  0.0000E+00  0.0000E+00  0.0000E+00
      0.196  0.5441E-01  0.1006E-01  0.1006E-01  0.1006E-01  0.0000E+00  0.0000E+00  0.0000E+00  0.0000E+00  0.0000E+00
      0.275  0.6255E-01  0.1258E-01  0.1258E-01  0.1258E-01  0.0000E+00  0.0000E+00  0.0000E+00  0.0000E+00  0.0000E+00
      0.355  0.4939E-01  0.9553E-02  0.9553E-02  0.9553E-02  0.0000E+00  0.0000E+00  0.0000E+00  0.0000E+00  0.0000E+00
      0.435  0.5036E-01  0.1077E-01  0.1077E-01  0.1077E-01  0.0000E+00  0.0000E+00  0.0000E+00  0.0000E+00  0.0000E+00
      0.514  0.4281E-01  0.8426E-02  0.8426E-02  0.8426E-02  0.0000E+00  0.0000E+00  0.0000E+00  0.0000E+00  0.0000E+00
      0.594  0.5684E-01  0.1232E-01  0.1232E-01  0.1232E-01  0.0000E+00  0.0000E+00  0.0000E+00  0.0000E+00  0.0000E+00
      0.673  0.3242E-01  0.6782E-02  0.6782E-02  0.6782E-02  0.0000E+00  0.0000E+00  0.0000E+00  0.0000E+00  0.0000E+00
      0.753  0.4773E-01  0.1085E-01  0.1085E-01  0.1085E-01  0.0000E+00  0.0000E+00  0.0000E+00  0.0000E+00  0.0000E+00
      0.832  0.3250E-01  0.6803E-02  0.6802E-02  0.6803E-02  0.0000E+00  0.0000E+00  0.0000E+00  0.0000E+00  0.0000E+00
      0.912  0.4334E-01  0.1045E-01  0.1045E-01  0.1045E-01  0.0000E+00  0.0000E+00  0.0000E+00  0.0000E+00  0.0000E+00
      0.992  0.3340E-01  0.7307E-02  0.7307E-02  0.7307E-02  0.0000E+00  0.0000E+00  0.0000E+00  0.0000E+00  0.0000E+00
      1.071  0.3477E-01  0.8631E-02  0.8631E-02  0.8631E-02  0.0000E+00  0.0000E+00  0.0000E+00  0.0000E+00  0.0000E+00
      1.151  0.2629E-01  0.6161E-02  0.6161E-02  0.6161E-02  0.0000E+00  0.0000E+00  0.0000E+00  0.0000E+00  0.0000E+00
      1.230  0.3662E-01  0.9178E-02  0.9178E-02  0.9178E-02  0.0000E+00  0.0000E+00  0.0000E+00  0.0000E+00  0.0000E+00
      1.310  0.2744E-01  0.9238E-02  0.9237E-02  0.9238E-02  0.0000E+00  0.0000E+00  0.0000E+00  0.0000E+00  0.0000E+00
      1.389  0.2893E-01  0.2099E-01  0.2099E-01  0.2099E-01  0.0000E+00  0.0000E+00  0.0000E+00  0.0000E+00  0.0000E+00
      1.469  0.2712E-01  0.3345E-01  0.3345E-01  0.3345E-01  0.0000E+00  0.0000E+00  0.0000E+00  0.0000E+00  0.0000E+00
      1.549  0.2680E-01  0.4442E-01  0.4442E-01  0.4442E-01  0.0000E+00  0.0000E+00  0.0000E+00  0.0000E+00  0.0000E+00
      1.628  0.3842E-01  0.6088E-01  0.6088E-01  0.6088E-01  0.0000E+00  0.0000E+00  0.0000E+00  0.0000E+00  0.0000E+00
      1.708  0.3025E-01  0.5802E-01  0.5802E-01  0.5802E-01  0.0000E+00  0.0000E+00  0.0000E+00  0.0000E+00  0.0000E+00
      1.787  0.2968E-01  0.5785E-01  0.5785E-01  0.5785E-01  0.0000E+00  0.0000E+00  0.0000E+00  0.0000E+00  0.0000E+00
      1.867  0.3086E-01  0.5155E-01  0.5155E-01  0.5155E-01  0.0000E+00  0.0000E+00  0.0000E+00  0.0000E+00  0.0000E+00
      1.946  0.3522E-01  0.5379E-01  0.5379E-01  0.5379E-01  0.0000E+00  0.0000E+00  0.0000E+00  0.0000E+00  0.0000E+00
      2.026  0.3233E-01  0.5340E-01  0.5340E-01  0.5340E-01  0.0000E+00  0.0000E+00  0.0000E+00  0.0000E+00  0.0000E+00
      2.106  0.2998E-01  0.4789E-01  0.4789E-01  0.4789E-01  0.0000E+00  0.0000E+00  0.0000E+00  0.0000E+00  0.0000E+00
      2.185  0.3128E-01  0.5604E-01  0.5604E-01  0.5604E-01  0.0000E+00  0.0000E+00  0.0000E+00  0.0000E+00  0.0000E+00
      2.265  0.2695E-01  0.5325E-01  0.5325E-01  0.5325E-01  0.0000E+00  0.0000E+00  0.0000E+00  0.0000E+00  0.0000E+00
      2.344  0.3197E-01  0.5365E-01  0.5365E-01  0.5365E-01  0.0000E+00  0.0000E+00  0.0000E+00  0.0000E+00  0.0000E+00
      2.424  0.3138E-01  0.6051E-01  0.6051E-01  0.6051E-01  0.0000E+00  0.0000E+00  0.0000E+00  0.0000E+00  0.0000E+00
      2.503  0.2692E-01  0.5968E-01  0.5968E-01  0.5968E-01  0.0000E+00  0.0000E+00  0.0000E+00  0.0000E+00  0.0000E+00
      2.583  0.2862E-01  0.6325E-01  0.6325E-01  0.6325E-01  0.0000E+00  0.0000E+00  0.0000E+00  0.0000E+00  0.0000E+00
      2.662  0.2152E-01  0.6468E-01  0.6468E-01  0.6468E-01  0.0000E+00  0.0000E+00  0.0000E+00  0.0000E+00  0.0000E+00
      2.742  0.2920E-01  0.7051E-01  0.7051E-01  0.7051E-01  0.0000E+00  0.0000E+00  0.0000E+00  0.0000E+00  0.0000E+00
      2.822  0.2988E-01  0.8591E-01  0.8591E-01  0.8591E-01  0.0000E+00  0.0000E+00  0.0000E+00  0.0000E+00  0.0000E+00
      2.901  0.2166E-01  0.8769E-01  0.8769E-01  0.8769E-01  0.0000E+00  0.0000E+00  0.0000E+00  0.0000E+00  0.0000E+00
      2.981  0.2157E-01  0.8676E-01  0.8676E-01  0.8676E-01  0.0000E+00  0.0000E+00  0.0000E+00  0.0000E+00  0.0000E+00
      3.060  0.1966E-01  0.8792E-01  0.8792E-01  0.8792E-01  0.0000E+00  0.0000E+00  0.0000E+00  0.0000E+00  0.0000E+00
      3.140  0.2608E-01  0.9300E-01  0.9300E-01  0.9300E-01  0.0000E+00  0.0000E+00  0.0000E+00  0.0000E+00  0.0000E+00
      3.219  0.2236E-01  0.8613E-01  0.8613E-01  0.8613E-01  0.0000E+00  0.0000E+00  0.0000E+00  0.0000E+00  0.0000E+00
      3.299  0.1759E-01  0.8906E-01  0.8906E-01  0.8906E-01  0.0000E+00  0.0000E+00  0.0000E+00  0.0000E+00  0.0000E+00
      3.379  0.1788E-01  0.7973E-01  0.7973E-01  0.7973E-01  0.0000E+00  0.0000E+00  0.0000E+00  0.0000E+00  0.0000E+00
      3.458  0.1574E-01  0.8793E-01  0.8793E-01  0.8793E-01  0.0000E+00  0.0000E+00  0.0000E+00  0.0000E+00  0.0000E+00
      3.538  0.1978E-01  0.8945E-01  0.8945E-01  0.8945E-01  0.0000E+00  0.0000E+00  0.0000E+00  0.0000E+00  0.0000E+00
      3.617  0.1698E-01  0.7794E-01  0.7794E-01  0.7794E-01  0.0000E+00  0.0000E+00  0.0000E+00  0.0000E+00  0.0000E+00
      3.697  0.1448E-01  0.8637E-01  0.8637E-01  0.8637E-01  0.0000E+00  0.0000E+00  0.0000E+00  0.0000E+00  0.0000E+00
      3.776  0.1260E-01  0.8137E-01  0.8137E-01  0.8137E-01  0.0000E+00  0.0000E+00  0.0000E+00  0.0000E+00  0.0000E+00
      3.856  0.1425E-01  0.8217E-01  0.8217E-01  0.8217E-01  0.0000E+00  0.0000E+00  0.0000E+00  0.0000E+00  0.0000E+00
      3.936  0.1159E-01  0.8058E-01  0.8058E-01  0.8058E-01  0.0000E+00  0.0000E+00  0.0000E+00  0.0000E+00  0.0000E+00
      4.015  0.1216E-01  0.8122E-01  0.8122E-01  0.8122E-01  0.0000E+00  0.0000E+00  0.0000E+00  0.0000E+00  0.0000E+00
      4.095  0.1164E-01  0.7994E-01  0.7994E-01  0.7994E-01  0.0000E+00  0.0000E+00  0.0000E+00  0.0000E+00  0.0000E+00
      4.174  0.9676E-02  0.7932E-01  0.7932E-01  0.7932E-01  0.0000E+00  0.0000E+00  0.0000E+00  0.0000E+00  0.0000E+00
      4.254  0.7391E-02  0.7900E-01  0.7900E-01  0.7900E-01  0.0000E+00  0.0000E+00  0.0000E+00  0.0000E+00  0.0000E+00
      4.333  0.8406E-02  0.7712E-01  0.7712E-01  0.7712E-01  0.0000E+00  0.0000E+00  0.0000E+00  0.0000E+00  0.0000E+00
      4.413  0.6941E-02  0.7794E-01  0.7794E-01  0.7794E-01  0.0000E+00  0.0000E+00  0.0000E+00  0.0000E+00  0.0000E+00
      4.492  0.7633E-02  0.6901E-01  0.6901E-01  0.6901E-01  0.0000E+00  0.0000E+00  0.0000E+00  0.0000E+00  0.0000E+00
      4.572  0.5713E-02  0.5987E-01  0.5987E-01  0.5987E-01  0.0000E+00  0.0000E+00  0.0000E+00  0.0000E+00  0.0000E+00
      4.652  0.3750E-02  0.4816E-01  0.4816E-01  0.4816E-01  0.0000E+00  0.0000E+00  0.0000E+00  0.0000E+00  0.0000E+00
      4.731  0.4219E-02  0.4380E-01  0.4380E-01  0.4380E-01  0.0000E+00  0.0000E+00  0.0000E+00  0.0000E+00  0.0000E+00
      4.811  0.3931E-02  0.4004E-01  0.4004E-01  0.4004E-01  0.0000E+00  0.0000E+00  0.0000E+00  0.0000E+00  0.0000E+00
      4.890  0.3732E-02  0.3575E-01  0.3575E-01  0.3575E-01  0.0000E+00  0.0000E+00  0.0000E+00  0.0000E+00  0.0000E+00
      4.970  0.2854E-02  0.3226E-01  0.3226E-01  0.3226E-01  0.0000E+00  0.0000E+00  0.0000E+00  0.0000E+00  0.0000E+00
      5.049  0.1757E-02  0.2716E-01  0.2716E-01  0.2716E-01  0.0000E+00  0.0000E+00  0.0000E+00  0.0000E+00  0.0000E+00
      5.129  0.1467E-02  0.2434E-01  0.2434E-01  0.2434E-01  0.0000E+00  0.0000E+00  0.0000E+00  0.0000E+00  0.0000E+00