    2    2    1    1
  0.2044095E+02  0.3866773E-09  0.3866774E-09  0.3866772E-09  0.5000000E-15
  1.000000000000000E-004
  CAR 
 unknown system                          
      8    816      8
 
  0.0000000E+00  0.0000000E+00  0.0000000E+00  0.3356718E-04
    1       -6.198309   1.000000
    2        5.617310   1.000000
    3        5.617310   1.000000
    4        5.617313   1.000000
    5        8.174423   0.000000
    6        8.174430   0.000000
    7        8.174432   0.000000
    8        8.752975   0.000000
 
  0.3225806E-01  0.0000000E+00  0.0000000E+00  0.2685375E-03
    1       -6.184900   1.000000
    2        5.457874   1.000000
    3        5.594341   1.000000
    4        5.594343   1.000000
    5        8.206740   0.000000
    6        8.208050   0.000000
    7        8.208057   0.000000
    8        8.856586   0.000000
 
  0.6451613E-01  0.0000000E+00  0.0000000E+00  0.2685375E-03
    1       -6.144687   1.000000
    2        5.056551   1.000000
    3        5.529797   1.000000
    4        5.529799   1.000000
    5        8.212285   0.000000
    6        8.303086   0.000000
    7        8.303093   0.000000
    8        9.184952   0.000000
 
  0.9677419E-01  0.0000000E+00  0.0000000E+00  0.2685375E-03
    1       -6.077851   1.000000
    2        4.531522   1.000000
    3        5.434293   1.000000
    4        5.434296   1.000000
    5        8.149569   0.000000
    6        8.444307   0.000000
    7        8.444315   0.000000
    8        9.669486   0.000000
 
  0.1290323E+00  0.0000000E+00  0.0000000E+00  0.2685375E-03
    1       -5.984765   1.000000
    2        3.952698   1.000000
    3        5.319949   1.000000
    4        5.319951   1.000000
    5        8.046906   0.000000
    6        8.611509   0.000000
    7        8.611517   0.000000
    8       10.222551   0.000000
 
  0.1612903E+00  0.6938894E-17  0.0000000E+00  0.2685375E-03
    1       -5.865888   1.000000
    2        3.354396   1.000000
    3        5.197225   1.000000
    4        5.197227   1.000000
    5        7.925039   0.000000
    6        8.782570   0.000000
    7        8.782578   0.000000
    8       10.800137   0.000000
 
  0.1935484E+00  0.1387779E-16  0.0000000E+00  0.2685375E-03
    1       -5.721951   1.000000
    2        2.754501   1.000000
    3        5.073945   1.000000
    4        5.073947   1.000000
    5        7.796391   0.000000
    6        8.935460   0.000000
    7        8.935467   0.000000
    8       11.381580   0.000000
 
  0.2258065E+00  0.0000000E+00  0.0000000E+00  0.2685375E-03
    1       -5.554066   1.000000
    2        2.163631   1.000000
    3        4.955551   1.000000
    4        4.955554   1.000000
    5        7.668959   0.000000
    6        9.051543   0.000000
    7        9.051551   0.000000
    8       11.954407   0.000000
 
  0.2580645E+00  0.1387779E-16  0.0000000E+00  0.2685375E-03
    1       -5.363766   1.000000
    2        1.589203   1.000000
    3        4.845718   1.000000
    4        4.845720   1.000000
    5        7.548165   0.000000
    6        9.120447   0.000000
    7        9.120455   0.000000
    8       12.503762   0.000000
 
  0.2903226E+00  0.0000000E+00  0.0000000E+00  0.2685375E-03
    1       -5.153362   1.000000
    2        1.037369   1.000000
    3        4.746875   1.000000
    4        4.746878   1.000000
    5        7.437684   0.000000
    6        9.143319   0.000000
    7        9.143327   0.000000
    8       12.994673   0.000000
 
  0.3225806E+00 -0.1387779E-16  0.0000000E+00  0.2685375E-03
    1       -4.926469   1.000000
    2        0.514297   1.000000
    3        4.660577   1.000000
    4        4.660580   1.000000
    5        7.340066   0.000000
    6        9.130645   0.000000
    7        9.130654   0.000000
    8       13.338610   0.000000
 
  0.3548387E+00  0.1387779E-16  0.0000000E+00  0.2685375E-03
    1       -4.688765   1.000000
    2        0.027551   1.000000
    3        4.587808   1.000000
    4        4.587810   1.000000
    5        7.256963   0.000000
    6        9.096686   0.000000
    7        9.096695   0.000000
    8       13.457906   0.000000
 
  0.3870968E+00  0.2775558E-16  0.0000000E+00  0.2685375E-03
    1       -4.449682   1.000000
    2       -0.412084   1.000000
    3        4.529162   1.000000
    4        4.529165   1.000000
    5        7.189492   0.000000
    6        9.054727   0.000000
    7        9.054736   0.000000
    8       13.442145   0.000000
 
  0.4193548E+00  0.0000000E+00  0.0000000E+00  0.2685375E-03
    1       -4.225170   1.000000
    2       -0.787785   1.000000
    3        4.484982   1.000000
    4        4.484985   1.000000
    5        7.138363   0.000000
    6        9.015152   0.000000
    7        9.015160   0.000000
    8       13.392164   0.000000
 
  0.4516129E+00  0.0000000E+00  0.0000000E+00  0.2685375E-03
    1       -4.041177   1.000000
    2       -1.072921   1.000000
    3        4.455457   1.000000
    4        4.455460   1.000000
    5        7.104076   0.000000
    6        8.985123   0.000000
    7        8.985131   0.000000
    8       13.347833   0.000000
 
  0.4838710E+00  0.5551115E-16  0.0000000E+00  0.2685375E-03
    1       -3.933652   1.000000
    2       -1.231093   1.000000
    3        4.440678   1.000000
    4        4.440681   1.000000
    5        7.086897   0.000000
    6        8.969056   0.000000
    7        8.969065   0.000000
    8       13.323260   0.000000
 
  0.3225806E-01  0.3225806E-01  0.0000000E+00  0.2014031E-03
    1       -6.180424   1.000000
    2        5.490931   1.000000
    3        5.542663   1.000000
    4        5.542665   1.000000
    5        8.130347   0.000000
    6        8.271136   0.000000
    7        8.271143   0.000000
    8        8.876418   0.000000
 
  0.6451613E-01  0.3225806E-01  0.0000000E+00  0.8056124E-03
    1       -6.149130   1.000000
    2        5.177838   1.000000
    3        5.454362   1.000000
    4        5.520936   1.000000
    5        8.124007   0.000000
    6        8.339794   0.000000
    7        8.391295   0.000000
    8        9.111991   0.000000
 
  0.9677419E-01  0.3225806E-01  0.0000000E+00  0.8056124E-03
    1       -6.091151   1.000000
    2        4.693405   1.000000
    3        5.341531   1.000000
    4        5.468412   1.000000
    5        8.161791   0.000000
    6        8.349291   0.000000
    7        8.552327   0.000000
    8        9.542339   0.000000
 
  0.1290323E+00  0.3225806E-01  0.0000000E+00  0.8056124E-03
    1       -6.006784   1.000000
    2        4.135130   1.000000
    3        5.215890   1.000000
    4        5.380629   1.000000
    5        8.141811   0.000000
    6        8.413539   0.000000
    7        8.734995   0.000000
    8       10.063422   0.000000
 
  0.1612903E+00  0.3225806E-01  0.0000000E+00  0.8056124E-03
    1       -5.896454   1.000000
    2        3.546353   1.000000
    3        5.086815   1.000000
    4        5.270305   1.000000
    5        8.047856   0.000000
    6        8.553272   0.000000
    7        8.918749   0.000000
    8       10.609709   0.000000
 
  0.1935484E+00  0.3225806E-01  0.0000000E+00  0.8056124E-03
    1       -5.760802   1.000000
    2        2.949559   1.000000
    3        4.961100   1.000000
    4        5.148682   1.000000
    5        7.929702   0.000000
    6        8.708407   0.000000
    7        9.082731   0.000000
    8       11.140536   0.000000
 
  0.2258065E+00  0.3225806E-01  0.0000000E+00  0.8056124E-03
    1       -5.600789   1.000000
    2        2.357666   1.000000
    3        4.843439   1.000000
    4        5.024197   1.000000
    5        7.806268   0.000000
    6        8.845390   0.000000
    7        9.208241   0.000000
    8       11.611303   0.000000
 
  0.2580645E+00  0.3225806E-01  0.0000000E+00  0.8056124E-03
    1       -5.417784   1.000000
    2        1.779198   1.000000
    3        4.736972   1.000000
    4        4.902705   1.000000
    5        7.686071   0.000000
    6        8.944206   0.000000
    7        9.283523   0.000000
    8       11.983844   0.000000
 
  0.2903226E+00  0.3225806E-01  0.0000000E+00  0.8056124E-03
    1       -5.213787   1.000000
    2        1.220793   1.000000
    3        4.643757   1.000000
    4        4.788149   1.000000
    5        7.574119   0.000000
    6        8.997936   0.000000
    7        9.307815   0.000000
    8       12.301791   0.000000
 
  0.3225806E+00  0.3225806E-01  0.0000000E+00  0.8056124E-03
    1       -4.991906   1.000000
    2        0.688616   1.000000
    3        4.565088   1.000000
    4        4.683152   1.000000
    5        7.473563   0.000000
    6        9.012418   0.000000
    7        9.290485   0.000000
    8       12.634556   0.000000
 
  0.3548387E+00  0.3225806E-01  0.0000000E+00  0.8056124E-03
    1       -4.757004   1.000000
    2        0.189681   1.000000
    3        4.501730   1.000000
    4        4.589479   1.000000
    5        7.386573   0.000000
    6        9.000883   0.000000
    7        9.245860   0.000000
    8       12.986695   0.000000
 
  0.3870968E+00  0.3225806E-01  0.0000000E+00  0.8056124E-03
    1       -4.516993   1.000000
    2       -0.266495   1.000000
    3        4.454076   1.000000
    4        4.508336   1.000000
    5        7.314500   0.000000
    6        8.977579   0.000000
    7        9.188137   0.000000
    8       13.275474   0.000000
 
  0.4193548E+00  0.3225806E-01  0.0000000E+00  0.8056124E-03
    1       -4.285254   1.000000
    2       -0.665460   1.000000
    3        4.422237   1.000000
    4        4.440566   1.000000
    5        7.258259   0.000000
    6        8.954168   0.000000
    7        9.128782   0.000000
    8       13.384962   0.000000
 
  0.4516129E+00  0.3225806E-01  0.0000000E+00  0.8056124E-03
    1       -4.084068   1.000000
    2       -0.984209   1.000000
    3        4.386795   1.000000
    4        4.406161   1.000000
    5        7.218429   0.000000
    6        8.938954   0.000000
    7        9.076093   0.000000
    8       13.388973   0.000000
 
  0.4838710E+00  0.3225806E-01  0.0000000E+00  0.8056124E-03
    1       -3.946732   1.000000
    2       -1.188860   1.000000
    3        4.347530   1.000000
    4        4.405653   1.000000
    5        7.195415   0.000000
    6        8.937112   0.000000
    7        9.035518   0.000000
    8       13.375488   0.000000
 
 -0.4838710E+00  0.3225806E-01  0.0000000E+00  0.8056124E-03
    1       -3.908914   1.000000
    2       -1.243496   1.000000
    3        4.323182   1.000000
    4        4.420435   1.000000
    5        7.189336   0.000000
    6        8.951282   0.000000
    7        9.010041   0.000000
    8       13.372361   0.000000
 
 -0.4516129E+00  0.3225806E-01  0.0000000E+00  0.8056124E-03
    1       -3.983071   1.000000
    2       -1.135649   1.000000
    3        4.314121   1.000000
    4        4.450157   1.000000
    5        7.200273   0.000000
    6        8.981917   0.000000
    7        9.000587   0.000000
    8       13.385589   0.000000
 
 -0.4193548E+00  0.3225806E-01  0.0000000E+00  0.8056124E-03
    1       -4.145956   1.000000
    2       -0.888626   1.000000
    3        4.320670   1.000000
    4        4.494422   1.000000
    5        7.228159   0.000000
    6        9.006016   0.000000
    7        9.027448   0.000000
    8       13.409852   0.000000
 
 -0.3870968E+00  0.3225806E-01  0.0000000E+00  0.8056124E-03
    1       -4.360497   1.000000
    2       -0.539856   1.000000
    3        4.343079   1.000000
    4        4.552768   1.000000
    5        7.272823   0.000000
    6        9.022911   0.000000
    7        9.084053   0.000000
    8       13.608779   0.000000
 
 -0.3548387E+00  0.3225806E-01  0.0000000E+00  0.8056124E-03
    1       -4.596960   1.000000
    2       -0.119751   1.000000
    3        4.381515   1.000000
    4        4.624627   1.000000
    5        7.333828   0.000000
    6        9.045179   0.000000
    7        9.145339   0.000000
    8       13.697162   0.000000
 
 -0.3225806E+00  0.3225806E-01  0.0000000E+00  0.8056124E-03
    1       -4.836419   1.000000
    2        0.351976   1.000000
    3        4.435998   1.000000
    4        4.709284   1.000000
    5        7.410552   0.000000
    6        9.063607   0.000000
    7        9.201758   0.000000
    8       13.260147   0.000000
 
 -0.2903226E+00  0.3225806E-01  0.0000000E+00  0.8056124E-03
    1       -5.067663   1.000000
    2        0.862866   1.000000
    3        4.506369   1.000000
    4        4.805753   1.000000
    5        7.502002   0.000000
    6        9.065866   0.000000
    7        9.240308   0.000000
    8       12.813810   0.000000
 
 -0.2580645E+00  0.3225806E-01  0.0000000E+00  0.8056124E-03
    1       -5.284013   1.000000
    2        1.404419   1.000000
    3        4.592173   1.000000
    4        4.912634   1.000000
    5        7.606718   0.000000
    6        9.038105   0.000000
    7        9.245526   0.000000
    8       12.424753   0.000000
 
 -0.2258065E+00  0.3225806E-01  0.0000000E+00  0.8056124E-03
    1       -5.481287   1.000000
    2        1.970034   1.000000
    3        4.692559   1.000000
    4        5.027886   1.000000
    5        7.722384   0.000000
    6        8.969299   0.000000
    7        9.203056   0.000000
    8       11.994369   0.000000
 
 -0.1935484E+00  0.3225806E-01  0.0000000E+00  0.8056124E-03
    1       -5.656806   1.000000
    2        2.553447   1.000000
    3        4.806124   1.000000
    4        5.148500   1.000000
    5        7.845704   0.000000
    6        8.857185   0.000000
    7        9.105942   0.000000
    8       11.512779   0.000000
 
 -0.1612903E+00  0.3225806E-01  0.0000000E+00  0.8056124E-03
    1       -5.808824   1.000000
    2        3.147382   1.000000
    3        4.930697   1.000000
    4        5.270017   1.000000
    5        7.971762   0.000000
    6        8.711405   0.000000
    7        8.959329   0.000000
    8       10.988949   0.000000
 
 -0.1290323E+00  0.3225806E-01  0.0000000E+00  0.8056124E-03
    1       -5.936116   1.000000
    2        3.741790   1.000000
    3        5.063030   1.000000
    4        5.385962   1.000000
    5        8.093159   0.000000
    6        8.550975   0.000000
    7        8.779383   0.000000
    8       10.444113   0.000000
 
 -0.9677419E-01  0.3225806E-01  0.0000000E+00  0.8056124E-03
    1       -6.037840   1.000000
    2        4.320188   1.000000
    3        5.198640   1.000000
    4        5.487362   1.000000
    5        8.198122   0.000000
    6        8.399143   0.000000
    7        8.588458   0.000000
    8        9.904298   0.000000
 
 -0.6451613E-01  0.3225806E-01  0.0000000E+00  0.8056124E-03
    1       -6.113442   1.000000
    2        4.851111   1.000000
    3        5.332643   1.000000
    4        5.562971   1.000000
    5        8.264864   0.000000
    6        8.279229   0.000000
    7        8.413795   0.000000
    8        9.409255   0.000000
 
 -0.3225806E-01  0.3225806E-01  0.0000000E+00  0.4028062E-03
    1       -6.162545   1.000000
    2        5.264643   1.000000
    3        5.467990   1.000000
    4        5.601196   1.000000
    5        8.211299   0.000000
    6        8.243987   0.000000
    7        8.301133   0.000000
    8        9.032176   0.000000
 
  0.6451613E-01  0.6451613E-01  0.0000000E+00  0.2014031E-03
    1       -6.126749   1.000000
    2        5.160652   1.000000
    3        5.347228   1.000000
    4        5.347230   1.000000
    5        8.006468   0.000000
    6        8.532623   0.000000
    7        8.532629   0.000000
    8        9.189184   0.000000
 
  0.9677419E-01  0.6451613E-01  0.0000000E+00  0.8056124E-03
    1       -6.077651   1.000000
    2        4.788841   1.000000
    3        5.220739   1.000000
    4        5.299953   1.000000
    5        7.969654   0.000000
    6        8.617711   0.000000
    7        8.711104   0.000000
    8        9.495054   0.000000
 
  0.1290323E+00  0.6451613E-01  0.0000000E+00  0.8056124E-03
    1       -6.002081   1.000000
    2        4.275602   1.000000
    3        5.085887   1.000000
    4        5.247606   1.000000
    5        8.002297   0.000000
    6        8.599369   0.000000
    7        8.908859   0.000000
    8        9.949666   0.000000
 
  0.1612903E+00  0.6451613E-01  0.0000000E+00  0.8056124E-03
    1       -5.900399   1.000000
    2        3.712211   1.000000
    3        4.951103   1.000000
    4        5.158956   1.000000
    5        8.059727   0.000000
    6        8.570105   0.000000
    7        9.106929   0.000000
    8       10.426148   0.000000
 
  0.1935484E+00  0.6451613E-01  0.0000000E+00  0.8056124E-03
    1       -5.773162   1.000000
    2        3.129679   1.000000
    3        4.822445   1.000000
    4        5.044910   1.000000
    5        8.075851   0.000000
    6        8.595842   0.000000
    7        9.285440   0.000000
    8       10.839922   0.000000
 
  0.2258065E+00  0.6451613E-01  0.0000000E+00  0.8056124E-03
    1       -5.621218   1.000000
    2        2.544885   1.000000
    3        4.704095   1.000000
    4        4.917434   1.000000
    5        8.024649   0.000000
    6        8.684902   0.000000
    7        9.425416   0.000000
    8       11.137299   0.000000
 
  0.2580645E+00  0.6451613E-01  0.0000000E+00  0.8056124E-03
    1       -5.445780   1.000000
    2        1.968474   1.000000
    3        4.598888   1.000000
    4        4.785684   1.000000
    5        7.937047   0.000000
    6        8.786362   0.000000
    7        9.513276   0.000000
    8       11.356574   0.000000
 
  0.2903226E+00  0.6451613E-01  0.0000000E+00  0.8056124E-03
    1       -5.248587   1.000000
    2        1.408247   1.000000
    3        4.508687   1.000000
    4        4.656022   1.000000
    5        7.839551   0.000000
    6        8.861152   0.000000
    7        9.545646   0.000000
    8       11.586830   0.000000
 
  0.3225806E+00  0.6451613E-01  0.0000000E+00  0.8056124E-03
    1       -5.032305   1.000000
    2        0.870847   1.000000
    3        4.434678   1.000000
    4        4.532728   1.000000
    5        7.744684   0.000000
    6        8.898252   0.000000
    7        9.530116   0.000000
    8       11.876404   0.000000
 
  0.3548387E+00  0.6451613E-01  0.0000000E+00  0.8056124E-03
    1       -4.801098   1.000000
    2        0.363148   1.000000
    3        4.377551   1.000000
    4        4.418703   1.000000
    5        7.658644   0.000000
    6        8.905080   0.000000
    7        9.480697   0.000000
    8       12.229651   0.000000
 
  0.3870968E+00  0.6451613E-01  0.0000000E+00  0.8056124E-03
    1       -4.561625   1.000000
    2       -0.106196   1.000000
    3        4.315939   1.000000
    4        4.337632   1.000000
    5        7.584731   0.000000
    6        8.895707   0.000000
    7        9.412361   0.000000
    8       12.625179   0.000000
 
  0.4193548E+00  0.6451613E-01  0.0000000E+00  0.8056124E-03
    1       -4.325069   1.000000
    2       -0.524599   1.000000
    3        4.225893   1.000000
    4        4.314969   1.000000
    5        7.524947   0.000000
    6        8.883301   0.000000
    7        9.337719   0.000000
    8       13.015475   0.000000
 
  0.4516129E+00  0.6451613E-01  0.0000000E+00  0.8056124E-03
    1       -4.110340   1.000000
    2       -0.872256   1.000000
    3        4.149668   1.000000
    4        4.309391   1.000000
    5        7.480518   0.000000
    6        8.877522   0.000000
    7        9.266153   0.000000
    8       13.310106   0.000000
 
  0.4838710E+00  0.6451613E-01  0.0000000E+00  0.8056124E-03
    1       -3.947250   1.000000
    2       -1.118646   1.000000
    3        4.088164   1.000000
    4        4.320563   1.000000
    5        7.452189   0.000000
    6        8.884512   0.000000
    7        9.204059   0.000000
    8       13.450264   0.000000
 
 -0.4838710E+00  0.6451613E-01  0.0000000E+00  0.8056124E-03
    1       -3.873068   1.000000
    2       -1.226103   1.000000
    3        4.042144   1.000000
    4        4.348009   1.000000
    5        7.440358   0.000000
    6        8.907591   0.000000
    7        9.155333   0.000000
    8       13.499538   0.000000
 
 -0.4516129E+00  0.6451613E-01  0.0000000E+00  0.8056124E-03
    1       -3.911162   1.000000
    2       -1.171179   1.000000
    3        4.012281   1.000000
    4        4.391141   1.000000
    5        7.445213   0.000000
    6        8.947817   0.000000
    7        9.121717   0.000000
    8       13.516750   0.000000
 
 -0.4193548E+00  0.6451613E-01  0.0000000E+00  0.8056124E-03
    1       -4.048914   1.000000
    2       -0.966522   1.000000
    3        3.999173   1.000000
    4        4.449249   1.000000
    5        7.466714   0.000000
    6        9.004182   0.000000
    7        9.102892   0.000000
    8       13.511188   0.000000
 
 -0.3870968E+00  0.6451613E-01  0.0000000E+00  0.8056124E-03
    1       -4.250438   1.000000
    2       -0.648330   1.000000
    3        4.003343   1.000000
    4        4.521511   1.000000
    5        7.504718   0.000000
    6        9.073561   0.000000
    7        9.096370   0.000000
    8       13.452657   0.000000
 
 -0.3548387E+00  0.6451613E-01  0.0000000E+00  0.8056124E-03
    1       -4.482329   1.000000
    2       -0.250634   1.000000
    3        4.025235   1.000000
    4        4.606959   1.000000
    5        7.558826   0.000000
    6        9.097072   0.000000
    7        9.150375   0.000000
    8       13.281061   0.000000
 
 -0.3225806E+00  0.6451613E-01  0.0000000E+00  0.8056124E-03
    1       -4.722360   1.000000
    2        0.203459   1.000000
    3        4.065182   1.000000
    4        4.704404   1.000000
    5        7.628407   0.000000
    6        9.096818   0.000000
    7        9.225677   0.000000
    8       13.101457   0.000000
 
 -0.2903226E+00  0.6451613E-01  0.0000000E+00  0.8056124E-03
    1       -4.957198   1.000000
    2        0.699320   1.000000
    3        4.123393   1.000000
    4        4.812345   1.000000
    5        7.712490   0.000000
    6        9.084223   0.000000
    7        9.286486   0.000000
    8       12.614917   0.000000
 
 -0.2580645E+00  0.6451613E-01  0.0000000E+00  0.8056124E-03
    1       -5.178958   1.000000
    2        1.227126   1.000000
    3        4.199954   1.000000
    4        4.928795   1.000000
    5        7.809691   0.000000
    6        9.045981   0.000000
    7        9.315519   0.000000
    8       12.241733   0.000000
 
 -0.2258065E+00  0.6451613E-01  0.0000000E+00  0.8056124E-03
    1       -5.382815   1.000000
    2        1.779287   1.000000
    3        4.294791   1.000000
    4        5.051025   1.000000
    5        7.917781   0.000000
    6        8.971048   0.000000
    7        9.293671   0.000000
    8       11.881448   0.000000
 
 -0.1935484E+00  0.6451613E-01  0.0000000E+00  0.8056124E-03
    1       -5.565677   1.000000
    2        2.348585   1.000000
    3        4.407756   1.000000
    4        5.175194   1.000000
    5        8.033597   0.000000
    6        8.856864   0.000000
    7        9.207200   0.000000
    8       11.522266   0.000000
 
 -0.1612903E+00  0.6451613E-01  0.0000000E+00  0.8056124E-03
    1       -5.725541   1.000000
    2        2.926330   1.000000
    3        4.538859   1.000000
    4        5.295844   1.000000
    5        8.152314   0.000000
    6        8.713205   0.000000
    7        9.056380   0.000000
    8       11.134317   0.000000
 
 -0.1290323E+00  0.6451613E-01  0.0000000E+00  0.8056124E-03
    1       -5.861065   1.000000
    2        3.499651   1.000000
    3        4.689066   1.000000
    4        5.405362   1.000000
    5        8.266564   0.000000
    6        8.559997   0.000000
    7        8.857487   0.000000
    8       10.700747   0.000000
 
 -0.9677419E-01  0.6451613E-01  0.0000000E+00  0.8056124E-03
    1       -5.971283   1.000000
    2        4.045343   1.000000
    3        4.863069   1.000000
    4        5.493759   1.000000
    5        8.364456   0.000000
    6        8.421633   0.000000
    7        8.636614   0.000000
    8       10.236719   0.000000
 
 -0.6451613E-01  0.6451613E-01  0.0000000E+00  0.4028062E-03
    1       -6.055542   1.000000
    2        4.516787   1.000000
    3        5.075767   1.000000
    4        5.549607   1.000000
    5        8.321831   0.000000
    6        8.424943   0.000000
    7        8.425706   0.000000
    8        9.784014   0.000000
 
  0.9677419E-01  0.9677419E-01  0.0000000E+00  0.2014031E-03
    1       -6.037427   1.000000
    2        4.710902   1.000000
    3        5.084100   1.000000
    4        5.084101   1.000000
    5        7.823318   0.000000
    6        8.905266   0.000000
    7        8.905271   0.000000
    8        9.570947   0.000000
 
  0.1290323E+00  0.9677419E-01  0.0000000E+00  0.8056124E-03
    1       -5.970672   1.000000
    2        4.332424   1.000000
    3        4.941922   1.000000
    4        5.004115   1.000000
    5        7.767584   0.000000
    6        9.000978   0.000000
    7        9.118269   0.000000
    8        9.866754   0.000000
 
  0.1612903E+00  0.9677419E-01  0.0000000E+00  0.8056124E-03
    1       -5.877686   1.000000
    2        3.825891   1.000000
    3        4.802022   1.000000
    4        4.935214   1.000000
    5        7.794100   0.000000
    6        8.971984   0.000000
    7        9.332474   0.000000
    8       10.240378   0.000000
 
  0.1935484E+00  0.9677419E-01  0.0000000E+00  0.8056124E-03
    1       -5.758966   1.000000
    2        3.275946   1.000000
    3        4.669995   1.000000
    4        4.834624   1.000000
    5        7.869499   0.000000
    6        8.920940   0.000000
    7        9.528846   0.000000
    8       10.524393   0.000000
 
  0.2258065E+00  0.9677419E-01  0.0000000E+00  0.8056124E-03
    1       -5.615255   1.000000
    2        2.710847   1.000000
    3        4.549758   1.000000
    4        4.709160   1.000000
    5        7.947578   0.000000
    6        8.890608   0.000000
    7        9.688102   0.000000
    8       10.679255   0.000000
 
  0.2580645E+00  0.9677419E-01  0.0000000E+00  0.8056124E-03
    1       -5.447605   1.000000
    2        2.145730   1.000000
    3        4.443981   1.000000
    4        4.570431   1.000000
    5        7.987476   0.000000
    6        8.897200   0.000000
    7        9.794582   0.000000
    8       10.783156   0.000000
 
  0.2903226E+00  0.9677419E-01  0.0000000E+00  0.8056124E-03
    1       -5.257541   1.000000
    2        1.590688   1.000000
    3        4.354469   1.000000
    4        4.427783   1.000000
    5        7.977465   0.000000
    6        8.926183   0.000000
    7        9.841800   0.000000
    8       10.925894   0.000000
 
  0.3225806E+00  0.9677419E-01  0.0000000E+00  0.8056124E-03
    1       -5.047364   1.000000
    2        1.053597   1.000000
    3        4.282375   1.000000
    4        4.287739   1.000000
    5        7.933373   0.000000
    6        8.948304   0.000000
    7        9.834790   0.000000
    8       11.153716   0.000000
 
  0.3548387E+00  0.9677419E-01  0.0000000E+00  0.8056124E-03
    1       -4.820625   1.000000
    2        0.541766   1.000000
    3        4.154727   1.000000
    4        4.228403   1.000000
    5        7.875303   0.000000
    6        8.950125   0.000000
    7        9.786842   0.000000
    8       11.472926   0.000000
 
  0.3870968E+00  0.9677419E-01  0.0000000E+00  0.8056124E-03
    1       -4.582941   1.000000
    2        0.063481   1.000000
    3        4.031779   1.000000
    4        4.192894   1.000000
    5        7.816939   0.000000
    6        8.936834   0.000000
    7        9.713532   0.000000
    8       11.867351   0.000000
 
  0.4193548E+00  0.9677419E-01  0.0000000E+00  0.8056124E-03
    1       -4.343663   1.000000
    2       -0.370017   1.000000
    3        3.921055   1.000000
    4        4.175904   1.000000
    5        7.766200   0.000000
    6        8.919672   0.000000
    7        9.628645   0.000000
    8       12.312743   0.000000
 
  0.4516129E+00  0.9677419E-01  0.0000000E+00  0.8056124E-03
    1       -4.118683   1.000000
    2       -0.741575   1.000000
    3        3.824165   1.000000
    4        4.177265   1.000000
    5        7.727527   0.000000
    6        8.908394   0.000000
    7        9.542775   0.000000
    8       12.778555   0.000000
 
  0.4838710E+00  0.9677419E-01  0.0000000E+00  0.8056124E-03
    1       -3.934041   1.000000
    2       -1.024244   1.000000
    3        3.742409   1.000000
    4        4.196603   1.000000
    5        7.703353   0.000000
    6        8.909557   0.000000
    7        9.463266   0.000000
    8       13.214705   0.000000
 
 -0.4838710E+00  0.9677419E-01  0.0000000E+00  0.8056124E-03
    1       -3.826182   1.000000
    2       -1.180995   1.000000
    3        3.676873   1.000000
    4        4.233376   1.000000
    5        7.694864   0.000000
    6        8.927044   0.000000
    7        9.394854   0.000000
    8       13.534347   0.000000
 
 -0.4516129E+00  0.9677419E-01  0.0000000E+00  0.8056124E-03
    1       -3.826739   1.000000
    2       -1.179981   1.000000
    3        3.628499   1.000000
    4        4.286868   1.000000
    5        7.702530   0.000000
    6        8.962492   0.000000
    7        9.340012   0.000000
    8       13.676400   0.000000
 
 -0.4193548E+00  0.9677419E-01  0.0000000E+00  0.8056124E-03
    1       -3.935512   1.000000
    2       -1.021443   1.000000
    3        3.598120   1.000000
    4        4.356184   1.000000
    5        7.726247   0.000000
    6        9.015692   0.000000
    7        9.299122   0.000000
    8       13.668880   0.000000
 
 -0.3870968E+00  0.9677419E-01  0.0000000E+00  0.8056124E-03
    1       -4.120662   1.000000
    2       -0.737475   1.000000
    3        3.586524   1.000000
    4        4.440242   1.000000
    5        7.765707   0.000000
    6        9.084505   0.000000
    7        9.270445   0.000000
    8       13.519831   0.000000
 