 vasp.6.2.0 18Jan21 (build Aug 12 2022 13:00:08) complex                        
  
 executed on             LinuxIFC date 2024.11.03  23:00:33
 running on    4 total cores
 distrk:  each k-point on    4 cores,    1 groups
 distr:  one band on NCORE=   1 cores,    4 groups


--------------------------------------------------------------------------------------------------------


 INCAR:
   ISTART = 1            (Read existing wavefunction, if there)
   ICHARG = 11           (Non-self-consistent: GGA/LDA band structures)
   ISPIN = 1            (Non-Spin polarised DFT)
   LREAL = .FALSE.       (Projection operators: automatic)
   LWAVE = .TRUE.        (Write WAVECAR or not)
   LCHARG = .TRUE.        (Write CHGCAR or not)
   ADDGRID = .TRUE.        (Increase grid, helps GGA convergence)
   LASPH = .TRUE.        (Give more accurate total energies and band structure calculations)
   PREC = Accurate      (Accurate strictly avoids any aliasing or wrap around errors)
   ENCUT = 450          (Cut-off energy for plane wave basis set, in eV)
   LORBIT = 11
   ISMEAR = 0            (Gaussian smearing, metals:1)
   SIGMA = 0.05         (Smearing value in eV, metals:0.2)
   NELM = 90           (Max electronic SCF steps)
   NELMIN = 6            (Min electronic SCF steps)
   EDIFF = 1E-06        (SCF energy convergence, in eV)
   NSW = 00          (Max ionic steps)
   IBRION = -1            (Algorithm: 0-MD, 1-Quasi-New, 2-CG)
   ISIF = 3            (Stress/relaxation: 2-Ions, 3-Shape/Ions/V, 4-Shape/Ions)
   EDIFFG = -2E-03        (Ionic convergence, eV/AA)
   ISYM = 2              (Symmetry: 0\=none, 2\=GGA, 3\=hybrids)

 POTCAR:    PAW_PBE Si 05Jan2001                  
 POTCAR:    PAW_PBE Si 05Jan2001                  
   VRHFIN =Si: s2p2                                                                                 
   LEXCH  = PE                                                                                      
   EATOM  =   103.0669 eV,    7.5752 Ry                                                             
                                                                                                    
   TITEL  = PAW_PBE Si 05Jan2001                                                                    
   LULTRA =        F    use ultrasoft PP ?                                                          
   IUNSCR =        1    unscreen: 0-lin 1-nonlin 2-no                                               
   RPACOR =    1.500    partial core radius                                                         
   POMASS =   28.085; ZVAL   =    4.000    mass and valenz                                          
   RCORE  =    1.900    outmost cutoff radius                                                       
   RWIGS  =    2.480; RWIGS  =    1.312    wigner-seitz radius (au A)                               
   ENMAX  =  245.345; ENMIN  =  184.009 eV                                                          
   ICORE  =        2    local potential                                                             
   LCOR   =        T    correct aug charges                                                         
   LPAW   =        T    paw PP                                                                      
   EAUG   =  322.069                                                                                
   DEXC   =    0.000                                                                                
   RMAX   =    1.950    core radius for proj-oper                                                   
   RAUG   =    1.300    factor for augmentation sphere                                              
   RDEP   =    1.993    radius for radial grids                                                     
   RDEPT  =    1.837    core radius for aug-charge                                                  
                                                                                                    
   Atomic configuration                                                                             
    6 entries                                                                                       
     n  l   j            E        occ.                                                              
     1  0  0.50     -1785.8828   2.0000                                                             
     2  0  0.50      -139.4969   2.0000                                                             
     2  1  1.50       -95.5546   6.0000                                                             
     3  0  0.50       -10.8127   2.0000                                                             
     3  1  0.50        -4.0811   2.0000                                                             
     3  2  1.50        -4.0817   0.0000                                                             
   Description                                                                                      
     l       E           TYP  RCUT    TYP  RCUT                                                     
     0    -10.8127223     23  1.900                                                                 
     0     -7.6451159     23  1.900                                                                 
     1     -4.0811372     23  1.900                                                                 
     1      2.4879257     23  1.900                                                                 
     2     -4.0817478      7  1.900                                                                 
  local pseudopotential read in
  partial core-charges read in
  partial kinetic energy density read in
  atomic valenz-charges read in
  non local Contribution for L=           0  read in
    real space projection operators read in
  non local Contribution for L=           0  read in
    real space projection operators read in
  non local Contribution for L=           1  read in
    real space projection operators read in
  non local Contribution for L=           1  read in
    real space projection operators read in
    PAW grid and wavefunctions read in
 
   number of l-projection  operators is LMAX  =           4
   number of lm-projection operators is LMMAX =           8
 
  PAW_PBE Si 05Jan2001                  :
 energy of atom  1       EATOM= -103.0669
 kinetic energy error for atom=    0.0009 (will be added to EATOM!!)
 
 
 POSCAR: Si2
  positions in direct lattice
  velocities in cartesian coordinates
 exchange correlation table for  LEXCH =        8
   RHO(1)=    0.500       N(1)  =     2000
   RHO(2)=  100.500       N(2)  =     4000
 


--------------------------------------------------------------------------------------------------------


 ion  position               nearest neighbor table
   1  0.875  0.875  0.875-   2 2.37   2 2.37   2 2.37   2 2.37
   2  0.125  0.125  0.125-   1 2.37   1 2.37   1 2.37   1 2.37
 
  LATTYP: Found a face centered cubic cell.
 ALAT       =     5.4684439553
  
  Lattice vectors:
  
 A1 = (   3.3487235774,   0.0000000000,   1.9333861862)
 A2 = (   1.1162411925,   3.1572081181,   1.9333861862)
 A3 = (   0.0000000000,   0.0000000000,   3.8667723725)


Analysis of symmetry for initial positions (statically):
=====================================================================
 Subroutine PRICEL returns:
 Original cell was already a primitive cell.
 

 Routine SETGRP: Setting up the symmetry group for a 
 face centered cubic supercell.


 Subroutine GETGRP returns: Found 48 space group operations
 (whereof 12 operations were pure point group operations)
 out of a pool of 48 trial point group operations.


The static configuration has the point symmetry D_3d.
 The point group associated with its full space group is O_h .


Analysis of symmetry for dynamics (positions and initial velocities):
=====================================================================
 Subroutine PRICEL returns:
 Original cell was already a primitive cell.
 

 Routine SETGRP: Setting up the symmetry group for a 
 face centered cubic supercell.


 Subroutine GETGRP returns: Found 48 space group operations
 (whereof 12 operations were pure point group operations)
 out of a pool of 48 trial point group operations.


The dynamic configuration has the point symmetry D_3d.
 The point group associated with its full space group is O_h .


 Subroutine INISYM returns: Found 48 space group operations
 (whereof 12 operations are pure point group operations),
 and found     1 'primitive' translations


----------------------------------------------------------------------------------------

                                     Primitive cell                                     

  volume of cell :      40.8819

  direct lattice vectors                    reciprocal lattice vectors
     3.348723577  0.000000000  1.933386186     0.298621244 -0.105578511  0.000000000
     1.116241192  3.157208118  1.933386186     0.000000000  0.316735534  0.000000000
     0.000000000  0.000000000  3.866772372    -0.149310622 -0.105578511  0.258613620

  length of vectors
     3.866772781  3.866773803  3.866772372     0.316735646  0.316735534  0.316735676

  position of ions in fractional coordinates (direct lattice)
     0.875000000  0.875000000  0.875000000
     0.125000000  0.125000000  0.125000000

  ion indices of the primitive-cell ions
   primitive index   ion index
                 1           1
                 2           2

----------------------------------------------------------------------------------------

 
 
 KPOINTS: Automatic                               

Automatic generation of k-mesh.
 Grid dimensions read from file:
 generate k-points for:   31   31   31

 Generating k-lattice:

  Cartesian coordinates                     Fractional coordinates (reciprocal lattice)
     0.009632943 -0.003405758  0.000000000     0.032258065 -0.000000000  0.000000000
     0.000000000  0.010217275  0.000000000     0.000000000  0.032258065  0.000000000
    -0.004816472 -0.003405758  0.008342375     0.000000000  0.000000000  0.032258065

  Length of vectors
     0.010217279  0.010217275  0.010217280

  Shift w.r.t. Gamma in fractional coordinates (k-lattice)
     0.000000000  0.000000000  0.000000000

 
 Subroutine IBZKPT returns following result:
 ===========================================
 
 Found    816 irreducible k-points:
 
 Following reciprocal coordinates:
            Coordinates               Weight
  0.000000  0.000000  0.000000      1.000000
  0.032258  0.000000  0.000000      8.000000
  0.064516  0.000000  0.000000      8.000000
  0.096774  0.000000  0.000000      8.000000
  0.129032  0.000000  0.000000      8.000000
  0.161290  0.000000  0.000000      8.000000
  0.193548  0.000000  0.000000      8.000000
  0.225806  0.000000  0.000000      8.000000
  0.258065  0.000000  0.000000      8.000000
  0.290323  0.000000  0.000000      8.000000
  0.322581 -0.000000  0.000000      8.000000
  0.354839  0.000000  0.000000      8.000000
  0.387097  0.000000  0.000000      8.000000
  0.419355  0.000000  0.000000      8.000000
  0.451613  0.000000  0.000000      8.000000
  0.483871  0.000000  0.000000      8.000000
  0.032258  0.032258  0.000000      6.000000
  0.064516  0.032258  0.000000     24.000000
  0.096774  0.032258  0.000000     24.000000
  0.129032  0.032258  0.000000     24.000000
  0.161290  0.032258  0.000000     24.000000
  0.193548  0.032258  0.000000     24.000000
  0.225806  0.032258  0.000000     24.000000
  0.258065  0.032258  0.000000     24.000000
  0.290323  0.032258  0.000000     24.000000
  0.322581  0.032258  0.000000     24.000000
  0.354839  0.032258  0.000000     24.000000
  0.387097  0.032258  0.000000     24.000000
  0.419355  0.032258  0.000000     24.000000
  0.451613  0.032258  0.000000     24.000000
  0.483871  0.032258  0.000000     24.000000
 -0.483871  0.032258  0.000000     24.000000
 -0.451613  0.032258  0.000000     24.000000
 -0.419355  0.032258  0.000000     24.000000
 -0.387097  0.032258  0.000000     24.000000
 -0.354839  0.032258  0.000000     24.000000
 -0.322581  0.032258  0.000000     24.000000
 -0.290323  0.032258  0.000000     24.000000
 -0.258065  0.032258  0.000000     24.000000
 -0.225806  0.032258  0.000000     24.000000
 -0.193548  0.032258  0.000000     24.000000
 -0.161290  0.032258  0.000000     24.000000
 -0.129032  0.032258  0.000000     24.000000
 -0.096774  0.032258  0.000000     24.000000
 -0.064516  0.032258  0.000000     24.000000
 -0.032258  0.032258  0.000000     12.000000
  0.064516  0.064516  0.000000      6.000000
  0.096774  0.064516  0.000000     24.000000
  0.129032  0.064516  0.000000     24.000000
  0.161290  0.064516  0.000000     24.000000
  0.193548  0.064516  0.000000     24.000000
  0.225806  0.064516  0.000000     24.000000
  0.258065  0.064516  0.000000     24.000000
  0.290323  0.064516  0.000000     24.000000
  0.322581  0.064516  0.000000     24.000000
  0.354839  0.064516  0.000000     24.000000
  0.387097  0.064516  0.000000     24.000000
  0.419355  0.064516  0.000000     24.000000
  0.451613  0.064516  0.000000     24.000000
  0.483871  0.064516  0.000000     24.000000
 -0.483871  0.064516  0.000000     24.000000
 -0.451613  0.064516  0.000000     24.000000
 -0.419355  0.064516  0.000000     24.000000
 -0.387097  0.064516  0.000000     24.000000
 -0.354839  0.064516  0.000000     24.000000
 -0.322581  0.064516  0.000000     24.000000
 -0.290323  0.064516  0.000000     24.000000
 -0.258065  0.064516  0.000000     24.000000
 -0.225806  0.064516  0.000000     24.000000
 -0.193548  0.064516  0.000000     24.000000
 -0.161290  0.064516  0.000000     24.000000
 -0.129032  0.064516  0.000000     24.000000
 -0.096774  0.064516  0.000000     24.000000
 -0.064516  0.064516  0.000000     12.000000
  0.096774  0.096774  0.000000      6.000000
  0.129032  0.096774  0.000000     24.000000
  0.161290  0.096774  0.000000     24.000000
  0.193548  0.096774  0.000000     24.000000
  0.225806  0.096774  0.000000     24.000000
  0.258065  0.096774  0.000000     24.000000
  0.290323  0.096774  0.000000     24.000000
  0.322581  0.096774  0.000000     24.000000
  0.354839  0.096774  0.000000     24.000000
  0.387097  0.096774  0.000000     24.000000
  0.419355  0.096774  0.000000     24.000000
  0.451613  0.096774  0.000000     24.000000
  0.483871  0.096774  0.000000     24.000000
 -0.483871  0.096774  0.000000     24.000000
 -0.451613  0.096774  0.000000     24.000000
 -0.419355  0.096774  0.000000     24.000000
 -0.387097  0.096774  0.000000     24.000000
 -0.354839  0.096774  0.000000     24.000000
 -0.322581  0.096774  0.000000     24.000000
 -0.290323  0.096774  0.000000     24.000000
 -0.258065  0.096774  0.000000     24.000000
 -0.225806  0.096774  0.000000     24.000000
 -0.193548  0.096774  0.000000     24.000000
 -0.161290  0.096774  0.000000     24.000000
 -0.129032  0.096774  0.000000     24.000000
 -0.096774  0.096774  0.000000     12.000000
  0.129032  0.129032  0.000000      6.000000
  0.161290  0.129032  0.000000     24.000000
  0.193548  0.129032  0.000000     24.000000
  0.225806  0.129032  0.000000     24.000000
  0.258065  0.129032  0.000000     24.000000
  0.290323  0.129032  0.000000     24.000000
  0.322581  0.129032  0.000000     24.000000
  0.354839  0.129032  0.000000     24.000000
  0.387097  0.129032  0.000000     24.000000
  0.419355  0.129032  0.000000     24.000000
  0.451613  0.129032  0.000000     24.000000
  0.483871  0.129032  0.000000     24.000000
 -0.483871  0.129032  0.000000     24.000000
 -0.451613  0.129032  0.000000     24.000000
 -0.419355  0.129032  0.000000     24.000000
 -0.387097  0.129032  0.000000     24.000000
 -0.354839  0.129032  0.000000     24.000000
 -0.322581  0.129032  0.000000     24.000000
 -0.290323  0.129032  0.000000     24.000000
 -0.258065  0.129032  0.000000     24.000000
 -0.225806  0.129032  0.000000     24.000000
 -0.193548  0.129032  0.000000     24.000000
 -0.161290  0.129032  0.000000     24.000000
 -0.129032  0.129032  0.000000     12.000000
  0.161290  0.161290  0.000000      6.000000
  0.193548  0.161290  0.000000     24.000000
  0.225806  0.161290  0.000000     24.000000
  0.258065  0.161290  0.000000     24.000000
  0.290323  0.161290  0.000000     24.000000
  0.322581  0.161290  0.000000     24.000000
  0.354839  0.161290  0.000000     24.000000
  0.387097  0.161290  0.000000     24.000000
  0.419355  0.161290  0.000000     24.000000
  0.451613  0.161290  0.000000     24.000000
  0.483871  0.161290  0.000000     24.000000
 -0.483871  0.161290  0.000000     24.000000
 -0.451613  0.161290  0.000000     24.000000
 -0.419355  0.161290  0.000000     24.000000
 -0.387097  0.161290  0.000000     24.000000
 -0.354839  0.161290  0.000000     24.000000
 -0.322581  0.161290  0.000000     24.000000
 -0.290323  0.161290  0.000000     24.000000
 -0.258065  0.161290  0.000000     24.000000
 -0.225806  0.161290  0.000000     24.000000
 -0.193548  0.161290  0.000000     24.000000
 -0.161290  0.161290  0.000000     12.000000
  0.193548  0.193548  0.000000      6.000000
  0.225806  0.193548  0.000000     24.000000
  0.258065  0.193548  0.000000     24.000000
  0.290323  0.193548  0.000000     24.000000
  0.322581  0.193548  0.000000     24.000000
  0.354839  0.193548  0.000000     24.000000
  0.387097  0.193548  0.000000     24.000000
  0.419355  0.193548  0.000000     24.000000
  0.451613  0.193548  0.000000     24.000000
  0.483871  0.193548  0.000000     24.000000
 -0.483871  0.193548  0.000000     24.000000
 -0.451613  0.193548  0.000000     24.000000
 -0.419355  0.193548  0.000000     24.000000
 -0.387097  0.193548  0.000000     24.000000
 -0.354839  0.193548  0.000000     24.000000
 -0.322581  0.193548  0.000000     24.000000
 -0.290323  0.193548  0.000000     24.000000
 -0.258065  0.193548  0.000000     24.000000
 -0.225806  0.193548  0.000000     24.000000
 -0.193548  0.193548  0.000000     12.000000
  0.225806  0.225806  0.000000      6.000000
  0.258065  0.225806  0.000000     24.000000
  0.290323  0.225806  0.000000     24.000000
  0.322581  0.225806  0.000000     24.000000
  0.354839  0.225806  0.000000     24.000000
  0.387097  0.225806  0.000000     24.000000
  0.419355  0.225806  0.000000     24.000000
  0.451613  0.225806  0.000000     24.000000
  0.483871  0.225806  0.000000     24.000000
 -0.483871  0.225806  0.000000     24.000000
 -0.451613  0.225806  0.000000     24.000000
 -0.419355  0.225806  0.000000     24.000000
 -0.387097  0.225806  0.000000     24.000000
 -0.354839  0.225806  0.000000     24.000000
 -0.322581  0.225806  0.000000     24.000000
 -0.290323  0.225806  0.000000     24.000000
 -0.258065  0.225806  0.000000     24.000000
 -0.225806  0.225806  0.000000     12.000000
  0.258065  0.258065  0.000000      6.000000
  0.290323  0.258065  0.000000     24.000000
  0.322581  0.258065  0.000000     24.000000
  0.354839  0.258065  0.000000     24.000000
  0.387097  0.258065  0.000000     24.000000
  0.419355  0.258065  0.000000     24.000000
  0.451613  0.258065  0.000000     24.000000
  0.483871  0.258065  0.000000     24.000000
 -0.483871  0.258065  0.000000     24.000000
 -0.451613  0.258065  0.000000     24.000000
 -0.419355  0.258065  0.000000     24.000000
 -0.387097  0.258065  0.000000     24.000000
 -0.354839  0.258065  0.000000     24.000000
 -0.322581  0.258065  0.000000     24.000000
 -0.290323  0.258065  0.000000     24.000000
 -0.258065  0.258065  0.000000     12.000000
  0.290323  0.290323  0.000000      6.000000
  0.322581  0.290323  0.000000     24.000000
  0.354839  0.290323  0.000000     24.000000
  0.387097  0.290323  0.000000     24.000000
  0.419355  0.290323  0.000000     24.000000
  0.451613  0.290323  0.000000     24.000000
  0.483871  0.290323  0.000000     24.000000
 -0.483871  0.290323  0.000000     24.000000
 -0.451613  0.290323  0.000000     24.000000
 -0.419355  0.290323  0.000000     24.000000
 -0.387097  0.290323  0.000000     24.000000
 -0.354839  0.290323  0.000000     24.000000
 -0.322581  0.290323  0.000000     24.000000
 -0.290323  0.290323  0.000000     12.000000
  0.322581  0.322581  0.000000      6.000000
  0.354839  0.322581  0.000000     24.000000
  0.387097  0.322581  0.000000     24.000000
  0.419355  0.322581  0.000000     24.000000
  0.451613  0.322581  0.000000     24.000000
  0.483871  0.322581  0.000000     24.000000
 -0.483871  0.322581  0.000000     24.000000
 -0.451613  0.322581  0.000000     24.000000
 -0.419355  0.322581  0.000000     24.000000
 -0.387097  0.322581  0.000000     24.000000
 -0.354839  0.322581  0.000000     24.000000
 -0.322581  0.322581  0.000000     12.000000
  0.354839  0.354839  0.000000      6.000000
  0.387097  0.354839  0.000000     24.000000
  0.419355  0.354839  0.000000     24.000000
  0.451613  0.354839  0.000000     24.000000
  0.483871  0.354839  0.000000     24.000000
 -0.483871  0.354839  0.000000     24.000000
 -0.451613  0.354839  0.000000     24.000000
 -0.419355  0.354839  0.000000     24.000000
 -0.387097  0.354839  0.000000     24.000000
 -0.354839  0.354839  0.000000     12.000000
  0.387097  0.387097  0.000000      6.000000
  0.419355  0.387097  0.000000     24.000000
  0.451613  0.387097  0.000000     24.000000
  0.483871  0.387097  0.000000     24.000000
 -0.483871  0.387097  0.000000     24.000000
 -0.451613  0.387097  0.000000     24.000000
 -0.419355  0.387097  0.000000     24.000000
 -0.387097  0.387097  0.000000     12.000000
  0.419355  0.419355  0.000000      6.000000
  0.451613  0.419355  0.000000     24.000000
  0.483871  0.419355  0.000000     24.000000
 -0.483871  0.419355  0.000000     24.000000
 -0.451613  0.419355  0.000000     24.000000
 -0.419355  0.419355  0.000000     12.000000
  0.451613  0.451613  0.000000      6.000000
  0.483871  0.451613  0.000000     24.000000
 -0.483871  0.451613  0.000000     24.000000
 -0.451613  0.451613  0.000000     12.000000
  0.483871  0.483871  0.000000      6.000000
 -0.483871  0.483871  0.000000     12.000000
  0.096774  0.064516  0.032258     24.000000
  0.129032  0.064516  0.032258     48.000000
  0.161290  0.064516  0.032258     48.000000
  0.193548  0.064516  0.032258     48.000000
  0.225806  0.064516  0.032258     48.000000
  0.258065  0.064516  0.032258     48.000000
  0.290323  0.064516  0.032258     48.000000
  0.322581  0.064516  0.032258     48.000000
  0.354839  0.064516  0.032258     48.000000
  0.387097  0.064516  0.032258     48.000000
  0.419355  0.064516  0.032258     48.000000
  0.451613  0.064516  0.032258     48.000000
  0.483871  0.064516  0.032258     48.000000
 -0.483871  0.064516  0.032258     48.000000
  0.129032  0.096774  0.032258     24.000000
  0.161290  0.096774  0.032258     48.000000
  0.193548  0.096774  0.032258     48.000000
  0.225806  0.096774  0.032258     48.000000
  0.258065  0.096774  0.032258     48.000000
  0.290323  0.096774  0.032258     48.000000
  0.322581  0.096774  0.032258     48.000000
  0.354839  0.096774  0.032258     48.000000
  0.387097  0.096774  0.032258     48.000000
  0.419355  0.096774  0.032258     48.000000
  0.451613  0.096774  0.032258     48.000000
  0.483871  0.096774  0.032258     48.000000
 -0.483871  0.096774  0.032258     48.000000
 -0.451613  0.096774  0.032258     48.000000
 -0.419355  0.096774  0.032258     48.000000
 -0.387097  0.096774  0.032258     48.000000
 -0.354839  0.096774  0.032258     48.000000
 -0.322581  0.096774  0.032258     48.000000
 -0.290323  0.096774  0.032258     48.000000
 -0.258065  0.096774  0.032258     48.000000
 -0.225806  0.096774  0.032258     48.000000
 -0.193548  0.096774  0.032258     48.000000
 -0.161290  0.096774  0.032258     48.000000
 -0.129032  0.096774  0.032258     48.000000
 -0.096774  0.096774  0.032258     48.000000
 -0.064516  0.096774  0.032258     24.000000
  0.161290  0.129032  0.032258     24.000000
  0.193548  0.129032  0.032258     48.000000
  0.225806  0.129032  0.032258     48.000000
  0.258065  0.129032  0.032258     48.000000
  0.290323  0.129032  0.032258     48.000000
  0.322581  0.129032  0.032258     48.000000
  0.354839  0.129032  0.032258     48.000000
  0.387097  0.129032  0.032258     48.000000
  0.419355  0.129032  0.032258     48.000000
  0.451613  0.129032  0.032258     48.000000
  0.483871  0.129032  0.032258     48.000000
 -0.483871  0.129032  0.032258     48.000000
 -0.451613  0.129032  0.032258     48.000000
 -0.419355  0.129032  0.032258     48.000000
 -0.387097  0.129032  0.032258     48.000000
 -0.354839  0.129032  0.032258     48.000000
 -0.322581  0.129032  0.032258     48.000000
 -0.290323  0.129032  0.032258     48.000000
 -0.258065  0.129032  0.032258     48.000000
 -0.225806  0.129032  0.032258     48.000000
 -0.193548  0.129032  0.032258     48.000000
 -0.161290  0.129032  0.032258     48.000000
 -0.129032  0.129032  0.032258     48.000000
 -0.096774  0.129032  0.032258     24.000000
  0.193548  0.161290  0.032258     24.000000
  0.225806  0.161290  0.032258     48.000000
  0.258065  0.161290  0.032258     48.000000
  0.290323  0.161290  0.032258     48.000000
  0.322581  0.161290  0.032258     48.000000
  0.354839  0.161290  0.032258     48.000000
  0.387097  0.161290  0.032258     48.000000
  0.419355  0.161290  0.032258     48.000000
  0.451613  0.161290  0.032258     48.000000
  0.483871  0.161290  0.032258     48.000000
 -0.483871  0.161290  0.032258     48.000000
 -0.451613  0.161290  0.032258     48.000000
 -0.419355  0.161290  0.032258     48.000000
 -0.387097  0.161290  0.032258     48.000000
 -0.354839  0.161290  0.032258     48.000000
 -0.322581  0.161290  0.032258     48.000000
 -0.290323  0.161290  0.032258     48.000000
 -0.258065  0.161290  0.032258     48.000000
 -0.225806  0.161290  0.032258     48.000000
 -0.193548  0.161290  0.032258     48.000000
 -0.161290  0.161290  0.032258     48.000000
 -0.129032  0.161290  0.032258     24.000000
  0.225806  0.193548  0.032258     24.000000
  0.258065  0.193548  0.032258     48.000000
  0.290323  0.193548  0.032258     48.000000
  0.322581  0.193548  0.032258     48.000000
  0.354839  0.193548  0.032258     48.000000
  0.387097  0.193548  0.032258     48.000000
  0.419355  0.193548  0.032258     48.000000
  0.451613  0.193548  0.032258     48.000000
  0.483871  0.193548  0.032258     48.000000
 -0.483871  0.193548  0.032258     48.000000
 -0.451613  0.193548  0.032258     48.000000
 -0.419355  0.193548  0.032258     48.000000
 -0.387097  0.193548  0.032258     48.000000
 -0.354839  0.193548  0.032258     48.000000
 -0.322581  0.193548  0.032258     48.000000
 -0.290323  0.193548  0.032258     48.000000
 -0.258065  0.193548  0.032258     48.000000
 -0.225806  0.193548  0.032258     48.000000
 -0.193548  0.193548  0.032258     48.000000
 -0.161290  0.193548  0.032258     24.000000
  0.258065  0.225806  0.032258     24.000000
  0.290323  0.225806  0.032258     48.000000
  0.322581  0.225806  0.032258     48.000000
  0.354839  0.225806  0.032258     48.000000
  0.387097  0.225806  0.032258     48.000000
  0.419355  0.225806  0.032258     48.000000
  0.451613  0.225806  0.032258     48.000000
  0.483871  0.225806  0.032258     48.000000
 -0.483871  0.225806  0.032258     48.000000
 -0.451613  0.225806  0.032258     48.000000
 -0.419355  0.225806  0.032258     48.000000
 -0.387097  0.225806  0.032258     48.000000
 -0.354839  0.225806  0.032258     48.000000
 -0.322581  0.225806  0.032258     48.000000
 -0.290323  0.225806  0.032258     48.000000
 -0.258065  0.225806  0.032258     48.000000
 -0.225806  0.225806  0.032258     48.000000
 -0.193548  0.225806  0.032258     24.000000
  0.290323  0.258065  0.032258     24.000000
  0.322581  0.258065  0.032258     48.000000
  0.354839  0.258065  0.032258     48.000000
  0.387097  0.258065  0.032258     48.000000
  0.419355  0.258065  0.032258     48.000000
  0.451613  0.258065  0.032258     48.000000
  0.483871  0.258065  0.032258     48.000000
 -0.483871  0.258065  0.032258     48.000000
 -0.451613  0.258065  0.032258     48.000000
 -0.419355  0.258065  0.032258     48.000000
 -0.387097  0.258065  0.032258     48.000000
 -0.354839  0.258065  0.032258     48.000000
 -0.322581  0.258065  0.032258     48.000000
 -0.290323  0.258065  0.032258     48.000000
 -0.258065  0.258065  0.032258     48.000000
 -0.225806  0.258065  0.032258     24.000000
  0.322581  0.290323  0.032258     24.000000
  0.354839  0.290323  0.032258     48.000000
  0.387097  0.290323  0.032258     48.000000
  0.419355  0.290323  0.032258     48.000000
  0.451613  0.290323  0.032258     48.000000
  0.483871  0.290323  0.032258     48.000000
 -0.483871  0.290323  0.032258     48.000000
 -0.451613  0.290323  0.032258     48.000000
 -0.419355  0.290323  0.032258     48.000000
 -0.387097  0.290323  0.032258     48.000000
 -0.354839  0.290323  0.032258     48.000000
 -0.322581  0.290323  0.032258     48.000000
 -0.290323  0.290323  0.032258     48.000000
 -0.258065  0.290323  0.032258     24.000000
  0.354839  0.322581  0.032258     24.000000
  0.387097  0.322581  0.032258     48.000000
  0.419355  0.322581  0.032258     48.000000
  0.451613  0.322581  0.032258     48.000000
  0.483871  0.322581  0.032258     48.000000
 -0.483871  0.322581  0.032258     48.000000
 -0.451613  0.322581  0.032258     48.000000
 -0.419355  0.322581  0.032258     48.000000
 -0.387097  0.322581  0.032258     48.000000
 -0.354839  0.322581  0.032258     48.000000
 -0.322581  0.322581  0.032258     48.000000
 -0.290323  0.322581  0.032258     24.000000
  0.387097  0.354839  0.032258     24.000000
  0.419355  0.354839  0.032258     48.000000
  0.451613  0.354839  0.032258     48.000000
  0.483871  0.354839  0.032258     48.000000
 -0.483871  0.354839  0.032258     48.000000
 -0.451613  0.354839  0.032258     48.000000
 -0.419355  0.354839  0.032258     48.000000
 -0.387097  0.354839  0.032258     48.000000
 -0.354839  0.354839  0.032258     48.000000
 -0.322581  0.354839  0.032258     24.000000
  0.419355  0.387097  0.032258     24.000000
  0.451613  0.387097  0.032258     48.000000
  0.483871  0.387097  0.032258     48.000000
 -0.483871  0.387097  0.032258     48.000000
 -0.451613  0.387097  0.032258     48.000000
 -0.419355  0.387097  0.032258     48.000000
 -0.387097  0.387097  0.032258     48.000000
 -0.354839  0.387097  0.032258     24.000000
  0.451613  0.419355  0.032258     24.000000
  0.483871  0.419355  0.032258     48.000000
 -0.483871  0.419355  0.032258     48.000000
 -0.451613  0.419355  0.032258     48.000000
 -0.419355  0.419355  0.032258     48.000000
 -0.387097  0.419355  0.032258     24.000000
  0.483871  0.451613  0.032258     24.000000
 -0.483871  0.451613  0.032258     48.000000
 -0.451613  0.451613  0.032258     48.000000
 -0.419355  0.451613  0.032258     24.000000
 -0.483871  0.483871  0.032258     24.000000
 -0.451613  0.483871  0.032258     24.000000
  0.193548  0.129032  0.064516     24.000000
  0.225806  0.129032  0.064516     48.000000
  0.258065  0.129032  0.064516     48.000000
  0.290323  0.129032  0.064516     48.000000
  0.322581  0.129032  0.064516     48.000000
  0.354839  0.129032  0.064516     48.000000
  0.387097  0.129032  0.064516     48.000000
  0.419355  0.129032  0.064516     48.000000
  0.451613  0.129032  0.064516     48.000000
  0.483871  0.129032  0.064516     48.000000
 -0.483871  0.129032  0.064516     48.000000
 -0.451613  0.129032  0.064516     48.000000
  0.225806  0.161290  0.064516     24.000000
  0.258065  0.161290  0.064516     48.000000
  0.290323  0.161290  0.064516     48.000000
  0.322581  0.161290  0.064516     48.000000
  0.354839  0.161290  0.064516     48.000000
  0.387097  0.161290  0.064516     48.000000
  0.419355  0.161290  0.064516     48.000000
  0.451613  0.161290  0.064516     48.000000
  0.483871  0.161290  0.064516     48.000000
 -0.483871  0.161290  0.064516     48.000000
 -0.451613  0.161290  0.064516     48.000000
 -0.419355  0.161290  0.064516     48.000000
 -0.387097  0.161290  0.064516     48.000000
 -0.354839  0.161290  0.064516     48.000000
 -0.322581  0.161290  0.064516     48.000000
 -0.290323  0.161290  0.064516     48.000000
 -0.258065  0.161290  0.064516     48.000000
 -0.225806  0.161290  0.064516     48.000000
 -0.193548  0.161290  0.064516     48.000000
 -0.161290  0.161290  0.064516     48.000000
 -0.129032  0.161290  0.064516     48.000000
 -0.096774  0.161290  0.064516     24.000000
  0.258065  0.193548  0.064516     24.000000
  0.290323  0.193548  0.064516     48.000000
  0.322581  0.193548  0.064516     48.000000
  0.354839  0.193548  0.064516     48.000000
  0.387097  0.193548  0.064516     48.000000
  0.419355  0.193548  0.064516     48.000000
  0.451613  0.193548  0.064516     48.000000
  0.483871  0.193548  0.064516     48.000000
 -0.483871  0.193548  0.064516     48.000000
 -0.451613  0.193548  0.064516     48.000000
 -0.419355  0.193548  0.064516     48.000000
 -0.387097  0.193548  0.064516     48.000000
 -0.354839  0.193548  0.064516     48.000000
 -0.322581  0.193548  0.064516     48.000000
 -0.290323  0.193548  0.064516     48.000000
 -0.258065  0.193548  0.064516     48.000000
 -0.225806  0.193548  0.064516     48.000000
 -0.193548  0.193548  0.064516     48.000000
 -0.161290  0.193548  0.064516     48.000000
 -0.129032  0.193548  0.064516     24.000000
  0.290323  0.225806  0.064516     24.000000
  0.322581  0.225806  0.064516     48.000000
  0.354839  0.225806  0.064516     48.000000
  0.387097  0.225806  0.064516     48.000000
  0.419355  0.225806  0.064516     48.000000
  0.451613  0.225806  0.064516     48.000000
  0.483871  0.225806  0.064516     48.000000
 -0.483871  0.225806  0.064516     48.000000
 -0.451613  0.225806  0.064516     48.000000
 -0.419355  0.225806  0.064516     48.000000
 -0.387097  0.225806  0.064516     48.000000
 -0.354839  0.225806  0.064516     48.000000
 -0.322581  0.225806  0.064516     48.000000
 -0.290323  0.225806  0.064516     48.000000
 -0.258065  0.225806  0.064516     48.000000
 -0.225806  0.225806  0.064516     48.000000
 -0.193548  0.225806  0.064516     48.000000
 -0.161290  0.225806  0.064516     24.000000
  0.322581  0.258065  0.064516     24.000000
  0.354839  0.258065  0.064516     48.000000
  0.387097  0.258065  0.064516     48.000000
  0.419355  0.258065  0.064516     48.000000
  0.451613  0.258065  0.064516     48.000000
  0.483871  0.258065  0.064516     48.000000
 -0.483871  0.258065  0.064516     48.000000
 -0.451613  0.258065  0.064516     48.000000
 -0.419355  0.258065  0.064516     48.000000
 -0.387097  0.258065  0.064516     48.000000
 -0.354839  0.258065  0.064516     48.000000
 -0.322581  0.258065  0.064516     48.000000
 -0.290323  0.258065  0.064516     48.000000
 -0.258065  0.258065  0.064516     48.000000
 -0.225806  0.258065  0.064516     48.000000
 -0.193548  0.258065  0.064516     24.000000
  0.354839  0.290323  0.064516     24.000000
  0.387097  0.290323  0.064516     48.000000
  0.419355  0.290323  0.064516     48.000000
  0.451613  0.290323  0.064516     48.000000
  0.483871  0.290323  0.064516     48.000000
 -0.483871  0.290323  0.064516     48.000000
 -0.451613  0.290323  0.064516     48.000000
 -0.419355  0.290323  0.064516     48.000000
 -0.387097  0.290323  0.064516     48.000000
 -0.354839  0.290323  0.064516     48.000000
 -0.322581  0.290323  0.064516     48.000000
 -0.290323  0.290323  0.064516     48.000000
 -0.258065  0.290323  0.064516     48.000000
 -0.225806  0.290323  0.064516     24.000000
  0.387097  0.322581  0.064516     24.000000
  0.419355  0.322581  0.064516     48.000000
  0.451613  0.322581  0.064516     48.000000
  0.483871  0.322581  0.064516     48.000000
 -0.483871  0.322581  0.064516     48.000000
 -0.451613  0.322581  0.064516     48.000000
 -0.419355  0.322581  0.064516     48.000000
 -0.387097  0.322581  0.064516     48.000000
 -0.354839  0.322581  0.064516     48.000000
 -0.322581  0.322581  0.064516     48.000000
 -0.290323  0.322581  0.064516     48.000000
 -0.258065  0.322581  0.064516     24.000000
  0.419355  0.354839  0.064516     24.000000
  0.451613  0.354839  0.064516     48.000000
  0.483871  0.354839  0.064516     48.000000
 -0.483871  0.354839  0.064516     48.000000
 -0.451613  0.354839  0.064516     48.000000
 -0.419355  0.354839  0.064516     48.000000
 -0.387097  0.354839  0.064516     48.000000
 -0.354839  0.354839  0.064516     48.000000
 -0.322581  0.354839  0.064516     48.000000
 -0.290323  0.354839  0.064516     24.000000
  0.451613  0.387097  0.064516     24.000000
  0.483871  0.387097  0.064516     48.000000
 -0.483871  0.387097  0.064516     48.000000
 -0.451613  0.387097  0.064516     48.000000
 -0.419355  0.387097  0.064516     48.000000
 -0.387097  0.387097  0.064516     48.000000
 -0.354839  0.387097  0.064516     48.000000
 -0.322581  0.387097  0.064516     24.000000
  0.483871  0.419355  0.064516     24.000000
 -0.483871  0.419355  0.064516     48.000000
 -0.451613  0.419355  0.064516     48.000000
 -0.419355  0.419355  0.064516     48.000000
 -0.387097  0.419355  0.064516     48.000000
 -0.354839  0.419355  0.064516     24.000000
 -0.483871  0.451613  0.064516     24.000000
 -0.451613  0.451613  0.064516     48.000000
 -0.419355  0.451613  0.064516     48.000000
 -0.387097  0.451613  0.064516     24.000000
 -0.451613  0.483871  0.064516     24.000000
 -0.419355  0.483871  0.064516     24.000000
  0.290323  0.193548  0.096774     24.000000
  0.322581  0.193548  0.096774     48.000000
  0.354839  0.193548  0.096774     48.000000
  0.387097  0.193548  0.096774     48.000000
  0.419355  0.193548  0.096774     48.000000
  0.451613  0.193548  0.096774     48.000000
  0.483871  0.193548  0.096774     48.000000
 -0.483871  0.193548  0.096774     48.000000
 -0.451613  0.193548  0.096774     48.000000
 -0.419355  0.193548  0.096774     48.000000
  0.322581  0.225806  0.096774     24.000000
  0.354839  0.225806  0.096774     48.000000
  0.387097  0.225806  0.096774     48.000000
  0.419355  0.225806  0.096774     48.000000
  0.451613  0.225806  0.096774     48.000000
  0.483871  0.225806  0.096774     48.000000
 -0.483871  0.225806  0.096774     48.000000
 -0.451613  0.225806  0.096774     48.000000
 -0.419355  0.225806  0.096774     48.000000
 -0.387097  0.225806  0.096774     48.000000
 -0.354839  0.225806  0.096774     48.000000
 -0.322581  0.225806  0.096774     48.000000
 -0.290323  0.225806  0.096774     48.000000
 -0.258065  0.225806  0.096774     48.000000
 -0.225806  0.225806  0.096774     48.000000
 -0.193548  0.225806  0.096774     48.000000
 -0.161290  0.225806  0.096774     48.000000
 -0.129032  0.225806  0.096774     24.000000
  0.354839  0.258065  0.096774     24.000000
  0.387097  0.258065  0.096774     48.000000
  0.419355  0.258065  0.096774     48.000000
  0.451613  0.258065  0.096774     48.000000
  0.483871  0.258065  0.096774     48.000000
 -0.483871  0.258065  0.096774     48.000000
 -0.451613  0.258065  0.096774     48.000000
 -0.419355  0.258065  0.096774     48.000000
 -0.387097  0.258065  0.096774     48.000000
 -0.354839  0.258065  0.096774     48.000000
 -0.322581  0.258065  0.096774     48.000000
 -0.290323  0.258065  0.096774     48.000000
 -0.258065  0.258065  0.096774     48.000000
 -0.225806  0.258065  0.096774     48.000000
 -0.193548  0.258065  0.096774     48.000000
 -0.161290  0.258065  0.096774     24.000000
  0.387097  0.290323  0.096774     24.000000
  0.419355  0.290323  0.096774     48.000000
  0.451613  0.290323  0.096774     48.000000
  0.483871  0.290323  0.096774     48.000000
 -0.483871  0.290323  0.096774     48.000000
 -0.451613  0.290323  0.096774     48.000000
 -0.419355  0.290323  0.096774     48.000000
 -0.387097  0.290323  0.096774     48.000000
 -0.354839  0.290323  0.096774     48.000000
 -0.322581  0.290323  0.096774     48.000000
 -0.290323  0.290323  0.096774     48.000000
 -0.258065  0.290323  0.096774     48.000000
 -0.225806  0.290323  0.096774     48.000000
 -0.193548  0.290323  0.096774     24.000000
  0.419355  0.322581  0.096774     24.000000
  0.451613  0.322581  0.096774     48.000000
  0.483871  0.322581  0.096774     48.000000
 -0.483871  0.322581  0.096774     48.000000
 -0.451613  0.322581  0.096774     48.000000
 -0.419355  0.322581  0.096774     48.000000
 -0.387097  0.322581  0.096774     48.000000
 -0.354839  0.322581  0.096774     48.000000
 -0.322581  0.322581  0.096774     48.000000
 -0.290323  0.322581  0.096774     48.000000
 -0.258065  0.322581  0.096774     48.000000
 -0.225806  0.322581  0.096774     24.000000
  0.451613  0.354839  0.096774     24.000000
  0.483871  0.354839  0.096774     48.000000
 -0.483871  0.354839  0.096774     48.000000
 -0.451613  0.354839  0.096774     48.000000
 -0.419355  0.354839  0.096774     48.000000
 -0.387097  0.354839  0.096774     48.000000
 -0.354839  0.354839  0.096774     48.000000
 -0.322581  0.354839  0.096774     48.000000
 -0.290323  0.354839  0.096774     48.000000
 -0.258065  0.354839  0.096774     24.000000
  0.483871  0.387097  0.096774     24.000000
 -0.483871  0.387097  0.096774     48.000000
 -0.451613  0.387097  0.096774     48.000000
 -0.419355  0.387097  0.096774     48.000000
 -0.387097  0.387097  0.096774     48.000000
 -0.354839  0.387097  0.096774     48.000000
 -0.322581  0.387097  0.096774     48.000000
 -0.290323  0.387097  0.096774     24.000000
 -0.483871  0.419355  0.096774     24.000000
 -0.451613  0.419355  0.096774     48.000000
 -0.419355  0.419355  0.096774     48.000000
 -0.387097  0.419355  0.096774     48.000000
 -0.354839  0.419355  0.096774     48.000000
 -0.322581  0.419355  0.096774     24.000000
 -0.451613  0.451613  0.096774     24.000000
 -0.419355  0.451613  0.096774     48.000000
 -0.387097  0.451613  0.096774     48.000000
 -0.354839  0.451613  0.096774     24.000000
 -0.419355  0.483871  0.096774     24.000000
 -0.387097  0.483871  0.096774     24.000000
  0.387097  0.258065  0.129032     24.000000
  0.419355  0.258065  0.129032     48.000000
  0.451613  0.258065  0.129032     48.000000
  0.483871  0.258065  0.129032     48.000000
 -0.483871  0.258065  0.129032     48.000000
 -0.451613  0.258065  0.129032     48.000000
 -0.419355  0.258065  0.129032     48.000000
 -0.387097  0.258065  0.129032     48.000000
  0.419355  0.290323  0.129032     24.000000
  0.451613  0.290323  0.129032     48.000000
  0.483871  0.290323  0.129032     48.000000
 -0.483871  0.290323  0.129032     48.000000
 -0.451613  0.290323  0.129032     48.000000
 -0.419355  0.290323  0.129032     48.000000
 -0.387097  0.290323  0.129032     48.000000
 -0.354839  0.290323  0.129032     48.000000
 -0.322581  0.290323  0.129032     48.000000
 -0.290323  0.290323  0.129032     48.000000
 -0.258065  0.290323  0.129032     48.000000
 -0.225806  0.290323  0.129032     48.000000
 -0.193548  0.290323  0.129032     48.000000
 -0.161290  0.290323  0.129032     24.000000
  0.451613  0.322581  0.129032     24.000000
  0.483871  0.322581  0.129032     48.000000
 -0.483871  0.322581  0.129032     48.000000
 -0.451613  0.322581  0.129032     48.000000
 -0.419355  0.322581  0.129032     48.000000
 -0.387097  0.322581  0.129032     48.000000
 -0.354839  0.322581  0.129032     48.000000
 -0.322581  0.322581  0.129032     48.000000
 -0.290323  0.322581  0.129032     48.000000
 -0.258065  0.322581  0.129032     48.000000
 -0.225806  0.322581  0.129032     48.000000
 -0.193548  0.322581  0.129032     24.000000
  0.483871  0.354839  0.129032     24.000000
 -0.483871  0.354839  0.129032     48.000000
 -0.451613  0.354839  0.129032     48.000000
 -0.419355  0.354839  0.129032     48.000000
 -0.387097  0.354839  0.129032     48.000000
 -0.354839  0.354839  0.129032     48.000000
 -0.322581  0.354839  0.129032     48.000000
 -0.290323  0.354839  0.129032     48.000000
 -0.258065  0.354839  0.129032     48.000000
 -0.225806  0.354839  0.129032     24.000000
 -0.483871  0.387097  0.129032     24.000000
 -0.451613  0.387097  0.129032     48.000000
 -0.419355  0.387097  0.129032     48.000000
 -0.387097  0.387097  0.129032     48.000000
 -0.354839  0.387097  0.129032     48.000000
 -0.322581  0.387097  0.129032     48.000000
 -0.290323  0.387097  0.129032     48.000000
 -0.258065  0.387097  0.129032     24.000000
 -0.451613  0.419355  0.129032     24.000000
 -0.419355  0.419355  0.129032     48.000000
 -0.387097  0.419355  0.129032     48.000000
 -0.354839  0.419355  0.129032     48.000000
 -0.322581  0.419355  0.129032     48.000000
 -0.290323  0.419355  0.129032     24.000000
 -0.419355  0.451613  0.129032     24.000000
 -0.387097  0.451613  0.129032     48.000000
 -0.354839  0.451613  0.129032     48.000000
 -0.322581  0.451613  0.129032     24.000000
 -0.387097  0.483871  0.129032     24.000000
 -0.354839  0.483871  0.129032     24.000000
  0.483871  0.322581  0.161290     24.000000
 -0.483871  0.322581  0.161290     48.000000
 -0.451613  0.322581  0.161290     48.000000
 -0.419355  0.322581  0.161290     48.000000
 -0.387097  0.322581  0.161290     48.000000
 -0.354839  0.322581  0.161290     48.000000
 -0.483871  0.354839  0.161290     24.000000
 -0.451613  0.354839  0.161290     48.000000
 -0.419355  0.354839  0.161290     48.000000
 -0.387097  0.354839  0.161290     48.000000
 -0.354839  0.354839  0.161290     48.000000
 -0.322581  0.354839  0.161290     48.000000
 -0.290323  0.354839  0.161290     48.000000
 -0.258065  0.354839  0.161290     48.000000
 -0.225806  0.354839  0.161290     48.000000
 -0.193548  0.354839  0.161290     24.000000
 -0.451613  0.387097  0.161290     24.000000
 -0.419355  0.387097  0.161290     48.000000
 -0.387097  0.387097  0.161290     48.000000
 -0.354839  0.387097  0.161290     48.000000
 -0.322581  0.387097  0.161290     48.000000
 -0.290323  0.387097  0.161290     48.000000
 -0.258065  0.387097  0.161290     48.000000
 -0.225806  0.387097  0.161290     24.000000
 -0.419355  0.419355  0.161290     24.000000
 -0.387097  0.419355  0.161290     48.000000
 -0.354839  0.419355  0.161290     48.000000
 -0.322581  0.419355  0.161290     48.000000
 -0.290323  0.419355  0.161290     48.000000
 -0.258065  0.419355  0.161290     24.000000
 -0.387097  0.451613  0.161290     24.000000
 -0.354839  0.451613  0.161290     48.000000
 -0.322581  0.451613  0.161290     48.000000
 -0.290323  0.451613  0.161290     24.000000
 -0.354839  0.483871  0.161290     24.000000
 -0.322581  0.483871  0.161290     24.000000
 -0.419355  0.387097  0.193548     24.000000
 -0.387097  0.387097  0.193548     48.000000
 -0.354839  0.387097  0.193548     48.000000
 -0.322581  0.387097  0.193548     48.000000
 -0.387097  0.419355  0.193548     24.000000
 -0.354839  0.419355  0.193548     48.000000
 -0.322581  0.419355  0.193548     48.000000
 -0.290323  0.419355  0.193548     48.000000
 -0.258065  0.419355  0.193548     48.000000
 -0.225806  0.419355  0.193548     24.000000
 -0.354839  0.451613  0.193548     24.000000
 -0.322581  0.451613  0.193548     48.000000
 -0.290323  0.451613  0.193548     48.000000
 -0.258065  0.451613  0.193548     24.000000
 -0.322581  0.483871  0.193548     24.000000
 -0.290323  0.483871  0.193548     24.000000
 -0.322581  0.451613  0.225806     24.000000
 -0.290323  0.451613  0.225806     48.000000
 -0.290323  0.483871  0.225806     24.000000
 -0.258065  0.483871  0.225806     24.000000
 
 Following cartesian coordinates:
            Coordinates               Weight
  0.000000  0.000000  0.000000      1.000000
  0.009633 -0.003406  0.000000      8.000000
  0.019266 -0.006812  0.000000      8.000000
  0.028899 -0.010217  0.000000      8.000000
  0.038532 -0.013623  0.000000      8.000000
  0.048165 -0.017029  0.000000      8.000000
  0.057798 -0.020435  0.000000      8.000000
  0.067431 -0.023840  0.000000      8.000000
  0.077064 -0.027246  0.000000      8.000000
  0.086696 -0.030652  0.000000      8.000000
  0.096329 -0.034058  0.000000      8.000000
  0.105962 -0.037463  0.000000      8.000000
  0.115595 -0.040869  0.000000      8.000000
  0.125228 -0.044275  0.000000      8.000000
  0.134861 -0.047681  0.000000      8.000000
  0.144494 -0.051086  0.000000      8.000000
  0.009633  0.006812  0.000000      6.000000
  0.019266  0.003406  0.000000     24.000000
  0.028899 -0.000000  0.000000     24.000000
  0.038532 -0.003406  0.000000     24.000000
  0.048165 -0.006812  0.000000     24.000000
  0.057798 -0.010217  0.000000     24.000000
  0.067431 -0.013623  0.000000     24.000000
  0.077064 -0.017029  0.000000     24.000000
  0.086696 -0.020435  0.000000     24.000000
  0.096329 -0.023840  0.000000     24.000000
  0.105962 -0.027246  0.000000     24.000000
  0.115595 -0.030652  0.000000     24.000000
  0.125228 -0.034058  0.000000     24.000000
  0.134861 -0.037463  0.000000     24.000000
  0.144494 -0.040869  0.000000     24.000000
 -0.144494  0.061304  0.000000     24.000000
 -0.134861  0.057898  0.000000     24.000000
 -0.125228  0.054492  0.000000     24.000000
 -0.115595  0.051086  0.000000     24.000000
 -0.105962  0.047681  0.000000     24.000000
 -0.096329  0.044275  0.000000     24.000000
 -0.086696  0.040869  0.000000     24.000000
 -0.077064  0.037463  0.000000     24.000000
 -0.067431  0.034058  0.000000     24.000000
 -0.057798  0.030652  0.000000     24.000000
 -0.048165  0.027246  0.000000     24.000000
 -0.038532  0.023840  0.000000     24.000000
 -0.028899  0.020435  0.000000     24.000000
 -0.019266  0.017029  0.000000     24.000000
 -0.009633  0.013623  0.000000     12.000000
  0.019266  0.013623  0.000000      6.000000
  0.028899  0.010217  0.000000     24.000000
  0.038532  0.006812  0.000000     24.000000
  0.048165  0.003406  0.000000     24.000000
  0.057798 -0.000000  0.000000     24.000000
  0.067431 -0.003406  0.000000     24.000000
  0.077064 -0.006812  0.000000     24.000000
  0.086696 -0.010217  0.000000     24.000000
  0.096329 -0.013623  0.000000     24.000000
  0.105962 -0.017029  0.000000     24.000000
  0.115595 -0.020435  0.000000     24.000000
  0.125228 -0.023840  0.000000     24.000000
  0.134861 -0.027246  0.000000     24.000000
  0.144494 -0.030652  0.000000     24.000000
 -0.144494  0.071521  0.000000     24.000000
 -0.134861  0.068115  0.000000     24.000000
 -0.125228  0.064709  0.000000     24.000000
 -0.115595  0.061304  0.000000     24.000000
 -0.105962  0.057898  0.000000     24.000000
 -0.096329  0.054492  0.000000     24.000000
 -0.086696  0.051086  0.000000     24.000000
 -0.077064  0.047681  0.000000     24.000000
 -0.067431  0.044275  0.000000     24.000000
 -0.057798  0.040869  0.000000     24.000000
 -0.048165  0.037463  0.000000     24.000000
 -0.038532  0.034058  0.000000     24.000000
 -0.028899  0.030652  0.000000     24.000000
 -0.019266  0.027246  0.000000     12.000000
  0.028899  0.020435  0.000000      6.000000
  0.038532  0.017029  0.000000     24.000000
  0.048165  0.013623  0.000000     24.000000
  0.057798  0.010217  0.000000     24.000000
  0.067431  0.006812  0.000000     24.000000
  0.077064  0.003406  0.000000     24.000000
  0.086696 -0.000000  0.000000     24.000000
  0.096329 -0.003406  0.000000     24.000000
  0.105962 -0.006812  0.000000     24.000000
  0.115595 -0.010217  0.000000     24.000000
  0.125228 -0.013623  0.000000     24.000000
  0.134861 -0.017029  0.000000     24.000000
  0.144494 -0.020435  0.000000     24.000000
 -0.144494  0.081738  0.000000     24.000000
 -0.134861  0.078332  0.000000     24.000000
 -0.125228  0.074927  0.000000     24.000000
 -0.115595  0.071521  0.000000     24.000000
 -0.105962  0.068115  0.000000     24.000000
 -0.096329  0.064709  0.000000     24.000000
 -0.086696  0.061304  0.000000     24.000000
 -0.077064  0.057898  0.000000     24.000000
 -0.067431  0.054492  0.000000     24.000000
 -0.057798  0.051086  0.000000     24.000000
 -0.048165  0.047681  0.000000     24.000000
 -0.038532  0.044275  0.000000     24.000000
 -0.028899  0.040869  0.000000     12.000000
  0.038532  0.027246  0.000000      6.000000
  0.048165  0.023840  0.000000     24.000000
  0.057798  0.020435  0.000000     24.000000
  0.067431  0.017029  0.000000     24.000000
  0.077064  0.013623  0.000000     24.000000
  0.086696  0.010217  0.000000     24.000000
  0.096329  0.006812  0.000000     24.000000
  0.105962  0.003406  0.000000     24.000000
  0.115595  0.000000  0.000000     24.000000
  0.125228 -0.003406  0.000000     24.000000
  0.134861 -0.006812  0.000000     24.000000
  0.144494 -0.010217  0.000000     24.000000
 -0.144494  0.091955  0.000000     24.000000
 -0.134861  0.088550  0.000000     24.000000
 -0.125228  0.085144  0.000000     24.000000
 -0.115595  0.081738  0.000000     24.000000
 -0.105962  0.078332  0.000000     24.000000
 -0.096329  0.074927  0.000000     24.000000
 -0.086696  0.071521  0.000000     24.000000
 -0.077064  0.068115  0.000000     24.000000
 -0.067431  0.064709  0.000000     24.000000
 -0.057798  0.061304  0.000000     24.000000
 -0.048165  0.057898  0.000000     24.000000
 -0.038532  0.054492  0.000000     12.000000
  0.048165  0.034058  0.000000      6.000000
  0.057798  0.030652  0.000000     24.000000
  0.067431  0.027246  0.000000     24.000000
  0.077064  0.023840  0.000000     24.000000
  0.086696  0.020435  0.000000     24.000000
  0.096329  0.017029  0.000000     24.000000
  0.105962  0.013623  0.000000     24.000000
  0.115595  0.010217  0.000000     24.000000
  0.125228  0.006812  0.000000     24.000000
  0.134861  0.003406  0.000000     24.000000
  0.144494  0.000000  0.000000     24.000000
 -0.144494  0.102173  0.000000     24.000000
 -0.134861  0.098767  0.000000     24.000000
 -0.125228  0.095361  0.000000     24.000000
 -0.115595  0.091955  0.000000     24.000000
 -0.105962  0.088550  0.000000     24.000000
 -0.096329  0.085144  0.000000     24.000000
 -0.086696  0.081738  0.000000     24.000000
 -0.077064  0.078332  0.000000     24.000000
 -0.067431  0.074927  0.000000     24.000000
 -0.057798  0.071521  0.000000     24.000000
 -0.048165  0.068115  0.000000     12.000000
  0.057798  0.040869  0.000000      6.000000
  0.067431  0.037463  0.000000     24.000000
  0.077064  0.034058  0.000000     24.000000
  0.086696  0.030652  0.000000     24.000000
  0.096329  0.027246  0.000000     24.000000
  0.105962  0.023840  0.000000     24.000000
  0.115595  0.020435  0.000000     24.000000
  0.125228  0.017029  0.000000     24.000000
  0.134861  0.013623  0.000000     24.000000
  0.144494  0.010217  0.000000     24.000000
 -0.144494  0.112390  0.000000     24.000000
 -0.134861  0.108984  0.000000     24.000000
 -0.125228  0.105579  0.000000     24.000000
 -0.115595  0.102173  0.000000     24.000000
 -0.105962  0.098767  0.000000     24.000000
 -0.096329  0.095361  0.000000     24.000000
 -0.086696  0.091955  0.000000     24.000000
 -0.077064  0.088550  0.000000     24.000000
 -0.067431  0.085144  0.000000     24.000000
 -0.057798  0.081738  0.000000     12.000000
  0.067431  0.047681  0.000000      6.000000
  0.077064  0.044275  0.000000     24.000000
  0.086696  0.040869  0.000000     24.000000
  0.096329  0.037463  0.000000     24.000000
  0.105962  0.034058  0.000000     24.000000
  0.115595  0.030652  0.000000     24.000000
  0.125228  0.027246  0.000000     24.000000
  0.134861  0.023840  0.000000     24.000000
  0.144494  0.020435  0.000000     24.000000
 -0.144494  0.122607  0.000000     24.000000
 -0.134861  0.119202  0.000000     24.000000
 -0.125228  0.115796  0.000000     24.000000
 -0.115595  0.112390  0.000000     24.000000
 -0.105962  0.108984  0.000000     24.000000
 -0.096329  0.105579  0.000000     24.000000
 -0.086696  0.102173  0.000000     24.000000
 -0.077064  0.098767  0.000000     24.000000
 -0.067431  0.095361  0.000000     12.000000
  0.077064  0.054492  0.000000      6.000000
  0.086696  0.051086  0.000000     24.000000
  0.096329  0.047681  0.000000     24.000000
  0.105962  0.044275  0.000000     24.000000
  0.115595  0.040869  0.000000     24.000000
  0.125228  0.037463  0.000000     24.000000
  0.134861  0.034058  0.000000     24.000000
  0.144494  0.030652  0.000000     24.000000
 -0.144494  0.132825  0.000000     24.000000
 -0.134861  0.129419  0.000000     24.000000
 -0.125228  0.126013  0.000000     24.000000
 -0.115595  0.122607  0.000000     24.000000
 -0.105962  0.119202  0.000000     24.000000
 -0.096329  0.115796  0.000000     24.000000
 -0.086696  0.112390  0.000000     24.000000
 -0.077064  0.108984  0.000000     12.000000
  0.086696  0.061304  0.000000      6.000000
  0.096329  0.057898  0.000000     24.000000
  0.105962  0.054492  0.000000     24.000000
  0.115595  0.051086  0.000000     24.000000
  0.125228  0.047681  0.000000     24.000000
  0.134861  0.044275  0.000000     24.000000
  0.144494  0.040869  0.000000     24.000000
 -0.144494  0.143042  0.000000     24.000000
 -0.134861  0.139636  0.000000     24.000000
 -0.125228  0.136230  0.000000     24.000000
 -0.115595  0.132825  0.000000     24.000000
 -0.105962  0.129419  0.000000     24.000000
 -0.096329  0.126013  0.000000     24.000000
 -0.086696  0.122607  0.000000     12.000000
  0.096329  0.068115  0.000000      6.000000
  0.105962  0.064709  0.000000     24.000000
  0.115595  0.061304  0.000000     24.000000
  0.125228  0.057898  0.000000     24.000000
  0.134861  0.054492  0.000000     24.000000
  0.144494  0.051086  0.000000     24.000000
 -0.144494  0.153259  0.000000     24.000000
 -0.134861  0.149853  0.000000     24.000000
 -0.125228  0.146448  0.000000     24.000000
 -0.115595  0.143042  0.000000     24.000000
 -0.105962  0.139636  0.000000     24.000000
 -0.096329  0.136230  0.000000     12.000000
  0.105962  0.074927  0.000000      6.000000
  0.115595  0.071521  0.000000     24.000000
  0.125228  0.068115  0.000000     24.000000
  0.134861  0.064709  0.000000     24.000000
  0.144494  0.061304  0.000000     24.000000
 -0.144494  0.163476  0.000000     24.000000
 -0.134861  0.160071  0.000000     24.000000
 -0.125228  0.156665  0.000000     24.000000
 -0.115595  0.153259  0.000000     24.000000
 -0.105962  0.149853  0.000000     12.000000
  0.115595  0.081738  0.000000      6.000000
  0.125228  0.078332  0.000000     24.000000
  0.134861  0.074927  0.000000     24.000000
  0.144494  0.071521  0.000000     24.000000
 -0.144494  0.173694  0.000000     24.000000
 -0.134861  0.170288  0.000000     24.000000
 -0.125228  0.166882  0.000000     24.000000
 -0.115595  0.163476  0.000000     12.000000
  0.125228  0.088550  0.000000      6.000000
  0.134861  0.085144  0.000000     24.000000
  0.144494  0.081738  0.000000     24.000000
 -0.144494  0.183911  0.000000     24.000000
 -0.134861  0.180505  0.000000     24.000000
 -0.125228  0.177099  0.000000     12.000000
  0.134861  0.095361  0.000000      6.000000
  0.144494  0.091955  0.000000     24.000000
 -0.144494  0.194128  0.000000     24.000000
 -0.134861  0.190722  0.000000     12.000000
  0.144494  0.102173  0.000000      6.000000
 -0.144494  0.204346  0.000000     12.000000
  0.024082  0.006812  0.008342     24.000000
  0.033715  0.003406  0.008342     48.000000
  0.043348 -0.000000  0.008342     48.000000
  0.052981 -0.003406  0.008342     48.000000
  0.062614 -0.006812  0.008342     48.000000
  0.072247 -0.010217  0.008342     48.000000
  0.081880 -0.013623  0.008342     48.000000
  0.091513 -0.017029  0.008342     48.000000
  0.101146 -0.020435  0.008342     48.000000
  0.110779 -0.023840  0.008342     48.000000
  0.120412 -0.027246  0.008342     48.000000
  0.130045 -0.030652  0.008342     48.000000
  0.139678 -0.034058  0.008342     48.000000
 -0.149311  0.068115  0.008342     48.000000
  0.033715  0.013623  0.008342     24.000000
  0.043348  0.010217  0.008342     48.000000
  0.052981  0.006812  0.008342     48.000000
  0.062614  0.003406  0.008342     48.000000
  0.072247 -0.000000  0.008342     48.000000
  0.081880 -0.003406  0.008342     48.000000
  0.091513 -0.006812  0.008342     48.000000
  0.101146 -0.010217  0.008342     48.000000
  0.110779 -0.013623  0.008342     48.000000
  0.120412 -0.017029  0.008342     48.000000
  0.130045 -0.020435  0.008342     48.000000
  0.139678 -0.023840  0.008342     48.000000
 -0.149311  0.078332  0.008342     48.000000
 -0.139678  0.074927  0.008342     48.000000
 -0.130045  0.071521  0.008342     48.000000
 -0.120412  0.068115  0.008342     48.000000
 -0.110779  0.064709  0.008342     48.000000
 -0.101146  0.061304  0.008342     48.000000
 -0.091513  0.057898  0.008342     48.000000
 -0.081880  0.054492  0.008342     48.000000
 -0.072247  0.051086  0.008342     48.000000
 -0.062614  0.047681  0.008342     48.000000
 -0.052981  0.044275  0.008342     48.000000
 -0.043348  0.040869  0.008342     48.000000
 -0.033715  0.037463  0.008342     48.000000
 -0.024082  0.034058  0.008342     24.000000
  0.043348  0.020435  0.008342     24.000000
  0.052981  0.017029  0.008342     48.000000
  0.062614  0.013623  0.008342     48.000000
  0.072247  0.010217  0.008342     48.000000
  0.081880  0.006812  0.008342     48.000000
  0.091513  0.003406  0.008342     48.000000
  0.101146  0.000000  0.008342     48.000000
  0.110779 -0.003406  0.008342     48.000000
  0.120412 -0.006812  0.008342     48.000000
  0.130045 -0.010217  0.008342     48.000000
  0.139678 -0.013623  0.008342     48.000000
 -0.149311  0.088550  0.008342     48.000000
 -0.139678  0.085144  0.008342     48.000000
 -0.130045  0.081738  0.008342     48.000000
 -0.120412  0.078332  0.008342     48.000000
 -0.110779  0.074927  0.008342     48.000000
 -0.101146  0.071521  0.008342     48.000000
 -0.091513  0.068115  0.008342     48.000000
 -0.081880  0.064709  0.008342     48.000000
 -0.072247  0.061304  0.008342     48.000000
 -0.062614  0.057898  0.008342     48.000000
 -0.052981  0.054492  0.008342     48.000000
 -0.043348  0.051086  0.008342     48.000000
 -0.033715  0.047681  0.008342     24.000000
  0.052981  0.027246  0.008342     24.000000
  0.062614  0.023840  0.008342     48.000000
  0.072247  0.020435  0.008342     48.000000
  0.081880  0.017029  0.008342     48.000000
  0.091513  0.013623  0.008342     48.000000
  0.101146  0.010217  0.008342     48.000000
  0.110779  0.006812  0.008342     48.000000
  0.120412  0.003406  0.008342     48.000000
  0.130045  0.000000  0.008342     48.000000
  0.139678 -0.003406  0.008342     48.000000
 -0.149311  0.098767  0.008342     48.000000
 -0.139678  0.095361  0.008342     48.000000
 -0.130045  0.091955  0.008342     48.000000
 -0.120412  0.088550  0.008342     48.000000
 -0.110779  0.085144  0.008342     48.000000
 -0.101146  0.081738  0.008342     48.000000
 -0.091513  0.078332  0.008342     48.000000
 -0.081880  0.074927  0.008342     48.000000
 -0.072247  0.071521  0.008342     48.000000
 -0.062614  0.068115  0.008342     48.000000
 -0.052981  0.064709  0.008342     48.000000
 -0.043348  0.061304  0.008342     24.000000
  0.062614  0.034058  0.008342     24.000000
  0.072247  0.030652  0.008342     48.000000
  0.081880  0.027246  0.008342     48.000000
  0.091513  0.023840  0.008342     48.000000
  0.101146  0.020435  0.008342     48.000000
  0.110779  0.017029  0.008342     48.000000
  0.120412  0.013623  0.008342     48.000000
  0.130045  0.010217  0.008342     48.000000
  0.139678  0.006812  0.008342     48.000000
 -0.149311  0.108984  0.008342     48.000000
 -0.139678  0.105579  0.008342     48.000000
 -0.130045  0.102173  0.008342     48.000000
 -0.120412  0.098767  0.008342     48.000000
 -0.110779  0.095361  0.008342     48.000000
 -0.101146  0.091955  0.008342     48.000000
 -0.091513  0.088550  0.008342     48.000000
 -0.081880  0.085144  0.008342     48.000000
 -0.072247  0.081738  0.008342     48.000000
 -0.062614  0.078332  0.008342     48.000000
 -0.052981  0.074927  0.008342     24.000000
  0.072247  0.040869  0.008342     24.000000
  0.081880  0.037463  0.008342     48.000000
  0.091513  0.034058  0.008342     48.000000
  0.101146  0.030652  0.008342     48.000000
  0.110779  0.027246  0.008342     48.000000
  0.120412  0.023840  0.008342     48.000000
  0.130045  0.020435  0.008342     48.000000
  0.139678  0.017029  0.008342     48.000000
 -0.149311  0.119202  0.008342     48.000000
 -0.139678  0.115796  0.008342     48.000000
 -0.130045  0.112390  0.008342     48.000000
 -0.120412  0.108984  0.008342     48.000000
 -0.110779  0.105579  0.008342     48.000000
 -0.101146  0.102173  0.008342     48.000000
 -0.091513  0.098767  0.008342     48.000000
 -0.081880  0.095361  0.008342     48.000000
 -0.072247  0.091955  0.008342     48.000000
 -0.062614  0.088550  0.008342     24.000000
  0.081880  0.047681  0.008342     24.000000
  0.091513  0.044275  0.008342     48.000000
  0.101146  0.040869  0.008342     48.000000
  0.110779  0.037463  0.008342     48.000000
  0.120412  0.034058  0.008342     48.000000
  0.130045  0.030652  0.008342     48.000000
  0.139678  0.027246  0.008342     48.000000
 -0.149311  0.129419  0.008342     48.000000
 -0.139678  0.126013  0.008342     48.000000
 -0.130045  0.122607  0.008342     48.000000
 -0.120412  0.119202  0.008342     48.000000
 -0.110779  0.115796  0.008342     48.000000
 -0.101146  0.112390  0.008342     48.000000
 -0.091513  0.108984  0.008342     48.000000
 -0.081880  0.105579  0.008342     48.000000
 -0.072247  0.102173  0.008342     24.000000
  0.091513  0.054492  0.008342     24.000000
  0.101146  0.051086  0.008342     48.000000
  0.110779  0.047681  0.008342     48.000000
  0.120412  0.044275  0.008342     48.000000
  0.130045  0.040869  0.008342     48.000000
  0.139678  0.037463  0.008342     48.000000
 -0.149311  0.139636  0.008342     48.000000
 -0.139678  0.136230  0.008342     48.000000
 -0.130045  0.132825  0.008342     48.000000
 -0.120412  0.129419  0.008342     48.000000
 -0.110779  0.126013  0.008342     48.000000
 -0.101146  0.122607  0.008342     48.000000
 -0.091513  0.119202  0.008342     48.000000
 -0.081880  0.115796  0.008342     24.000000
  0.101146  0.061304  0.008342     24.000000
  0.110779  0.057898  0.008342     48.000000
  0.120412  0.054492  0.008342     48.000000
  0.130045  0.051086  0.008342     48.000000
  0.139678  0.047681  0.008342     48.000000
 -0.149311  0.149853  0.008342     48.000000
 -0.139678  0.146448  0.008342     48.000000
 -0.130045  0.143042  0.008342     48.000000
 -0.120412  0.139636  0.008342     48.000000
 -0.110779  0.136230  0.008342     48.000000
 -0.101146  0.132825  0.008342     48.000000
 -0.091513  0.129419  0.008342     24.000000
  0.110779  0.068115  0.008342     24.000000
  0.120412  0.064709  0.008342     48.000000
  0.130045  0.061304  0.008342     48.000000
  0.139678  0.057898  0.008342     48.000000
 -0.149311  0.160071  0.008342     48.000000
 -0.139678  0.156665  0.008342     48.000000
 -0.130045  0.153259  0.008342     48.000000
 -0.120412  0.149853  0.008342     48.000000
 -0.110779  0.146448  0.008342     48.000000
 -0.101146  0.143042  0.008342     24.000000
  0.120412  0.074927  0.008342     24.000000
  0.130045  0.071521  0.008342     48.000000
  0.139678  0.068115  0.008342     48.000000
 -0.149311  0.170288  0.008342     48.000000
 -0.139678  0.166882  0.008342     48.000000
 -0.130045  0.163476  0.008342     48.000000
 -0.120412  0.160071  0.008342     48.000000
 -0.110779  0.156665  0.008342     24.000000
  0.130045  0.081738  0.008342     24.000000
  0.139678  0.078332  0.008342     48.000000
 -0.149311  0.180505  0.008342     48.000000
 -0.139678  0.177099  0.008342     48.000000
 -0.130045  0.173694  0.008342     48.000000
 -0.120412  0.170288  0.008342     24.000000
  0.139678  0.088550  0.008342     24.000000
 -0.149311  0.190722  0.008342     48.000000
 -0.139678  0.187317  0.008342     48.000000
 -0.130045  0.183911  0.008342     24.000000
 -0.149311  0.200940  0.008342     24.000000
 -0.139678  0.197534  0.008342     24.000000
  0.048165  0.013623  0.016685     24.000000
  0.057798  0.010217  0.016685     48.000000
  0.067431  0.006812  0.016685     48.000000
  0.077064  0.003406  0.016685     48.000000
  0.086696  0.000000  0.016685     48.000000
  0.096329 -0.003406  0.016685     48.000000
  0.105962 -0.006812  0.016685     48.000000
  0.115595 -0.010217  0.016685     48.000000
  0.125228 -0.013623  0.016685     48.000000
  0.134861 -0.017029  0.016685     48.000000
 -0.154127  0.085144  0.016685     48.000000
 -0.144494  0.081738  0.016685     48.000000
  0.057798  0.020435  0.016685     24.000000
  0.067431  0.017029  0.016685     48.000000
  0.077064  0.013623  0.016685     48.000000
  0.086696  0.010217  0.016685     48.000000
  0.096329  0.006812  0.016685     48.000000
  0.105962  0.003406  0.016685     48.000000
  0.115595  0.000000  0.016685     48.000000
  0.125228 -0.003406  0.016685     48.000000
  0.134861 -0.006812  0.016685     48.000000
 -0.154127  0.095361  0.016685     48.000000
 -0.144494  0.091955  0.016685     48.000000
 -0.134861  0.088550  0.016685     48.000000
 -0.125228  0.085144  0.016685     48.000000
 -0.115595  0.081738  0.016685     48.000000
 -0.105962  0.078332  0.016685     48.000000
 -0.096329  0.074927  0.016685     48.000000
 -0.086696  0.071521  0.016685     48.000000
 -0.077064  0.068115  0.016685     48.000000
 -0.067431  0.064709  0.016685     48.000000
 -0.057798  0.061304  0.016685     48.000000
 -0.048165  0.057898  0.016685     48.000000
 -0.038532  0.054492  0.016685     24.000000
  0.067431  0.027246  0.016685     24.000000
  0.077064  0.023840  0.016685     48.000000
  0.086696  0.020435  0.016685     48.000000
  0.096329  0.017029  0.016685     48.000000
  0.105962  0.013623  0.016685     48.000000
  0.115595  0.010217  0.016685     48.000000
  0.125228  0.006812  0.016685     48.000000
  0.134861  0.003406  0.016685     48.000000
 -0.154127  0.105579  0.016685     48.000000
 -0.144494  0.102173  0.016685     48.000000
 -0.134861  0.098767  0.016685     48.000000
 -0.125228  0.095361  0.016685     48.000000
 -0.115595  0.091955  0.016685     48.000000
 -0.105962  0.088550  0.016685     48.000000
 -0.096329  0.085144  0.016685     48.000000
 -0.086696  0.081738  0.016685     48.000000
 -0.077064  0.078332  0.016685     48.000000
 -0.067431  0.074927  0.016685     48.000000
 -0.057798  0.071521  0.016685     48.000000
 -0.048165  0.068115  0.016685     24.000000
  0.077064  0.034058  0.016685     24.000000
  0.086696  0.030652  0.016685     48.000000
  0.096329  0.027246  0.016685     48.000000
  0.105962  0.023840  0.016685     48.000000
  0.115595  0.020435  0.016685     48.000000
  0.125228  0.017029  0.016685     48.000000
  0.134861  0.013623  0.016685     48.000000
 -0.154127  0.115796  0.016685     48.000000
 -0.144494  0.112390  0.016685     48.000000
 -0.134861  0.108984  0.016685     48.000000
 -0.125228  0.105579  0.016685     48.000000
 -0.115595  0.102173  0.016685     48.000000
 -0.105962  0.098767  0.016685     48.000000
 -0.096329  0.095361  0.016685     48.000000
 -0.086696  0.091955  0.016685     48.000000
 -0.077064  0.088550  0.016685     48.000000
 -0.067431  0.085144  0.016685     48.000000
 -0.057798  0.081738  0.016685     24.000000
  0.086696  0.040869  0.016685     24.000000
  0.096329  0.037463  0.016685     48.000000
  0.105962  0.034058  0.016685     48.000000
  0.115595  0.030652  0.016685     48.000000
  0.125228  0.027246  0.016685     48.000000
  0.134861  0.023840  0.016685     48.000000
 -0.154127  0.126013  0.016685     48.000000
 -0.144494  0.122607  0.016685     48.000000
 -0.134861  0.119202  0.016685     48.000000
 -0.125228  0.115796  0.016685     48.000000
 -0.115595  0.112390  0.016685     48.000000
 -0.105962  0.108984  0.016685     48.000000
 -0.096329  0.105579  0.016685     48.000000
 -0.086696  0.102173  0.016685     48.000000
 -0.077064  0.098767  0.016685     48.000000
 -0.067431  0.095361  0.016685     24.000000
  0.096329  0.047681  0.016685     24.000000
  0.105962  0.044275  0.016685     48.000000
  0.115595  0.040869  0.016685     48.000000
  0.125228  0.037463  0.016685     48.000000
  0.134861  0.034058  0.016685     48.000000
 -0.154127  0.136230  0.016685     48.000000
 -0.144494  0.132825  0.016685     48.000000
 -0.134861  0.129419  0.016685     48.000000
 -0.125228  0.126013  0.016685     48.000000
 -0.115595  0.122607  0.016685     48.000000
 -0.105962  0.119202  0.016685     48.000000
 -0.096329  0.115796  0.016685     48.000000
 -0.086696  0.112390  0.016685     48.000000
 -0.077064  0.108984  0.016685     24.000000
  0.105962  0.054492  0.016685     24.000000
  0.115595  0.051086  0.016685     48.000000
  0.125228  0.047681  0.016685     48.000000
  0.134861  0.044275  0.016685     48.000000
 -0.154127  0.146448  0.016685     48.000000
 -0.144494  0.143042  0.016685     48.000000
 -0.134861  0.139636  0.016685     48.000000
 -0.125228  0.136230  0.016685     48.000000
 -0.115595  0.132825  0.016685     48.000000
 -0.105962  0.129419  0.016685     48.000000
 -0.096329  0.126013  0.016685     48.000000
 -0.086696  0.122607  0.016685     24.000000
  0.115595  0.061304  0.016685     24.000000
  0.125228  0.057898  0.016685     48.000000
  0.134861  0.054492  0.016685     48.000000
 -0.154127  0.156665  0.016685     48.000000
 -0.144494  0.153259  0.016685     48.000000
 -0.134861  0.149853  0.016685     48.000000
 -0.125228  0.146448  0.016685     48.000000
 -0.115595  0.143042  0.016685     48.000000
 -0.105962  0.139636  0.016685     48.000000
 -0.096329  0.136230  0.016685     24.000000
  0.125228  0.068115  0.016685     24.000000
  0.134861  0.064709  0.016685     48.000000
 -0.154127  0.166882  0.016685     48.000000
 -0.144494  0.163476  0.016685     48.000000
 -0.134861  0.160071  0.016685     48.000000
 -0.125228  0.156665  0.016685     48.000000
 -0.115595  0.153259  0.016685     48.000000
 -0.105962  0.149853  0.016685     24.000000
  0.134861  0.074927  0.016685     24.000000
 -0.154127  0.177099  0.016685     48.000000
 -0.144494  0.173694  0.016685     48.000000
 -0.134861  0.170288  0.016685     48.000000
 -0.125228  0.166882  0.016685     48.000000
 -0.115595  0.163476  0.016685     24.000000
 -0.154127  0.187317  0.016685     24.000000
 -0.144494  0.183911  0.016685     48.000000
 -0.134861  0.180505  0.016685     48.000000
 -0.125228  0.177099  0.016685     24.000000
 -0.144494  0.194128  0.016685     24.000000
 -0.134861  0.190722  0.016685     24.000000
  0.072247  0.020435  0.025027     24.000000
  0.081880  0.017029  0.025027     48.000000
  0.091513  0.013623  0.025027     48.000000
  0.101146  0.010217  0.025027     48.000000
  0.110779  0.006812  0.025027     48.000000
  0.120412  0.003406  0.025027     48.000000
  0.130045  0.000000  0.025027     48.000000
 -0.158944  0.102173  0.025027     48.000000
 -0.149311  0.098767  0.025027     48.000000
 -0.139678  0.095361  0.025027     48.000000
  0.081880  0.027246  0.025027     24.000000
  0.091513  0.023840  0.025027     48.000000
  0.101146  0.020435  0.025027     48.000000
  0.110779  0.017029  0.025027     48.000000
  0.120412  0.013623  0.025027     48.000000
  0.130045  0.010217  0.025027     48.000000
 -0.158944  0.112390  0.025027     48.000000
 -0.149311  0.108984  0.025027     48.000000
 -0.139678  0.105579  0.025027     48.000000
 -0.130045  0.102173  0.025027     48.000000
 -0.120412  0.098767  0.025027     48.000000
 -0.110779  0.095361  0.025027     48.000000
 -0.101146  0.091955  0.025027     48.000000
 -0.091513  0.088550  0.025027     48.000000
 -0.081880  0.085144  0.025027     48.000000
 -0.072247  0.081738  0.025027     48.000000
 -0.062614  0.078332  0.025027     48.000000
 -0.052981  0.074927  0.025027     24.000000
  0.091513  0.034058  0.025027     24.000000
  0.101146  0.030652  0.025027     48.000000
  0.110779  0.027246  0.025027     48.000000
  0.120412  0.023840  0.025027     48.000000
  0.130045  0.020435  0.025027     48.000000
 -0.158944  0.122607  0.025027     48.000000
 -0.149311  0.119202  0.025027     48.000000
 -0.139678  0.115796  0.025027     48.000000
 -0.130045  0.112390  0.025027     48.000000
 -0.120412  0.108984  0.025027     48.000000
 -0.110779  0.105579  0.025027     48.000000
 -0.101146  0.102173  0.025027     48.000000
 -0.091513  0.098767  0.025027     48.000000
 -0.081880  0.095361  0.025027     48.000000
 -0.072247  0.091955  0.025027     48.000000
 -0.062614  0.088550  0.025027     24.000000
  0.101146  0.040869  0.025027     24.000000
  0.110779  0.037463  0.025027     48.000000
  0.120412  0.034058  0.025027     48.000000
  0.130045  0.030652  0.025027     48.000000
 -0.158944  0.132825  0.025027     48.000000
 -0.149311  0.129419  0.025027     48.000000
 -0.139678  0.126013  0.025027     48.000000
 -0.130045  0.122607  0.025027     48.000000
 -0.120412  0.119202  0.025027     48.000000
 -0.110779  0.115796  0.025027     48.000000
 -0.101146  0.112390  0.025027     48.000000
 -0.091513  0.108984  0.025027     48.000000
 -0.081880  0.105579  0.025027     48.000000
 -0.072247  0.102173  0.025027     24.000000
  0.110779  0.047681  0.025027     24.000000
  0.120412  0.044275  0.025027     48.000000
  0.130045  0.040869  0.025027     48.000000
 -0.158944  0.143042  0.025027     48.000000
 -0.149311  0.139636  0.025027     48.000000
 -0.139678  0.136230  0.025027     48.000000
 -0.130045  0.132825  0.025027     48.000000
 -0.120412  0.129419  0.025027     48.000000
 -0.110779  0.126013  0.025027     48.000000
 -0.101146  0.122607  0.025027     48.000000
 -0.091513  0.119202  0.025027     48.000000
 -0.081880  0.115796  0.025027     24.000000
  0.120412  0.054492  0.025027     24.000000
  0.130045  0.051086  0.025027     48.000000
 -0.158944  0.153259  0.025027     48.000000
 -0.149311  0.149853  0.025027     48.000000
 -0.139678  0.146448  0.025027     48.000000
 -0.130045  0.143042  0.025027     48.000000
 -0.120412  0.139636  0.025027     48.000000
 -0.110779  0.136230  0.025027     48.000000
 -0.101146  0.132825  0.025027     48.000000
 -0.091513  0.129419  0.025027     24.000000
  0.130045  0.061304  0.025027     24.000000
 -0.158944  0.163476  0.025027     48.000000
 -0.149311  0.160071  0.025027     48.000000
 -0.139678  0.156665  0.025027     48.000000
 -0.130045  0.153259  0.025027     48.000000
 -0.120412  0.149853  0.025027     48.000000
 -0.110779  0.146448  0.025027     48.000000
 -0.101146  0.143042  0.025027     24.000000
 -0.158944  0.173694  0.025027     24.000000
 -0.149311  0.170288  0.025027     48.000000
 -0.139678  0.166882  0.025027     48.000000
 -0.130045  0.163476  0.025027     48.000000
 -0.120412  0.160071  0.025027     48.000000
 -0.110779  0.156665  0.025027     24.000000
 -0.149311  0.180505  0.025027     24.000000
 -0.139678  0.177099  0.025027     48.000000
 -0.130045  0.173694  0.025027     48.000000
 -0.120412  0.170288  0.025027     24.000000
 -0.139678  0.187317  0.025027     24.000000
 -0.130045  0.183911  0.025027     24.000000
  0.096329  0.027246  0.033369     24.000000
  0.105962  0.023840  0.033369     48.000000
  0.115595  0.020435  0.033369     48.000000
  0.125228  0.017029  0.033369     48.000000
 -0.163760  0.119202  0.033369     48.000000
 -0.154127  0.115796  0.033369     48.000000
 -0.144494  0.112390  0.033369     48.000000
 -0.134861  0.108984  0.033369     48.000000
  0.105962  0.034058  0.033369     24.000000
  0.115595  0.030652  0.033369     48.000000
  0.125228  0.027246  0.033369     48.000000
 -0.163760  0.129419  0.033369     48.000000
 -0.154127  0.126013  0.033369     48.000000
 -0.144494  0.122607  0.033369     48.000000
 -0.134861  0.119202  0.033369     48.000000
 -0.125228  0.115796  0.033369     48.000000
 -0.115595  0.112390  0.033369     48.000000
 -0.105962  0.108984  0.033369     48.000000
 -0.096329  0.105579  0.033369     48.000000
 -0.086696  0.102173  0.033369     48.000000
 -0.077064  0.098767  0.033369     48.000000
 -0.067431  0.095361  0.033369     24.000000
  0.115595  0.040869  0.033369     24.000000
  0.125228  0.037463  0.033369     48.000000
 -0.163760  0.139636  0.033369     48.000000
 -0.154127  0.136230  0.033369     48.000000
 -0.144494  0.132825  0.033369     48.000000
 -0.134861  0.129419  0.033369     48.000000
 -0.125228  0.126013  0.033369     48.000000
 -0.115595  0.122607  0.033369     48.000000
 -0.105962  0.119202  0.033369     48.000000
[...]
      3       1.5213      2.00000
      4       2.6482      2.00000
      5       8.8202      0.00000
      6       9.9261      0.00000
      7      11.0592      0.00000
      8      11.6150      0.00000

 k-point   783 :      -0.2581    0.3871    0.1613
  band No.  band energies     occupation 
      1      -2.9174      2.00000
      2      -1.1036      2.00000
      3       1.5290      2.00000
      4       2.7495      2.00000
      5       8.9488      0.00000
      6       9.8087      0.00000
      7      10.5608      0.00000
      8      12.2382      0.00000

 k-point   784 :      -0.2258    0.3871    0.1613
  band No.  band energies     occupation 
      1      -3.1378      2.00000
      2      -0.8830      2.00000
      3       1.5920      2.00000
      4       2.8824      2.00000
      5       9.0928      0.00000
      6       9.5757      0.00000
      7      10.1864      0.00000
      8      12.9329      0.00000

 k-point   785 :      -0.4194    0.4194    0.1613
  band No.  band energies     occupation 
      1      -3.0197      2.00000
      2      -0.9991      2.00000
      3       1.9697      2.00000
      4       2.5275      2.00000
      5       8.1911      0.00000
      6       8.5915      0.00000
      7      11.1108      0.00000
      8      13.9089      0.00000

 k-point   786 :      -0.3871    0.4194    0.1613
  band No.  band energies     occupation 
      1      -2.7851      2.00000
      2      -1.2297      2.00000
      3       1.8421      2.00000
      4       2.4176      2.00000
      5       8.3829      0.00000
      6       8.9517      0.00000
      7      10.9765      0.00000
      8      13.2125      0.00000

 k-point   787 :      -0.3548    0.4194    0.1613
  band No.  band energies     occupation 
      1      -2.5840      2.00000
      2      -1.4237      2.00000
      3       1.7085      2.00000
      4       2.3835      2.00000
      5       8.4754      0.00000
      6       9.4748      0.00000
      7      10.8607      0.00000
      8      12.5181      0.00000

 k-point   788 :      -0.3226    0.4194    0.1613
  band No.  band energies     occupation 
      1      -2.4780      2.00000
      2      -1.5220      2.00000
      3       1.5916      2.00000
      4       2.4117      2.00000
      5       8.5680      0.00000
      6      10.0200      0.00000
      7      10.7915      0.00000
      8      11.8549      0.00000

 k-point   789 :      -0.2903    0.4194    0.1613
  band No.  band energies     occupation 
      1      -2.5296      2.00000
      2      -1.4664      2.00000
      3       1.5132      2.00000
      4       2.4879      2.00000
      5       8.6770      0.00000
      6      10.3540      0.00000
      7      10.9313      0.00000
      8      11.2788      0.00000

 k-point   790 :      -0.2581    0.4194    0.1613
  band No.  band energies     occupation 
      1      -2.6994      2.00000
      2      -1.3016      2.00000
      3       1.4887      2.00000
      4       2.6028      2.00000
      5       8.8047      0.00000
      6      10.2359      0.00000
      7      10.7381      0.00000
      8      11.5704      0.00000

 k-point   791 :      -0.3871    0.4516    0.1613
  band No.  band energies     occupation 
      1      -2.6281      2.00000
      2      -1.4054      2.00000
      3       1.9771      2.00000
      4       2.3077      2.00000
      5       8.1919      0.00000
      6       8.4287      0.00000
      7      11.6218      0.00000
      8      13.3176      0.00000

 k-point   792 :      -0.3548    0.4516    0.1613
  band No.  band energies     occupation 
      1      -2.4072      2.00000
      2      -1.6080      2.00000
      3       1.8543      2.00000
      4       2.2353      2.00000
      5       8.3556      0.00000
      6       8.8618      0.00000
      7      11.4914      0.00000
      8      12.6152      0.00000

 k-point   793 :      -0.3226    0.4516    0.1613
  band No.  band energies     occupation 
      1      -2.2755      2.00000
      2      -1.7228      2.00000
      3       1.7003      2.00000
      4       2.2691      2.00000
      5       8.4467      0.00000
      6       9.4317      0.00000
      7      11.3731      0.00000
      8      11.9407      0.00000

 k-point   794 :      -0.2903    0.4516    0.1613
  band No.  band energies     occupation 
      1      -2.3432      2.00000
      2      -1.6460      2.00000
      3       1.5773      2.00000
      4       2.3592      2.00000
      5       8.5521      0.00000
      6      10.0192      0.00000
      7      11.2192      0.00000
      8      11.3743      0.00000

 k-point   795 :      -0.3548    0.4839    0.1613
  band No.  band energies     occupation 
      1      -2.2251      2.00000
      2      -1.8157      2.00000
      3       2.0341      2.00000
      4       2.1436      2.00000
      5       8.2306      0.00000
      6       8.3090      0.00000
      7      12.1620      0.00000
      8      12.7289      0.00000

 k-point   796 :      -0.3226    0.4839    0.1613
  band No.  band energies     occupation 
      1      -2.1003      2.00000
      2      -1.9149      2.00000
      3       1.8709      2.00000
      4       2.1616      2.00000
      5       8.3471      0.00000
      6       8.8312      0.00000
      7      12.0039      0.00000
      8      12.0747      0.00000

 k-point   797 :      -0.4194    0.3871    0.1935
  band No.  band energies     occupation 
      1      -3.2730      2.00000
      2      -0.7334      2.00000
      3       1.7808      2.00000
      4       2.8221      2.00000
      5       8.8817      0.00000
      6       9.3663      0.00000
      7       9.9434      0.00000
      8      13.7150      0.00000

 k-point   798 :      -0.3871    0.3871    0.1935
  band No.  band energies     occupation 
      1      -3.0397      2.00000
      2      -0.9736      2.00000
      3       1.6756      2.00000
      4       2.6885      2.00000
      5       9.0896      0.00000
      6       9.5369      0.00000
      7       9.9868      0.00000
      8      13.0215      0.00000

 k-point   799 :      -0.3548    0.3871    0.1935
  band No.  band energies     occupation 
      1      -2.8355      2.00000
      2      -1.1854      2.00000
      3       1.6100      2.00000
      4       2.5939      2.00000
      5       9.1730      0.00000
      6       9.5411      0.00000
      7      10.3944      0.00000
      8      12.3294      0.00000

 k-point   800 :      -0.3226    0.3871    0.1935
  band No.  band energies     occupation 
      1      -2.7058      2.00000
      2      -1.3199      2.00000
      3       1.5790      2.00000
      4       2.5448      2.00000
      5       9.2181      0.00000
      6       9.4925      0.00000
      7      10.9357      0.00000
      8      11.6928      0.00000

 k-point   801 :      -0.3871    0.4194    0.1935
  band No.  band energies     occupation 
      1      -2.9182      2.00000
      2      -1.0832      2.00000
      3       1.7623      2.00000
      4       2.5038      2.00000
      5       8.8470      0.00000
      6       9.2009      0.00000
      7      10.3644      0.00000
      8      13.1089      0.00000

 k-point   802 :      -0.3548    0.4194    0.1935
  band No.  band energies     occupation 
      1      -2.6970      2.00000
      2      -1.2963      2.00000
      3       1.6825      2.00000
      4       2.3862      2.00000
      5       9.0397      0.00000
      6       9.5653      0.00000
      7      10.2766      0.00000
      8      12.4052      0.00000

 k-point   803 :      -0.3226    0.4194    0.1935
  band No.  band energies     occupation 
      1      -2.5322      2.00000
      2      -1.4556      2.00000
      3       1.6214      2.00000
      4       2.3317      2.00000
      5       9.1309      0.00000
      6       9.8819      0.00000
      7      10.4056      0.00000
      8      11.7346      0.00000

 k-point   804 :      -0.2903    0.4194    0.1935
  band No.  band energies     occupation 
      1      -2.4951      2.00000
      2      -1.4899      2.00000
      3       1.5809      2.00000
      4       2.3421      2.00000
      5       9.2218      0.00000
      6       9.8780      0.00000
      7      10.8109      0.00000
      8      11.2106      0.00000

 k-point   805 :      -0.2581    0.4194    0.1935
  band No.  band energies     occupation 
      1      -2.6097      2.00000
      2      -1.3770      2.00000
      3       1.5698      2.00000
      4       2.4114      2.00000
      5       9.3226      0.00000
      6       9.7784      0.00000
      7      10.4515      0.00000
      8      11.6388      0.00000

 k-point   806 :      -0.2258    0.4194    0.1935
  band No.  band energies     occupation 
      1      -2.8097      2.00000
      2      -1.1856      2.00000
      3       1.5986      2.00000
      4       2.5301      2.00000
      5       9.4255      0.00000
      6       9.5400      0.00000
      7      10.0859      0.00000
      8      12.3115      0.00000

 k-point   807 :      -0.3548    0.4516    0.1935
  band No.  band energies     occupation 
      1      -2.5525      2.00000
      2      -1.4423      2.00000
      3       1.7958      2.00000
      4       2.2386      2.00000
      5       8.8456      0.00000
      6       9.0574      0.00000
      7      10.8440      0.00000
      8      12.5008      0.00000

 k-point   808 :      -0.3226    0.4516    0.1935
  band No.  band energies     occupation 
      1      -2.3553      2.00000
      2      -1.6229      2.00000
      3       1.7333      2.00000
      4       2.1526      2.00000
      5       9.0106      0.00000
      6       9.5164      0.00000
      7      10.7351      0.00000
      8      11.8144      0.00000

 k-point   809 :      -0.2903    0.4516    0.1935
  band No.  band energies     occupation 
      1      -2.2854      2.00000
      2      -1.6834      2.00000
      3       1.6516      2.00000
      4       2.1721      2.00000
      5       9.1061      0.00000
      6      10.0307      0.00000
      7      10.6936      0.00000
      8      11.1798      0.00000

 k-point   810 :      -0.2581    0.4516    0.1935
  band No.  band energies     occupation 
      1      -2.4051      2.00000
      2      -1.5652      2.00000
      3       1.5878      2.00000
      4       2.2665      2.00000
      5       9.2130      0.00000
      6      10.1709      0.00000
      7      10.6251      0.00000
      8      11.0397      0.00000

 k-point   811 :      -0.3226    0.4839    0.1935
  band No.  band energies     occupation 
      1      -2.1810      2.00000
      2      -1.8093      2.00000
      3       1.8847      2.00000
      4       2.0318      2.00000
      5       8.8794      0.00000
      6       8.9498      0.00000
      7      11.3637      0.00000
      8      11.9174      0.00000

 k-point   812 :      -0.2903    0.4839    0.1935
  band No.  band energies     occupation 
      1      -2.1022      2.00000
      2      -1.8705      2.00000
      3       1.7801      2.00000
      4       2.0439      2.00000
      5       9.0011      0.00000
      6       9.4957      0.00000
      7      11.2276      0.00000
      8      11.2819      0.00000

 k-point   813 :      -0.3226    0.4516    0.2258
  band No.  band energies     occupation 
      1      -2.4763      2.00000
      2      -1.4959      2.00000
      3       1.6627      2.00000
      4       2.2244      2.00000
      5       9.5327      0.00000
      6       9.6009      0.00000
      7      10.2297      0.00000
      8      11.7136      0.00000

 k-point   814 :      -0.2903    0.4516    0.2258
  band No.  band energies     occupation 
      1      -2.3129      2.00000
      2      -1.6488      2.00000
      3       1.6637      2.00000
      4       2.1310      2.00000
      5       9.5963      0.00000
      6       9.8623      0.00000
      7      10.4269      0.00000
      8      11.0865      0.00000

 k-point   815 :      -0.2903    0.4839    0.2258
  band No.  band energies     occupation 
      1      -2.1433      2.00000
      2      -1.8155      2.00000
      3       1.7876      2.00000
      4       1.9752      2.00000
      5       9.5526      0.00000
      6       9.5907      0.00000
      7      10.6392      0.00000
      8      11.1511      0.00000

 k-point   816 :      -0.2581    0.4839    0.2258
  band No.  band energies     occupation 
      1      -2.1163      2.00000
      2      -1.8361      2.00000
      3       1.7516      2.00000
      4       1.9795      2.00000
      5       9.6400      0.00000
      6      10.0008      0.00000
      7      10.5795      0.00000
      8      10.6785      0.00000


--------------------------------------------------------------------------------------------------------


 soft charge-density along one line, spin component           1
         0         1         2         3         4         5         6         7         8         9
 total charge-density along one line
 
 pseudopotential strength for first ion, spin component:           1
 18.437  25.723   0.000  -0.000   0.000   0.000  -0.000   0.000
 25.723  35.893   0.000  -0.000   0.000   0.000  -0.000   0.000
  0.000   0.000   4.181  -0.000  -0.000   7.790  -0.000  -0.000
 -0.000  -0.000  -0.000   4.181  -0.000  -0.000   7.790  -0.000
  0.000   0.000  -0.000  -0.000   4.181  -0.000  -0.000   7.790
  0.000   0.000   7.790  -0.000  -0.000  14.528  -0.000  -0.000
 -0.000  -0.000  -0.000   7.790  -0.000  -0.000  14.528  -0.000
  0.000   0.000  -0.000  -0.000   7.790  -0.000  -0.000  14.528
 total augmentation occupancy for first ion, spin component:           1
  2.000   0.000   0.000   0.000   0.000   0.000   0.000   0.000
  0.000   0.000   0.000   0.000   0.000   0.000   0.000   0.000
  0.000   0.000   0.667   0.000   0.000   0.000   0.000   0.000
  0.000   0.000   0.000   0.667   0.000   0.000   0.000   0.000
  0.000   0.000   0.000   0.000   0.667   0.000   0.000   0.000
  0.000   0.000   0.000   0.000   0.000   0.000   0.000   0.000
  0.000   0.000   0.000   0.000   0.000   0.000   0.000   0.000
  0.000   0.000   0.000   0.000   0.000   0.000   0.000   0.000


------------------------ aborting loop because EDIFF is reached ----------------------------------------





 total charge

# of ion       s       p       d       tot
------------------------------------------
    1        0.751   0.928   0.000   1.679
    2        0.751   0.928   0.000   1.679
--------------------------------------------------
tot          1.502   1.856   0.000   3.358
 
    CHARGE:  cpu time    0.6659: real time    0.6668
    FORLOC:  cpu time    0.0030: real time    0.0027
    FORNL :  cpu time    0.5199: real time    0.5204
    STRESS:  cpu time    7.3899: real time    7.3931
    FORCOR:  cpu time    0.0480: real time    0.0496
    FORHAR:  cpu time    0.0100: real time    0.0094
    OFIELD:  cpu time    0.0000: real time    0.0003

  FORCE on cell =-STRESS in cart. coord.  units (eV):
  Direction    XX          YY          ZZ          XY          YZ          ZX
  --------------------------------------------------------------------------------------
  Alpha Z     3.29369     3.29369     3.29369
  Ewald     -75.65225   -75.65233   -75.65224     0.00001     0.00000     0.00000
  Hartree     5.05625     5.05625     5.05625     0.00000     0.00000     0.00000
  E(xc)     -25.24631   -25.24631   -25.24631     0.00000     0.00000     0.00000
  Local     -29.51195   -29.51193   -29.51194    -0.00000     0.00000     0.00001
  n-local    73.86312    77.12952    81.39118    -0.87152    -1.00795     0.00498
  augment   -11.65005   -11.65005   -11.65006    -0.00000    -0.00000    -0.00001
  Kinetic    52.99178    55.09290    60.66898     0.85247     1.28685    -0.62975
  Fock        0.00000     0.00000     0.00000     0.00000     0.00000     0.00000
  -------------------------------------------------------------------------------------
  Total       0.00185     0.00185     0.00185     0.00000    -0.00000     0.00000
  in kB       0.07268     0.07268     0.07268     0.00000    -0.00000     0.00000
  external pressure =        0.07 kB  Pullay stress =        0.00 kB


 VOLUME and BASIS-vectors are now :
 -----------------------------------------------------------------------------
  energy-cutoff  :      450.00
  volume of cell :       40.88
      direct lattice vectors                 reciprocal lattice vectors
     3.348723577  0.000000000  1.933386186     0.298621244 -0.105578511  0.000000000
     1.116241192  3.157208118  1.933386186     0.000000000  0.316735534  0.000000000
     0.000000000  0.000000000  3.866772372    -0.149310622 -0.105578511  0.258613620

  length of vectors
     3.866772781  3.866773803  3.866772372     0.316735646  0.316735534  0.316735676


 FORCES acting on ions
    electron-ion (+dipol)            ewald-force                    non-local-force                 convergence-correction
 -----------------------------------------------------------------------------------------------
   0.526E-05 0.245E-04 0.673E-07   -.892E-05 -.418E-04 0.120E-14   -.399E-16 0.278E-16 0.319E-15   0.142E-09 -.715E-11 0.281E-09
   -.526E-05 -.245E-04 -.673E-07   0.892E-05 0.418E-04 -.116E-14   -.330E-16 0.555E-16 -.111E-15   -.142E-09 0.714E-11 -.281E-09
 -----------------------------------------------------------------------------------------------
   -.136E-12 0.258E-13 -.219E-12   -.272E-15 0.538E-16 0.389E-16   -.729E-16 0.833E-16 0.208E-15   -.121E-13 -.303E-14 0.183E-13
 
 
 POSITION                                       TOTAL-FORCE (eV/Angst)
 -----------------------------------------------------------------------------------
      3.90684      2.76256      6.76685        -0.000000      0.000000     -0.000000
      0.55812      0.39465      0.96669         0.000000     -0.000000      0.000000
 -----------------------------------------------------------------------------------
    total drift:                               -0.000000      0.000000     -0.000000


--------------------------------------------------------------------------------------------------------



  FREE ENERGIE OF THE ION-ELECTRON SYSTEM (eV)
  ---------------------------------------------------
  free  energy   TOTEN  =       -10.84996333 eV

  energy  without entropy=      -10.84996333  energy(sigma->0) =      -10.84996333
 


--------------------------------------------------------------------------------------------------------


    POTLOK:  cpu time    0.2330: real time    0.2388


--------------------------------------------------------------------------------------------------------


 writing wavefunctions
     LOOP+:  cpu time   86.1409: real time   91.5744
    4ORBIT:  cpu time    0.0000: real time    0.0000



 total charge

# of ion       s       p       d       tot
------------------------------------------
    1        0.751   0.928   0.000   1.679
    2        0.751   0.928   0.000   1.679
--------------------------------------------------
tot          1.502   1.856   0.000   3.358
 

 total amount of memory used by VASP MPI-rank0   111240. kBytes
=======================================================================

   base      :      30000. kBytes
   nonl-proj :      47448. kBytes
   fftplans  :       6611. kBytes
   grid      :       3048. kBytes
   one-center:          6. kBytes
   wavefun   :      24127. kBytes
 
  
  
 General timing and accounting informations for this job:
 ========================================================
  
                  Total CPU time used (sec):       95.408
                            User time (sec):       92.353
                          System time (sec):        3.056
                         Elapsed time (sec):      112.197
  
                   Maximum memory used (kb):      166220.
                   Average memory used (kb):          N/A
  
                          Minor page faults:        20775
                          Major page faults:            1
                 Voluntary context switches:       359706
