PROCAR lm decomposed
# of k-points:  816         # of bands:    8         # of ions:    2

 k-point     1 :    0.00000000 0.00000000 0.00000000     weight = 0.00003357

band     1 # energy   -6.19830946 # occ.  2.00000000
 
ion      s     py     pz     px    dxy    dyz    dz2    dxz  x2-y2    tot
    1  0.212  0.000  0.000  0.000  0.000  0.000  0.000  0.000  0.000  0.212
    2  0.212  0.000  0.000  0.000  0.000  0.000  0.000  0.000  0.000  0.212
tot    0.424  0.000  0.000  0.000  0.000  0.000  0.000  0.000  0.000  0.424
 
band     2 # energy    5.61730991 # occ.  2.00000000
 
ion      s     py     pz     px    dxy    dyz    dz2    dxz  x2-y2    tot
    1  0.000  0.000  0.205  0.009  0.000  0.000  0.000  0.000  0.000  0.214
    2  0.000  0.000  0.205  0.009  0.000  0.000  0.000  0.000  0.000  0.214
tot    0.000  0.001  0.410  0.017  0.000  0.000  0.000  0.000  0.000  0.428
 
band     3 # energy    5.61731014 # occ.  2.00000000
 
ion      s     py     pz     px    dxy    dyz    dz2    dxz  x2-y2    tot
    1  0.000  0.005  0.009  0.200  0.000  0.000  0.000  0.000  0.000  0.214
    2  0.000  0.005  0.009  0.200  0.000  0.000  0.000  0.000  0.000  0.214
tot    0.000  0.010  0.018  0.400  0.000  0.000  0.000  0.000  0.000  0.428
 
band     4 # energy    5.61731297 # occ.  2.00000000
 
ion      s     py     pz     px    dxy    dyz    dz2    dxz  x2-y2    tot
    1  0.000  0.208  0.000  0.005  0.000  0.000  0.000  0.000  0.000  0.214
    2  0.000  0.208  0.000  0.005  0.000  0.000  0.000  0.000  0.000  0.214
tot    0.000  0.417  0.000  0.011  0.000  0.000  0.000  0.000  0.000  0.428
 
band     5 # energy    8.17442338 # occ.  0.00000000
 
ion      s     py     pz     px    dxy    dyz    dz2    dxz  x2-y2    tot
    1  0.000  0.149  0.000  0.001  0.000  0.000  0.000  0.000  0.000  0.151
    2  0.000  0.149  0.000  0.001  0.000  0.000  0.000  0.000  0.000  0.151
tot    0.000  0.299  0.000  0.003  0.000  0.000  0.000  0.000  0.000  0.301
 
band     6 # energy    8.17443048 # occ.  0.00000000
 
ion      s     py     pz     px    dxy    dyz    dz2    dxz  x2-y2    tot
    1  0.000  0.001  0.000  0.149  0.000  0.000  0.000  0.000  0.000  0.151
    2  0.000  0.001  0.000  0.149  0.000  0.000  0.000  0.000  0.000  0.151
tot    0.000  0.003  0.000  0.299  0.000  0.000  0.000  0.000  0.000  0.301
 
band     7 # energy    8.17443176 # occ.  0.00000000
 
ion      s     py     pz     px    dxy    dyz    dz2    dxz  x2-y2    tot
    1  0.000  0.000  0.151  0.000  0.000  0.000  0.000  0.000  0.000  0.151
    2  0.000  0.000  0.151  0.000  0.000  0.000  0.000  0.000  0.000  0.151
tot    0.000  0.000  0.301  0.000  0.000  0.000  0.000  0.000  0.000  0.301
 
band     8 # energy    8.75297470 # occ.  0.00000000
 
ion      s     py     pz     px    dxy    dyz    dz2    dxz  x2-y2    tot
    1  0.359  0.000  0.000  0.000  0.000  0.000  0.000  0.000  0.000  0.359
    2  0.359  0.000  0.000  0.000  0.000  0.000  0.000  0.000  0.000  0.359
tot    0.717  0.000  0.000  0.000  0.000  0.000  0.000  0.000  0.000  0.717
 

 k-point     2 :    0.03225806 0.00000000 0.00000000     weight = 0.00026854

band     1 # energy   -6.18490026 # occ.  2.00000000
 
ion      s     py     pz     px    dxy    dyz    dz2    dxz  x2-y2    tot
    1  0.212  0.000  0.000  0.000  0.000  0.000  0.000  0.000  0.000  0.212
    2  0.212  0.000  0.000  0.000  0.000  0.000  0.000  0.000  0.000  0.212
tot    0.424  0.000  0.000  0.000  0.000  0.000  0.000  0.000  0.000  0.424
 
band     2 # energy    5.45787364 # occ.  2.00000000
 
ion      s     py     pz     px    dxy    dyz    dz2    dxz  x2-y2    tot
    1  0.011  0.023  0.000  0.181  0.000  0.000  0.000  0.000  0.000  0.215
    2  0.011  0.023  0.000  0.181  0.000  0.000  0.000  0.000  0.000  0.215
tot    0.022  0.045  0.000  0.363  0.000  0.000  0.000  0.000  0.000  0.431
 
band     3 # energy    5.59434083 # occ.  2.00000000
 
ion      s     py     pz     px    dxy    dyz    dz2    dxz  x2-y2    tot
    1  0.000  0.000  0.213  0.000  0.000  0.000  0.000  0.000  0.000  0.213
    2  0.000  0.000  0.213  0.000  0.000  0.000  0.000  0.000  0.000  0.213
tot    0.000  0.000  0.427  0.000  0.000  0.000  0.000  0.000  0.000  0.427
 
band     4 # energy    5.59434319 # occ.  2.00000000
 
ion      s     py     pz     px    dxy    dyz    dz2    dxz  x2-y2    tot
    1  0.000  0.190  0.000  0.024  0.000  0.000  0.000  0.000  0.000  0.213
    2  0.000  0.190  0.000  0.024  0.000  0.000  0.000  0.000  0.000  0.213
tot    0.000  0.379  0.000  0.047  0.000  0.000  0.000  0.000  0.000  0.427
 
band     5 # energy    8.20673985 # occ.  0.00000000
 
ion      s     py     pz     px    dxy    dyz    dz2    dxz  x2-y2    tot
    1  0.009  0.016  0.000  0.130  0.000  0.000  0.000  0.000  0.000  0.155
    2  0.009  0.016  0.000  0.130  0.000  0.000  0.000  0.000  0.000  0.155
tot    0.018  0.033  0.000  0.259  0.000  0.000  0.000  0.000  0.000  0.311
 
band     6 # energy    8.20804989 # occ.  0.00000000
 
ion      s     py     pz     px    dxy    dyz    dz2    dxz  x2-y2    tot
    1  0.000  0.134  0.000  0.017  0.000  0.000  0.000  0.000  0.000  0.151
    2  0.000  0.134  0.000  0.017  0.000  0.000  0.000  0.000  0.000  0.151
tot    0.000  0.268  0.000  0.034  0.000  0.000  0.000  0.000  0.000  0.302
 
band     7 # energy    8.20805700 # occ.  0.00000000
 
ion      s     py     pz     px    dxy    dyz    dz2    dxz  x2-y2    tot
    1  0.000  0.000  0.151  0.000  0.000  0.000  0.000  0.000  0.000  0.151
    2  0.000  0.000  0.151  0.000  0.000  0.000  0.000  0.000  0.000  0.151
tot    0.000  0.000  0.302  0.000  0.000  0.000  0.000  0.000  0.000  0.302
 
band     8 # energy    8.85658585 # occ.  0.00000000
 
ion      s     py     pz     px    dxy    dyz    dz2    dxz  x2-y2    tot
    1  0.339  0.001  0.000  0.011  0.000  0.000  0.000  0.000  0.000  0.352
    2  0.339  0.001  0.000  0.011  0.000  0.000  0.000  0.000  0.000  0.352
tot    0.679  0.003  0.000  0.022  0.000  0.000  0.000  0.000  0.000  0.703
 

 k-point     3 :    0.06451613 0.00000000 0.00000000     weight = 0.00026854

band     1 # energy   -6.14468695 # occ.  2.00000000
 
ion      s     py     pz     px    dxy    dyz    dz2    dxz  x2-y2    tot
    1  0.212  0.000  0.000  0.001  0.000  0.000  0.000  0.000  0.000  0.212
    2  0.212  0.000  0.000  0.001  0.000  0.000  0.000  0.000  0.000  0.212
tot    0.423  0.000  0.000  0.001  0.000  0.000  0.000  0.000  0.000  0.425
 
band     2 # energy    5.05655150 # occ.  2.00000000
 
ion      s     py     pz     px    dxy    dyz    dz2    dxz  x2-y2    tot
    1  0.032  0.021  0.000  0.165  0.000  0.000  0.000  0.000  0.000  0.218
    2  0.032  0.021  0.000  0.165  0.000  0.000  0.000  0.000  0.000  0.218
tot    0.065  0.041  0.000  0.329  0.000  0.000  0.000  0.000  0.000  0.435
 
band     3 # energy    5.52979703 # occ.  2.00000000
 
ion      s     py     pz     px    dxy    dyz    dz2    dxz  x2-y2    tot
    1  0.000  0.000  0.213  0.000  0.000  0.000  0.000  0.000  0.000  0.213
    2  0.000  0.000  0.213  0.000  0.000  0.000  0.000  0.000  0.000  0.213
tot    0.000  0.000  0.425  0.000  0.000  0.000  0.000  0.000  0.000  0.425
 
band     4 # energy    5.52979932 # occ.  2.00000000
 
ion      s     py     pz     px    dxy    dyz    dz2    dxz  x2-y2    tot
    1  0.000  0.189  0.000  0.024  0.000  0.000  0.000  0.000  0.000  0.213
    2  0.000  0.189  0.000  0.024  0.000  0.000  0.000  0.000  0.000  0.213
tot    0.000  0.378  0.000  0.047  0.000  0.000  0.000  0.000  0.000  0.425
 
band     5 # energy    8.21228494 # occ.  0.00000000
 
ion      s     py     pz     px    dxy    dyz    dz2    dxz  x2-y2    tot
    1  0.052  0.014  0.000  0.110  0.000  0.000  0.000  0.000  0.000  0.176
    2  0.052  0.014  0.000  0.110  0.000  0.000  0.000  0.000  0.000  0.176
tot    0.104  0.028  0.000  0.220  0.000  0.000  0.000  0.000  0.000  0.352
 
band     6 # energy    8.30308578 # occ.  0.00000000
 
ion      s     py     pz     px    dxy    dyz    dz2    dxz  x2-y2    tot
    1  0.000  0.135  0.000  0.017  0.000  0.000  0.000  0.000  0.000  0.152
    2  0.000  0.135  0.000  0.017  0.000  0.000  0.000  0.000  0.000  0.152
tot    0.000  0.271  0.000  0.034  0.000  0.000  0.000  0.000  0.000  0.305
 
band     7 # energy    8.30309290 # occ.  0.00000000
 
ion      s     py     pz     px    dxy    dyz    dz2    dxz  x2-y2    tot
    1  0.000  0.000  0.152  0.000  0.000  0.000  0.000  0.000  0.000  0.152
    2  0.000  0.000  0.152  0.000  0.000  0.000  0.000  0.000  0.000  0.152
tot    0.000  0.000  0.305  0.000  0.000  0.000  0.000  0.000  0.000  0.305
 
band     8 # energy    9.18495184 # occ.  0.00000000
 
ion      s     py     pz     px    dxy    dyz    dz2    dxz  x2-y2    tot
    1  0.279  0.005  0.000  0.043  0.000  0.000  0.000  0.000  0.000  0.327
    2  0.279  0.005  0.000  0.043  0.000  0.000  0.000  0.000  0.000  0.327
tot    0.557  0.011  0.000  0.085  0.000  0.000  0.000  0.000  0.000  0.653
 

 k-point     4 :    0.09677419 0.00000000 0.00000000     weight = 0.00026854

band     1 # energy   -6.07785130 # occ.  2.00000000
 
ion      s     py     pz     px    dxy    dyz    dz2    dxz  x2-y2    tot
    1  0.211  0.000  0.000  0.001  0.000  0.000  0.000  0.000  0.000  0.213
    2  0.211  0.000  0.000  0.001  0.000  0.000  0.000  0.000  0.000  0.213
tot    0.423  0.000  0.000  0.002  0.000  0.000  0.000  0.000  0.000  0.425
 
band     2 # energy    4.53152213 # occ.  2.00000000
 
ion      s     py     pz     px    dxy    dyz    dz2    dxz  x2-y2    tot
    1  0.051  0.019  0.000  0.149  0.000  0.000  0.000  0.000  0.000  0.219
    2  0.051  0.019  0.000  0.149  0.000  0.000  0.000  0.000  0.000  0.219
tot    0.102  0.037  0.000  0.298  0.000  0.000  0.000  0.000  0.000  0.438
 
band     3 # energy    5.43429349 # occ.  2.00000000
 
ion      s     py     pz     px    dxy    dyz    dz2    dxz  x2-y2    tot
    1  0.000  0.000  0.212  0.000  0.000  0.000  0.000  0.000  0.000  0.212
    2  0.000  0.000  0.212  0.000  0.000  0.000  0.000  0.000  0.000  0.212
tot    0.000  0.000  0.423  0.000  0.000  0.000  0.000  0.000  0.000  0.423
 
band     4 # energy    5.43429572 # occ.  2.00000000
 
ion      s     py     pz     px    dxy    dyz    dz2    dxz  x2-y2    tot
    1  0.000  0.188  0.000  0.024  0.000  0.000  0.000  0.000  0.000  0.212
    2  0.000  0.188  0.000  0.024  0.000  0.000  0.000  0.000  0.000  0.212
tot    0.000  0.376  0.000  0.047  0.000  0.000  0.000  0.000  0.000  0.423
 
band     5 # energy    8.14956908 # occ.  0.00000000
 
ion      s     py     pz     px    dxy    dyz    dz2    dxz  x2-y2    tot
    1  0.089  0.011  0.000  0.091  0.000  0.000  0.000  0.000  0.000  0.191
    2  0.089  0.011  0.000  0.091  0.000  0.000  0.000  0.000  0.000  0.191
tot    0.178  0.023  0.000  0.182  0.000  0.000  0.000  0.000  0.000  0.383
 
band     6 # energy    8.44430737 # occ.  0.00000000
 
ion      s     py     pz     px    dxy    dyz    dz2    dxz  x2-y2    tot
    1  0.000  0.136  0.000  0.017  0.000  0.000  0.000  0.000  0.000  0.154
    2  0.000  0.136  0.000  0.017  0.000  0.000  0.000  0.000  0.000  0.154
tot    0.000  0.273  0.000  0.034  0.000  0.000  0.000  0.000  0.000  0.307
 
band     7 # energy    8.44431453 # occ.  0.00000000
 
ion      s     py     pz     px    dxy    dyz    dz2    dxz  x2-y2    tot
    1  0.000  0.000  0.154  0.000  0.000  0.000  0.000  0.000  0.000  0.154
    2  0.000  0.000  0.154  0.000  0.000  0.000  0.000  0.000  0.000  0.154
tot    0.000  0.000  0.307  0.000  0.000  0.000  0.000  0.000  0.000  0.307
 
band     8 # energy    9.66948650 # occ.  0.00000000
 
ion      s     py     pz     px    dxy    dyz    dz2    dxz  x2-y2    tot
    1  0.227  0.009  0.000  0.071  0.000  0.000  0.000  0.000  0.000  0.306
    2  0.227  0.009  0.000  0.071  0.000  0.000  0.000  0.000  0.000  0.306
tot    0.453  0.018  0.000  0.141  0.000  0.000  0.000  0.000  0.000  0.612
 

 k-point     5 :    0.12903226 0.00000000 0.00000000     weight = 0.00026854

band     1 # energy   -5.98476544 # occ.  2.00000000
 
ion      s     py     pz     px    dxy    dyz    dz2    dxz  x2-y2    tot
    1  0.211  0.000  0.000  0.002  0.000  0.000  0.000  0.000  0.000  0.213
    2  0.211  0.000  0.000  0.002  0.000  0.000  0.000  0.000  0.000  0.213
tot    0.422  0.001  0.000  0.004  0.000  0.000  0.000  0.000  0.000  0.427
 
band     2 # energy    3.95269828 # occ.  2.00000000
 
ion      s     py     pz     px    dxy    dyz    dz2    dxz  x2-y2    tot
    1  0.066  0.017  0.000  0.136  0.000  0.000  0.000  0.000  0.000  0.219
    2  0.066  0.017  0.000  0.136  0.000  0.000  0.000  0.000  0.000  0.219
tot    0.132  0.034  0.000  0.273  0.000  0.000  0.000  0.000  0.000  0.438
 
band     3 # energy    5.31994927 # occ.  2.00000000
 
ion      s     py     pz     px    dxy    dyz    dz2    dxz  x2-y2    tot
    1  0.000  0.000  0.211  0.000  0.000  0.000  0.000  0.000  0.000  0.211
    2  0.000  0.000  0.211  0.000  0.000  0.000  0.000  0.000  0.000  0.211
tot    0.000  0.000  0.422  0.000  0.000  0.000  0.000  0.000  0.000  0.422
 
band     4 # energy    5.31995146 # occ.  2.00000000
 
ion      s     py     pz     px    dxy    dyz    dz2    dxz  x2-y2    tot
    1  0.000  0.187  0.000  0.023  0.000  0.000  0.000  0.000  0.000  0.211
    2  0.000  0.187  0.000  0.023  0.000  0.000  0.000  0.000  0.000  0.211
tot    0.000  0.375  0.000  0.047  0.000  0.000  0.000  0.000  0.000  0.422
 
band     5 # energy    8.04690551 # occ.  0.00000000
 
ion      s     py     pz     px    dxy    dyz    dz2    dxz  x2-y2    tot
    1  0.112  0.010  0.000  0.077  0.000  0.000  0.000  0.000  0.000  0.199
    2  0.112  0.010  0.000  0.077  0.000  0.000  0.000  0.000  0.000  0.199
tot    0.224  0.019  0.000  0.154  0.000  0.000  0.000  0.000  0.000  0.397
 
band     6 # energy    8.61150939 # occ.  0.00000000
 
ion      s     py     pz     px    dxy    dyz    dz2    dxz  x2-y2    tot
    1  0.000  0.137  0.000  0.017  0.000  0.000  0.000  0.000  0.000  0.154
    2  0.000  0.137  0.000  0.017  0.000  0.000  0.000  0.000  0.000  0.154
tot    0.000  0.274  0.000  0.034  0.000  0.000  0.000  0.000  0.000  0.308
 
band     7 # energy    8.61151665 # occ.  0.00000000
 
ion      s     py     pz     px    dxy    dyz    dz2    dxz  x2-y2    tot
    1  0.000  0.000  0.154  0.000  0.000  0.000  0.000  0.000  0.000  0.154
    2  0.000  0.000  0.154  0.000  0.000  0.000  0.000  0.000  0.000  0.154
tot    0.000  0.000  0.308  0.000  0.000  0.000  0.000  0.000  0.000  0.308
 
band     8 # energy   10.22255121 # occ.  0.00000000
 
ion      s     py     pz     px    dxy    dyz    dz2    dxz  x2-y2    tot
    1  0.193  0.011  0.000  0.090  0.000  0.000  0.000  0.000  0.000  0.294
    2  0.193  0.011  0.000  0.090  0.000  0.000  0.000  0.000  0.000  0.294
tot    0.386  0.022  0.000  0.180  0.000  0.000  0.000  0.000  0.000  0.588
 

 k-point     6 :    0.16129032 0.00000000 0.00000000     weight = 0.00026854

band     1 # energy   -5.86588783 # occ.  2.00000000
 
ion      s     py     pz     px    dxy    dyz    dz2    dxz  x2-y2    tot
    1  0.211  0.000  0.000  0.003  0.000  0.000  0.000  0.000  0.000  0.214
    2  0.211  0.000  0.000  0.003  0.000  0.000  0.000  0.000  0.000  0.214
tot    0.421  0.001  0.000  0.006  0.000  0.000  0.000  0.000  0.000  0.428
 
band     2 # energy    3.35439565 # occ.  2.00000000
 
ion      s     py     pz     px    dxy    dyz    dz2    dxz  x2-y2    tot
    1  0.077  0.016  0.000  0.126  0.000  0.000  0.000  0.000  0.000  0.219
    2  0.077  0.016  0.000  0.126  0.000  0.000  0.000  0.000  0.000  0.219
tot    0.154  0.031  0.000  0.252  0.000  0.000  0.000  0.000  0.000  0.437
 
band     3 # energy    5.19722487 # occ.  2.00000000
 
ion      s     py     pz     px    dxy    dyz    dz2    dxz  x2-y2    tot
    1  0.000  0.000  0.210  0.000  0.000  0.000  0.000  0.000  0.000  0.211
    2  0.000  0.000  0.210  0.000  0.000  0.000  0.000  0.000  0.000  0.211
tot    0.000  0.000  0.421  0.000  0.000  0.000  0.000  0.000  0.000  0.421
 
band     4 # energy    5.19722707 # occ.  2.00000000
 
ion      s     py     pz     px    dxy    dyz    dz2    dxz  x2-y2    tot
    1  0.000  0.187  0.000  0.023  0.000  0.000  0.000  0.000  0.000  0.211
    2  0.000  0.187  0.000  0.023  0.000  0.000  0.000  0.000  0.000  0.211
tot    0.000  0.374  0.000  0.047  0.000  0.000  0.000  0.000  0.000  0.421
 
band     5 # energy    7.92503918 # occ.  0.00000000
 
ion      s     py     pz     px    dxy    dyz    dz2    dxz  x2-y2    tot
    1  0.128  0.008  0.000  0.066  0.000  0.000  0.000  0.000  0.000  0.202
    2  0.128  0.008  0.000  0.066  0.000  0.000  0.000  0.000  0.000  0.202
tot    0.256  0.016  0.000  0.132  0.000  0.000  0.000  0.000  0.000  0.404
 
band     6 # energy    8.78257025 # occ.  0.00000000
 
ion      s     py     pz     px    dxy    dyz    dz2    dxz  x2-y2    tot
    1  0.000  0.136  0.000  0.017  0.000  0.000  0.000  0.000  0.000  0.153
    2  0.000  0.136  0.000  0.017  0.000  0.000  0.000  0.000  0.000  0.153
tot    0.000  0.273  0.000  0.034  0.000  0.000  0.000  0.000  0.000  0.307
 
band     7 # energy    8.78257770 # occ.  0.00000000
 
ion      s     py     pz     px    dxy    dyz    dz2    dxz  x2-y2    tot
    1  0.000  0.000  0.153  0.000  0.000  0.000  0.000  0.000  0.000  0.153
    2  0.000  0.000  0.153  0.000  0.000  0.000  0.000  0.000  0.000  0.153
tot    0.000  0.000  0.307  0.000  0.000  0.000  0.000  0.000  0.000  0.307
 
band     8 # energy   10.80013711 # occ.  0.00000000
 
ion      s     py     pz     px    dxy    dyz    dz2    dxz  x2-y2    tot
    1  0.168  0.013  0.000  0.104  0.000  0.000  0.000  0.000  0.000  0.286
    2  0.168  0.013  0.000  0.104  0.000  0.000  0.000  0.000  0.000  0.286
tot    0.337  0.026  0.000  0.208  0.000  0.000  0.000  0.000  0.000  0.571
 

 k-point     7 :    0.19354839 0.00000000 0.00000000     weight = 0.00026854

band     1 # energy   -5.72195125 # occ.  2.00000000
 
ion      s     py     pz     px    dxy    dyz    dz2    dxz  x2-y2    tot
    1  0.210  0.001  0.000  0.004  0.000  0.000  0.000  0.000  0.000  0.215
    2  0.210  0.001  0.000  0.004  0.000  0.000  0.000  0.000  0.000  0.215
tot    0.420  0.001  0.000  0.009  0.000  0.000  0.000  0.000  0.000  0.430
 
band     2 # energy    2.75450098 # occ.  2.00000000
 
ion      s     py     pz     px    dxy    dyz    dz2    dxz  x2-y2    tot
    1  0.086  0.015  0.000  0.117  0.000  0.000  0.000  0.000  0.000  0.217
    2  0.086  0.015  0.000  0.117  0.000  0.000  0.000  0.000  0.000  0.217
tot    0.171  0.029  0.000  0.234  0.000  0.000  0.000  0.000  0.000  0.435
 
band     3 # energy    5.07394485 # occ.  2.00000000
 
ion      s     py     pz     px    dxy    dyz    dz2    dxz  x2-y2    tot
    1  0.000  0.000  0.211  0.000  0.000  0.000  0.000  0.000  0.000  0.211
    2  0.000  0.000  0.211  0.000  0.000  0.000  0.000  0.000  0.000  0.211
tot    0.000  0.000  0.421  0.000  0.000  0.000  0.000  0.000  0.000  0.421
 
band     4 # energy    5.07394709 # occ.  2.00000000
 
ion      s     py     pz     px    dxy    dyz    dz2    dxz  x2-y2    tot
    1  0.000  0.187  0.000  0.023  0.000  0.000  0.000  0.000  0.000  0.211
    2  0.000  0.187  0.000  0.023  0.000  0.000  0.000  0.000  0.000  0.211
tot    0.000  0.374  0.000  0.047  0.000  0.000  0.000  0.000  0.000  0.421
 
band     5 # energy    7.79639089 # occ.  0.00000000
 
ion      s     py     pz     px    dxy    dyz    dz2    dxz  x2-y2    tot
    1  0.140  0.007  0.000  0.056  0.000  0.000  0.000  0.000  0.000  0.203
    2  0.140  0.007  0.000  0.056  0.000  0.000  0.000  0.000  0.000  0.203
tot    0.280  0.014  0.000  0.113  0.000  0.000  0.000  0.000  0.000  0.407
 
band     6 # energy    8.93545963 # occ.  0.00000000
 
ion      s     py     pz     px    dxy    dyz    dz2    dxz  x2-y2    tot
    1  0.000  0.134  0.000  0.017  0.000  0.000  0.000  0.000  0.000  0.150
    2  0.000  0.134  0.000  0.017  0.000  0.000  0.000  0.000  0.000  0.150
tot    0.000  0.267  0.000  0.033  0.000  0.000  0.000  0.000  0.000  0.301
 
band     7 # energy    8.93546732 # occ.  0.00000000
 
ion      s     py     pz     px    dxy    dyz    dz2    dxz  x2-y2    tot
    1  0.000  0.000  0.150  0.000  0.000  0.000  0.000  0.000  0.000  0.150
    2  0.000  0.000  0.150  0.000  0.000  0.000  0.000  0.000  0.000  0.150
tot    0.000  0.000  0.301  0.000  0.000  0.000  0.000  0.000  0.000  0.301
 
band     8 # energy   11.38157976 # occ.  0.00000000
 
ion      s     py     pz     px    dxy    dyz    dz2    dxz  x2-y2    tot
    1  0.148  0.014  0.000  0.116  0.000  0.000  0.000  0.000  0.000  0.278
    2  0.148  0.014  0.000  0.116  0.000  0.000  0.000  0.000  0.000  0.278
tot    0.296  0.029  0.000  0.232  0.000  0.000  0.000  0.000  0.000  0.556
 

 k-point     8 :    0.22580645 0.00000000 0.00000000     weight = 0.00026854

band     1 # energy   -5.55406569 # occ.  2.00000000
 
ion      s     py     pz     px    dxy    dyz    dz2    dxz  x2-y2    tot
    1  0.210  0.001  0.000  0.006  0.000  0.000  0.000  0.000  0.000  0.216
    2  0.210  0.001  0.000  0.006  0.000  0.000  0.000  0.000  0.000  0.216
tot    0.419  0.001  0.000  0.012  0.000  0.000  0.000  0.000  0.000  0.432
 
band     2 # energy    2.16363148 # occ.  2.00000000
 
ion      s     py     pz     px    dxy    dyz    dz2    dxz  x2-y2    tot
    1  0.093  0.014  0.000  0.109  0.000  0.000  0.000  0.000  0.000  0.216
    2  0.093  0.014  0.000  0.109  0.000  0.000  0.000  0.000  0.000  0.216
tot    0.186  0.027  0.000  0.218  0.000  0.000  0.000  0.000  0.000  0.431
 
band     3 # energy    4.95555148 # occ.  2.00000000
 
ion      s     py     pz     px    dxy    dyz    dz2    dxz  x2-y2    tot
    1  0.000  0.000  0.211  0.000  0.000  0.000  0.000  0.000  0.000  0.211
    2  0.000  0.000  0.211  0.000  0.000  0.000  0.000  0.000  0.000  0.211
tot    0.000  0.000  0.422  0.000  0.000  0.000  0.000  0.000  0.000  0.422
 
band     4 # energy    4.95555380 # occ.  2.00000000
 
ion      s     py     pz     px    dxy    dyz    dz2    dxz  x2-y2    tot
    1  0.000  0.187  0.000  0.023  0.000  0.000  0.000  0.000  0.000  0.211
    2  0.000  0.187  0.000  0.023  0.000  0.000  0.000  0.000  0.000  0.211
tot    0.000  0.375  0.000  0.047  0.000  0.000  0.000  0.000  0.000  0.422
 
band     5 # energy    7.66895879 # occ.  0.00000000
 
ion      s     py     pz     px    dxy    dyz    dz2    dxz  x2-y2    tot
    1  0.150  0.006  0.000  0.048  0.000  0.000  0.000  0.000  0.000  0.204
    2  0.150  0.006  0.000  0.048  0.000  0.000  0.000  0.000  0.000  0.204
tot    0.299  0.012  0.000  0.097  0.000  0.000  0.000  0.000  0.000  0.408
 
band     6 # energy    9.05154275 # occ.  0.00000000
 
ion      s     py     pz     px    dxy    dyz    dz2    dxz  x2-y2    tot
    1  0.000  0.129  0.000  0.016  0.000  0.000  0.000  0.000  0.000  0.145
    2  0.000  0.129  0.000  0.016  0.000  0.000  0.000  0.000  0.000  0.145
tot    0.000  0.257  0.000  0.032  0.000  0.000  0.000  0.000  0.000  0.289
 
band     7 # energy    9.05155069 # occ.  0.00000000
 
ion      s     py     pz     px    dxy    dyz    dz2    dxz  x2-y2    tot
    1  0.000  0.000  0.145  0.000  0.000  0.000  0.000  0.000  0.000  0.145
    2  0.000  0.000  0.145  0.000  0.000  0.000  0.000  0.000  0.000  0.145
tot    0.000  0.000  0.289  0.000  0.000  0.000  0.000  0.000  0.000  0.289
 
band     8 # energy   11.95440717 # occ.  0.00000000
 
ion      s     py     pz     px    dxy    dyz    dz2    dxz  x2-y2    tot
    1  0.128  0.016  0.000  0.126  0.000  0.000  0.000  0.000  0.000  0.270
    2  0.128  0.016  0.000  0.126  0.000  0.000  0.000  0.000  0.000  0.270
tot    0.256  0.032  0.000  0.253  0.000  0.000  0.000  0.000  0.000  0.540
 

 k-point     9 :    0.25806452 0.00000000 0.00000000     weight = 0.00026854

band     1 # energy   -5.36376621 # occ.  2.00000000
 
ion      s     py     pz     px    dxy    dyz    dz2    dxz  x2-y2    tot
    1  0.209  0.001  0.000  0.007  0.000  0.000  0.000  0.000  0.000  0.218
    2  0.209  0.001  0.000  0.007  0.000  0.000  0.000  0.000  0.000  0.218
tot    0.419  0.002  0.000  0.015  0.000  0.000  0.000  0.000  0.000  0.435
 
band     2 # energy    1.58920317 # occ.  2.00000000
 
ion      s     py     pz     px    dxy    dyz    dz2    dxz  x2-y2    tot
    1  0.098  0.013  0.000  0.103  0.000  0.000  0.000  0.000  0.000  0.214
    2  0.098  0.013  0.000  0.103  0.000  0.000  0.000  0.000  0.000  0.214
tot    0.197  0.026  0.000  0.205  0.000  0.000  0.000  0.000  0.000  0.427
 
band     3 # energy    4.84571798 # occ.  2.00000000
 
ion      s     py     pz     px    dxy    dyz    dz2    dxz  x2-y2    tot
    1  0.000  0.000  0.211  0.000  0.000  0.000  0.000  0.000  0.000  0.211
    2  0.000  0.000  0.211  0.000  0.000  0.000  0.000  0.000  0.000  0.211
tot    0.000  0.000  0.423  0.000  0.000  0.000  0.000  0.000  0.000  0.423
 
band     4 # energy    4.84572040 # occ.  2.00000000
 
ion      s     py     pz     px    dxy    dyz    dz2    dxz  x2-y2    tot
    1  0.000  0.188  0.000  0.023  0.000  0.000  0.000  0.000  0.000  0.211
    2  0.000  0.188  0.000  0.023  0.000  0.000  0.000  0.000  0.000  0.211
tot    0.000  0.376  0.000  0.047  0.000  0.000  0.000  0.000  0.000  0.423
 
band     5 # energy    7.54816547 # occ.  0.00000000
 
ion      s     py     pz     px    dxy    dyz    dz2    dxz  x2-y2    tot
    1  0.158  0.005  0.000  0.042  0.000  0.000  0.000  0.000  0.000  0.205
    2  0.158  0.005  0.000  0.042  0.000  0.000  0.000  0.000  0.000  0.205
tot    0.316  0.010  0.000  0.083  0.000  0.000  0.000  0.000  0.000  0.409
 
band     6 # energy    9.12044721 # occ.  0.00000000
 
ion      s     py     pz     px    dxy    dyz    dz2    dxz  x2-y2    tot
    1  0.000  0.121  0.000  0.015  0.000  0.000  0.000  0.000  0.000  0.137
    2  0.000  0.121  0.000  0.015  0.000  0.000  0.000  0.000  0.000  0.137
tot    0.000  0.243  0.000  0.030  0.000  0.000  0.000  0.000  0.000  0.273
 
band     7 # energy    9.12045538 # occ.  0.00000000
 
ion      s     py     pz     px    dxy    dyz    dz2    dxz  x2-y2    tot
    1  0.000  0.000  0.137  0.000  0.000  0.000  0.000  0.000  0.000  0.137
    2  0.000  0.000  0.137  0.000  0.000  0.000  0.000  0.000  0.000  0.137
tot    0.000  0.000  0.273  0.000  0.000  0.000  0.000  0.000  0.000  0.273
 
band     8 # energy   12.50376242 # occ.  0.00000000
 
ion      s     py     pz     px    dxy    dyz    dz2    dxz  x2-y2    tot
    1  0.105  0.017  0.000  0.137  0.000  0.000  0.000  0.000  0.000  0.258
    2  0.105  0.017  0.000  0.137  0.000  0.000  0.000  0.000  0.000  0.258
tot    0.209  0.034  0.000  0.273  0.000  0.000  0.000  0.000  0.000  0.517
 

 k-point    10 :    0.29032258 0.00000000 0.00000000     weight = 0.00026854

band     1 # energy   -5.15336226 # occ.  2.00000000
 
ion      s     py     pz     px    dxy    dyz    dz2    dxz  x2-y2    tot
    1  0.209  0.001  0.000  0.009  0.000  0.000  0.000  0.000  0.000  0.219
    2  0.209  0.001  0.000  0.009  0.000  0.000  0.000  0.000  0.000  0.219
tot    0.418  0.002  0.000  0.018  0.000  0.000  0.000  0.000  0.000  0.438
 
band     2 # energy    1.03736899 # occ.  2.00000000
 
ion      s     py     pz     px    dxy    dyz    dz2    dxz  x2-y2    tot
    1  0.103  0.012  0.000  0.097  0.000  0.000  0.000  0.000  0.000  0.211
    2  0.103  0.012  0.000  0.097  0.000  0.000  0.000  0.000  0.000  0.211
tot    0.205  0.024  0.000  0.193  0.000  0.000  0.000  0.000  0.000  0.423
 
band     3 # energy    4.74687541 # occ.  2.00000000
 
ion      s     py     pz     px    dxy    dyz    dz2    dxz  x2-y2    tot
    1  0.000  0.000  0.212  0.000  0.000  0.000  0.000  0.000  0.000  0.212
    2  0.000  0.000  0.212  0.000  0.000  0.000  0.000  0.000  0.000  0.212
tot    0.000  0.000  0.424  0.000  0.000  0.000  0.000  0.000  0.000  0.424
 
band     4 # energy    4.74687795 # occ.  2.00000000
 
ion      s     py     pz     px    dxy    dyz    dz2    dxz  x2-y2    tot
    1  0.000  0.188  0.000  0.024  0.000  0.000  0.000  0.000  0.000  0.212
    2  0.000  0.188  0.000  0.024  0.000  0.000  0.000  0.000  0.000  0.212
tot    0.000  0.377  0.000  0.047  0.000  0.000  0.000  0.000  0.000  0.424
 
band     5 # energy    7.43768432 # occ.  0.00000000
 
ion      s     py     pz     px    dxy    dyz    dz2    dxz  x2-y2    tot
    1  0.165  0.004  0.000  0.036  0.000  0.000  0.000  0.000  0.000  0.205
    2  0.165  0.004  0.000  0.036  0.000  0.000  0.000  0.000  0.000  0.205
tot    0.330  0.009  0.000  0.071  0.000  0.000  0.000  0.000  0.000  0.410
 
band     6 # energy    9.14331886 # occ.  0.00000000
 
ion      s     py     pz     px    dxy    dyz    dz2    dxz  x2-y2    tot
    1  0.000  0.113  0.000  0.014  0.000  0.000  0.000  0.000  0.000  0.127
    2  0.000  0.113  0.000  0.014  0.000  0.000  0.000  0.000  0.000  0.127
tot    0.000  0.226  0.000  0.028  0.000  0.000  0.000  0.000  0.000  0.254
 
band     7 # energy    9.14332720 # occ.  0.00000000
 
ion      s     py     pz     px    dxy    dyz    dz2    dxz  x2-y2    tot
    1  0.000  0.000  0.127  0.000  0.000  0.000  0.000  0.000  0.000  0.127
    2  0.000  0.000  0.127  0.000  0.000  0.000  0.000  0.000  0.000  0.127
tot    0.000  0.000  0.254  0.000  0.000  0.000  0.000  0.000  0.000  0.254
 
band     8 # energy   12.99467334 # occ.  0.00000000
 
ion      s     py     pz     px    dxy    dyz    dz2    dxz  x2-y2    tot
    1  0.073  0.018  0.000  0.143  0.000  0.000  0.000  0.000  0.000  0.234
    2  0.073  0.018  0.000  0.143  0.000  0.000  0.000  0.000  0.000  0.234
tot    0.146  0.036  0.000  0.286  0.000  0.000  0.000  0.000  0.000  0.467
 

 k-point    11 :    0.32258065-0.00000000 0.00000000     weight = 0.00026854

band     1 # energy   -4.92646889 # occ.  2.00000000
 
ion      s     py     pz     px    dxy    dyz    dz2    dxz  x2-y2    tot
    1  0.210  0.001  0.000  0.010  0.000  0.000  0.000  0.000  0.000  0.221
    2  0.210  0.001  0.000  0.010  0.000  0.000  0.000  0.000  0.000  0.221