<?xml version="1.0" encoding="ISO-8859-1"?>
<modeling>
 <generator>
  <i name="program" type="string">vasp </i>
  <i name="version" type="string">6.2.0  </i>
  <i name="subversion" type="string">18Jan21 (build Aug 12 2022 13:00:08) complex                          parallel </i>
  <i name="platform" type="string">LinuxIFC </i>
  <i name="date" type="string">2024 11 03 </i>
  <i name="time" type="string">23:00:33 </i>
 </generator>
 <incar>
  <i type="int" name="ISTART">     1</i>
  <i type="string" name="PREC">Accurate      (Accurate strictly avoids</i>
  <i type="logical" name="ADDGRID"> T  </i>
  <i type="int" name="ISPIN">     1</i>
  <i type="int" name="ICHARG">    11</i>
  <i type="int" name="NELM">    90</i>
  <i type="int" name="NELMIN">     6</i>
  <i type="int" name="IBRION">    -1</i>
  <i name="EDIFF">      0.00000100</i>
  <i name="EDIFFG">     -0.00200000</i>
  <i type="int" name="NSW">     0</i>
  <i type="int" name="ISIF">     3</i>
  <i type="int" name="ISYM">     2</i>
  <i name="ENCUT">    450.00000000</i>
  <i type="logical" name="LREAL"> F  </i>
  <i type="int" name="ISMEAR">     0</i>
  <i name="SIGMA">      0.05000000</i>
  <i type="logical" name="LWAVE"> T  </i>
  <i type="logical" name="LCHARG"> T  </i>
  <i type="int" name="LORBIT">    11</i>
  <i type="logical" name="LASPH"> T  </i>
 </incar>
 <primitive_cell>
  <structure name="primitive_cell" >
   <crystal>
    <varray name="basis" >
     <v>       3.34872358       0.00000000       1.93338619 </v>
     <v>       1.11624119       3.15720812       1.93338619 </v>
     <v>       0.00000000       0.00000000       3.86677237 </v>
    </varray>
    <i name="volume">     40.88190434 </i>
    <varray name="rec_basis" >
     <v>       0.29862124      -0.10557851       0.00000000 </v>
     <v>       0.00000000       0.31673553       0.00000000 </v>
     <v>      -0.14931062      -0.10557851       0.25861362 </v>
    </varray>
   </crystal>
   <varray name="positions" >
    <v>       0.87500000       0.87500000       0.87500000 </v>
    <v>       0.12500000       0.12500000       0.12500000 </v>
   </varray>
  </structure>
  <varray name="primitive_index" >
   <v type="int" >        1 </v>
   <v type="int" >        2 </v>
  </varray>
 </primitive_cell>
 <kpoints>
  <generation param="Monkhorst-Pack">
   <v type="int" name="divisions">      31       31       31 </v>
   <v name="usershift">      0.00000000       0.00000000       0.00000000 </v>
   <v name="genvec1">      0.03225806      -0.00000000       0.00000000 </v>
   <v name="genvec2">      0.00000000       0.03225806       0.00000000 </v>
   <v name="genvec3">      0.00000000       0.00000000       0.03225806 </v>
   <v name="shift">      0.00000000       0.00000000       0.00000000 </v>
  </generation>
  <varray name="kpointlist" >
   <v>       0.00000000       0.00000000       0.00000000 </v>
   <v>       0.03225806       0.00000000       0.00000000 </v>
   <v>       0.06451613       0.00000000       0.00000000 </v>
   <v>       0.09677419       0.00000000       0.00000000 </v>
   <v>       0.12903226       0.00000000       0.00000000 </v>
   <v>       0.16129032       0.00000000       0.00000000 </v>
   <v>       0.19354839       0.00000000       0.00000000 </v>
   <v>       0.22580645       0.00000000       0.00000000 </v>
   <v>       0.25806452       0.00000000       0.00000000 </v>
   <v>       0.29032258       0.00000000       0.00000000 </v>
   <v>       0.32258065      -0.00000000       0.00000000 </v>
   <v>       0.35483871       0.00000000       0.00000000 </v>
   <v>       0.38709677       0.00000000       0.00000000 </v>
   <v>       0.41935484       0.00000000       0.00000000 </v>
   <v>       0.45161290       0.00000000       0.00000000 </v>
   <v>       0.48387097       0.00000000       0.00000000 </v>
   <v>       0.03225806       0.03225806       0.00000000 </v>
   <v>       0.06451613       0.03225806       0.00000000 </v>
   <v>       0.09677419       0.03225806       0.00000000 </v>
   <v>       0.12903226       0.03225806       0.00000000 </v>
   <v>       0.16129032       0.03225806       0.00000000 </v>
   <v>       0.19354839       0.03225806       0.00000000 </v>
   <v>       0.22580645       0.03225806       0.00000000 </v>
   <v>       0.25806452       0.03225806       0.00000000 </v>
   <v>       0.29032258       0.03225806       0.00000000 </v>
   <v>       0.32258065       0.03225806       0.00000000 </v>
   <v>       0.35483871       0.03225806       0.00000000 </v>
   <v>       0.38709677       0.03225806       0.00000000 </v>
   <v>       0.41935484       0.03225806       0.00000000 </v>
   <v>       0.45161290       0.03225806       0.00000000 </v>
   <v>       0.48387097       0.03225806       0.00000000 </v>
   <v>      -0.48387097       0.03225806       0.00000000 </v>
   <v>      -0.45161290       0.03225806       0.00000000 </v>
   <v>      -0.41935484       0.03225806       0.00000000 </v>
   <v>      -0.38709677       0.03225806       0.00000000 </v>
   <v>      -0.35483871       0.03225806       0.00000000 </v>
   <v>      -0.32258065       0.03225806       0.00000000 </v>
   <v>      -0.29032258       0.03225806       0.00000000 </v>
   <v>      -0.25806452       0.03225806       0.00000000 </v>
   <v>      -0.22580645       0.03225806       0.00000000 </v>
   <v>      -0.19354839       0.03225806       0.00000000 </v>
   <v>      -0.16129032       0.03225806       0.00000000 </v>
   <v>      -0.12903226       0.03225806       0.00000000 </v>
   <v>      -0.09677419       0.03225806       0.00000000 </v>
   <v>      -0.06451613       0.03225806       0.00000000 </v>
   <v>      -0.03225806       0.03225806       0.00000000 </v>
   <v>       0.06451613       0.06451613       0.00000000 </v>
   <v>       0.09677419       0.06451613       0.00000000 </v>
   <v>       0.12903226       0.06451613       0.00000000 </v>
   <v>       0.16129032       0.06451613       0.00000000 </v>
   <v>       0.19354839       0.06451613       0.00000000 </v>
   <v>       0.22580645       0.06451613       0.00000000 </v>
   <v>       0.25806452       0.06451613       0.00000000 </v>
   <v>       0.29032258       0.06451613       0.00000000 </v>
   <v>       0.32258065       0.06451613       0.00000000 </v>
   <v>       0.35483871       0.06451613       0.00000000 </v>
   <v>       0.38709677       0.06451613       0.00000000 </v>
   <v>       0.41935484       0.06451613       0.00000000 </v>
   <v>       0.45161290       0.06451613       0.00000000 </v>
   <v>       0.48387097       0.06451613       0.00000000 </v>
   <v>      -0.48387097       0.06451613       0.00000000 </v>
   <v>      -0.45161290       0.06451613       0.00000000 </v>
   <v>      -0.41935484       0.06451613       0.00000000 </v>
   <v>      -0.38709677       0.06451613       0.00000000 </v>
   <v>      -0.35483871       0.06451613       0.00000000 </v>
   <v>      -0.32258065       0.06451613       0.00000000 </v>
   <v>      -0.29032258       0.06451613       0.00000000 </v>
   <v>      -0.25806452       0.06451613       0.00000000 </v>
   <v>      -0.22580645       0.06451613       0.00000000 </v>
   <v>      -0.19354839       0.06451613       0.00000000 </v>
   <v>      -0.16129032       0.06451613       0.00000000 </v>
   <v>      -0.12903226       0.06451613       0.00000000 </v>
   <v>      -0.09677419       0.06451613       0.00000000 </v>
   <v>      -0.06451613       0.06451613       0.00000000 </v>
   <v>       0.09677419       0.09677419       0.00000000 </v>
   <v>       0.12903226       0.09677419       0.00000000 </v>
   <v>       0.16129032       0.09677419       0.00000000 </v>
   <v>       0.19354839       0.09677419       0.00000000 </v>
   <v>       0.22580645       0.09677419       0.00000000 </v>
   <v>       0.25806452       0.09677419       0.00000000 </v>
   <v>       0.29032258       0.09677419       0.00000000 </v>
   <v>       0.32258065       0.09677419       0.00000000 </v>
   <v>       0.35483871       0.09677419       0.00000000 </v>
   <v>       0.38709677       0.09677419       0.00000000 </v>
   <v>       0.41935484       0.09677419       0.00000000 </v>
   <v>       0.45161290       0.09677419       0.00000000 </v>
   <v>       0.48387097       0.09677419       0.00000000 </v>
   <v>      -0.48387097       0.09677419       0.00000000 </v>
   <v>      -0.45161290       0.09677419       0.00000000 </v>
   <v>      -0.41935484       0.09677419       0.00000000 </v>
   <v>      -0.38709677       0.09677419       0.00000000 </v>
   <v>      -0.35483871       0.09677419       0.00000000 </v>
   <v>      -0.32258065       0.09677419       0.00000000 </v>
   <v>      -0.29032258       0.09677419       0.00000000 </v>
   <v>      -0.25806452       0.09677419       0.00000000 </v>
   <v>      -0.22580645       0.09677419       0.00000000 </v>
   <v>      -0.19354839       0.09677419       0.00000000 </v>
   <v>      -0.16129032       0.09677419       0.00000000 </v>
   <v>      -0.12903226       0.09677419       0.00000000 </v>
   <v>      -0.09677419       0.09677419       0.00000000 </v>
   <v>       0.12903226       0.12903226       0.00000000 </v>
   <v>       0.16129032       0.12903226       0.00000000 </v>
   <v>       0.19354839       0.12903226       0.00000000 </v>
   <v>       0.22580645       0.12903226       0.00000000 </v>
   <v>       0.25806452       0.12903226       0.00000000 </v>
   <v>       0.29032258       0.12903226       0.00000000 </v>
   <v>       0.32258065       0.12903226       0.00000000 </v>
   <v>       0.35483871       0.12903226       0.00000000 </v>
   <v>       0.38709677       0.12903226       0.00000000 </v>
   <v>       0.41935484       0.12903226       0.00000000 </v>
   <v>       0.45161290       0.12903226       0.00000000 </v>
   <v>       0.48387097       0.12903226       0.00000000 </v>
   <v>      -0.48387097       0.12903226       0.00000000 </v>
   <v>      -0.45161290       0.12903226       0.00000000 </v>
   <v>      -0.41935484       0.12903226       0.00000000 </v>
   <v>      -0.38709677       0.12903226       0.00000000 </v>
   <v>      -0.35483871       0.12903226       0.00000000 </v>
   <v>      -0.32258065       0.12903226       0.00000000 </v>
   <v>      -0.29032258       0.12903226       0.00000000 </v>
   <v>      -0.25806452       0.12903226       0.00000000 </v>
   <v>      -0.22580645       0.12903226       0.00000000 </v>
   <v>      -0.19354839       0.12903226       0.00000000 </v>
   <v>      -0.16129032       0.12903226       0.00000000 </v>
   <v>      -0.12903226       0.12903226       0.00000000 </v>
   <v>       0.16129032       0.16129032       0.00000000 </v>
   <v>       0.19354839       0.16129032       0.00000000 </v>
   <v>       0.22580645       0.16129032       0.00000000 </v>
   <v>       0.25806452       0.16129032       0.00000000 </v>
   <v>       0.29032258       0.16129032       0.00000000 </v>
   <v>       0.32258065       0.16129032       0.00000000 </v>
   <v>       0.35483871       0.16129032       0.00000000 </v>
   <v>       0.38709677       0.16129032       0.00000000 </v>
   <v>       0.41935484       0.16129032       0.00000000 </v>
   <v>       0.45161290       0.16129032       0.00000000 </v>
   <v>       0.48387097       0.16129032       0.00000000 </v>
   <v>      -0.48387097       0.16129032       0.00000000 </v>
   <v>      -0.45161290       0.16129032       0.00000000 </v>
   <v>      -0.41935484       0.16129032       0.00000000 </v>
   <v>      -0.38709677       0.16129032       0.00000000 </v>
   <v>      -0.35483871       0.16129032       0.00000000 </v>
   <v>      -0.32258065       0.16129032       0.00000000 </v>
   <v>      -0.29032258       0.16129032       0.00000000 </v>
   <v>      -0.25806452       0.16129032       0.00000000 </v>
   <v>      -0.22580645       0.16129032       0.00000000 </v>
   <v>      -0.19354839       0.16129032       0.00000000 </v>
   <v>      -0.16129032       0.16129032       0.00000000 </v>
   <v>       0.19354839       0.19354839       0.00000000 </v>
   <v>       0.22580645       0.19354839       0.00000000 </v>
   <v>       0.25806452       0.19354839       0.00000000 </v>
   <v>       0.29032258       0.19354839       0.00000000 </v>
   <v>       0.32258065       0.19354839       0.00000000 </v>
   <v>       0.35483871       0.19354839       0.00000000 </v>
   <v>       0.38709677       0.19354839       0.00000000 </v>
   <v>       0.41935484       0.19354839       0.00000000 </v>
   <v>       0.45161290       0.19354839       0.00000000 </v>
   <v>       0.48387097       0.19354839       0.00000000 </v>
   <v>      -0.48387097       0.19354839       0.00000000 </v>
   <v>      -0.45161290       0.19354839       0.00000000 </v>
   <v>      -0.41935484       0.19354839       0.00000000 </v>
   <v>      -0.38709677       0.19354839       0.00000000 </v>
   <v>      -0.35483871       0.19354839       0.00000000 </v>
   <v>      -0.32258065       0.19354839       0.00000000 </v>
   <v>      -0.29032258       0.19354839       0.00000000 </v>
   <v>      -0.25806452       0.19354839       0.00000000 </v>
   <v>      -0.22580645       0.19354839       0.00000000 </v>
   <v>      -0.19354839       0.19354839       0.00000000 </v>
   <v>       0.22580645       0.22580645       0.00000000 </v>
   <v>       0.25806452       0.22580645       0.00000000 </v>
   <v>       0.29032258       0.22580645       0.00000000 </v>
   <v>       0.32258065       0.22580645       0.00000000 </v>
   <v>       0.35483871       0.22580645       0.00000000 </v>
   <v>       0.38709677       0.22580645       0.00000000 </v>
   <v>       0.41935484       0.22580645       0.00000000 </v>
   <v>       0.45161290       0.22580645       0.00000000 </v>
   <v>       0.48387097       0.22580645       0.00000000 </v>
   <v>      -0.48387097       0.22580645       0.00000000 </v>
   <v>      -0.45161290       0.22580645       0.00000000 </v>
   <v>      -0.41935484       0.22580645       0.00000000 </v>
   <v>      -0.38709677       0.22580645       0.00000000 </v>
   <v>      -0.35483871       0.22580645       0.00000000 </v>
   <v>      -0.32258065       0.22580645       0.00000000 </v>
   <v>      -0.29032258       0.22580645       0.00000000 </v>
   <v>      -0.25806452       0.22580645       0.00000000 </v>
   <v>      -0.22580645       0.22580645       0.00000000 </v>
   <v>       0.25806452       0.25806452       0.00000000 </v>
   <v>       0.29032258       0.25806452       0.00000000 </v>
   <v>       0.32258065       0.25806452       0.00000000 </v>
   <v>       0.35483871       0.25806452       0.00000000 </v>
   <v>       0.38709677       0.25806452       0.00000000 </v>
   <v>       0.41935484       0.25806452       0.00000000 </v>
   <v>       0.45161290       0.25806452       0.00000000 </v>
   <v>       0.48387097       0.25806452       0.00000000 </v>
   <v>      -0.48387097       0.25806452       0.00000000 </v>
   <v>      -0.45161290       0.25806452       0.00000000 </v>
   <v>      -0.41935484       0.25806452       0.00000000 </v>
   <v>      -0.38709677       0.25806452       0.00000000 </v>
   <v>      -0.35483871       0.25806452       0.00000000 </v>
   <v>      -0.32258065       0.25806452       0.00000000 </v>
   <v>      -0.29032258       0.25806452       0.00000000 </v>
   <v>      -0.25806452       0.25806452       0.00000000 </v>
   <v>       0.29032258       0.29032258       0.00000000 </v>
   <v>       0.32258065       0.29032258       0.00000000 </v>
   <v>       0.35483871       0.29032258       0.00000000 </v>
   <v>       0.38709677       0.29032258       0.00000000 </v>
   <v>       0.41935484       0.29032258       0.00000000 </v>
   <v>       0.45161290       0.29032258       0.00000000 </v>
   <v>       0.48387097       0.29032258       0.00000000 </v>
   <v>      -0.48387097       0.29032258       0.00000000 </v>
   <v>      -0.45161290       0.29032258       0.00000000 </v>
   <v>      -0.41935484       0.29032258       0.00000000 </v>
   <v>      -0.38709677       0.29032258       0.00000000 </v>
   <v>      -0.35483871       0.29032258       0.00000000 </v>
   <v>      -0.32258065       0.29032258       0.00000000 </v>
   <v>      -0.29032258       0.29032258       0.00000000 </v>
   <v>       0.32258065       0.32258065       0.00000000 </v>
   <v>       0.35483871       0.32258065       0.00000000 </v>
   <v>       0.38709677       0.32258065       0.00000000 </v>
   <v>       0.41935484       0.32258065       0.00000000 </v>
   <v>       0.45161290       0.32258065       0.00000000 </v>
   <v>       0.48387097       0.32258065       0.00000000 </v>
   <v>      -0.48387097       0.32258065       0.00000000 </v>
   <v>      -0.45161290       0.32258065       0.00000000 </v>
   <v>      -0.41935484       0.32258065       0.00000000 </v>
   <v>      -0.38709677       0.32258065       0.00000000 </v>
   <v>      -0.35483871       0.32258065       0.00000000 </v>
   <v>      -0.32258065       0.32258065       0.00000000 </v>
   <v>       0.35483871       0.35483871       0.00000000 </v>
   <v>       0.38709677       0.35483871       0.00000000 </v>
   <v>       0.41935484       0.35483871       0.00000000 </v>
   <v>       0.45161290       0.35483871       0.00000000 </v>
   <v>       0.48387097       0.35483871       0.00000000 </v>
   <v>      -0.48387097       0.35483871       0.00000000 </v>
   <v>      -0.45161290       0.35483871       0.00000000 </v>
   <v>      -0.41935484       0.35483871       0.00000000 </v>
   <v>      -0.38709677       0.35483871       0.00000000 </v>
   <v>      -0.35483871       0.35483871       0.00000000 </v>
   <v>       0.38709677       0.38709677       0.00000000 </v>
   <v>       0.41935484       0.38709677       0.00000000 </v>
   <v>       0.45161290       0.38709677       0.00000000 </v>
   <v>       0.48387097       0.38709677       0.00000000 </v>
   <v>      -0.48387097       0.38709677       0.00000000 </v>
   <v>      -0.45161290       0.38709677       0.00000000 </v>
   <v>      -0.41935484       0.38709677       0.00000000 </v>
   <v>      -0.38709677       0.38709677       0.00000000 </v>
   <v>       0.41935484       0.41935484       0.00000000 </v>
   <v>       0.45161290       0.41935484       0.00000000 </v>
   <v>       0.48387097       0.41935484       0.00000000 </v>
   <v>      -0.48387097       0.41935484       0.00000000 </v>
   <v>      -0.45161290       0.41935484       0.00000000 </v>
   <v>      -0.41935484       0.41935484       0.00000000 </v>
   <v>       0.45161290       0.45161290       0.00000000 </v>
   <v>       0.48387097       0.45161290       0.00000000 </v>
   <v>      -0.48387097       0.45161290       0.00000000 </v>
   <v>      -0.45161290       0.45161290       0.00000000 </v>
   <v>       0.48387097       0.48387097       0.00000000 </v>
   <v>      -0.48387097       0.48387097       0.00000000 </v>
   <v>       0.09677419       0.06451613       0.03225806 </v>
   <v>       0.12903226       0.06451613       0.03225806 </v>
   <v>       0.16129032       0.06451613       0.03225806 </v>
   <v>       0.19354839       0.06451613       0.03225806 </v>
   <v>       0.22580645       0.06451613       0.03225806 </v>
   <v>       0.25806452       0.06451613       0.03225806 </v>
   <v>       0.29032258       0.06451613       0.03225806 </v>
   <v>       0.32258065       0.06451613       0.03225806 </v>
   <v>       0.35483871       0.06451613       0.03225806 </v>
   <v>       0.38709677       0.06451613       0.03225806 </v>
   <v>       0.41935484       0.06451613       0.03225806 </v>
   <v>       0.45161290       0.06451613       0.03225806 </v>
   <v>       0.48387097       0.06451613       0.03225806 </v>
   <v>      -0.48387097       0.06451613       0.03225806 </v>
   <v>       0.12903226       0.09677419       0.03225806 </v>
   <v>       0.16129032       0.09677419       0.03225806 </v>
   <v>       0.19354839       0.09677419       0.03225806 </v>
   <v>       0.22580645       0.09677419       0.03225806 </v>
   <v>       0.25806452       0.09677419       0.03225806 </v>
   <v>       0.29032258       0.09677419       0.03225806 </v>
   <v>       0.32258065       0.09677419       0.03225806 </v>
   <v>       0.35483871       0.09677419       0.03225806 </v>
   <v>       0.38709677       0.09677419       0.03225806 </v>
   <v>       0.41935484       0.09677419       0.03225806 </v>
   <v>       0.45161290       0.09677419       0.03225806 </v>
   <v>       0.48387097       0.09677419       0.03225806 </v>
   <v>      -0.48387097       0.09677419       0.03225806 </v>
   <v>      -0.45161290       0.09677419       0.03225806 </v>
   <v>      -0.41935484       0.09677419       0.03225806 </v>
   <v>      -0.38709677       0.09677419       0.03225806 </v>
   <v>      -0.35483871       0.09677419       0.03225806 </v>
   <v>      -0.32258065       0.09677419       0.03225806 </v>
   <v>      -0.29032258       0.09677419       0.03225806 </v>
   <v>      -0.25806452       0.09677419       0.03225806 </v>
   <v>      -0.22580645       0.09677419       0.03225806 </v>
   <v>      -0.19354839       0.09677419       0.03225806 </v>
   <v>      -0.16129032       0.09677419       0.03225806 </v>
   <v>      -0.12903226       0.09677419       0.03225806 </v>
   <v>      -0.09677419       0.09677419       0.03225806 </v>
   <v>      -0.06451613       0.09677419       0.03225806 </v>
   <v>       0.16129032       0.12903226       0.03225806 </v>
   <v>       0.19354839       0.12903226       0.03225806 </v>
   <v>       0.22580645       0.12903226       0.03225806 </v>
   <v>       0.25806452       0.12903226       0.03225806 </v>
   <v>       0.29032258       0.12903226       0.03225806 </v>
   <v>       0.32258065       0.12903226       0.03225806 </v>
   <v>       0.35483871       0.12903226       0.03225806 </v>
   <v>       0.38709677       0.12903226       0.03225806 </v>
   <v>       0.41935484       0.12903226       0.03225806 </v>
   <v>       0.45161290       0.12903226       0.03225806 </v>
   <v>       0.48387097       0.12903226       0.03225806 </v>
   <v>      -0.48387097       0.12903226       0.03225806 </v>
   <v>      -0.45161290       0.12903226       0.03225806 </v>
   <v>      -0.41935484       0.12903226       0.03225806 </v>
   <v>      -0.38709677       0.12903226       0.03225806 </v>
   <v>      -0.35483871       0.12903226       0.03225806 </v>
   <v>      -0.32258065       0.12903226       0.03225806 </v>
   <v>      -0.29032258       0.12903226       0.03225806 </v>
   <v>      -0.25806452       0.12903226       0.03225806 </v>
   <v>      -0.22580645       0.12903226       0.03225806 </v>
   <v>      -0.19354839       0.12903226       0.03225806 </v>
   <v>      -0.16129032       0.12903226       0.03225806 </v>
   <v>      -0.12903226       0.12903226       0.03225806 </v>
   <v>      -0.09677419       0.12903226       0.03225806 </v>
   <v>       0.19354839       0.16129032       0.03225806 </v>
   <v>       0.22580645       0.16129032       0.03225806 </v>
   <v>       0.25806452       0.16129032       0.03225806 </v>
   <v>       0.29032258       0.16129032       0.03225806 </v>
   <v>       0.32258065       0.16129032       0.03225806 </v>
   <v>       0.35483871       0.16129032       0.03225806 </v>
   <v>       0.38709677       0.16129032       0.03225806 </v>
   <v>       0.41935484       0.16129032       0.03225806 </v>
   <v>       0.45161290       0.16129032       0.03225806 </v>
   <v>       0.48387097       0.16129032       0.03225806 </v>
   <v>      -0.48387097       0.16129032       0.03225806 </v>
   <v>      -0.45161290       0.16129032       0.03225806 </v>
   <v>      -0.41935484       0.16129032       0.03225806 </v>
   <v>      -0.38709677       0.16129032       0.03225806 </v>
   <v>      -0.35483871       0.16129032       0.03225806 </v>
   <v>      -0.32258065       0.16129032       0.03225806 </v>
   <v>      -0.29032258       0.16129032       0.03225806 </v>
   <v>      -0.25806452       0.16129032       0.03225806 </v>
   <v>      -0.22580645       0.16129032       0.03225806 </v>
   <v>      -0.19354839       0.16129032       0.03225806 </v>
   <v>      -0.16129032       0.16129032       0.03225806 </v>
   <v>      -0.12903226       0.16129032       0.03225806 </v>
   <v>       0.22580645       0.19354839       0.03225806 </v>
   <v>       0.25806452       0.19354839       0.03225806 </v>
   <v>       0.29032258       0.19354839       0.03225806 </v>
   <v>       0.32258065       0.19354839       0.03225806 </v>
   <v>       0.35483871       0.19354839       0.03225806 </v>
   <v>       0.38709677       0.19354839       0.03225806 </v>
   <v>       0.41935484       0.19354839       0.03225806 </v>
   <v>       0.45161290       0.19354839       0.03225806 </v>
   <v>       0.48387097       0.19354839       0.03225806 </v>
   <v>      -0.48387097       0.19354839       0.03225806 </v>
   <v>      -0.45161290       0.19354839       0.03225806 </v>
   <v>      -0.41935484       0.19354839       0.03225806 </v>
   <v>      -0.38709677       0.19354839       0.03225806 </v>
   <v>      -0.35483871       0.19354839       0.03225806 </v>
   <v>      -0.32258065       0.19354839       0.03225806 </v>
   <v>      -0.29032258       0.19354839       0.03225806 </v>
   <v>      -0.25806452       0.19354839       0.03225806 </v>
   <v>      -0.22580645       0.19354839       0.03225806 </v>
   <v>      -0.19354839       0.19354839       0.03225806 </v>
   <v>      -0.16129032       0.19354839       0.03225806 </v>
   <v>       0.25806452       0.22580645       0.03225806 </v>
   <v>       0.29032258       0.22580645       0.03225806 </v>
   <v>       0.32258065       0.22580645       0.03225806 </v>
   <v>       0.35483871       0.22580645       0.03225806 </v>
   <v>       0.38709677       0.22580645       0.03225806 </v>
   <v>       0.41935484       0.22580645       0.03225806 </v>
   <v>       0.45161290       0.22580645       0.03225806 </v>
   <v>       0.48387097       0.22580645       0.03225806 </v>
   <v>      -0.48387097       0.22580645       0.03225806 </v>
   <v>      -0.45161290       0.22580645       0.03225806 </v>
   <v>      -0.41935484       0.22580645       0.03225806 </v>
   <v>      -0.38709677       0.22580645       0.03225806 </v>
   <v>      -0.35483871       0.22580645       0.03225806 </v>
   <v>      -0.32258065       0.22580645       0.03225806 </v>
   <v>      -0.29032258       0.22580645       0.03225806 </v>
   <v>      -0.25806452       0.22580645       0.03225806 </v>
   <v>      -0.22580645       0.22580645       0.03225806 </v>
   <v>      -0.19354839       0.22580645       0.03225806 </v>
   <v>       0.29032258       0.25806452       0.03225806 </v>
   <v>       0.32258065       0.25806452       0.03225806 </v>
   <v>       0.35483871       0.25806452       0.03225806 </v>
   <v>       0.38709677       0.25806452       0.03225806 </v>
   <v>       0.41935484       0.25806452       0.03225806 </v>
   <v>       0.45161290       0.25806452       0.03225806 </v>
   <v>       0.48387097       0.25806452       0.03225806 </v>
   <v>      -0.48387097       0.25806452       0.03225806 </v>
   <v>      -0.45161290       0.25806452       0.03225806 </v>
   <v>      -0.41935484       0.25806452       0.03225806 </v>
   <v>      -0.38709677       0.25806452       0.03225806 </v>
   <v>      -0.35483871       0.25806452       0.03225806 </v>
   <v>      -0.32258065       0.25806452       0.03225806 </v>
   <v>      -0.29032258       0.25806452       0.03225806 </v>
   <v>      -0.25806452       0.25806452       0.03225806 </v>
   <v>      -0.22580645       0.25806452       0.03225806 </v>
   <v>       0.32258065       0.29032258       0.03225806 </v>
   <v>       0.35483871       0.29032258       0.03225806 </v>
   <v>       0.38709677       0.29032258       0.03225806 </v>
   <v>       0.41935484       0.29032258       0.03225806 </v>
   <v>       0.45161290       0.29032258       0.03225806 </v>
   <v>       0.48387097       0.29032258       0.03225806 </v>
   <v>      -0.48387097       0.29032258       0.03225806 </v>
   <v>      -0.45161290       0.29032258       0.03225806 </v>
   <v>      -0.41935484       0.29032258       0.03225806 </v>
   <v>      -0.38709677       0.29032258       0.03225806 </v>
   <v>      -0.35483871       0.29032258       0.03225806 </v>
   <v>      -0.32258065       0.29032258       0.03225806 </v>
   <v>      -0.29032258       0.29032258       0.03225806 </v>
   <v>      -0.25806452       0.29032258       0.03225806 </v>
   <v>       0.35483871       0.32258065       0.03225806 </v>
   <v>       0.38709677       0.32258065       0.03225806 </v>
   <v>       0.41935484       0.32258065       0.03225806 </v>
   <v>       0.45161290       0.32258065       0.03225806 </v>
   <v>       0.48387097       0.32258065       0.03225806 </v>
   <v>      -0.48387097       0.32258065       0.03225806 </v>
   <v>      -0.45161290       0.32258065       0.03225806 </v>
   <v>      -0.41935484       0.32258065       0.03225806 </v>
   <v>      -0.38709677       0.32258065       0.03225806 </v>
   <v>      -0.35483871       0.32258065       0.03225806 </v>
   <v>      -0.32258065       0.32258065       0.03225806 </v>
   <v>      -0.29032258       0.32258065       0.03225806 </v>
   <v>       0.38709677       0.35483871       0.03225806 </v>
   <v>       0.41935484       0.35483871       0.03225806 </v>
   <v>       0.45161290       0.35483871       0.03225806 </v>
   <v>       0.48387097       0.35483871       0.03225806 </v>
   <v>      -0.48387097       0.35483871       0.03225806 </v>
   <v>      -0.45161290       0.35483871       0.03225806 </v>
   <v>      -0.41935484       0.35483871       0.03225806 </v>
   <v>      -0.38709677       0.35483871       0.03225806 </v>
   <v>      -0.35483871       0.35483871       0.03225806 </v>
   <v>      -0.32258065       0.35483871       0.03225806 </v>
   <v>       0.41935484       0.38709677       0.03225806 </v>
   <v>       0.45161290       0.38709677       0.03225806 </v>
   <v>       0.48387097       0.38709677       0.03225806 </v>
   <v>      -0.48387097       0.38709677       0.03225806 </v>
   <v>      -0.45161290       0.38709677       0.03225806 </v>
   <v>      -0.41935484       0.38709677       0.03225806 </v>
   <v>      -0.38709677       0.38709677       0.03225806 </v>
   <v>      -0.35483871       0.38709677       0.03225806 </v>
   <v>       0.45161290       0.41935484       0.03225806 </v>
   <v>       0.48387097       0.41935484       0.03225806 </v>
   <v>      -0.48387097       0.41935484       0.03225806 </v>
   <v>      -0.45161290       0.41935484       0.03225806 </v>
   <v>      -0.41935484       0.41935484       0.03225806 </v>
   <v>      -0.38709677       0.41935484       0.03225806 </v>
   <v>       0.48387097       0.45161290       0.03225806 </v>
   <v>      -0.48387097       0.45161290       0.03225806 </v>
   <v>      -0.45161290       0.45161290       0.03225806 </v>
   <v>      -0.41935484       0.45161290       0.03225806 </v>
   <v>      -0.48387097       0.48387097       0.03225806 </v>
   <v>      -0.45161290       0.48387097       0.03225806 </v>
   <v>       0.19354839       0.12903226       0.06451613 </v>
   <v>       0.22580645       0.12903226       0.06451613 </v>
   <v>       0.25806452       0.12903226       0.06451613 </v>
   <v>       0.29032258       0.12903226       0.06451613 </v>
   <v>       0.32258065       0.12903226       0.06451613 </v>
   <v>       0.35483871       0.12903226       0.06451613 </v>
   <v>       0.38709677       0.12903226       0.06451613 </v>
   <v>       0.41935484       0.12903226       0.06451613 </v>
   <v>       0.45161290       0.12903226       0.06451613 </v>
   <v>       0.48387097       0.12903226       0.06451613 </v>
   <v>      -0.48387097       0.12903226       0.06451613 </v>
   <v>      -0.45161290       0.12903226       0.06451613 </v>
   <v>       0.22580645       0.16129032       0.06451613 </v>
   <v>       0.25806452       0.16129032       0.06451613 </v>
   <v>       0.29032258       0.16129032       0.06451613 </v>
   <v>       0.32258065       0.16129032       0.06451613 </v>
   <v>       0.35483871       0.16129032       0.06451613 </v>
   <v>       0.38709677       0.16129032       0.06451613 </v>
   <v>       0.41935484       0.16129032       0.06451613 </v>
   <v>       0.45161290       0.16129032       0.06451613 </v>
   <v>       0.48387097       0.16129032       0.06451613 </v>
   <v>      -0.48387097       0.16129032       0.06451613 </v>
   <v>      -0.45161290       0.16129032       0.06451613 </v>
   <v>      -0.41935484       0.16129032       0.06451613 </v>
   <v>      -0.38709677       0.16129032       0.06451613 </v>
   <v>      -0.35483871       0.16129032       0.06451613 </v>
   <v>      -0.32258065       0.16129032       0.06451613 </v>
   <v>      -0.29032258       0.16129032       0.06451613 </v>
   <v>      -0.25806452       0.16129032       0.06451613 </v>
   <v>      -0.22580645       0.16129032       0.06451613 </v>
   <v>      -0.19354839       0.16129032       0.06451613 </v>
   <v>      -0.16129032       0.16129032       0.06451613 </v>
   <v>      -0.12903226       0.16129032       0.06451613 </v>
   <v>      -0.09677419       0.16129032       0.06451613 </v>
   <v>       0.25806452       0.19354839       0.06451613 </v>
   <v>       0.29032258       0.19354839       0.06451613 </v>
   <v>       0.32258065       0.19354839       0.06451613 </v>
   <v>       0.35483871       0.19354839       0.06451613 </v>
   <v>       0.38709677       0.19354839       0.06451613 </v>
   <v>       0.41935484       0.19354839       0.06451613 </v>
   <v>       0.45161290       0.19354839       0.06451613 </v>
   <v>       0.48387097       0.19354839       0.06451613 </v>
   <v>      -0.48387097       0.19354839       0.06451613 </v>
   <v>      -0.45161290       0.19354839       0.06451613 </v>
   <v>      -0.41935484       0.19354839       0.06451613 </v>
   <v>      -0.38709677       0.19354839       0.06451613 </v>
   <v>      -0.35483871       0.19354839       0.06451613 </v>
   <v>      -0.32258065       0.19354839       0.06451613 </v>
   <v>      -0.29032258       0.19354839       0.06451613 </v>
   <v>      -0.25806452       0.19354839       0.06451613 </v>
   <v>      -0.22580645       0.19354839       0.06451613 </v>
   <v>      -0.19354839       0.19354839       0.06451613 </v>
   <v>      -0.16129032       0.19354839       0.06451613 </v>
   <v>      -0.12903226       0.19354839       0.06451613 </v>
   <v>       0.29032258       0.22580645       0.06451613 </v>
   <v>       0.32258065       0.22580645       0.06451613 </v>
   <v>       0.35483871       0.22580645       0.06451613 </v>
   <v>       0.38709677       0.22580645       0.06451613 </v>
   <v>       0.41935484       0.22580645       0.06451613 </v>
   <v>       0.45161290       0.22580645       0.06451613 </v>
   <v>       0.48387097       0.22580645       0.06451613 </v>
   <v>      -0.48387097       0.22580645       0.06451613 </v>
   <v>      -0.45161290       0.22580645       0.06451613 </v>
   <v>      -0.41935484       0.22580645       0.06451613 </v>
   <v>      -0.38709677       0.22580645       0.06451613 </v>
   <v>      -0.35483871       0.22580645       0.06451613 </v>
   <v>      -0.32258065       0.22580645       0.06451613 </v>
   <v>      -0.29032258       0.22580645       0.06451613 </v>
   <v>      -0.25806452       0.22580645       0.06451613 </v>
   <v>      -0.22580645       0.22580645       0.06451613 </v>
   <v>      -0.19354839       0.22580645       0.06451613 </v>
   <v>      -0.16129032       0.22580645       0.06451613 </v>
   <v>       0.32258065       0.25806452       0.06451613 </v>
   <v>       0.35483871       0.25806452       0.06451613 </v>
   <v>       0.38709677       0.25806452       0.06451613 </v>
   <v>       0.41935484       0.25806452       0.06451613 </v>
   <v>       0.45161290       0.25806452       0.06451613 </v>
   <v>       0.48387097       0.25806452       0.06451613 </v>
   <v>      -0.48387097       0.25806452       0.06451613 </v>
   <v>      -0.45161290       0.25806452       0.06451613 </v>
   <v>      -0.41935484       0.25806452       0.06451613 </v>
   <v>      -0.38709677       0.25806452       0.06451613 </v>
   <v>      -0.35483871       0.25806452       0.06451613 </v>
   <v>      -0.32258065       0.25806452       0.06451613 </v>
   <v>      -0.29032258       0.25806452       0.06451613 </v>
   <v>      -0.25806452       0.25806452       0.06451613 </v>
   <v>      -0.22580645       0.25806452       0.06451613 </v>
   <v>      -0.19354839       0.25806452       0.06451613 </v>
   <v>       0.35483871       0.29032258       0.06451613 </v>
   <v>       0.38709677       0.29032258       0.06451613 </v>
   <v>       0.41935484       0.29032258       0.06451613 </v>
   <v>       0.45161290       0.29032258       0.06451613 </v>
   <v>       0.48387097       0.29032258       0.06451613 </v>
   <v>      -0.48387097       0.29032258       0.06451613 </v>
   <v>      -0.45161290       0.29032258       0.06451613 </v>
   <v>      -0.41935484       0.29032258       0.06451613 </v>
   <v>      -0.38709677       0.29032258       0.06451613 </v>
   <v>      -0.35483871       0.29032258       0.06451613 </v>
   <v>      -0.32258065       0.29032258       0.06451613 </v>
   <v>      -0.29032258       0.29032258       0.06451613 </v>
   <v>      -0.25806452       0.29032258       0.06451613 </v>
   <v>      -0.22580645       0.29032258       0.06451613 </v>
   <v>       0.38709677       0.32258065       0.06451613 </v>
   <v>       0.41935484       0.32258065       0.06451613 </v>
   <v>       0.45161290       0.32258065       0.06451613 </v>
   <v>       0.48387097       0.32258065       0.06451613 </v>
   <v>      -0.48387097       0.32258065       0.06451613 </v>
   <v>      -0.45161290       0.32258065       0.06451613 </v>
   <v>      -0.41935484       0.32258065       0.06451613 </v>
   <v>      -0.38709677       0.32258065       0.06451613 </v>
   <v>      -0.35483871       0.32258065       0.06451613 </v>
   <v>      -0.32258065       0.32258065       0.06451613 </v>
   <v>      -0.29032258       0.32258065       0.06451613 </v>
   <v>      -0.25806452       0.32258065       0.06451613 </v>
   <v>       0.41935484       0.35483871       0.06451613 </v>
   <v>       0.45161290       0.35483871       0.06451613 </v>
   <v>       0.48387097       0.35483871       0.06451613 </v>
   <v>      -0.48387097       0.35483871       0.06451613 </v>
   <v>      -0.45161290       0.35483871       0.06451613 </v>
   <v>      -0.41935484       0.35483871       0.06451613 </v>
   <v>      -0.38709677       0.35483871       0.06451613 </v>
   <v>      -0.35483871       0.35483871       0.06451613 </v>
   <v>      -0.32258065       0.35483871       0.06451613 </v>
   <v>      -0.29032258       0.35483871       0.06451613 </v>
   <v>       0.45161290       0.38709677       0.06451613 </v>
   <v>       0.48387097       0.38709677       0.06451613 </v>
   <v>      -0.48387097       0.38709677       0.06451613 </v>
   <v>      -0.45161290       0.38709677       0.06451613 </v>
   <v>      -0.41935484       0.38709677       0.06451613 </v>
   <v>      -0.38709677       0.38709677       0.06451613 </v>
   <v>      -0.35483871       0.38709677       0.06451613 </v>
   <v>      -0.32258065       0.38709677       0.06451613 </v>
   <v>       0.48387097       0.41935484       0.06451613 </v>
   <v>      -0.48387097       0.41935484       0.06451613 </v>
   <v>      -0.45161290       0.41935484       0.06451613 </v>
   <v>      -0.41935484       0.41935484       0.06451613 </v>
   <v>      -0.38709677       0.41935484       0.06451613 </v>
   <v>      -0.35483871       0.41935484       0.06451613 </v>
   <v>      -0.48387097       0.45161290       0.06451613 </v>
   <v>      -0.45161290       0.45161290       0.06451613 </v>
   <v>      -0.41935484       0.45161290       0.06451613 </v>
   <v>      -0.38709677       0.45161290       0.06451613 </v>
   <v>      -0.45161290       0.48387097       0.06451613 </v>
   <v>      -0.41935484       0.48387097       0.06451613 </v>
   <v>       0.29032258       0.19354839       0.09677419 </v>
   <v>       0.32258065       0.19354839       0.09677419 </v>
   <v>       0.35483871       0.19354839       0.09677419 </v>
   <v>       0.38709677       0.19354839       0.09677419 </v>
   <v>       0.41935484       0.19354839       0.09677419 </v>
   <v>       0.45161290       0.19354839       0.09677419 </v>
   <v>       0.48387097       0.19354839       0.09677419 </v>
   <v>      -0.48387097       0.19354839       0.09677419 </v>
   <v>      -0.45161290       0.19354839       0.09677419 </v>
   <v>      -0.41935484       0.19354839       0.09677419 </v>
   <v>       0.32258065       0.22580645       0.09677419 </v>
   <v>       0.35483871       0.22580645       0.09677419 </v>
   <v>       0.38709677       0.22580645       0.09677419 </v>
   <v>       0.41935484       0.22580645       0.09677419 </v>
   <v>       0.45161290       0.22580645       0.09677419 </v>
   <v>       0.48387097       0.22580645       0.09677419 </v>
   <v>      -0.48387097       0.22580645       0.09677419 </v>
   <v>      -0.45161290       0.22580645       0.09677419 </v>
   <v>      -0.41935484       0.22580645       0.09677419 </v>
   <v>      -0.38709677       0.22580645       0.09677419 </v>
   <v>      -0.35483871       0.22580645       0.09677419 </v>
   <v>      -0.32258065       0.22580645       0.09677419 </v>
   <v>      -0.29032258       0.22580645       0.09677419 </v>
   <v>      -0.25806452       0.22580645       0.09677419 </v>
   <v>      -0.22580645       0.22580645       0.09677419 </v>
   <v>      -0.19354839       0.22580645       0.09677419 </v>
   <v>      -0.16129032       0.22580645       0.09677419 </v>
   <v>      -0.12903226       0.22580645       0.09677419 </v>
   <v>       0.35483871       0.25806452       0.09677419 </v>
   <v>       0.38709677       0.25806452       0.09677419 </v>
   <v>       0.41935484       0.25806452       0.09677419 </v>
   <v>       0.45161290       0.25806452       0.09677419 </v>
   <v>       0.48387097       0.25806452       0.09677419 </v>
   <v>      -0.48387097       0.25806452       0.09677419 </v>
   <v>      -0.45161290       0.25806452       0.09677419 </v>
   <v>      -0.41935484       0.25806452       0.09677419 </v>
   <v>      -0.38709677       0.25806452       0.09677419 </v>
   <v>      -0.35483871       0.25806452       0.09677419 </v>
   <v>      -0.32258065       0.25806452       0.09677419 </v>
   <v>      -0.29032258       0.25806452       0.09677419 </v>
   <v>      -0.25806452       0.25806452       0.09677419 </v>
   <v>      -0.22580645       0.25806452       0.09677419 </v>
   <v>      -0.19354839       0.25806452       0.09677419 </v>
   <v>      -0.16129032       0.25806452       0.09677419 </v>
   <v>       0.38709677       0.29032258       0.09677419 </v>
   <v>       0.41935484       0.29032258       0.09677419 </v>
   <v>       0.45161290       0.29032258       0.09677419 </v>
   <v>       0.48387097       0.29032258       0.09677419 </v>
   <v>      -0.48387097       0.29032258       0.09677419 </v>
   <v>      -0.45161290       0.29032258       0.09677419 </v>
   <v>      -0.41935484       0.29032258       0.09677419 </v>
   <v>      -0.38709677       0.29032258       0.09677419 </v>
   <v>      -0.35483871       0.29032258       0.09677419 </v>
   <v>      -0.32258065       0.29032258       0.09677419 </v>
   <v>      -0.29032258       0.29032258       0.09677419 </v>
   <v>      -0.25806452       0.29032258       0.09677419 </v>
   <v>      -0.22580645       0.29032258       0.09677419 </v>
   <v>      -0.19354839       0.29032258       0.09677419 </v>
   <v>       0.41935484       0.32258065       0.09677419 </v>
   <v>       0.45161290       0.32258065       0.09677419 </v>
   <v>       0.48387097       0.32258065       0.09677419 </v>
   <v>      -0.48387097       0.32258065       0.09677419 </v>
   <v>      -0.45161290       0.32258065       0.09677419 </v>
   <v>      -0.41935484       0.32258065       0.09677419 </v>
   <v>      -0.38709677       0.32258065       0.09677419 </v>
   <v>      -0.35483871       0.32258065       0.09677419 </v>
   <v>      -0.32258065       0.32258065       0.09677419 </v>
   <v>      -0.29032258       0.32258065       0.09677419 </v>
   <v>      -0.25806452       0.32258065       0.09677419 </v>
   <v>      -0.22580645       0.32258065       0.09677419 </v>
   <v>       0.45161290       0.35483871       0.09677419 </v>
   <v>       0.48387097       0.35483871       0.09677419 </v>
   <v>      -0.48387097       0.35483871       0.09677419 </v>
   <v>      -0.45161290       0.35483871       0.09677419 </v>
   <v>      -0.41935484       0.35483871       0.09677419 </v>
   <v>      -0.38709677       0.35483871       0.09677419 </v>
   <v>      -0.35483871       0.35483871       0.09677419 </v>
   <v>      -0.32258065       0.35483871       0.09677419 </v>
   <v>      -0.29032258       0.35483871       0.09677419 </v>
   <v>      -0.25806452       0.35483871       0.09677419 </v>
   <v>       0.48387097       0.38709677       0.09677419 </v>
   <v>      -0.48387097       0.38709677       0.09677419 </v>
   <v>      -0.45161290       0.38709677       0.09677419 </v>
   <v>      -0.41935484       0.38709677       0.09677419 </v>
   <v>      -0.38709677       0.38709677       0.09677419 </v>
   <v>      -0.35483871       0.38709677       0.09677419 </v>
   <v>      -0.32258065       0.38709677       0.09677419 </v>
   <v>      -0.29032258       0.38709677       0.09677419 </v>
   <v>      -0.48387097       0.41935484       0.09677419 </v>
   <v>      -0.45161290       0.41935484       0.09677419 </v>
   <v>      -0.41935484       0.41935484       0.09677419 </v>
   <v>      -0.38709677       0.41935484       0.09677419 </v>
   <v>      -0.35483871       0.41935484       0.09677419 </v>
   <v>      -0.32258065       0.41935484       0.09677419 </v>
   <v>      -0.45161290       0.45161290       0.09677419 </v>
   <v>      -0.41935484       0.45161290       0.09677419 </v>
   <v>      -0.38709677       0.45161290       0.09677419 </v>
   <v>      -0.35483871       0.45161290       0.09677419 </v>
   <v>      -0.41935484       0.48387097       0.09677419 </v>
   <v>      -0.38709677       0.48387097       0.09677419 </v>
   <v>       0.38709677       0.25806452       0.12903226 </v>
   <v>       0.41935484       0.25806452       0.12903226 </v>
   <v>       0.45161290       0.25806452       0.12903226 </v>
   <v>       0.48387097       0.25806452       0.12903226 </v>
   <v>      -0.48387097       0.25806452       0.12903226 </v>
   <v>      -0.45161290       0.25806452       0.12903226 </v>
   <v>      -0.41935484       0.25806452       0.12903226 </v>
   <v>      -0.38709677       0.25806452       0.12903226 </v>
   <v>       0.41935484       0.29032258       0.12903226 </v>
   <v>       0.45161290       0.29032258       0.12903226 </v>
   <v>       0.48387097       0.29032258       0.12903226 </v>
   <v>      -0.48387097       0.29032258       0.12903226 </v>
   <v>      -0.45161290       0.29032258       0.12903226 </v>
   <v>      -0.41935484       0.29032258       0.12903226 </v>
   <v>      -0.38709677       0.29032258       0.12903226 </v>
   <v>      -0.35483871       0.29032258       0.12903226 </v>
   <v>      -0.32258065       0.29032258       0.12903226 </v>
   <v>      -0.29032258       0.29032258       0.12903226 </v>
   <v>      -0.25806452       0.29032258       0.12903226 </v>
   <v>      -0.22580645       0.29032258       0.12903226 </v>
   <v>      -0.19354839       0.29032258       0.12903226 </v>
   <v>      -0.16129032       0.29032258       0.12903226 </v>
   <v>       0.45161290       0.32258065       0.12903226 </v>
   <v>       0.48387097       0.32258065       0.12903226 </v>
   <v>      -0.48387097       0.32258065       0.12903226 </v>
   <v>      -0.45161290       0.32258065       0.12903226 </v>
   <v>      -0.41935484       0.32258065       0.12903226 </v>
   <v>      -0.38709677       0.32258065       0.12903226 </v>
   <v>      -0.35483871       0.32258065       0.12903226 </v>
   <v>      -0.32258065       0.32258065       0.12903226 </v>
   <v>      -0.29032258       0.32258065       0.12903226 </v>
   <v>      -0.25806452       0.32258065       0.12903226 </v>
   <v>      -0.22580645       0.32258065       0.12903226 </v>
   <v>      -0.19354839       0.32258065       0.12903226 </v>
   <v>       0.48387097       0.35483871       0.12903226 </v>
   <v>      -0.48387097       0.35483871       0.12903226 </v>
   <v>      -0.45161290       0.35483871       0.12903226 </v>
   <v>      -0.41935484       0.35483871       0.12903226 </v>
   <v>      -0.38709677       0.35483871       0.12903226 </v>
   <v>      -0.35483871       0.35483871       0.12903226 </v>
   <v>      -0.32258065       0.35483871       0.12903226 </v>
   <v>      -0.29032258       0.35483871       0.12903226 </v>
   <v>      -0.25806452       0.35483871       0.12903226 </v>
   <v>      -0.22580645       0.35483871       0.12903226 </v>
   <v>      -0.48387097       0.38709677       0.12903226 </v>
   <v>      -0.45161290       0.38709677       0.12903226 </v>
   <v>      -0.41935484       0.38709677       0.12903226 </v>
   <v>      -0.38709677       0.38709677       0.12903226 </v>
   <v>      -0.35483871       0.38709677       0.12903226 </v>
   <v>      -0.32258065       0.38709677       0.12903226 </v>
   <v>      -0.29032258       0.38709677       0.12903226 </v>
   <v>      -0.25806452       0.38709677       0.12903226 </v>
   <v>      -0.45161290       0.41935484       0.12903226 </v>
   <v>      -0.41935484       0.41935484       0.12903226 </v>
   <v>      -0.38709677       0.41935484       0.12903226 </v>
   <v>      -0.35483871       0.41935484       0.12903226 </v>
   <v>      -0.32258065       0.41935484       0.12903226 </v>
   <v>      -0.29032258       0.41935484       0.12903226 </v>
   <v>      -0.41935484       0.45161290       0.12903226 </v>
   <v>      -0.38709677       0.45161290       0.12903226 </v>
   <v>      -0.35483871       0.45161290       0.12903226 </v>
   <v>      -0.32258065       0.45161290       0.12903226 </v>
   <v>      -0.38709677       0.48387097       0.12903226 </v>
   <v>      -0.35483871       0.48387097       0.12903226 </v>
   <v>       0.48387097       0.32258065       0.16129032 </v>
   <v>      -0.48387097       0.32258065       0.16129032 </v>
   <v>      -0.45161290       0.32258065       0.16129032 </v>
   <v>      -0.41935484       0.32258065       0.16129032 </v>
   <v>      -0.38709677       0.32258065       0.16129032 </v>
   <v>      -0.35483871       0.32258065       0.16129032 </v>
   <v>      -0.48387097       0.35483871       0.16129032 </v>
   <v>      -0.45161290       0.35483871       0.16129032 </v>
   <v>      -0.41935484       0.35483871       0.16129032 </v>
   <v>      -0.38709677       0.35483871       0.16129032 </v>
   <v>      -0.35483871       0.35483871       0.16129032 </v>
   <v>      -0.32258065       0.35483871       0.16129032 </v>
   <v>      -0.29032258       0.35483871       0.16129032 </v>
   <v>      -0.25806452       0.35483871       0.16129032 </v>
   <v>      -0.22580645       0.35483871       0.16129032 </v>
   <v>      -0.19354839       0.35483871       0.16129032 </v>
   <v>      -0.45161290       0.38709677       0.16129032 </v>
   <v>      -0.41935484       0.38709677       0.16129032 </v>
   <v>      -0.38709677       0.38709677       0.16129032 </v>
   <v>      -0.35483871       0.38709677       0.16129032 </v>
   <v>      -0.32258065       0.38709677       0.16129032 </v>
   <v>      -0.29032258       0.38709677       0.16129032 </v>
   <v>      -0.25806452       0.38709677       0.16129032 </v>
   <v>      -0.22580645       0.38709677       0.16129032 </v>
   <v>      -0.41935484       0.41935484       0.16129032 </v>
   <v>      -0.38709677       0.41935484       0.16129032 </v>
   <v>      -0.35483871       0.41935484       0.16129032 </v>
   <v>      -0.32258065       0.41935484       0.16129032 </v>
   <v>      -0.29032258       0.41935484       0.16129032 </v>
   <v>      -0.25806452       0.41935484       0.16129032 </v>
   <v>      -0.38709677       0.45161290       0.16129032 </v>
   <v>      -0.35483871       0.45161290       0.16129032 </v>
   <v>      -0.32258065       0.45161290       0.16129032 </v>
   <v>      -0.29032258       0.45161290       0.16129032 </v>
   <v>      -0.35483871       0.48387097       0.16129032 </v>
   <v>      -0.32258065       0.48387097       0.16129032 </v>
   <v>      -0.41935484       0.38709677       0.19354839 </v>
   <v>      -0.38709677       0.38709677       0.19354839 </v>
   <v>      -0.35483871       0.38709677       0.19354839 </v>
   <v>      -0.32258065       0.38709677       0.19354839 </v>
   <v>      -0.38709677       0.41935484       0.19354839 </v>
   <v>      -0.35483871       0.41935484       0.19354839 </v>
   <v>      -0.32258065       0.41935484       0.19354839 </v>
   <v>      -0.29032258       0.41935484       0.19354839 </v>
   <v>      -0.25806452       0.41935484       0.19354839 </v>
   <v>      -0.22580645       0.41935484       0.19354839 </v>
   <v>      -0.35483871       0.45161290       0.19354839 </v>
   <v>      -0.32258065       0.45161290       0.19354839 </v>
   <v>      -0.29032258       0.45161290       0.19354839 </v>
   <v>      -0.25806452       0.45161290       0.19354839 </v>
   <v>      -0.32258065       0.48387097       0.19354839 </v>
   <v>      -0.29032258       0.48387097       0.19354839 </v>
   <v>      -0.32258065       0.45161290       0.22580645 </v>
   <v>      -0.29032258       0.45161290       0.22580645 </v>
   <v>      -0.29032258       0.48387097       0.22580645 </v>
   <v>      -0.25806452       0.48387097       0.22580645 </v>
  </varray>
  <varray name="weights" >
   <v>       0.00003357 </v>
   <v>       0.00026854 </v>
   <v>       0.00026854 </v>
   <v>       0.00026854 </v>
   <v>       0.00026854 </v>
   <v>       0.00026854 </v>
   <v>       0.00026854 </v>
   <v>       0.00026854 </v>
   <v>       0.00026854 </v>
   <v>       0.00026854 </v>
   <v>       0.00026854 </v>
   <v>       0.00026854 </v>
   <v>       0.00026854 </v>
   <v>       0.00026854 </v>
   <v>       0.00026854 </v>
   <v>       0.00026854 </v>
   <v>       0.00020140 </v>
   <v>       0.00080561 </v>
   <v>       0.00080561 </v>
   <v>       0.00080561 </v>
   <v>       0.00080561 </v>
   <v>       0.00080561 </v>
   <v>       0.00080561 </v>
   <v>       0.00080561 </v>
   <v>       0.00080561 </v>
   <v>       0.00080561 </v>
   <v>       0.00080561 </v>
   <v>       0.00080561 </v>
   <v>       0.00080561 </v>
   <v>       0.00080561 </v>
   <v>       0.00080561 </v>
   <v>       0.00080561 </v>
   <v>       0.00080561 </v>
   <v>       0.00080561 </v>
   <v>       0.00080561 </v>
   <v>       0.00080561 </v>
   <v>       0.00080561 </v>
   <v>       0.00080561 </v>
   <v>       0.00080561 </v>
   <v>       0.00080561 </v>
   <v>       0.00080561 </v>
   <v>       0.00080561 </v>
   <v>       0.00080561 </v>
   <v>       0.00080561 </v>
   <v>       0.00080561 </v>
   <v>       0.00040281 </v>
   <v>       0.00020140 </v>
   <v>       0.00080561 </v>
   <v>       0.00080561 </v>
   <v>       0.00080561 </v>
   <v>       0.00080561 </v>
   <v>       0.00080561 </v>
   <v>       0.00080561 </v>
   <v>       0.00080561 </v>
   <v>       0.00080561 </v>
   <v>       0.00080561 </v>
   <v>       0.00080561 </v>
   <v>       0.00080561 </v>
   <v>       0.00080561 </v>
   <v>       0.00080561 </v>
   <v>       0.00080561 </v>
   <v>       0.00080561 </v>
   <v>       0.00080561 </v>
   <v>       0.00080561 </v>
   <v>       0.00080561 </v>
   <v>       0.00080561 </v>
   <v>       0.00080561 </v>
   <v>       0.00080561 </v>
   <v>       0.00080561 </v>
   <v>       0.00080561 </v>
   <v>       0.00080561 </v>
   <v>       0.00080561 </v>
   <v>       0.00080561 </v>
   <v>       0.00040281 </v>
   <v>       0.00020140 </v>
   <v>       0.00080561 </v>
   <v>       0.00080561 </v>
   <v>       0.00080561 </v>
   <v>       0.00080561 </v>
   <v>       0.00080561 </v>
   <v>       0.00080561 </v>
   <v>       0.00080561 </v>
   <v>       0.00080561 </v>
   <v>       0.00080561 </v>
   <v>       0.00080561 </v>
   <v>       0.00080561 </v>
   <v>       0.00080561 </v>
   <v>       0.00080561 </v>
   <v>       0.00080561 </v>
   <v>       0.00080561 </v>
   <v>       0.00080561 </v>
   <v>       0.00080561 </v>
   <v>       0.00080561 </v>
   <v>       0.00080561 </v>
   <v>       0.00080561 </v>
   <v>       0.00080561 </v>
   <v>       0.00080561 </v>
   <v>       0.00080561 </v>
   <v>       0.00080561 </v>
   <v>       0.00040281 </v>
   <v>       0.00020140 </v>
   <v>       0.00080561 </v>
   <v>       0.00080561 </v>
   <v>       0.00080561 </v>
   <v>       0.00080561 </v>
   <v>       0.00080561 </v>
   <v>       0.00080561 </v>
   <v>       0.00080561 </v>
   <v>       0.00080561 </v>
   <v>       0.00080561 </v>
   <v>       0.00080561 </v>
   <v>       0.00080561 </v>
   <v>       0.00080561 </v>
   <v>       0.00080561 </v>
   <v>       0.00080561 </v>
   <v>       0.00080561 </v>
   <v>       0.00080561 </v>
   <v>       0.00080561 </v>
   <v>       0.00080561 </v>
   <v>       0.00080561 </v>
   <v>       0.00080561 </v>
   <v>       0.00080561 </v>
   <v>       0.00080561 </v>
   <v>       0.00040281 </v>
   <v>       0.00020140 </v>
   <v>       0.00080561 </v>
   <v>       0.00080561 </v>
   <v>       0.00080561 </v>
   <v>       0.00080561 </v>
   <v>       0.00080561 </v>
   <v>       0.00080561 </v>
   <v>       0.00080561 </v>
   <v>       0.00080561 </v>
   <v>       0.00080561 </v>
   <v>       0.00080561 </v>
   <v>       0.00080561 </v>
   <v>       0.00080561 </v>
   <v>       0.00080561 </v>
   <v>       0.00080561 </v>
   <v>       0.00080561 </v>
   <v>       0.00080561 </v>
   <v>       0.00080561 </v>
   <v>       0.00080561 </v>
   <v>       0.00080561 </v>
   <v>       0.00080561 </v>
   <v>       0.00040281 </v>
   <v>       0.00020140 </v>
   <v>       0.00080561 </v>
   <v>       0.00080561 </v>
   <v>       0.00080561 </v>
   <v>       0.00080561 </v>
   <v>       0.00080561 </v>
   <v>       0.00080561 </v>
   <v>       0.00080561 </v>
   <v>       0.00080561 </v>
   <v>       0.00080561 </v>
   <v>       0.00080561 </v>
   <v>       0.00080561 </v>
   <v>       0.00080561 </v>
   <v>       0.00080561 </v>
   <v>       0.00080561 </v>
   <v>       0.00080561 </v>
   <v>       0.00080561 </v>
   <v>       0.00080561 </v>
   <v>       0.00080561 </v>
   <v>       0.00040281 </v>
   <v>       0.00020140 </v>
   <v>       0.00080561 </v>
   <v>       0.00080561 </v>
   <v>       0.00080561 </v>
   <v>       0.00080561 </v>
   <v>       0.00080561 </v>
   <v>       0.00080561 </v>
   <v>       0.00080561 </v>
   <v>       0.00080561 </v>
   <v>       0.00080561 </v>
   <v>       0.00080561 </v>
   <v>       0.00080561 </v>
   <v>       0.00080561 </v>
   <v>       0.00080561 </v>
   <v>       0.00080561 </v>
   <v>       0.00080561 </v>
   <v>       0.00080561 </v>
   <v>       0.00040281 </v>
   <v>       0.00020140 </v>
   <v>       0.00080561 </v>
   <v>       0.00080561 </v>
   <v>       0.00080561 </v>
   <v>       0.00080561 </v>
   <v>       0.00080561 </v>
   <v>       0.00080561 </v>
   <v>       0.00080561 </v>
   <v>       0.00080561 </v>
   <v>       0.00080561 </v>
   <v>       0.00080561 </v>
   <v>       0.00080561 </v>
   <v>       0.00080561 </v>
   <v>       0.00080561 </v>
   <v>       0.00080561 </v>
   <v>       0.00040281 </v>
   <v>       0.00020140 </v>
   <v>       0.00080561 </v>
   <v>       0.00080561 </v>
   <v>       0.00080561 </v>
   <v>       0.00080561 </v>
   <v>       0.00080561 </v>
   <v>       0.00080561 </v>
   <v>       0.00080561 </v>
   <v>       0.00080561 </v>
   <v>       0.00080561 </v>
   <v>       0.00080561 </v>
   <v>       0.00080561 </v>
   <v>       0.00080561 </v>
   <v>       0.00040281 </v>
   <v>       0.00020140 </v>
   <v>       0.00080561 </v>
   <v>       0.00080561 </v>
   <v>       0.00080561 </v>
   <v>       0.00080561 </v>
   <v>       0.00080561 </v>
   <v>       0.00080561 </v>
   <v>       0.00080561 </v>
   <v>       0.00080561 </v>
   <v>       0.00080561 </v>
   <v>       0.00080561 </v>
   <v>       0.00040281 </v>
   <v>       0.00020140 </v>
   <v>       0.00080561 </v>
   <v>       0.00080561 </v>
   <v>       0.00080561 </v>
   <v>       0.00080561 </v>
   <v>       0.00080561 </v>
   <v>       0.00080561 </v>
   <v>       0.00080561 </v>
   <v>       0.00080561 </v>
   <v>       0.00040281 </v>
   <v>       0.00020140 </v>
   <v>       0.00080561 </v>
   <v>       0.00080561 </v>
   <v>       0.00080561 </v>
   <v>       0.00080561 </v>
   <v>       0.00080561 </v>
   <v>       0.00080561 </v>
   <v>       0.00040281 </v>
   <v>       0.00020140 </v>
   <v>       0.00080561 </v>
   <v>       0.00080561 </v>
   <v>       0.00080561 </v>
   <v>       0.00080561 </v>
   <v>       0.00040281 </v>
   <v>       0.00020140 </v>
   <v>       0.00080561 </v>
   <v>       0.00080561 </v>
   <v>       0.00040281 </v>
   <v>       0.00020140 </v>
   <v>       0.00040281 </v>
   <v>       0.00080561 </v>
   <v>       0.00161122 </v>
   <v>       0.00161122 </v>
   <v>       0.00161122 </v>
   <v>       0.00161122 </v>
   <v>       0.00161122 </v>
   <v>       0.00161122 </v>
   <v>       0.00161122 </v>
   <v>       0.00161122 </v>
   <v>       0.00161122 </v>
   <v>       0.00161122 </v>
   <v>       0.00161122 </v>
   <v>       0.00161122 </v>
   <v>       0.00161122 </v>
   <v>       0.00080561 </v>
   <v>       0.00161122 </v>
   <v>       0.00161122 </v>
   <v>       0.00161122 </v>
   <v>       0.00161122 </v>
   <v>       0.00161122 </v>
   <v>       0.00161122 </v>
   <v>       0.00161122 </v>
   <v>       0.00161122 </v>
   <v>       0.00161122 </v>
   <v>       0.00161122 </v>
   <v>       0.00161122 </v>
   <v>       0.00161122 </v>
   <v>       0.00161122 </v>
   <v>       0.00161122 </v>
   <v>       0.00161122 </v>
   <v>       0.00161122 </v>
   <v>       0.00161122 </v>
   <v>       0.00161122 </v>
   <v>       0.00161122 </v>
   <v>       0.00161122 </v>
   <v>       0.00161122 </v>
   <v>       0.00161122 </v>
   <v>       0.00161122 </v>
   <v>       0.00161122 </v>
   <v>       0.00080561 </v>
   <v>       0.00080561 </v>
   <v>       0.00161122 </v>
   <v>       0.00161122 </v>
   <v>       0.00161122 </v>
   <v>       0.00161122 </v>
   <v>       0.00161122 </v>
   <v>       0.00161122 </v>
   <v>       0.00161122 </v>
   <v>       0.00161122 </v>
   <v>       0.00161122 </v>
   <v>       0.00161122 </v>
   <v>       0.00161122 </v>
   <v>       0.00161122 </v>
   <v>       0.00161122 </v>
   <v>       0.00161122 </v>
   <v>       0.00161122 </v>
   <v>       0.00161122 </v>
   <v>       0.00161122 </v>
   <v>       0.00161122 </v>
   <v>       0.00161122 </v>
   <v>       0.00161122 </v>
   <v>       0.00161122 </v>
   <v>       0.00161122 </v>
   <v>       0.00080561 </v>
   <v>       0.00080561 </v>
   <v>       0.00161122 </v>
   <v>       0.00161122 </v>
   <v>       0.00161122 </v>
   <v>       0.00161122 </v>
   <v>       0.00161122 </v>
   <v>       0.00161122 </v>
   <v>       0.00161122 </v>
   <v>       0.00161122 </v>
   <v>       0.00161122 </v>
   <v>       0.00161122 </v>
   <v>       0.00161122 </v>
   <v>       0.00161122 </v>
   <v>       0.00161122 </v>
   <v>       0.00161122 </v>
   <v>       0.00161122 </v>
   <v>       0.00161122 </v>
   <v>       0.00161122 </v>
   <v>       0.00161122 </v>
   <v>       0.00161122 </v>
   <v>       0.00161122 </v>
   <v>       0.00080561 </v>
   <v>       0.00080561 </v>
   <v>       0.00161122 </v>
   <v>       0.00161122 </v>
   <v>       0.00161122 </v>
   <v>       0.00161122 </v>
   <v>       0.00161122 </v>
   <v>       0.00161122 </v>
   <v>       0.00161122 </v>
   <v>       0.00161122 </v>
   <v>       0.00161122 </v>
   <v>       0.00161122 </v>
   <v>       0.00161122 </v>
   <v>       0.00161122 </v>
   <v>       0.00161122 </v>
   <v>       0.00161122 </v>
   <v>       0.00161122 </v>
   <v>       0.00161122 </v>
   <v>       0.00161122 </v>
   <v>       0.00161122 </v>
   <v>       0.00080561 </v>
   <v>       0.00080561 </v>
   <v>       0.00161122 </v>
   <v>       0.00161122 </v>
   <v>       0.00161122 </v>
   <v>       0.00161122 </v>
   <v>       0.00161122 </v>
   <v>       0.00161122 </v>
   <v>       0.00161122 </v>
   <v>       0.00161122 </v>
   <v>       0.00161122 </v>
   <v>       0.00161122 </v>
   <v>       0.00161122 </v>
   <v>       0.00161122 </v>
   <v>       0.00161122 </v>
   <v>       0.00161122 </v>
   <v>       0.00161122 </v>
   <v>       0.00161122 </v>
   <v>       0.00080561 </v>
   <v>       0.00080561 </v>
   <v>       0.00161122 </v>
   <v>       0.00161122 </v>
   <v>       0.00161122 </v>
   <v>       0.00161122 </v>
   <v>       0.00161122 </v>
   <v>       0.00161122 </v>
   <v>       0.00161122 </v>
   <v>       0.00161122 </v>
   <v>       0.00161122 </v>
   <v>       0.00161122 </v>
   <v>       0.00161122 </v>
   <v>       0.00161122 </v>
   <v>       0.00161122 </v>
   <v>       0.00161122 </v>
   <v>       0.00080561 </v>
   <v>       0.00080561 </v>
   <v>       0.00161122 </v>
   <v>       0.00161122 </v>
   <v>       0.00161122 </v>
   <v>       0.00161122 </v>
   <v>       0.00161122 </v>
   <v>       0.00161122 </v>
   <v>       0.00161122 </v>
   <v>       0.00161122 </v>
   <v>       0.00161122 </v>
   <v>       0.00161122 </v>
   <v>       0.00161122 </v>
   <v>       0.00161122 </v>
   <v>       0.00080561 </v>
   <v>       0.00080561 </v>
   <v>       0.00161122 </v>
   <v>       0.00161122 </v>
   <v>       0.00161122 </v>
   <v>       0.00161122 </v>
   <v>       0.00161122 </v>
   <v>       0.00161122 </v>
   <v>       0.00161122 </v>
   <v>       0.00161122 </v>
   <v>       0.00161122 </v>
   <v>       0.00161122 </v>
   <v>       0.00080561 </v>
   <v>       0.00080561 </v>
   <v>       0.00161122 </v>
   <v>       0.00161122 </v>
   <v>       0.00161122 </v>
   <v>       0.00161122 </v>
   <v>       0.00161122 </v>
   <v>       0.00161122 </v>
   <v>       0.00161122 </v>
   <v>       0.00161122 </v>
   <v>       0.00080561 </v>
   <v>       0.00080561 </v>
   <v>       0.00161122 </v>
   <v>       0.00161122 </v>
   <v>       0.00161122 </v>
   <v>       0.00161122 </v>
   <v>       0.00161122 </v>
   <v>       0.00161122 </v>
   <v>       0.00080561 </v>
   <v>       0.00080561 </v>
   <v>       0.00161122 </v>
   <v>       0.00161122 </v>
   <v>       0.00161122 </v>
   <v>       0.00161122 </v>
   <v>       0.00080561 </v>
   <v>       0.00080561 </v>
   <v>       0.00161122 </v>
   <v>       0.00161122 </v>
   <v>       0.00080561 </v>
   <v>       0.00080561 </v>
   <v>       0.00080561 </v>
   <v>       0.00080561 </v>
   <v>       0.00161122 </v>
   <v>       0.00161122 </v>
   <v>       0.00161122 </v>
   <v>       0.00161122 </v>
   <v>       0.00161122 </v>
   <v>       0.00161122 </v>
   <v>       0.00161122 </v>
   <v>       0.00161122 </v>
   <v>       0.00161122 </v>
   <v>       0.00161122 </v>
   <v>       0.00161122 </v>
   <v>       0.00080561 </v>
   <v>       0.00161122 </v>
   <v>       0.00161122 </v>
   <v>       0.00161122 </v>
   <v>       0.00161122 </v>
   <v>       0.00161122 </v>
   <v>       0.00161122 </v>
   <v>       0.00161122 </v>
   <v>       0.00161122 </v>
   <v>       0.00161122 </v>
   <v>       0.00161122 </v>
   <v>       0.00161122 </v>
   <v>       0.00161122 </v>
   <v>       0.00161122 </v>
   <v>       0.00161122 </v>
   <v>       0.00161122 </v>
   <v>       0.00161122 </v>
   <v>       0.00161122 </v>
   <v>       0.00161122 </v>
   <v>       0.00161122 </v>
   <v>       0.00161122 </v>
   <v>       0.00080561 </v>
   <v>       0.00080561 </v>
   <v>       0.00161122 </v>
   <v>       0.00161122 </v>
   <v>       0.00161122 </v>
   <v>       0.00161122 </v>
   <v>       0.00161122 </v>
   <v>       0.00161122 </v>
   <v>       0.00161122 </v>
   <v>       0.00161122 </v>
   <v>       0.00161122 </v>
   <v>       0.00161122 </v>
   <v>       0.00161122 </v>
   <v>       0.00161122 </v>
   <v>       0.00161122 </v>
   <v>       0.00161122 </v>
   <v>       0.00161122 </v>
   <v>       0.00161122 </v>
   <v>       0.00161122 </v>
   <v>       0.00161122 </v>
   <v>       0.00080561 </v>
   <v>       0.00080561 </v>
   <v>       0.00161122 </v>
   <v>       0.00161122 </v>
   <v>       0.00161122 </v>
   <v>       0.00161122 </v>
   <v>       0.00161122 </v>
   <v>       0.00161122 </v>
   <v>       0.00161122 </v>
   <v>       0.00161122 </v>
   <v>       0.00161122 </v>
   <v>       0.00161122 </v>
   <v>       0.00161122 </v>
   <v>       0.00161122 </v>
   <v>       0.00161122 </v>
   <v>       0.00161122 </v>
   <v>       0.00161122 </v>
   <v>       0.00161122 </v>
   <v>       0.00080561 </v>
   <v>       0.00080561 </v>
   <v>       0.00161122 </v>
   <v>       0.00161122 </v>
   <v>       0.00161122 </v>
   <v>       0.00161122 </v>
   <v>       0.00161122 </v>
   <v>       0.00161122 </v>
   <v>       0.00161122 </v>
   <v>       0.00161122 </v>
   <v>       0.00161122 </v>
   <v>       0.00161122 </v>
   <v>       0.00161122 </v>
   <v>       0.00161122 </v>
   <v>       0.00161122 </v>
   <v>       0.00161122 </v>
   <v>       0.00080561 </v>
   <v>       0.00080561 </v>
   <v>       0.00161122 </v>
   <v>       0.00161122 </v>
   <v>       0.00161122 </v>
   <v>       0.00161122 </v>
   <v>       0.00161122 </v>
   <v>       0.00161122 </v>
   <v>       0.00161122 </v>
   <v>       0.00161122 </v>
   <v>       0.00161122 </v>
   <v>       0.00161122 </v>
   <v>       0.00161122 </v>
   <v>       0.00161122 </v>
   <v>       0.00080561 </v>
   <v>       0.00080561 </v>
   <v>       0.00161122 </v>
   <v>       0.00161122 </v>
   <v>       0.00161122 </v>
   <v>       0.00161122 </v>
   <v>       0.00161122 </v>
   <v>       0.00161122 </v>
   <v>       0.00161122 </v>
   <v>       0.00161122 </v>
   <v>       0.00161122 </v>
   <v>       0.00161122 </v>
   <v>       0.00080561 </v>
   <v>       0.00080561 </v>
   <v>       0.00161122 </v>
   <v>       0.00161122 </v>
   <v>       0.00161122 </v>
   <v>       0.00161122 </v>
   <v>       0.00161122 </v>
   <v>       0.00161122 </v>
   <v>       0.00161122 </v>
   <v>       0.00161122 </v>
   <v>       0.00080561 </v>
   <v>       0.00080561 </v>
   <v>       0.00161122 </v>
   <v>       0.00161122 </v>
   <v>       0.00161122 </v>
   <v>       0.00161122 </v>
   <v>       0.00161122 </v>
   <v>       0.00161122 </v>
   <v>       0.00080561 </v>
   <v>       0.00080561 </v>
   <v>       0.00161122 </v>
   <v>       0.00161122 </v>
   <v>       0.00161122 </v>
   <v>       0.00161122 </v>
   <v>       0.00080561 </v>
   <v>       0.00080561 </v>
   <v>       0.00161122 </v>
   <v>       0.00161122 </v>
   <v>       0.00080561 </v>
   <v>       0.00080561 </v>
   <v>       0.00080561 </v>
   <v>       0.00080561 </v>
   <v>       0.00161122 </v>
   <v>       0.00161122 </v>
   <v>       0.00161122 </v>
   <v>       0.00161122 </v>
   <v>       0.00161122 </v>
   <v>       0.00161122 </v>
   <v>       0.00161122 </v>
   <v>       0.00161122 </v>
   <v>       0.00161122 </v>
   <v>       0.00080561 </v>
   <v>       0.00161122 </v>
   <v>       0.00161122 </v>
   <v>       0.00161122 </v>
   <v>       0.00161122 </v>
   <v>       0.00161122 </v>
   <v>       0.00161122 </v>
   <v>       0.00161122 </v>
   <v>       0.00161122 </v>
   <v>       0.00161122 </v>
   <v>       0.00161122 </v>
   <v>       0.00161122 </v>
   <v>       0.00161122 </v>
   <v>       0.00161122 </v>
   <v>       0.00161122 </v>
   <v>       0.00161122 </v>
   <v>       0.00161122 </v>
   <v>       0.00080561 </v>
   <v>       0.00080561 </v>
   <v>       0.00161122 </v>
   <v>       0.00161122 </v>
   <v>       0.00161122 </v>
   <v>       0.00161122 </v>
   <v>       0.00161122 </v>
   <v>       0.00161122 </v>
   <v>       0.00161122 </v>
   <v>       0.00161122 </v>
   <v>       0.00161122 </v>
   <v>       0.00161122 </v>
   <v>       0.00161122 </v>
   <v>       0.00161122 </v>
   <v>       0.00161122 </v>
   <v>       0.00161122 </v>
   <v>       0.00080561 </v>
   <v>       0.00080561 </v>
   <v>       0.00161122 </v>
   <v>       0.00161122 </v>
   <v>       0.00161122 </v>
   <v>       0.00161122 </v>
   <v>       0.00161122 </v>
   <v>       0.00161122 </v>
   <v>       0.00161122 </v>
   <v>       0.00161122 </v>
   <v>       0.00161122 </v>
   <v>       0.00161122 </v>
   <v>       0.00161122 </v>
   <v>       0.00161122 </v>
   <v>       0.00080561 </v>
   <v>       0.00080561 </v>
   <v>       0.00161122 </v>
   <v>       0.00161122 </v>
   <v>       0.00161122 </v>
   <v>       0.00161122 </v>
   <v>       0.00161122 </v>
   <v>       0.00161122 </v>
   <v>       0.00161122 </v>
   <v>       0.00161122 </v>
   <v>       0.00161122 </v>
   <v>       0.00161122 </v>
   <v>       0.00080561 </v>
   <v>       0.00080561 </v>
   <v>       0.00161122 </v>
   <v>       0.00161122 </v>
   <v>       0.00161122 </v>
   <v>       0.00161122 </v>
   <v>       0.00161122 </v>
   <v>       0.00161122 </v>
   <v>       0.00161122 </v>
   <v>       0.00161122 </v>
   <v>       0.00080561 </v>
   <v>       0.00080561 </v>
   <v>       0.00161122 </v>
   <v>       0.00161122 </v>
   <v>       0.00161122 </v>
   <v>       0.00161122 </v>
   <v>       0.00161122 </v>
   <v>       0.00161122 </v>
   <v>       0.00080561 </v>
   <v>       0.00080561 </v>
   <v>       0.00161122 </v>
   <v>       0.00161122 </v>
   <v>       0.00161122 </v>
   <v>       0.00161122 </v>
   <v>       0.00080561 </v>
   <v>       0.00080561 </v>
   <v>       0.00161122 </v>
   <v>       0.00161122 </v>
   <v>       0.00080561 </v>
   <v>       0.00080561 </v>
   <v>       0.00080561 </v>
   <v>       0.00080561 </v>
   <v>       0.00161122 </v>
   <v>       0.00161122 </v>
   <v>       0.00161122 </v>
   <v>       0.00161122 </v>
   <v>       0.00161122 </v>
   <v>       0.00161122 </v>
   <v>       0.00161122 </v>
   <v>       0.00080561 </v>
   <v>       0.00161122 </v>
   <v>       0.00161122 </v>
   <v>       0.00161122 </v>
   <v>       0.00161122 </v>
   <v>       0.00161122 </v>
   <v>       0.00161122 </v>
   <v>       0.00161122 </v>
   <v>       0.00161122 </v>
   <v>       0.00161122 </v>
   <v>       0.00161122 </v>
   <v>       0.00161122 </v>
   <v>       0.00161122 </v>
   <v>       0.00080561 </v>
   <v>       0.00080561 </v>
   <v>       0.00161122 </v>
   <v>       0.00161122 </v>
   <v>       0.00161122 </v>
   <v>       0.00161122 </v>
   <v>       0.00161122 </v>
   <v>       0.00161122 </v>
   <v>       0.00161122 </v>
   <v>       0.00161122 </v>
   <v>       0.00161122 </v>
   <v>       0.00161122 </v>
   <v>       0.00080561 </v>
   <v>       0.00080561 </v>
   <v>       0.00161122 </v>
   <v>       0.00161122 </v>
   <v>       0.00161122 </v>
   <v>       0.00161122 </v>
   <v>       0.00161122 </v>
   <v>       0.00161122 </v>
   <v>       0.00161122 </v>
   <v>       0.00161122 </v>
   <v>       0.00080561 </v>
   <v>       0.00080561 </v>
   <v>       0.00161122 </v>
   <v>       0.00161122 </v>
   <v>       0.00161122 </v>
   <v>       0.00161122 </v>
   <v>       0.00161122 </v>
   <v>       0.00161122 </v>
   <v>       0.00080561 </v>
   <v>       0.00080561 </v>
   <v>       0.00161122 </v>
   <v>       0.00161122 </v>
   <v>       0.00161122 </v>
   <v>       0.00161122 </v>
   <v>       0.00080561 </v>
   <v>       0.00080561 </v>
   <v>       0.00161122 </v>
   <v>       0.00161122 </v>
   <v>       0.00080561 </v>
   <v>       0.00080561 </v>
   <v>       0.00080561 </v>
   <v>       0.00080561 </v>
   <v>       0.00161122 </v>
   <v>       0.00161122 </v>
   <v>       0.00161122 </v>
   <v>       0.00161122 </v>
   <v>       0.00161122 </v>
   <v>       0.00080561 </v>
   <v>       0.00161122 </v>
   <v>       0.00161122 </v>
   <v>       0.00161122 </v>
   <v>       0.00161122 </v>
   <v>       0.00161122 </v>
   <v>       0.00161122 </v>
   <v>       0.00161122 </v>
   <v>       0.00161122 </v>
   <v>       0.00080561 </v>
   <v>       0.00080561 </v>
   <v>       0.00161122 </v>
   <v>       0.00161122 </v>
   <v>       0.00161122 </v>
   <v>       0.00161122 </v>
   <v>       0.00161122 </v>
   <v>       0.00161122 </v>
   <v>       0.00080561 </v>
   <v>       0.00080561 </v>
   <v>       0.00161122 </v>
   <v>       0.00161122 </v>
   <v>       0.00161122 </v>
   <v>       0.00161122 </v>
   <v>       0.00080561 </v>
   <v>       0.00080561 </v>
   <v>       0.00161122 </v>
   <v>       0.00161122 </v>
   <v>       0.00080561 </v>
   <v>       0.00080561 </v>
   <v>       0.00080561 </v>
   <v>       0.00080561 </v>
   <v>       0.00161122 </v>
   <v>       0.00161122 </v>
   <v>       0.00161122 </v>
   <v>       0.00080561 </v>
   <v>       0.00161122 </v>
   <v>       0.00161122 </v>
   <v>       0.00161122 </v>
   <v>       0.00161122 </v>
   <v>       0.00080561 </v>
   <v>       0.00080561 </v>
   <v>       0.00161122 </v>
   <v>       0.00161122 </v>
   <v>       0.00080561 </v>
   <v>       0.00080561 </v>
   <v>       0.00080561 </v>
   <v>       0.00080561 </v>
   <v>       0.00161122 </v>
   <v>       0.00080561 </v>
   <v>       0.00080561 </v>
  </varray>
 </kpoints>
 <parameters>
  <separator name="general" >
   <i type="string" name="SYSTEM">unknown system</i>
   <i type="logical" name="LCOMPAT"> F  </i>
  </separator>
  <separator name="electronic" >
   <i type="string" name="PREC">accura</i>
   <i name="ENMAX">    450.00000000</i>
   <i name="ENAUG">    322.06900000</i>
   <i name="EDIFF">      0.00000100</i>
   <i type="int" name="IALGO">    38</i>
   <i type="int" name="IWAVPR">    10</i>
   <i type="int" name="NBANDS">     8</i>
   <i type="int" name="NBANDSLOW">    -1</i>
   <i type="int" name="NBANDSHIGH">    -1</i>
   <i name="NELECT">      8.00000000</i>
   <i type="int" name="TURBO">     0</i>
   <i type="int" name="IRESTART">     0</i>
   <i type="int" name="NREBOOT">     0</i>
   <i type="int" name="NMIN">     0</i>
   <i name="EREF">      0.00000000</i>
   <separator name="electronic smearing" >
    <i type="int" name="ISMEAR">     0</i>
    <i name="SIGMA">      0.05000000</i>
    <i name="KSPACING">      0.50000000</i>
    <i type="logical" name="KGAMMA"> T  </i>
    <i type="logical" name="KBLOWUP"> T  </i>
   </separator>
   <separator name="electronic projectors" >
    <i type="logical" name="LREAL"> F  </i>
    <v name="ROPT">      0.00000000</v>
    <i type="int" name="LMAXPAW">  -100</i>
    <i type="int" name="LMAXMIX">     2</i>
    <i type="logical" name="NLSPLINE"> F  </i>
   </separator>
   <separator name="electronic startup" >
    <i type="int" name="ISTART">     1</i>
    <i type="int" name="ICHARG">    11</i>
    <i type="int" name="INIWAV">     1</i>
   </separator>
   <separator name="electronic spin" >
    <i type="int" name="ISPIN">     1</i>
    <i type="logical" name="LNONCOLLINEAR"> F  </i>
    <v name="MAGMOM">      1.00000000      1.00000000</v>
    <i name="NUPDOWN">     -1.00000000</i>
    <i type="logical" name="LSORBIT"> F  </i>
    <v name="SAXIS">      0.00000000      0.00000000      1.00000000</v>
    <i type="logical" name="LSPIRAL"> F  </i>
    <v name="QSPIRAL">      0.00000000      0.00000000      0.00000000</v>
[...]
       </set>
       <set comment="band 5">
        <r>  0.0081  0.0173  0.0543  0.0131  0.0000  0.0000  0.0000  0.0000  0.0000 </r>
        <r>  0.0081  0.0173  0.0543  0.0131  0.0000  0.0000  0.0000  0.0000  0.0000 </r>
       </set>
       <set comment="band 6">
        <r>  0.0230  0.0098  0.0707  0.0173  0.0000  0.0000  0.0000  0.0000  0.0000 </r>
        <r>  0.0230  0.0098  0.0707  0.0173  0.0000  0.0000  0.0000  0.0000  0.0000 </r>
       </set>
       <set comment="band 7">
        <r>  0.0654  0.0404  0.0054  0.0429  0.0000  0.0000  0.0000  0.0000  0.0000 </r>
        <r>  0.0654  0.0404  0.0054  0.0429  0.0000  0.0000  0.0000  0.0000  0.0000 </r>
       </set>
       <set comment="band 8">
        <r>  0.0260  0.0641  0.0004  0.0459  0.0000  0.0000  0.0000  0.0000  0.0000 </r>
        <r>  0.0260  0.0641  0.0004  0.0459  0.0000  0.0000  0.0000  0.0000  0.0000 </r>
       </set>
      </set>
      <set comment="kpoint 807">
       <set comment="band 1">
        <r>  0.2055  0.0088  0.0043  0.0216  0.0000  0.0000  0.0000  0.0000  0.0000 </r>
        <r>  0.2055  0.0088  0.0043  0.0216  0.0000  0.0000  0.0000  0.0000  0.0000 </r>
       </set>
       <set comment="band 2">
        <r>  0.1970  0.0138  0.0088  0.0265  0.0000  0.0000  0.0000  0.0000  0.0000 </r>
        <r>  0.1970  0.0138  0.0088  0.0265  0.0000  0.0000  0.0000  0.0000  0.0000 </r>
       </set>
       <set comment="band 3">
        <r>  0.0035  0.0246  0.0653  0.0684  0.0000  0.0000  0.0000  0.0000  0.0000 </r>
        <r>  0.0035  0.0246  0.0653  0.0684  0.0000  0.0000  0.0000  0.0000  0.0000 </r>
       </set>
       <set comment="band 4">
        <r>  0.0000  0.0915  0.0640  0.0106  0.0000  0.0000  0.0000  0.0000  0.0000 </r>
        <r>  0.0000  0.0915  0.0640  0.0106  0.0000  0.0000  0.0000  0.0000  0.0000 </r>
       </set>
       <set comment="band 5">
        <r>  0.0291  0.0505  0.0322  0.0056  0.0000  0.0000  0.0000  0.0000  0.0000 </r>
        <r>  0.0291  0.0505  0.0322  0.0056  0.0000  0.0000  0.0000  0.0000  0.0000 </r>
       </set>
       <set comment="band 6">
        <r>  0.0263  0.0076  0.0305  0.0382  0.0000  0.0000  0.0000  0.0000  0.0000 </r>
        <r>  0.0263  0.0076  0.0305  0.0382  0.0000  0.0000  0.0000  0.0000  0.0000 </r>
       </set>
       <set comment="band 7">
        <r>  0.0415  0.0574  0.0367  0.0107  0.0000  0.0000  0.0000  0.0000  0.0000 </r>
        <r>  0.0415  0.0574  0.0367  0.0107  0.0000  0.0000  0.0000  0.0000  0.0000 </r>
       </set>
       <set comment="band 8">
        <r>  0.0257  0.0100  0.0371  0.0661  0.0000  0.0000  0.0000  0.0000  0.0000 </r>
        <r>  0.0257  0.0100  0.0371  0.0661  0.0000  0.0000  0.0000  0.0000  0.0000 </r>
       </set>
      </set>
      <set comment="kpoint 808">
       <set comment="band 1">
        <r>  0.2065  0.0111  0.0051  0.0201  0.0000  0.0000  0.0000  0.0000  0.0000 </r>
        <r>  0.2065  0.0111  0.0051  0.0201  0.0000  0.0000  0.0000  0.0000  0.0000 </r>
       </set>
       <set comment="band 2">
        <r>  0.1987  0.0136  0.0072  0.0259  0.0000  0.0000  0.0000  0.0000  0.0000 </r>
        <r>  0.1987  0.0136  0.0072  0.0259  0.0000  0.0000  0.0000  0.0000  0.0000 </r>
       </set>
       <set comment="band 3">
        <r>  0.0017  0.0568  0.0264  0.0746  0.0000  0.0000  0.0000  0.0000  0.0000 </r>
        <r>  0.0017  0.0568  0.0264  0.0746  0.0000  0.0000  0.0000  0.0000  0.0000 </r>
       </set>
       <set comment="band 4">
        <r>  0.0004  0.0537  0.1043  0.0065  0.0000  0.0000  0.0000  0.0000  0.0000 </r>
        <r>  0.0004  0.0537  0.1043  0.0065  0.0000  0.0000  0.0000  0.0000  0.0000 </r>
       </set>
       <set comment="band 5">
        <r>  0.0270  0.0164  0.0592  0.0086  0.0000  0.0000  0.0000  0.0000  0.0000 </r>
        <r>  0.0270  0.0164  0.0592  0.0086  0.0000  0.0000  0.0000  0.0000  0.0000 </r>
       </set>
       <set comment="band 6">
        <r>  0.0194  0.0450  0.0066  0.0334  0.0000  0.0000  0.0000  0.0000  0.0000 </r>
        <r>  0.0194  0.0450  0.0066  0.0334  0.0000  0.0000  0.0000  0.0000  0.0000 </r>
       </set>
       <set comment="band 7">
        <r>  0.0453  0.0547  0.0353  0.0137  0.0000  0.0000  0.0000  0.0000  0.0000 </r>
        <r>  0.0453  0.0547  0.0353  0.0137  0.0000  0.0000  0.0000  0.0000  0.0000 </r>
       </set>
       <set comment="band 8">
        <r>  0.0312  0.0116  0.0335  0.0637  0.0000  0.0000  0.0000  0.0000  0.0000 </r>
        <r>  0.0312  0.0116  0.0335  0.0637  0.0000  0.0000  0.0000  0.0000  0.0000 </r>
       </set>
      </set>
      <set comment="kpoint 809">
       <set comment="band 1">
        <r>  0.2081  0.0133  0.0059  0.0170  0.0000  0.0000  0.0000  0.0000  0.0000 </r>
        <r>  0.2081  0.0133  0.0059  0.0170  0.0000  0.0000  0.0000  0.0000  0.0000 </r>
       </set>
       <set comment="band 2">
        <r>  0.1980  0.0146  0.0061  0.0257  0.0000  0.0000  0.0000  0.0000  0.0000 </r>
        <r>  0.1980  0.0146  0.0061  0.0257  0.0000  0.0000  0.0000  0.0000  0.0000 </r>
       </set>
       <set comment="band 3">
        <r>  0.0005  0.0796  0.0051  0.0721  0.0000  0.0000  0.0000  0.0000  0.0000 </r>
        <r>  0.0005  0.0796  0.0051  0.0721  0.0000  0.0000  0.0000  0.0000  0.0000 </r>
       </set>
       <set comment="band 4">
        <r>  0.0009  0.0247  0.1266  0.0132  0.0000  0.0000  0.0000  0.0000  0.0000 </r>
        <r>  0.0009  0.0247  0.1266  0.0132  0.0000  0.0000  0.0000  0.0000  0.0000 </r>
       </set>
       <set comment="band 5">
        <r>  0.0250  0.0119  0.0600  0.0123  0.0000  0.0000  0.0000  0.0000  0.0000 </r>
        <r>  0.0250  0.0119  0.0600  0.0123  0.0000  0.0000  0.0000  0.0000  0.0000 </r>
       </set>
       <set comment="band 6">
        <r>  0.0060  0.0471  0.0199  0.0194  0.0000  0.0000  0.0000  0.0000  0.0000 </r>
        <r>  0.0060  0.0471  0.0199  0.0194  0.0000  0.0000  0.0000  0.0000  0.0000 </r>
       </set>
       <set comment="band 7">
        <r>  0.0520  0.0533  0.0254  0.0260  0.0000  0.0000  0.0000  0.0000  0.0000 </r>
        <r>  0.0520  0.0533  0.0254  0.0260  0.0000  0.0000  0.0000  0.0000  0.0000 </r>
       </set>
       <set comment="band 8">
        <r>  0.0400  0.0169  0.0280  0.0611  0.0000  0.0000  0.0000  0.0000  0.0000 </r>
        <r>  0.0400  0.0169  0.0280  0.0611  0.0000  0.0000  0.0000  0.0000  0.0000 </r>
       </set>
      </set>
      <set comment="kpoint 810">
       <set comment="band 1">
        <r>  0.2091  0.0140  0.0059  0.0148  0.0000  0.0000  0.0000  0.0000  0.0000 </r>
        <r>  0.2091  0.0140  0.0059  0.0148  0.0000  0.0000  0.0000  0.0000  0.0000 </r>
       </set>
       <set comment="band 2">
        <r>  0.1962  0.0189  0.0059  0.0234  0.0000  0.0000  0.0000  0.0000  0.0000 </r>
        <r>  0.1962  0.0189  0.0059  0.0234  0.0000  0.0000  0.0000  0.0000  0.0000 </r>
       </set>
       <set comment="band 3">
        <r>  0.0008  0.0855  0.0011  0.0691  0.0000  0.0000  0.0000  0.0000  0.0000 </r>
        <r>  0.0008  0.0855  0.0011  0.0691  0.0000  0.0000  0.0000  0.0000  0.0000 </r>
       </set>
       <set comment="band 4">
        <r>  0.0012  0.0116  0.1316  0.0225  0.0000  0.0000  0.0000  0.0000  0.0000 </r>
        <r>  0.0012  0.0116  0.1316  0.0225  0.0000  0.0000  0.0000  0.0000  0.0000 </r>
       </set>
       <set comment="band 5">
        <r>  0.0221  0.0111  0.0599  0.0142  0.0000  0.0000  0.0000  0.0000  0.0000 </r>
        <r>  0.0221  0.0111  0.0599  0.0142  0.0000  0.0000  0.0000  0.0000  0.0000 </r>
       </set>
       <set comment="band 6">
        <r>  0.0061  0.0169  0.0618  0.0128  0.0000  0.0000  0.0000  0.0000  0.0000 </r>
        <r>  0.0061  0.0169  0.0618  0.0128  0.0000  0.0000  0.0000  0.0000  0.0000 </r>
       </set>
       <set comment="band 7">
        <r>  0.0471  0.0504  0.0001  0.0437  0.0000  0.0000  0.0000  0.0000  0.0000 </r>
        <r>  0.0471  0.0504  0.0001  0.0437  0.0000  0.0000  0.0000  0.0000  0.0000 </r>
       </set>
       <set comment="band 8">
        <r>  0.0476  0.0520  0.0106  0.0481  0.0000  0.0000  0.0000  0.0000  0.0000 </r>
        <r>  0.0476  0.0520  0.0106  0.0481  0.0000  0.0000  0.0000  0.0000  0.0000 </r>
       </set>
      </set>
      <set comment="kpoint 811">
       <set comment="band 1">
        <r>  0.2039  0.0117  0.0053  0.0220  0.0000  0.0000  0.0000  0.0000  0.0000 </r>
        <r>  0.2039  0.0117  0.0053  0.0220  0.0000  0.0000  0.0000  0.0000  0.0000 </r>
       </set>
       <set comment="band 2">
        <r>  0.2012  0.0141  0.0068  0.0228  0.0000  0.0000  0.0000  0.0000  0.0000 </r>
        <r>  0.2012  0.0141  0.0068  0.0228  0.0000  0.0000  0.0000  0.0000  0.0000 </r>
       </set>
       <set comment="band 3">
        <r>  0.0016  0.0232  0.0652  0.0721  0.0000  0.0000  0.0000  0.0000  0.0000 </r>
        <r>  0.0016  0.0232  0.0652  0.0721  0.0000  0.0000  0.0000  0.0000  0.0000 </r>
       </set>
       <set comment="band 4">
        <r>  0.0004  0.0873  0.0648  0.0110  0.0000  0.0000  0.0000  0.0000  0.0000 </r>
        <r>  0.0004  0.0873  0.0648  0.0110  0.0000  0.0000  0.0000  0.0000  0.0000 </r>
       </set>
       <set comment="band 5">
        <r>  0.0290  0.0480  0.0316  0.0044  0.0000  0.0000  0.0000  0.0000  0.0000 </r>
        <r>  0.0290  0.0480  0.0316  0.0044  0.0000  0.0000  0.0000  0.0000  0.0000 </r>
       </set>
       <set comment="band 6">
        <r>  0.0282  0.0078  0.0310  0.0413  0.0000  0.0000  0.0000  0.0000  0.0000 </r>
        <r>  0.0282  0.0078  0.0310  0.0413  0.0000  0.0000  0.0000  0.0000  0.0000 </r>
       </set>
       <set comment="band 7">
        <r>  0.0354  0.0602  0.0368  0.0102  0.0000  0.0000  0.0000  0.0000  0.0000 </r>
        <r>  0.0354  0.0602  0.0368  0.0102  0.0000  0.0000  0.0000  0.0000  0.0000 </r>
       </set>
       <set comment="band 8">
        <r>  0.0303  0.0105  0.0369  0.0626  0.0000  0.0000  0.0000  0.0000  0.0000 </r>
        <r>  0.0303  0.0105  0.0369  0.0626  0.0000  0.0000  0.0000  0.0000  0.0000 </r>
       </set>
      </set>
      <set comment="kpoint 812">
       <set comment="band 1">
        <r>  0.2058  0.0135  0.0063  0.0191  0.0000  0.0000  0.0000  0.0000  0.0000 </r>
        <r>  0.2058  0.0135  0.0063  0.0191  0.0000  0.0000  0.0000  0.0000  0.0000 </r>
       </set>
       <set comment="band 2">
        <r>  0.2008  0.0155  0.0056  0.0222  0.0000  0.0000  0.0000  0.0000  0.0000 </r>
        <r>  0.2008  0.0155  0.0056  0.0222  0.0000  0.0000  0.0000  0.0000  0.0000 </r>
       </set>
       <set comment="band 3">
        <r>  0.0002  0.0927  0.0005  0.0658  0.0000  0.0000  0.0000  0.0000  0.0000 </r>
        <r>  0.0002  0.0927  0.0005  0.0658  0.0000  0.0000  0.0000  0.0000  0.0000 </r>
       </set>
       <set comment="band 4">
        <r>  0.0010  0.0109  0.1304  0.0215  0.0000  0.0000  0.0000  0.0000  0.0000 </r>
        <r>  0.0010  0.0109  0.1304  0.0215  0.0000  0.0000  0.0000  0.0000  0.0000 </r>
       </set>
       <set comment="band 5">
        <r>  0.0272  0.0089  0.0601  0.0140  0.0000  0.0000  0.0000  0.0000  0.0000 </r>
        <r>  0.0272  0.0089  0.0601  0.0140  0.0000  0.0000  0.0000  0.0000  0.0000 </r>
       </set>
       <set comment="band 6">
        <r>  0.0212  0.0492  0.0050  0.0317  0.0000  0.0000  0.0000  0.0000  0.0000 </r>
        <r>  0.0212  0.0492  0.0050  0.0317  0.0000  0.0000  0.0000  0.0000  0.0000 </r>
       </set>
       <set comment="band 7">
        <r>  0.0376  0.0132  0.0694  0.0263  0.0000  0.0000  0.0000  0.0000  0.0000 </r>
        <r>  0.0376  0.0132  0.0694  0.0263  0.0000  0.0000  0.0000  0.0000  0.0000 </r>
       </set>
       <set comment="band 8">
        <r>  0.0370  0.0572  0.0001  0.0462  0.0000  0.0000  0.0000  0.0000  0.0000 </r>
        <r>  0.0370  0.0572  0.0001  0.0462  0.0000  0.0000  0.0000  0.0000  0.0000 </r>
       </set>
      </set>
      <set comment="kpoint 813">
       <set comment="band 1">
        <r>  0.2076  0.0089  0.0061  0.0196  0.0000  0.0000  0.0000  0.0000  0.0000 </r>
        <r>  0.2076  0.0089  0.0061  0.0196  0.0000  0.0000  0.0000  0.0000  0.0000 </r>
       </set>
       <set comment="band 2">
        <r>  0.1970  0.0134  0.0117  0.0236  0.0000  0.0000  0.0000  0.0000  0.0000 </r>
        <r>  0.1970  0.0134  0.0117  0.0236  0.0000  0.0000  0.0000  0.0000  0.0000 </r>
       </set>
       <set comment="band 3">
        <r>  0.0021  0.0213  0.0612  0.0740  0.0000  0.0000  0.0000  0.0000  0.0000 </r>
        <r>  0.0021  0.0213  0.0612  0.0740  0.0000  0.0000  0.0000  0.0000  0.0000 </r>
       </set>
       <set comment="band 4">
        <r>  0.0004  0.0950  0.0589  0.0113  0.0000  0.0000  0.0000  0.0000  0.0000 </r>
        <r>  0.0004  0.0950  0.0589  0.0113  0.0000  0.0000  0.0000  0.0000  0.0000 </r>
       </set>
       <set comment="band 5">
        <r>  0.0222  0.0523  0.0369  0.0039  0.0000  0.0000  0.0000  0.0000  0.0000 </r>
        <r>  0.0222  0.0523  0.0369  0.0039  0.0000  0.0000  0.0000  0.0000  0.0000 </r>
       </set>
       <set comment="band 6">
        <r>  0.0022  0.0208  0.0401  0.0205  0.0000  0.0000  0.0000  0.0000  0.0000 </r>
        <r>  0.0022  0.0208  0.0401  0.0205  0.0000  0.0000  0.0000  0.0000  0.0000 </r>
       </set>
       <set comment="band 7">
        <r>  0.0665  0.0411  0.0276  0.0303  0.0000  0.0000  0.0000  0.0000  0.0000 </r>
        <r>  0.0665  0.0411  0.0276  0.0303  0.0000  0.0000  0.0000  0.0000  0.0000 </r>
       </set>
       <set comment="band 8">
        <r>  0.0321  0.0106  0.0323  0.0654  0.0000  0.0000  0.0000  0.0000  0.0000 </r>
        <r>  0.0321  0.0106  0.0323  0.0654  0.0000  0.0000  0.0000  0.0000  0.0000 </r>
       </set>
      </set>
      <set comment="kpoint 814">
       <set comment="band 1">
        <r>  0.2079  0.0115  0.0071  0.0174  0.0000  0.0000  0.0000  0.0000  0.0000 </r>
        <r>  0.2079  0.0115  0.0071  0.0174  0.0000  0.0000  0.0000  0.0000  0.0000 </r>
       </set>
       <set comment="band 2">
        <r>  0.1986  0.0131  0.0097  0.0236  0.0000  0.0000  0.0000  0.0000  0.0000 </r>
        <r>  0.1986  0.0131  0.0097  0.0236  0.0000  0.0000  0.0000  0.0000  0.0000 </r>
       </set>
       <set comment="band 3">
        <r>  0.0010  0.0434  0.0338  0.0796  0.0000  0.0000  0.0000  0.0000  0.0000 </r>
        <r>  0.0010  0.0434  0.0338  0.0796  0.0000  0.0000  0.0000  0.0000  0.0000 </r>
       </set>
       <set comment="band 4">
        <r>  0.0003  0.0675  0.0877  0.0085  0.0000  0.0000  0.0000  0.0000  0.0000 </r>
        <r>  0.0003  0.0675  0.0877  0.0085  0.0000  0.0000  0.0000  0.0000  0.0000 </r>
       </set>
       <set comment="band 5">
        <r>  0.0051  0.0237  0.0567  0.0053  0.0000  0.0000  0.0000  0.0000  0.0000 </r>
        <r>  0.0051  0.0237  0.0567  0.0053  0.0000  0.0000  0.0000  0.0000  0.0000 </r>
       </set>
       <set comment="band 6">
        <r>  0.0215  0.0448  0.0461  0.0005  0.0000  0.0000  0.0000  0.0000  0.0000 </r>
        <r>  0.0215  0.0448  0.0461  0.0005  0.0000  0.0000  0.0000  0.0000  0.0000 </r>
       </set>
       <set comment="band 7">
        <r>  0.0532  0.0410  0.0051  0.0511  0.0000  0.0000  0.0000  0.0000  0.0000 </r>
        <r>  0.0532  0.0410  0.0051  0.0511  0.0000  0.0000  0.0000  0.0000  0.0000 </r>
       </set>
       <set comment="band 8">
        <r>  0.0433  0.0174  0.0281  0.0619  0.0000  0.0000  0.0000  0.0000  0.0000 </r>
        <r>  0.0433  0.0174  0.0281  0.0619  0.0000  0.0000  0.0000  0.0000  0.0000 </r>
       </set>
      </set>
      <set comment="kpoint 815">
       <set comment="band 1">
        <r>  0.2055  0.0118  0.0075  0.0195  0.0000  0.0000  0.0000  0.0000  0.0000 </r>
        <r>  0.2055  0.0118  0.0075  0.0195  0.0000  0.0000  0.0000  0.0000  0.0000 </r>
       </set>
       <set comment="band 2">
        <r>  0.2021  0.0137  0.0093  0.0203  0.0000  0.0000  0.0000  0.0000  0.0000 </r>
        <r>  0.2021  0.0137  0.0093  0.0203  0.0000  0.0000  0.0000  0.0000  0.0000 </r>
       </set>
       <set comment="band 3">
        <r>  0.0006  0.0196  0.0607  0.0785  0.0000  0.0000  0.0000  0.0000  0.0000 </r>
        <r>  0.0006  0.0196  0.0607  0.0785  0.0000  0.0000  0.0000  0.0000  0.0000 </r>
       </set>
       <set comment="band 4">
        <r>  0.0000  0.0903  0.0599  0.0114  0.0000  0.0000  0.0000  0.0000  0.0000 </r>
        <r>  0.0000  0.0903  0.0599  0.0114  0.0000  0.0000  0.0000  0.0000  0.0000 </r>
       </set>
       <set comment="band 5">
        <r>  0.0197  0.0489  0.0370  0.0028  0.0000  0.0000  0.0000  0.0000  0.0000 </r>
        <r>  0.0197  0.0489  0.0370  0.0028  0.0000  0.0000  0.0000  0.0000  0.0000 </r>
       </set>
       <set comment="band 6">
        <r>  0.0138  0.0121  0.0377  0.0344  0.0000  0.0000  0.0000  0.0000  0.0000 </r>
        <r>  0.0138  0.0121  0.0377  0.0344  0.0000  0.0000  0.0000  0.0000  0.0000 </r>
       </set>
       <set comment="band 7">
        <r>  0.0501  0.0533  0.0307  0.0192  0.0000  0.0000  0.0000  0.0000  0.0000 </r>
        <r>  0.0501  0.0533  0.0307  0.0192  0.0000  0.0000  0.0000  0.0000  0.0000 </r>
       </set>
       <set comment="band 8">
        <r>  0.0395  0.0122  0.0320  0.0616  0.0000  0.0000  0.0000  0.0000  0.0000 </r>
        <r>  0.0395  0.0122  0.0320  0.0616  0.0000  0.0000  0.0000  0.0000  0.0000 </r>
       </set>
      </set>
      <set comment="kpoint 816">
       <set comment="band 1">
        <r>  0.2062  0.0137  0.0083  0.0167  0.0000  0.0000  0.0000  0.0000  0.0000 </r>
        <r>  0.2062  0.0137  0.0083  0.0167  0.0000  0.0000  0.0000  0.0000  0.0000 </r>
       </set>
       <set comment="band 2">
        <r>  0.2019  0.0154  0.0083  0.0196  0.0000  0.0000  0.0000  0.0000  0.0000 </r>
        <r>  0.2019  0.0154  0.0083  0.0196  0.0000  0.0000  0.0000  0.0000  0.0000 </r>
       </set>
       <set comment="band 3">
        <r>  0.0000  0.0893  0.0011  0.0680  0.0000  0.0000  0.0000  0.0000  0.0000 </r>
        <r>  0.0000  0.0893  0.0011  0.0680  0.0000  0.0000  0.0000  0.0000  0.0000 </r>
       </set>
       <set comment="band 4">
        <r>  0.0002  0.0140  0.1205  0.0271  0.0000  0.0000  0.0000  0.0000  0.0000 </r>
        <r>  0.0002  0.0140  0.1205  0.0271  0.0000  0.0000  0.0000  0.0000  0.0000 </r>
       </set>
       <set comment="band 5">
        <r>  0.0110  0.0127  0.0633  0.0104  0.0000  0.0000  0.0000  0.0000  0.0000 </r>
        <r>  0.0110  0.0127  0.0633  0.0104  0.0000  0.0000  0.0000  0.0000  0.0000 </r>
       </set>
       <set comment="band 6">
        <r>  0.0002  0.0326  0.0371  0.0163  0.0000  0.0000  0.0000  0.0000  0.0000 </r>
        <r>  0.0002  0.0326  0.0371  0.0163  0.0000  0.0000  0.0000  0.0000  0.0000 </r>
       </set>
       <set comment="band 7">
        <r>  0.0532  0.0498  0.0034  0.0475  0.0000  0.0000  0.0000  0.0000  0.0000 </r>
        <r>  0.0532  0.0498  0.0034  0.0475  0.0000  0.0000  0.0000  0.0000  0.0000 </r>
       </set>
       <set comment="band 8">
        <r>  0.0588  0.0332  0.0325  0.0430  0.0000  0.0000  0.0000  0.0000  0.0000 </r>
        <r>  0.0588  0.0332  0.0325  0.0430  0.0000  0.0000  0.0000  0.0000  0.0000 </r>
       </set>
      </set>
     </set>
    </set>
   </array>
  </projected>
 </calculation>
 <structure name="finalpos" >
  <crystal>
   <varray name="basis" >
    <v>       3.34872358       0.00000000       1.93338619 </v>
    <v>       1.11624119       3.15720812       1.93338619 </v>
    <v>       0.00000000       0.00000000       3.86677237 </v>
   </varray>
   <i name="volume">     40.88190434 </i>
   <varray name="rec_basis" >
    <v>       0.29862124      -0.10557851       0.00000000 </v>
    <v>       0.00000000       0.31673553       0.00000000 </v>
    <v>      -0.14931062      -0.10557851       0.25861362 </v>
   </varray>
  </crystal>
  <varray name="positions" >
   <v>       0.87500000       0.87500000       0.87500000 </v>
   <v>       0.12500000       0.12500000       0.12500000 </v>
  </varray>
 </structure>
</modeling>
