unknown system                          
           1
     3.348724    0.000000    1.933386
     1.116241    3.157208    1.933386
     0.000000    0.000000    3.866772
   Si
     2
Direct configuration=     1
   0.87500000  0.87500000  0.87500000
   0.12500000  0.12500000  0.12500000
