   1   1   0   0
  0.1428306E+02  0.2647368E-09  0.2647368E-09  0.2647368E-09  0.5000000E-15
  1.000000000000000E-004
  CAR 
 unknown system                          
     36.68749540     -6.17033128  301     10.20481490      1.00000000
     -6.170  0.0000E+00  0.0000E+00
     -6.027  0.0000E+00  0.0000E+00
     -5.885  0.0000E+00  0.0000E+00
     -5.742  0.0000E+00  0.0000E+00
     -5.599  0.0000E+00  0.0000E+00
     -5.456  0.0000E+00  0.0000E+00
     -5.313  0.0000E+00  0.0000E+00
     -5.170  0.0000E+00  0.0000E+00
     -5.027  0.0000E+00  0.0000E+00
     -4.885  0.0000E+00  0.0000E+00
     -4.742  0.0000E+00  0.0000E+00
     -4.599  0.0000E+00  0.0000E+00
     -4.456  0.1994E-14  0.2848E-15
     -4.313  0.5328E-06  0.7611E-07
     -4.170  0.9720E-04  0.1396E-04
     -4.027  0.5666E-04  0.2206E-04
     -3.885  0.1199E-02  0.1933E-03
     -3.742  0.1229E-03  0.2109E-03
     -3.599  0.5219E-03  0.2854E-03
     -3.456  0.1143E-02  0.4487E-03
     -3.313  0.1382E-02  0.6462E-03
     -3.170  0.9628E-03  0.7837E-03
     -3.027  0.3154E-03  0.8288E-03
     -2.885  0.2358E-02  0.1166E-02
     -2.742  0.1939E-03  0.1193E-02
     -2.599  0.7911E-03  0.1306E-02
     -2.456  0.1129E-02  0.1468E-02
     -2.313  0.3924E-02  0.2028E-02
     -2.170  0.3439E-03  0.2077E-02
     -2.027  0.2941E-03  0.2119E-02
     -1.885  0.3168E-02  0.2572E-02
     -1.742  0.6529E-03  0.2665E-02
     -1.599  0.2409E-02  0.3009E-02
     -1.456  0.3358E-03  0.3057E-02
     -1.313  0.2258E-02  0.3380E-02
     -1.170  0.9131E-03  0.3510E-02
     -1.027  0.1620E-02  0.3742E-02
     -0.885  0.5378E-02  0.4510E-02
     -0.742  0.2193E-02  0.4823E-02
     -0.599  0.1642E-07  0.4823E-02
     -0.456  0.2607E-03  0.4861E-02
     -0.313  0.4748E-02  0.5539E-02
     -0.170  0.3557E-03  0.5590E-02
     -0.027  0.9465E-03  0.5725E-02
      0.115  0.3058E-02  0.6162E-02
      0.258  0.1999E-02  0.6447E-02
      0.401  0.2801E-02  0.6848E-02
      0.544  0.5934E-03  0.6932E-02
      0.687  0.7220E-02  0.7964E-02
      0.830  0.5989E-03  0.8049E-02
      0.973  0.2030E-02  0.8339E-02
      1.115  0.2826E-02  0.8743E-02
      1.258  0.2229E-02  0.9061E-02
      1.401  0.2192E-02  0.9375E-02
      1.544  0.4767E-03  0.9443E-02
      1.687  0.4821E-02  0.1013E-01
      1.830  0.2280E-03  0.1016E-01
      1.973  0.6924E-03  0.1026E-01
      2.116  0.4933E-02  0.1097E-01
      2.258  0.3909E-02  0.1153E-01
      2.401  0.2265E-02  0.1185E-01
      2.544  0.6250E-03  0.1194E-01
      2.687  0.9602E-02  0.1331E-01
      2.830  0.1348E-02  0.1350E-01
      2.973  0.3822E-02  0.1405E-01
      3.116  0.1664E-02  0.1429E-01
      3.258  0.8617E-03  0.1441E-01
      3.401  0.1671E-03  0.1443E-01
      3.544  0.2685E-02  0.1482E-01
      3.687  0.4744E-02  0.1550E-01
      3.830  0.2674E-02  0.1588E-01
      3.973  0.2174E-02  0.1619E-01
      4.116  0.4593E-02  0.1684E-01
      4.258  0.3054E-02  0.1728E-01
      4.401  0.5775E-02  0.1811E-01
      4.544  0.2517E-02  0.1847E-01
      4.687  0.2256E-03  0.1850E-01
      4.830  0.4124E-02  0.1909E-01
      4.973  0.5734E-02  0.1991E-01
      5.116  0.3168E-02  0.2036E-01
      5.258  0.5265E-02  0.2111E-01
      5.401  0.2841E-02  0.2152E-01
      5.544  0.7737E-03  0.2163E-01
      5.687  0.4381E-02  0.2225E-01
      5.830  0.2002E-02  0.2254E-01
      5.973  0.1517E-02  0.2276E-01
      6.116  0.2435E-02  0.2310E-01
      6.258  0.2119E-02  0.2341E-01
      6.401  0.6317E-02  0.2431E-01
      6.544  0.3371E-02  0.2479E-01
      6.687  0.6550E-02  0.2573E-01
      6.830  0.2872E-02  0.2614E-01
      6.973  0.3225E-02  0.2660E-01
      7.116  0.7580E-02  0.2768E-01
      7.258  0.2397E-02  0.2802E-01
      7.401  0.1214E-02  0.2820E-01
      7.544  0.4874E-02  0.2889E-01
      7.687  0.4028E-02  0.2947E-01
      7.830  0.2422E-02  0.2981E-01
      7.973  0.5065E-02  0.3054E-01
      8.116  0.5307E-02  0.3130E-01
      8.258  0.4088E-02  0.3188E-01
      8.401  0.1339E-02  0.3207E-01
      8.544  0.3823E-02  0.3262E-01
      8.687  0.3197E-02  0.3307E-01
      8.830  0.4410E-02  0.3370E-01
      8.973  0.5877E-02  0.3454E-01
      9.116  0.3820E-02  0.3509E-01
      9.258  0.2758E-02  0.3548E-01
      9.401  0.7491E-02  0.3655E-01
      9.544  0.2914E-02  0.3697E-01
      9.687  0.3683E-02  0.3750E-01
      9.830  0.1044E-02  0.3764E-01
      9.973  0.7567E-02  0.3873E-01
     10.116  0.4713E-02  0.3940E-01
     10.259  0.6581E-02  0.4034E-01
     10.401  0.7695E-02  0.4144E-01
     10.544  0.5387E-02  0.4221E-01
     10.687  0.9312E-03  0.4234E-01
     10.830  0.4613E-02  0.4300E-01
     10.973  0.4081E-02  0.4358E-01
     11.116  0.3460E-02  0.4408E-01
     11.259  0.4274E-02  0.4469E-01
     11.401  0.7136E-02  0.4571E-01
     11.544  0.3626E-03  0.4576E-01
     11.687  0.2735E-02  0.4615E-01
     11.830  0.3061E-02  0.4659E-01
     11.973  0.3218E-02  0.4705E-01
     12.116  0.4922E-02  0.4775E-01
     12.259  0.5432E-02  0.4853E-01
     12.401  0.5430E-02  0.4930E-01
     12.544  0.3241E-02  0.4976E-01
     12.687  0.5824E-02  0.5060E-01
     12.830  0.8194E-02  0.5177E-01
     12.973  0.6143E-02  0.5264E-01
     13.116  0.3902E-02  0.5320E-01
     13.259  0.4110E-04  0.5321E-01
     13.401  0.5085E-03  0.5328E-01
     13.544  0.6828E-02  0.5426E-01
     13.687  0.5545E-02  0.5505E-01
     13.830  0.4011E-02  0.5562E-01
     13.973  0.7867E-02  0.5675E-01
     14.116  0.3909E-02  0.5730E-01
     14.259  0.8500E-02  0.5852E-01
     14.401  0.4658E-02  0.5918E-01
     14.544  0.4034E-02  0.5976E-01
     14.687  0.8465E-03  0.5988E-01
     14.830  0.4968E-02  0.6059E-01
     14.973  0.1079E-01  0.6213E-01
     15.116  0.2388E-04  0.6214E-01
     15.259  0.2473E-02  0.6249E-01
     15.401  0.1882E-02  0.6276E-01
     15.544  0.5749E-02  0.6358E-01
     15.687  0.5969E-02  0.6443E-01
     15.830  0.5611E-02  0.6523E-01
     15.973  0.7130E-02  0.6625E-01
     16.116  0.9226E-02  0.6757E-01
     16.259  0.4656E-02  0.6823E-01
     16.401  0.6538E-02  0.6917E-01
     16.544  0.5969E-02  0.7002E-01
     16.687  0.3529E-02  0.7053E-01
     16.830  0.4785E-02  0.7121E-01
     16.973  0.1186E-02  0.7138E-01
     17.116  0.7412E-02  0.7244E-01
     17.259  0.5712E-02  0.7325E-01
     17.401  0.4640E-02  0.7392E-01
     17.544  0.1040E-01  0.7540E-01
     17.687  0.6706E-02  0.7636E-01
     17.830  0.7913E-02  0.7749E-01
     17.973  0.2239E-02  0.7781E-01
     18.116  0.7347E-04  0.7782E-01
     18.259  0.4159E-02  0.7842E-01
     18.401  0.1126E-01  0.8002E-01
     18.544  0.1066E-01  0.8155E-01
     18.687  0.1709E-02  0.8179E-01
     18.830  0.9776E-02  0.8319E-01
     18.973  0.2923E-02  0.8361E-01
     19.116  0.1129E-03  0.8362E-01
     19.259  0.4994E-03  0.8369E-01
     19.402  0.4508E-02  0.8434E-01
     19.544  0.2448E-03  0.8437E-01
     19.687  0.3220E-02  0.8483E-01
     19.830  0.1803E-02  0.8509E-01
     19.973  0.4475E-02  0.8573E-01
     20.116  0.5251E-02  0.8648E-01
     20.259  0.1043E-01  0.8797E-01
     20.402  0.1124E-01  0.8957E-01
     20.544  0.9376E-02  0.9091E-01
     20.687  0.9082E-02  0.9221E-01
     20.830  0.2876E-02  0.9262E-01
     20.973  0.6130E-02  0.9350E-01
     21.116  0.5033E-03  0.9357E-01
     21.259  0.6407E-02  0.9449E-01
     21.402  0.9482E-03  0.9462E-01
     21.544  0.1778E-02  0.9487E-01
     21.687  0.1039E-01  0.9636E-01
     21.830  0.1282E-01  0.9819E-01
     21.973  0.5608E-02  0.9899E-01
     22.116  0.5388E-02  0.9976E-01
     22.259  0.4964E-02  0.1005E+00
     22.402  0.2518E-02  0.1008E+00
     22.544  0.1712E-01  0.1033E+00
     22.687  0.5193E-02  0.1040E+00
     22.830  0.2984E-02  0.1044E+00
     22.973  0.5686E-02  0.1053E+00
     23.116  0.6237E-02  0.1061E+00
     23.259  0.3910E-02  0.1067E+00
     23.402  0.7466E-02  0.1078E+00
     23.544  0.8800E-02  0.1090E+00
     23.687  0.4588E-02  0.1097E+00
     23.830  0.5804E-02  0.1105E+00
     23.973  0.1014E-01  0.1120E+00
     24.116  0.1967E-02  0.1122E+00
     24.259  0.9869E-02  0.1137E+00
     24.402  0.9939E-02  0.1151E+00
     24.544  0.2361E-02  0.1154E+00
     24.687  0.6846E-03  0.1155E+00
     24.830  0.7646E-02  0.1166E+00
     24.973  0.4368E-02  0.1172E+00
     25.116  0.9737E-02  0.1186E+00
     25.259  0.1589E-02  0.1188E+00
     25.402  0.2708E-02  0.1192E+00
     25.544  0.1401E-01  0.1212E+00
     25.687  0.6192E-02  0.1221E+00
     25.830  0.3598E-02  0.1226E+00
     25.973  0.4105E-02  0.1232E+00
     26.116  0.1321E-02  0.1234E+00
     26.259  0.1496E-02  0.1236E+00
     26.402  0.5373E-02  0.1244E+00
     26.544  0.1360E-01  0.1263E+00
     26.687  0.8522E-02  0.1275E+00
     26.830  0.7729E-02  0.1287E+00
     26.973  0.5135E-02  0.1294E+00
     27.116  0.6677E-02  0.1303E+00
     27.259  0.3119E-02  0.1308E+00
     27.402  0.9266E-02  0.1321E+00
     27.544  0.7723E-02  0.1332E+00
     27.687  0.6044E-02  0.1341E+00
     27.830  0.6904E-02  0.1351E+00
     27.973  0.6531E-02  0.1360E+00
     28.116  0.6472E-02  0.1369E+00
     28.259  0.9544E-02  0.1383E+00
     28.402  0.3880E-02  0.1388E+00
     28.545  0.3619E-02  0.1394E+00
     28.687  0.6937E-03  0.1395E+00
     28.830  0.8462E-02  0.1407E+00
     28.973  0.2062E-02  0.1410E+00
     29.116  0.4171E-02  0.1416E+00
     29.259  0.6214E-02  0.1424E+00
     29.402  0.3100E-02  0.1429E+00
     29.545  0.1086E-01  0.1444E+00
     29.687  0.1718E-01  0.1469E+00
     29.830  0.1029E-01  0.1484E+00
     29.973  0.1941E-02  0.1486E+00
     30.116  0.6301E-02  0.1495E+00
     30.259  0.3597E-02  0.1500E+00
     30.402  0.1182E-01  0.1517E+00
     30.545  0.3359E-02  0.1522E+00
     30.687  0.6173E-02  0.1531E+00
     30.830  0.3392E-02  0.1536E+00
     30.973  0.3200E-02  0.1540E+00
     31.116  0.6637E-02  0.1550E+00
     31.259  0.7753E-02  0.1561E+00
     31.402  0.5423E-02  0.1569E+00
     31.545  0.2350E-02  0.1572E+00
     31.687  0.2977E-02  0.1576E+00
     31.830  0.2327E-02  0.1580E+00
     31.973  0.2879E-02  0.1584E+00
     32.116  0.9610E-06  0.1584E+00
     32.259  0.4722E-08  0.1584E+00
     32.402  0.1092E-02  0.1585E+00
     32.545  0.5214E-02  0.1593E+00
     32.687  0.1682E-02  0.1595E+00
     32.830  0.4261E-03  0.1596E+00
     32.973  0.2399E-07  0.1596E+00
     33.116  0.1140E-16  0.1596E+00
     33.259  0.1496E-06  0.1596E+00
     33.402  0.5727E-03  0.1597E+00
     33.545  0.2687E-03  0.1597E+00
     33.687  0.2722E-08  0.1597E+00
     33.830  0.0000E+00  0.1597E+00
     33.973  0.0000E+00  0.1597E+00
     34.116  0.1268E-10  0.1597E+00
     34.259  0.4646E-04  0.1597E+00
     34.402  0.5816E-03  0.1598E+00
     34.545  0.3500E-03  0.1598E+00
     34.687  0.3437E-03  0.1599E+00
     34.830  0.7776E-03  0.1600E+00
     34.973  0.4262E-05  0.1600E+00
     35.116  0.1595E-13  0.1600E+00
     35.259  0.0000E+00  0.1600E+00
     35.402  0.0000E+00  0.1600E+00
     35.545  0.0000E+00  0.1600E+00
     35.687  0.0000E+00  0.1600E+00
     35.830  0.0000E+00  0.1600E+00
     35.973  0.0000E+00  0.1600E+00
     36.116  0.0000E+00  0.1600E+00
     36.259  0.0000E+00  0.1600E+00
     36.402  0.0000E+00  0.1600E+00
     36.545  0.0000E+00  0.1600E+00
     36.687  0.0000E+00  0.1600E+00
