    1    1  100    1
  0.1428306E+02  0.2647368E-09  0.2647368E-09  0.2647368E-09  0.5000000E-15
  1.000000000000000E-004
  CAR 
 unknown system                          
      4     56      8
 
  0.0000000E+00  0.0000000E+00  0.0000000E+00  0.7513148E-03
    1       -4.222248   1.000000
    2       21.915249   0.000000
    3       21.915249   0.000000
    4       21.915249   0.000000
    5       22.887137   0.000000
    6       22.887137   0.000000
    7       22.887137   0.000000
    8       26.618727   0.000000
 
  0.9090909E-01  0.0000000E+00  0.0000000E+00  0.9015778E-02
    1       -3.965123   1.000000
    2       19.279938   0.000000
    3       20.177181   0.000000
    4       21.541384   0.000000
    5       22.097530   0.000000
    6       23.847810   0.000000
    7       25.047549   0.000000
    8       25.453990   0.000000
 
  0.1818182E+00  0.0000000E+00  0.0000000E+00  0.9015778E-02
    1       -3.195617   1.000000
    2       15.435143   0.000000
    3       18.465952   0.000000
    4       20.635524   0.000000
    5       20.638274   0.000000
    6       22.789485   0.000000
    7       26.271069   0.000000
    8       26.600184   0.000000
 
  0.2727273E+00  0.0000000E+00  0.0000000E+00  0.9015778E-02
    1       -1.919478   1.000000
    2       11.575518   0.000000
    3       17.175712   0.000000
    4       19.322553   0.000000
    5       19.666585   0.000000
    6       21.590282   0.000000
    7       27.441240   0.000000
    8       27.749662   0.000000
 
  0.3636364E+00  0.0000000E+00  0.0000000E+00  0.9015778E-02
    1       -0.146396   1.000000
    2        8.011500   1.000000
    3       16.315941   0.000000
    4       18.392147   0.000000
    5       18.925369   0.000000
    6       20.737336   0.000000
    7       28.784590   0.000000
    8       29.472394   0.000000
 
  0.4545455E+00  0.0000000E+00  0.0000000E+00  0.9015778E-02
    1        2.106512   1.000000
    2        4.850082   1.000000
    3       15.886563   0.000000
    4       17.916864   0.000000
    5       18.534770   0.000000
    6       20.297627   0.000000
    7       30.339909   0.000000
    8       31.099356   0.000000
 
  0.9090909E-01  0.9090909E-01  0.0000000E+00  0.1803156E-01
    1       -3.451794   1.000000
    2       17.268754   0.000000
    3       17.761046   0.000000
    4       19.825668   0.000000
    5       22.536991   0.000000
    6       23.912250   0.000000
    7       25.085035   0.000000
    8       26.314117   0.000000
 
  0.1818182E+00  0.9090909E-01 -0.3469447E-16  0.3606311E-01
    1       -2.428965   1.000000
    2       13.636182   0.000000
    3       16.000370   0.000000
    4       18.473970   0.000000
    5       21.849152   0.000000
    6       23.369409   0.000000
    7       25.667505   0.000000
    8       28.151276   0.000000
 
  0.2727273E+00  0.9090909E-01  0.0000000E+00  0.3606311E-01
    1       -0.904233   1.000000
    2        9.924091   1.000000
    3       14.869313   0.000000
    4       17.423157   0.000000
    5       20.916927   0.000000
    6       22.880497   0.000000
    7       26.567595   0.000000
    8       30.041185   0.000000
 
  0.3636364E+00  0.9090909E-01 -0.2775558E-16  0.3606311E-01
    1        1.110214   1.000000
    2        6.558365   1.000000
    3       14.187593   0.000000
    4       16.769041   0.000000
    5       20.288048   0.000000
    6       22.446492   0.000000
    7       28.107771   0.000000
    8       31.147995   0.000000
 
  0.4545455E+00  0.9090909E-01 -0.6245005E-16  0.1803156E-01
    1        3.454451   1.000000
    2        3.759445   1.000000
    3       13.959343   0.000000
    4       16.548118   0.000000
    5       20.071962   0.000000
    6       22.281366   0.000000
    7       29.805145   0.000000
    8       30.188909   0.000000
 
  0.1818182E+00  0.1818182E+00  0.0000000E+00  0.1803156E-01
    1       -1.157480   1.000000
    2       12.116777   0.000000
    3       12.411266   0.000000
    4       17.242593   0.000000
    5       22.492475   0.000000
    6       23.339807   0.000000
    7       27.357709   0.000000
    8       28.450328   0.000000
 
  0.2727273E+00  0.1818182E+00  0.1387779E-16  0.3606311E-01
    1        0.609266   1.000000
    2        8.727109   1.000000
    3       11.331619   0.000000
    4       16.389896   0.000000
    5       22.109485   0.000000
    6       24.181918   0.000000
    7       27.537675   0.000000
    8       30.288862   0.000000
 
  0.3636364E+00  0.1818182E+00  0.0000000E+00  0.3606311E-01
    1        2.854475   1.000000
    2        5.583865   1.000000
    3       10.856485   0.000000
    4       15.952447   0.000000
    5       21.730226   0.000000
    6       25.081347   0.000000
    7       27.880287   0.000000
    8       29.765918   0.000000
 
  0.2727273E+00  0.2727273E+00 -0.2775558E-16  0.1803156E-01
    1        2.608713   1.000000
    2        7.899902   1.000000
    3        8.120988   1.000000
    4       15.751512   0.000000
    5       23.433558   0.000000
    6       24.255823   0.000000
    7       28.204206   0.000000
    8       30.594431   0.000000
 
  0.3636364E+00  0.2727273E+00  0.0000000E+00  0.1803156E-01
    1        4.948500   1.000000
    2        5.217589   1.000000
    3        7.775635   1.000000
    4       15.534776   0.000000
    5       23.558220   0.000000
    6       25.558772   0.000000
    7       26.557832   0.000000
    8       31.448870   0.000000
 
  0.9090909E-01  0.9090909E-01  0.9090909E-01  0.6010518E-02
    1       -2.684208   1.000000
    2       15.407337   0.000000
    3       16.188462   0.000000
    4       16.188462   0.000000
    5       24.535570   0.000000
    6       24.535570   0.000000
    7       26.456398   0.000000
    8       26.456398   0.000000
 
  0.1818182E+00  0.9090909E-01  0.9090909E-01  0.1803156E-01
    1       -1.411184   1.000000
    2       12.034653   0.000000
    3       14.358789   0.000000
    4       14.859658   0.000000
    5       24.322673   0.000000
    6       24.785624   0.000000
    7       27.656595   0.000000
    8       27.818890   0.000000
 
  0.2727273E+00  0.9090909E-01  0.9090909E-01  0.1803156E-01
    1        0.357787   1.000000
    2        8.494164   1.000000
    3       13.434457   0.000000
    4       13.939667   0.000000
    5       23.894423   0.000000
    6       24.197609   0.000000
    7       29.195521   0.000000
    8       29.628348   0.000000
 
  0.3636364E+00  0.9090909E-01  0.9090909E-01  0.1803156E-01
    1        2.606025   1.000000
    2        5.341443   1.000000
    3       12.975874   0.000000
    4       13.472381   0.000000
    5       23.606404   0.000000
    6       23.844143   0.000000
    7       30.645096   0.000000
    8       31.320751   0.000000
 
 -0.9090909E-01  0.9090909E-01  0.9090909E-01  0.4507889E-02
    1       -3.708278   1.000000
    2       18.742603   0.000000
    3       18.742603   0.000000
    4       20.156692   0.000000
    5       22.884327   0.000000
    6       23.382140   0.000000
    7       24.823747   0.000000
    8       24.823747   0.000000
 
  0.1818182E+00  0.1818182E+00  0.9090909E-01  0.1803156E-01
    1        0.106267   1.000000
    2       10.732626   0.000000
    3       11.027564   0.000000
    4       13.494888   0.000000
    5       25.418632   0.000000
    6       26.282392   0.000000
    7       28.403262   0.000000
    8       29.247995   0.000000
 
  0.2727273E+00  0.1818182E+00  0.9090909E-01  0.3606311E-01
    1        2.111496   1.000000
    2        7.529408   1.000000
    3       10.176400   0.789211
    4       12.799091   0.000000
    5       25.500426   0.000000
    6       26.862839   0.000000
    7       29.483787   0.000000
    8       30.985955   0.000000
 
  0.3636364E+00  0.1818182E+00  0.9090909E-01  0.1803156E-01
    1        4.455304   1.000000
    2        4.735887   1.000000
    3        9.936103   1.000000
    4       12.566404   0.000000
    5       25.405050   0.000000
    6       27.064974   0.000000
    7       30.386185   0.000000
    8       31.212379   0.000000
 
 -0.1818182E+00  0.1818182E+00  0.9090909E-01  0.1803156E-01
    1       -2.939683   1.000000
    2       15.562593   0.000000
    3       17.034009   0.000000
    4       19.319188   0.000000
    5       21.622397   0.000000
    6       22.473416   0.000000
    7       25.069791   0.000000
    8       27.296236   0.000000
 
  0.2727273E+00  0.2727273E+00  0.9090909E-01  0.1803156E-01
    1        4.339351   1.000000
    2        6.938882   1.000000
    3        7.167314   1.000000
    4       12.333410   0.000000
    5       26.784598   0.000000
    6       27.986092   0.000000
    7       29.669627   0.000000
    8       31.853903   0.000000
 
 -0.2727273E+00  0.2727273E+00  0.9090909E-01  0.1803156E-01
    1       -1.665115   1.000000
    2       11.788424   0.000000
    3       15.707636   0.000000
    4       18.301397   0.000000
    5       21.242850   0.000000
    6       21.729602   0.000000
    7       24.853213   0.000000
    8       30.509325   0.000000
 
 -0.1818182E+00  0.2727273E+00  0.9090909E-01  0.1803156E-01
    1       -1.919321   1.000000
    2       13.867329   0.000000
    3       14.114898   0.000000
    4       18.830212   0.000000
    5       20.449097   0.000000
    6       22.113304   0.000000
    7       26.757121   0.000000
    8       27.671892   0.000000
 
 -0.3636364E+00  0.3636364E+00  0.9090909E-01  0.1803156E-01
    1        0.105751   1.000000
    2        8.246244   1.000000
    3       14.813717   0.000000
    4       17.464813   0.000000
    5       20.357280   0.000000
    6       21.845501   0.000000
    7       25.451347   0.000000
    8       30.833720   0.000000
 
 -0.2727273E+00  0.3636364E+00  0.9090909E-01  0.3606311E-01
    1       -0.398353   1.000000
    2       10.370956   0.000001
    3       12.845790   0.000000
    4       18.233475   0.000000
    5       20.526746   0.000000
    6       21.663930   0.000000
    7       26.469883   0.000000
    8       29.662835   0.000000
 
 -0.4545455E+00  0.4545455E+00  0.9090909E-01  0.1803156E-01
    1        2.355867   1.000000
    2        5.093411   1.000000
    3       14.365015   0.000000
    4       17.025512   0.000000
    5       19.903719   0.000000
    6       21.757132   0.000000
    7       26.994951   0.000000
    8       29.131511   0.000000
 
 -0.3636364E+00  0.4545455E+00  0.9090909E-01  0.3606311E-01
    1        1.610859   1.000000
    2        7.036281   1.000000
    3       12.146214   0.000000
    4       17.655069   0.000000
    5       20.198410   0.000000
    6       22.667143   0.000000
    7       25.941591   0.000000
    8       28.764288   0.000000
 
 -0.2727273E+00  0.4545455E+00  0.9090909E-01  0.1803156E-01
    1        1.361381   1.000000
    2        9.319085   1.000000
    3        9.527349   1.000000
    4       18.520780   0.000000
    5       20.649398   0.000000
    6       21.166378   0.000000
    7       27.111541   0.000000
    8       29.597080   0.000000
 
 -0.4545455E+00 -0.4545455E+00  0.9090909E-01  0.1803156E-01
    1        3.956239   1.000000
    2        4.241826   1.000000
    3       11.912126   0.000000
    4       17.447558   0.000000
    5       20.013086   0.000000
    6       23.483311   0.000000
    7       25.723904   0.000000
    8       27.754167   0.000000
 
 -0.3636364E+00 -0.4545455E+00  0.9090909E-01  0.3606311E-01
    1        3.596879   1.000000
    2        6.306406   1.000000
    3        8.948988   1.000000
    4       18.347968   0.000000
    5       20.551646   0.000000
    6       22.482376   0.000000
    7       24.801896   0.000000
    8       30.334622   0.000000
 
 -0.3636364E+00 -0.3636364E+00  0.9090909E-01  0.6010518E-02
    1        5.827848   1.000000
    2        6.176100   1.000000
    3        6.176101   1.000000
    4       18.419954   0.000000
    5       22.132110   0.000000
    6       22.484998   0.000000
    7       22.484998   0.000000
    8       33.385121   0.000000
 
  0.1818182E+00  0.1818182E+00  0.1818182E+00  0.6010518E-02
    1        1.862599   1.000000
    2        9.680376   1.000000
    3       10.083920   0.999686
    4       10.083920   0.999686
    5       28.106222   0.000000
    6       28.106222   0.000000
    7       30.009280   0.000000
    8       30.009280   0.000000
 
  0.2727273E+00  0.1818182E+00  0.1818182E+00  0.1803156E-01
    1        4.095170   1.000000
    2        6.804435   1.000000
    3        9.352640   1.000000
    4        9.607238   1.000000
    5       28.712537   0.000000
    6       28.992807   0.000000
    7       31.304670   0.000000
    8       31.631277   0.000000
 
 -0.1818182E+00  0.1818182E+00  0.1818182E+00  0.4507889E-02
    1       -2.173880   1.000000
    2       15.297906   0.000000
    3       15.297906   0.000000
    4       17.302063   0.000000
    5       18.845718   0.000000
    6       24.882513   0.000000
    7       26.556336   0.000000
    8       26.556336   0.000000
 
  0.2727273E+00  0.2727273E+00  0.1818182E+00  0.6010518E-02
    1        6.308056   1.000000
    2        6.687254   1.000000
    3        6.687254   1.000000
    4        9.249191   1.000000
    5       29.879563   0.000000
    6       31.047578   0.000000
    7       31.047579   0.000000
    8       32.687994   0.000000
 
 -0.2727273E+00  0.2727273E+00  0.1818182E+00  0.1803156E-01
    1       -0.903939   1.000000
    2       12.371045   0.000000
    3       13.948889   0.000000
    4       16.492432   0.000000
    5       18.374213   0.000000
    6       24.325197   0.000000
    7       26.512961   0.000000
    8       29.286065   0.000000
 
 -0.3636364E+00  0.3636364E+00  0.1818182E+00  0.1803156E-01
    1        0.860154   1.000000
    2        8.939562   1.000000
    3       13.040088   0.000000
    4       15.667040   0.000000
    5       19.593958   0.000000
    6       23.506346   0.000000
    7       25.434340   0.000000
    8       28.306328   0.000000
 
 -0.2727273E+00  0.3636364E+00  0.1818182E+00  0.1803156E-01
    1        0.609282   1.000000
    2       11.121564   0.000000
    3       11.290992   0.000000
    4       16.569759   0.000000
    5       17.513654   0.000000
    6       24.111855   0.000000
    7       26.466407   0.000000
    8       28.981941   0.000000
 
 -0.4545455E+00  0.4545455E+00  0.1818182E+00  0.1803156E-01
    1        3.101080   1.000000
    2        5.819494   1.000000
    3       12.584412   0.000000
    4       15.209539   0.000000
    5       21.198323   0.000000
    6       23.072598   0.000000
    7       23.928791   0.000000
    8       27.381928   0.000000
 
 -0.3636364E+00  0.4545455E+00  0.1818182E+00  0.3606311E-01
    1        2.607226   1.000000
    2        7.976331   1.000000
    3       10.503824   0.000000
    4       16.251599   0.000000
    5       18.752133   0.000000
    6       23.095625   0.000000
    7       24.378163   0.000000
    8       29.548149   0.000000
 
 -0.4545455E+00 -0.4545455E+00  0.1818182E+00  0.1803156E-01
    1        4.950483   1.000000
    2        5.202221   1.000000
    3       10.266910   0.039517
    4       16.044895   0.000000
    5       20.291670   0.000000
    6       21.555704   0.000000
    7       23.801948   0.000000
    8       29.520326   0.000000
 
 -0.3636364E+00 -0.4545455E+00  0.1818182E+00  0.1803156E-01
    1        4.822850   1.000000
    2        7.403473   1.000000
    3        7.593198   1.000000
    4       17.659741   0.000000
    5       18.737164   0.000000
    6       20.834842   0.000000
    7       23.752423   0.000000
    8       32.423453   0.000000
 
 -0.2727273E+00  0.2727273E+00  0.2727273E+00  0.4507889E-02
    1        0.357957   1.000000
    2       12.587011   0.000000
    3       12.587011   0.000000
    4       14.771909   0.000000
    5       15.754295   0.000000
    6       26.107028   0.000000
    7       27.351514   0.000000
    8       28.775545   0.000000
 
 -0.3636364E+00  0.3636364E+00  0.2727273E+00  0.1803156E-01
    1        2.109870   1.000000
    2       10.023672   1.000000
    3       11.670967   0.000000
    4       14.205967   0.000000
    5       15.977847   0.000000
    6       23.154031   0.000000
    7       27.121102   0.000000
    8       29.576678   0.000000
 
 -0.4545455E+00  0.4545455E+00  0.2727273E+00  0.1803156E-01
    1        4.332712   1.000000
    2        7.010984   1.000000
    3       11.211995   0.000000
    4       13.767464   0.000000
    5       17.817440   0.000000
    6       20.399180   0.000000
    7       26.723521   0.000000
    8       29.690490   0.000000
 
 -0.3636364E+00  0.4545455E+00  0.2727273E+00  0.1803156E-01
    1        4.088073   1.000000
    2        9.241605   1.000000
    3        9.386757   1.000000
    4       14.835482   0.000000
    5       15.518760   0.000000
    6       20.144150   0.000000
    7       27.472907   0.000000
    8       31.820666   0.000000
 
 -0.4545455E+00 -0.4545455E+00  0.2727273E+00  0.1803156E-01
    1        6.412775   1.000000
    2        6.624096   1.000000
    3        9.080596   1.000000
    4       14.866684   0.000000
    5       17.132787   0.000000
    6       17.764823   0.000000
    7       27.356091   0.000000
    8       32.436418   0.000000
 
 -0.3636364E+00  0.3636364E+00  0.3636364E+00  0.4507889E-02
    1        3.841874   1.000000
    2       10.751743   0.000000
    3       10.751743   0.000000
    4       12.945947   0.000000
    5       13.676473   0.000000
    6       19.914723   0.000000
    7       30.677573   0.000000
    8       31.619153   0.000000
 
 -0.4545455E+00  0.4545455E+00  0.3636364E+00  0.1803156E-01
    1        6.028500   1.000000
    2        8.598048   1.000000
    3       10.291215   0.007267
    4       12.755534   0.000000
    5       14.513147   0.000000
    6       16.994024   0.000000
    7       30.702483   0.000000
    8       32.544622   0.000000
 
 -0.4545455E+00 -0.4545455E+00  0.3636364E+00  0.6010518E-02
    1        8.210164   1.000000
    2        8.431234   1.000000
    3        8.431235   1.000000
    4       13.710035   0.000000
    5       14.516478   0.000000
    6       14.516478   0.000000
    7       31.244035   0.000000
    8       34.739412   0.000000
 
 -0.4545455E+00  0.4545455E+00  0.4545455E+00  0.4507889E-02
    1        8.113708   1.000000
    2        9.829779   1.000000
    3        9.829779   1.000000
    4       11.957260   0.000000
    5       12.633423   0.000000
    6       14.076250   0.000000
    7       34.310128   0.000000
    8       34.540168   0.000000
