 vasp.6.2.0 18Jan21 (build Aug 12 2022 13:00:08) complex                        
  
 executed on             LinuxIFC date 2024.11.05  05:29:08
 running on    4 total cores
 distrk:  each k-point on    4 cores,    1 groups
 distr:  one band on NCORE=   1 cores,    4 groups


--------------------------------------------------------------------------------------------------------


 INCAR:
   ISTART = 0            (Read existing wavefunction, if there)
   ISPIN = 1            (Non-Spin polarised DFT)
   LREAL = .FALSE.       (Projection operators: automatic)
   LWAVE = .FALSE.        (Write WAVECAR or not)
   LCHARG = .FALSE.        (Write CHGCAR or not)
   ADDGRID = .TRUE.        (Increase grid, helps GGA convergence)
   LASPH = .TRUE.        (Give more accurate total energies and band structure calculations)
   PREC = Accurate      (Accurate strictly avoids any aliasing or wrap around errors)
   ENCUT = 350          (Cut-off energy for plane wave basis set, in eV)
   ISMEAR = 0            (Gaussian smearing, metals:1)
   SIGMA = 0.05         (Smearing value in eV, metals:0.2)
   NELM = 90           (Max electronic SCF steps)
   NELMIN = 6            (Min electronic SCF steps)
   EDIFF = 1E-06        (SCF energy convergence, in eV)
   NSW = 100          (Max ionic steps)
   IBRION = 2            (Algorithm: 0-MD, 1-Quasi-New, 2-CG)
   ISIF = 2            (Stress/relaxation: 2-Ions, 3-Shape/Ions/V, 4-Shape/Ions)
   EDIFFG = -2E-03        (Ionic convergence, eV/AA)
   ISYM = 2              (Symmetry: 0\=none, 2\=GGA, 3\=hybrids)

 POTCAR:    PAW_PBE Si 05Jan2001                  
 POTCAR:    PAW_PBE Si 05Jan2001                  
   VRHFIN =Si: s2p2                                                                                 
   LEXCH  = PE                                                                                      
   EATOM  =   103.0669 eV,    7.5752 Ry                                                             
                                                                                                    
   TITEL  = PAW_PBE Si 05Jan2001                                                                    
   LULTRA =        F    use ultrasoft PP ?                                                          
   IUNSCR =        1    unscreen: 0-lin 1-nonlin 2-no                                               
   RPACOR =    1.500    partial core radius                                                         
   POMASS =   28.085; ZVAL   =    4.000    mass and valenz                                          
   RCORE  =    1.900    outmost cutoff radius                                                       
   RWIGS  =    2.480; RWIGS  =    1.312    wigner-seitz radius (au A)                               
   ENMAX  =  245.345; ENMIN  =  184.009 eV                                                          
   ICORE  =        2    local potential                                                             
   LCOR   =        T    correct aug charges                                                         
   LPAW   =        T    paw PP                                                                      
   EAUG   =  322.069                                                                                
   DEXC   =    0.000                                                                                
   RMAX   =    1.950    core radius for proj-oper                                                   
   RAUG   =    1.300    factor for augmentation sphere                                              
   RDEP   =    1.993    radius for radial grids                                                     
   RDEPT  =    1.837    core radius for aug-charge                                                  
                                                                                                    
   Atomic configuration                                                                             
    6 entries                                                                                       
     n  l   j            E        occ.                                                              
     1  0  0.50     -1785.8828   2.0000                                                             
     2  0  0.50      -139.4969   2.0000                                                             
     2  1  1.50       -95.5546   6.0000                                                             
     3  0  0.50       -10.8127   2.0000                                                             
     3  1  0.50        -4.0811   2.0000                                                             
     3  2  1.50        -4.0817   0.0000                                                             
   Description                                                                                      
     l       E           TYP  RCUT    TYP  RCUT                                                     
     0    -10.8127223     23  1.900                                                                 
     0     -7.6451159     23  1.900                                                                 
     1     -4.0811372     23  1.900                                                                 
     1      2.4879257     23  1.900                                                                 
     2     -4.0817478      7  1.900                                                                 
  local pseudopotential read in
  partial core-charges read in
  partial kinetic energy density read in
  atomic valenz-charges read in
  non local Contribution for L=           0  read in
    real space projection operators read in
  non local Contribution for L=           0  read in
    real space projection operators read in
  non local Contribution for L=           1  read in
    real space projection operators read in
  non local Contribution for L=           1  read in
    real space projection operators read in
    PAW grid and wavefunctions read in
 
   number of l-projection  operators is LMAX  =           4
   number of lm-projection operators is LMMAX =           8
 
  PAW_PBE Si 05Jan2001                  :
 energy of atom  1       EATOM= -103.0669
 kinetic energy error for atom=    0.0013 (will be added to EATOM!!)
 
 
 POSCAR: Si1
  positions in direct lattice
  No initial velocities read in
 exchange correlation table for  LEXCH =        8
   RHO(1)=    0.500       N(1)  =     2000
   RHO(2)=  100.500       N(2)  =     4000
 


--------------------------------------------------------------------------------------------------------


 ion  position               nearest neighbor table
   1  0.000  0.000  0.000-
 
  LATTYP: Found a body centered cubic cell.
 ALAT       =     3.0569177726
  
  Lattice vectors:
  
 A1 = (   1.5284588863,   1.5284588863,   1.5284588863)
 A2 = (   1.5284588863,  -1.5284588863,  -1.5284588863)
 A3 = (  -1.5284588863,   1.5284588863,  -1.5284588863)


Analysis of symmetry for initial positions (statically):
=====================================================================
 Subroutine PRICEL returns:
 Original cell was already a primitive cell.
 

 Routine SETGRP: Setting up the symmetry group for a 
 body centered cubic supercell.


 Subroutine GETGRP returns: Found 48 space group operations
 (whereof 48 operations were pure point group operations)
 out of a pool of 48 trial point group operations.


The static configuration has the point symmetry O_h .


Analysis of symmetry for dynamics (positions and initial velocities):
=====================================================================
 Subroutine PRICEL returns:
 Original cell was already a primitive cell.
 

 Routine SETGRP: Setting up the symmetry group for a 
 body centered cubic supercell.


 Subroutine GETGRP returns: Found 48 space group operations
 (whereof 48 operations were pure point group operations)
 out of a pool of 48 trial point group operations.


The dynamic configuration has the point symmetry O_h .


 Subroutine INISYM returns: Found 48 space group operations
 (whereof 48 operations are pure point group operations),
 and found     1 'primitive' translations


----------------------------------------------------------------------------------------

                                     Primitive cell                                     

  volume of cell :      14.2831

  direct lattice vectors                    reciprocal lattice vectors
     1.528458886  1.528458886  1.528458886     0.327126889  0.327126889  0.000000000
     1.528458886 -1.528458886 -1.528458886     0.327126889  0.000000000 -0.327126889
    -1.528458886  1.528458886 -1.528458886     0.000000000  0.327126889 -0.327126889

  length of vectors
     2.647368448  2.647368448  2.647368448     0.462627283  0.462627283  0.462627283

  position of ions in fractional coordinates (direct lattice)
     0.000000000  0.000000000  0.000000000

  ion indices of the primitive-cell ions
   primitive index   ion index
                 1           1

----------------------------------------------------------------------------------------

 
 
 KPOINTS: Automatic                               

Automatic generation of k-mesh.
 Grid dimensions read from file:
 generate k-points for:   11   11   11

 Generating k-lattice:

  Cartesian coordinates                     Fractional coordinates (reciprocal lattice)
     0.029738808  0.029738808  0.000000000     0.090909091  0.000000000  0.000000000
     0.029738808  0.000000000 -0.029738808     0.000000000  0.090909091  0.000000000
     0.000000000  0.029738808 -0.029738808     0.000000000  0.000000000  0.090909091

  Length of vectors
     0.042057026  0.042057026  0.042057026

  Shift w.r.t. Gamma in fractional coordinates (k-lattice)
     0.000000000  0.000000000  0.000000000

 
 Subroutine IBZKPT returns following result:
 ===========================================
 
 Found     56 irreducible k-points:
 
 Following reciprocal coordinates:
            Coordinates               Weight
  0.000000  0.000000  0.000000      1.000000
  0.090909  0.000000  0.000000     12.000000
  0.181818  0.000000  0.000000     12.000000
  0.272727  0.000000  0.000000     12.000000
  0.363636  0.000000  0.000000     12.000000
  0.454545  0.000000  0.000000     12.000000
  0.090909  0.090909  0.000000     24.000000
  0.181818  0.090909 -0.000000     48.000000
  0.272727  0.090909  0.000000     48.000000
  0.363636  0.090909 -0.000000     48.000000
  0.454545  0.090909 -0.000000     24.000000
  0.181818  0.181818  0.000000     24.000000
  0.272727  0.181818  0.000000     48.000000
  0.363636  0.181818  0.000000     48.000000
  0.272727  0.272727 -0.000000     24.000000
  0.363636  0.272727  0.000000     24.000000
  0.090909  0.090909  0.090909      8.000000
  0.181818  0.090909  0.090909     24.000000
  0.272727  0.090909  0.090909     24.000000
  0.363636  0.090909  0.090909     24.000000
 -0.090909  0.090909  0.090909      6.000000
  0.181818  0.181818  0.090909     24.000000
  0.272727  0.181818  0.090909     48.000000
  0.363636  0.181818  0.090909     24.000000
 -0.181818  0.181818  0.090909     24.000000
  0.272727  0.272727  0.090909     24.000000
 -0.272727  0.272727  0.090909     24.000000
 -0.181818  0.272727  0.090909     24.000000
 -0.363636  0.363636  0.090909     24.000000
 -0.272727  0.363636  0.090909     48.000000
 -0.454545  0.454545  0.090909     24.000000
 -0.363636  0.454545  0.090909     48.000000
 -0.272727  0.454545  0.090909     24.000000
 -0.454545 -0.454545  0.090909     24.000000
 -0.363636 -0.454545  0.090909     48.000000
 -0.363636 -0.363636  0.090909      8.000000
  0.181818  0.181818  0.181818      8.000000
  0.272727  0.181818  0.181818     24.000000
 -0.181818  0.181818  0.181818      6.000000
  0.272727  0.272727  0.181818      8.000000
 -0.272727  0.272727  0.181818     24.000000
 -0.363636  0.363636  0.181818     24.000000
 -0.272727  0.363636  0.181818     24.000000
 -0.454545  0.454545  0.181818     24.000000
 -0.363636  0.454545  0.181818     48.000000
 -0.454545 -0.454545  0.181818     24.000000
 -0.363636 -0.454545  0.181818     24.000000
 -0.272727  0.272727  0.272727      6.000000
 -0.363636  0.363636  0.272727     24.000000
 -0.454545  0.454545  0.272727     24.000000
 -0.363636  0.454545  0.272727     24.000000
 -0.454545 -0.454545  0.272727     24.000000
 -0.363636  0.363636  0.363636      6.000000
 -0.454545  0.454545  0.363636     24.000000
 -0.454545 -0.454545  0.363636      8.000000
 -0.454545  0.454545  0.454545      6.000000
 
 Following cartesian coordinates:
            Coordinates               Weight
  0.000000  0.000000  0.000000      1.000000
  0.030036  0.030036  0.000000     12.000000
  0.060072  0.060072  0.000000     12.000000
  0.090109  0.090109  0.000000     12.000000
  0.120145  0.120145  0.000000     12.000000
  0.150181  0.150181  0.000000     12.000000
  0.060072  0.030036 -0.030036     24.000000
  0.090109  0.060072 -0.030036     48.000000
  0.120145  0.090109 -0.030036     48.000000
  0.150181  0.120145 -0.030036     48.000000
  0.180217  0.150181 -0.030036     24.000000
  0.120145  0.060072 -0.060072     24.000000
  0.150181  0.090109 -0.060072     48.000000
  0.180217  0.120145 -0.060072     48.000000
  0.180217  0.090109 -0.090109     24.000000
  0.210253  0.120145 -0.090109     24.000000
  0.060072  0.060072 -0.060072      8.000000
  0.090109  0.090109 -0.060072     24.000000
  0.120145  0.120145 -0.060072     24.000000
  0.150181  0.150181 -0.060072     24.000000
  0.000000  0.000000 -0.060072      6.000000
  0.120145  0.090109 -0.090109     24.000000
  0.150181  0.120145 -0.090109     48.000000
  0.180217  0.150181 -0.090109     24.000000
  0.000000 -0.030036 -0.090109     24.000000
  0.180217  0.120145 -0.120145     24.000000
  0.000000 -0.060072 -0.120145     24.000000
  0.030036 -0.030036 -0.120145     24.000000
  0.000000 -0.090109 -0.150181     24.000000
  0.030036 -0.060072 -0.150181     48.000000
  0.000000 -0.120145 -0.180217     24.000000
  0.030036 -0.090109 -0.180217     48.000000
  0.060072 -0.060072 -0.180217     24.000000
 -0.300362 -0.120145  0.120145     24.000000
 -0.270326 -0.090109  0.120145     48.000000
 -0.240290 -0.090109  0.090109      8.000000
  0.120145  0.120145 -0.120145      8.000000
  0.150181  0.150181 -0.120145     24.000000
  0.000000  0.000000 -0.120145      6.000000
  0.180217  0.150181 -0.150181      8.000000
  0.000000 -0.030036 -0.150181     24.000000
  0.000000 -0.060072 -0.180217     24.000000
  0.030036 -0.030036 -0.180217     24.000000
  0.000000 -0.090109 -0.210253     24.000000
  0.030036 -0.060072 -0.210253     48.000000
 -0.300362 -0.090109  0.090109     24.000000
 -0.270326 -0.060072  0.090109     24.000000
  0.000000  0.000000 -0.180217      6.000000
  0.000000 -0.030036 -0.210253     24.000000
  0.000000 -0.060072 -0.240290     24.000000
  0.030036 -0.030036 -0.240290     24.000000
 -0.300362 -0.060072  0.060072     24.000000
  0.000000  0.000000 -0.240290      6.000000
  0.000000 -0.030036 -0.270326     24.000000
 -0.300362 -0.030036  0.030036      8.000000
  0.000000  0.000000 -0.300362      6.000000
 


--------------------------------------------------------------------------------------------------------




 Dimension of arrays:
   k-points           NKPTS =     56   k-points in BZ     NKDIM =     56   number of bands    NBANDS=      8
   number of dos      NEDOS =    301   number of ions     NIONS =      1
   non local maximal  LDIM  =      4   non local SUM 2l+1 LMDIM =      8
   total plane-waves  NPLWV =   4096
   max r-space proj   IRMAX =      1   max aug-charges    IRDMAX=  76896
   dimension x,y,z NGX =    16 NGY =   16 NGZ =   16
   dimension x,y,z NGXF=    32 NGYF=   32 NGZF=   32
   support grid    NGXF=    64 NGYF=   64 NGZF=   64
   ions per type =               1
   NGX,Y,Z   is equivalent  to a cutoff of  10.05, 10.05, 10.05 a.u.
   NGXF,Y,Z  is equivalent  to a cutoff of  20.09, 20.09, 20.09 a.u.

 SYSTEM =  unknown system                          
 POSCAR =  Si1                                     

 Startparameter for this run:
   NWRITE =      2    write-flag & timer
   PREC   = accura    normal or accurate (medium, high low for compatibility)
   ISTART =      0    job   : 0-new  1-cont  2-samecut
   ICHARG =      2    charge: 1-file 2-atom 10-const
   ISPIN  =      1    spin polarized calculation?
   LNONCOLLINEAR =      F non collinear calculations
   LSORBIT =      F    spin-orbit coupling
   INIWAV =      1    electr: 0-lowe 1-rand  2-diag
   LASPH  =      T    aspherical Exc in radial PAW
   METAGGA=      F    non-selfconsistent MetaGGA calc.

 Electronic Relaxation 1
   ENCUT  =  350.0 eV  25.72 Ry    5.07 a.u.   4.04  4.04  4.04*2*pi/ulx,y,z
   ENINI  =  350.0     initial cutoff
   ENAUG  =  322.1 eV  augmentation charge cutoff
   NELM   =     90;   NELMIN=  6; NELMDL= -5     # of ELM steps 
   EDIFF  = 0.1E-05   stopping-criterion for ELM
   LREAL  =      F    real-space projection
   NLSPLINE    = F    spline interpolate recip. space projectors
   LCOMPAT=      F    compatible to vasp.4.4
   GGA_COMPAT  = T    GGA compatible to vasp.4.4-vasp.4.6
   LMAXPAW     = -100 max onsite density
   LMAXMIX     =    2 max onsite mixed and CHGCAR
   VOSKOWN=      0    Vosko Wilk Nusair interpolation
   ROPT   =    0.00000
 Ionic relaxation
   EDIFFG = -.2E-02   stopping-criterion for IOM
   NSW    =    100    number of steps for IOM
   NBLOCK =      1;   KBLOCK =    100    inner block; outer block 
   IBRION =      2    ionic relax: 0-MD 1-quasi-New 2-CG
   NFREE  =      1    steps in history (QN), initial steepest desc. (CG)
   ISIF   =      2    stress and relaxation
   IWAVPR =     11    prediction:  0-non 1-charg 2-wave 3-comb
   ISYM   =      2    0-nonsym 1-usesym 2-fastsym
   LCORR  =      T    Harris-Foulkes like correction to forces

   POTIM  = 0.5000    time-step for ionic-motion
   TEIN   =    0.0    initial temperature
   TEBEG  =    0.0;   TEEND  =   0.0 temperature during run
   SMASS  =  -3.00    Nose mass-parameter (am)
   estimated Nose-frequenzy (Omega)   =  0.10E-29 period in steps = 0.13E+47 mass=  -0.160E-27a.u.
   SCALEE = 1.0000    scale energy and forces
   NPACO  =    256;   APACO  = 16.0  distance and # of slots for P.C.
   PSTRESS=    0.0 pullay stress

  Mass of Ions in am
   POMASS =  28.09
  Ionic Valenz
   ZVAL   =   4.00
  Atomic Wigner-Seitz radii
   RWIGS  =  -1.00
  virtual crystal weights 
   VCA    =   1.00
   NELECT =       4.0000    total number of electrons
   NUPDOWN=      -1.0000    fix difference up-down

 DOS related values:
   EMIN   =  10.00;   EMAX   =-10.00  energy-range for DOS
   EFERMI =   0.00
   ISMEAR =     0;   SIGMA  =   0.05  broadening in eV -4-tet -1-fermi 0-gaus

 Electronic relaxation 2 (details)
   IALGO  =     38    algorithm
   LDIAG  =      T    sub-space diagonalisation (order eigenvalues)
   LSUBROT=      F    optimize rotation matrix (better conditioning)
   TURBO    =      0    0=normal 1=particle mesh
   IRESTART =      0    0=no restart 2=restart with 2 vectors
   NREBOOT  =      0    no. of reboots
   NMIN     =      0    reboot dimension
   EREF     =   0.00    reference energy to select bands
   IMIX   =      4    mixing-type and parameters
     AMIX     =   0.40;   BMIX     =  1.00
     AMIX_MAG =   1.60;   BMIX_MAG =  1.00
     AMIN     =   0.10
     WC   =   100.;   INIMIX=   1;  MIXPRE=   1;  MAXMIX= -45

 Intra band minimization:
   WEIMIN = 0.0010     energy-eigenvalue tresh-hold
   EBREAK =  0.31E-07  absolut break condition
   DEPER  =   0.30     relativ break condition  

   TIME   =   0.40     timestep for ELM

  volume/ion in A,a.u.               =      14.28        96.39
  Fermi-wavevector in a.u.,A,eV,Ry     =   1.071078  2.024044 15.608711  1.147208
  Thomas-Fermi vector in A             =   2.206807
 
 Write flags
   LWAVE        =      F    write WAVECAR
   LDOWNSAMPLE  =      F    k-point downsampling of WAVECAR
   LCHARG       =      F    write CHGCAR
   LVTOT        =      F    write LOCPOT, total local potential
   LVHAR        =      F    write LOCPOT, Hartree potential only
   LELF         =      F    write electronic localiz. function (ELF)
   LORBIT       =      0    0 simple, 1 ext, 2 COOP (PROOUT), +10 PAW based schemes


 Dipole corrections
   LMONO  =      F    monopole corrections only (constant potential shift)
   LDIPOL =      F    correct potential (dipole corrections)
   IDIPOL =      0    1-x, 2-y, 3-z, 4-all directions 
   EPSILON=  1.0000000 bulk dielectric constant

 Exchange correlation treatment:
   GGA     =    --    GGA type
   LEXCH   =     8    internal setting for exchange type
   VOSKOWN=      0    Vosko Wilk Nusair interpolation
   LHFCALC =     F    Hartree Fock is set to
   LHFONE  =     F    Hartree Fock one center treatment
   AEXX    =    0.0000 exact exchange contribution

 Linear response parameters
   LEPSILON=     F    determine dielectric tensor
   LRPA    =     F    only Hartree local field effects (RPA)
   LNABLA  =     F    use nabla operator in PAW spheres
   LVEL    =     F    velocity operator in full k-point grid
   LINTERFAST=   F  fast interpolation
   KINTER  =     0    interpolate to denser k-point grid
   CSHIFT  =0.1000    complex shift for real part using Kramers Kronig
   OMEGAMAX=  -1.0    maximum frequency
   DEG_THRESHOLD= 0.2000000E-02 threshold for treating states as degnerate
   RTIME   =   -0.100 relaxation time in fs
  (WPLASMAI=    0.000 imaginary part of plasma frequency in eV, 0.658/RTIME)
   DFIELD  = 0.0000000 0.0000000 0.0000000 field for delta impulse in time
 
 Orbital magnetization related:
   ORBITALMAG=     F  switch on orbital magnetization
   LCHIMAG   =     F  perturbation theory with respect to B field
   DQ        =  0.001000  dq finite difference perturbation B field
   LLRAUG    =     F  two centre corrections for induced B field



--------------------------------------------------------------------------------------------------------


 conjugate gradient relaxation of ions
 charge density and potential will be updated during run
 non-spin polarized calculation
 Variant of blocked Davidson
 Davidson routine will perform the subspace rotation
 perform sub-space diagonalisation
    after iterative eigenvector-optimisation
 modified Broyden-mixing scheme, WC =      100.0
 initial mixing is a Kerker type mixing with AMIX =  0.4000 and BMIX =      1.0000
 Hartree-type preconditioning will be used
 using additional bands            6
 reciprocal scheme for non local part
 use partial core corrections
 calculate Harris-corrections to forces 
   (improved forces if not selfconsistent)
 use gradient corrections 
 use of overlap-Matrix (Vanderbilt PP)
 Gauss-broadening in eV      SIGMA  =   0.05


--------------------------------------------------------------------------------------------------------


  energy-cutoff  :      350.00
  volume of cell :       14.28
      direct lattice vectors                 reciprocal lattice vectors
     1.528458886  1.528458886  1.528458886     0.327126889  0.327126889  0.000000000
     1.528458886 -1.528458886 -1.528458886     0.327126889  0.000000000 -0.327126889
    -1.528458886  1.528458886 -1.528458886     0.000000000  0.327126889 -0.327126889

  length of vectors
     2.647368448  2.647368448  2.647368448     0.462627283  0.462627283  0.462627283


 
 k-points in units of 2pi/SCALE and weight: Automatic                               
   0.00000000  0.00000000  0.00000000       0.001
   0.03003620  0.03003620  0.00000000       0.009
   0.06007239  0.06007239  0.00000000       0.009
   0.09010859  0.09010859  0.00000000       0.009
   0.12014478  0.12014478  0.00000000       0.009
   0.15018098  0.15018098  0.00000000       0.009
   0.06007239  0.03003620 -0.03003620       0.018
   0.09010859  0.06007239 -0.03003620       0.036
   0.12014478  0.09010859 -0.03003620       0.036
   0.15018098  0.12014478 -0.03003620       0.036
   0.18021718  0.15018098 -0.03003620       0.018
   0.12014478  0.06007239 -0.06007239       0.018
   0.15018098  0.09010859 -0.06007239       0.036
   0.18021718  0.12014478 -0.06007239       0.036
   0.18021718  0.09010859 -0.09010859       0.018
   0.21025337  0.12014478 -0.09010859       0.018
   0.06007239  0.06007239 -0.06007239       0.006
   0.09010859  0.09010859 -0.06007239       0.018
   0.12014478  0.12014478 -0.06007239       0.018
   0.15018098  0.15018098 -0.06007239       0.018
   0.00000000  0.00000000 -0.06007239       0.005
   0.12014478  0.09010859 -0.09010859       0.018
   0.15018098  0.12014478 -0.09010859       0.036
   0.18021718  0.15018098 -0.09010859       0.018
   0.00000000 -0.03003620 -0.09010859       0.018
   0.18021718  0.12014478 -0.12014478       0.018
   0.00000000 -0.06007239 -0.12014478       0.018
   0.03003620 -0.03003620 -0.12014478       0.018
   0.00000000 -0.09010859 -0.15018098       0.018
   0.03003620 -0.06007239 -0.15018098       0.036
   0.00000000 -0.12014478 -0.18021718       0.018
   0.03003620 -0.09010859 -0.18021718       0.036
   0.06007239 -0.06007239 -0.18021718       0.018
  -0.30036196 -0.12014478  0.12014478       0.018
  -0.27032577 -0.09010859  0.12014478       0.036
  -0.24028957 -0.09010859  0.09010859       0.006
   0.12014478  0.12014478 -0.12014478       0.006
   0.15018098  0.15018098 -0.12014478       0.018
   0.00000000  0.00000000 -0.12014478       0.005
   0.18021718  0.15018098 -0.15018098       0.006
   0.00000000 -0.03003620 -0.15018098       0.018
   0.00000000 -0.06007239 -0.18021718       0.018
   0.03003620 -0.03003620 -0.18021718       0.018
   0.00000000 -0.09010859 -0.21025337       0.018
   0.03003620 -0.06007239 -0.21025337       0.036
  -0.30036196 -0.09010859  0.09010859       0.018
  -0.27032577 -0.06007239  0.09010859       0.018
   0.00000000  0.00000000 -0.18021718       0.005
   0.00000000 -0.03003620 -0.21025337       0.018
   0.00000000 -0.06007239 -0.24028957       0.018
   0.03003620 -0.03003620 -0.24028957       0.018
  -0.30036196 -0.06007239  0.06007239       0.018
   0.00000000  0.00000000 -0.24028957       0.005
   0.00000000 -0.03003620 -0.27032577       0.018
  -0.30036196 -0.03003620  0.03003620       0.006
   0.00000000  0.00000000 -0.30036196       0.005
 
 k-points in reciprocal lattice and weights: Automatic                               
   0.00000000  0.00000000  0.00000000       0.001
   0.09090909  0.00000000  0.00000000       0.009
   0.18181818  0.00000000  0.00000000       0.009
   0.27272727  0.00000000  0.00000000       0.009
   0.36363636  0.00000000  0.00000000       0.009
   0.45454545  0.00000000  0.00000000       0.009
   0.09090909  0.09090909  0.00000000       0.018
   0.18181818  0.09090909 -0.00000000       0.036
   0.27272727  0.09090909  0.00000000       0.036
   0.36363636  0.09090909 -0.00000000       0.036
   0.45454545  0.09090909 -0.00000000       0.018
   0.18181818  0.18181818  0.00000000       0.018
   0.27272727  0.18181818  0.00000000       0.036
   0.36363636  0.18181818  0.00000000       0.036
   0.27272727  0.27272727 -0.00000000       0.018
   0.36363636  0.27272727  0.00000000       0.018
   0.09090909  0.09090909  0.09090909       0.006
   0.18181818  0.09090909  0.09090909       0.018
   0.27272727  0.09090909  0.09090909       0.018
   0.36363636  0.09090909  0.09090909       0.018
  -0.09090909  0.09090909  0.09090909       0.005
   0.18181818  0.18181818  0.09090909       0.018
   0.27272727  0.18181818  0.09090909       0.036
   0.36363636  0.18181818  0.09090909       0.018
  -0.18181818  0.18181818  0.09090909       0.018
   0.27272727  0.27272727  0.09090909       0.018
  -0.27272727  0.27272727  0.09090909       0.018
  -0.18181818  0.27272727  0.09090909       0.018
  -0.36363636  0.36363636  0.09090909       0.018
  -0.27272727  0.36363636  0.09090909       0.036
  -0.45454545  0.45454545  0.09090909       0.018
  -0.36363636  0.45454545  0.09090909       0.036
  -0.27272727  0.45454545  0.09090909       0.018
  -0.45454545 -0.45454545  0.09090909       0.018
  -0.36363636 -0.45454545  0.09090909       0.036
  -0.36363636 -0.36363636  0.09090909       0.006
   0.18181818  0.18181818  0.18181818       0.006
   0.27272727  0.18181818  0.18181818       0.018
  -0.18181818  0.18181818  0.18181818       0.005
   0.27272727  0.27272727  0.18181818       0.006
  -0.27272727  0.27272727  0.18181818       0.018
  -0.36363636  0.36363636  0.18181818       0.018
  -0.27272727  0.36363636  0.18181818       0.018
  -0.45454545  0.45454545  0.18181818       0.018
  -0.36363636  0.45454545  0.18181818       0.036
  -0.45454545 -0.45454545  0.18181818       0.018
  -0.36363636 -0.45454545  0.18181818       0.018
  -0.27272727  0.27272727  0.27272727       0.005
  -0.36363636  0.36363636  0.27272727       0.018
  -0.45454545  0.45454545  0.27272727       0.018
  -0.36363636  0.45454545  0.27272727       0.018
  -0.45454545 -0.45454545  0.27272727       0.018
  -0.36363636  0.36363636  0.36363636       0.005
  -0.45454545  0.45454545  0.36363636       0.018
  -0.45454545 -0.45454545  0.36363636       0.006
  -0.45454545  0.45454545  0.45454545       0.005
 
 position of ions in fractional coordinates (direct lattice) 
   0.00000000  0.00000000  0.00000000
 
 position of ions in cartesian coordinates  (Angst):
   0.00000000  0.00000000  0.00000000
 


--------------------------------------------------------------------------------------------------------


 k-point   1 :   0.0000 0.0000 0.0000  plane waves:     201
 k-point   2 :   0.0909 0.0000 0.0000  plane waves:     207
 k-point   3 :   0.1818 0.0000 0.0000  plane waves:     209
 k-point   4 :   0.2727 0.0000 0.0000  plane waves:     209
 k-point   5 :   0.3636 0.0000 0.0000  plane waves:     210
 k-point   6 :   0.4545 0.0000 0.0000  plane waves:     206
 k-point   7 :   0.0909 0.0909 0.0000  plane waves:     209
 k-point   8 :   0.1818 0.0909-0.0000  plane waves:     209
 k-point   9 :   0.2727 0.0909 0.0000  plane waves:     207
 k-point  10 :   0.3636 0.0909-0.0000  plane waves:     209
 k-point  11 :   0.4545 0.0909-0.0000  plane waves:     209
 k-point  12 :   0.1818 0.1818 0.0000  plane waves:     207
 k-point  13 :   0.2727 0.1818 0.0000  plane waves:     209
 k-point  14 :   0.3636 0.1818 0.0000  plane waves:     216
 k-point  15 :   0.2727 0.2727-0.0000  plane waves:     217
 k-point  16 :   0.3636 0.2727 0.0000  plane waves:     214
 k-point  17 :   0.0909 0.0909 0.0909  plane waves:     210
 k-point  18 :   0.1818 0.0909 0.0909  plane waves:     212
 k-point  19 :   0.2727 0.0909 0.0909  plane waves:     209
 k-point  20 :   0.3636 0.0909 0.0909  plane waves:     211
 k-point  21 :  -0.0909 0.0909 0.0909  plane waves:     213
 k-point  22 :   0.1818 0.1818 0.0909  plane waves:     215
 k-point  23 :   0.2727 0.1818 0.0909  plane waves:     210
 k-point  24 :   0.3636 0.1818 0.0909  plane waves:     212
 k-point  25 :  -0.1818 0.1818 0.0909  plane waves:     210
 k-point  26 :   0.2727 0.2727 0.0909  plane waves:     210
 k-point  27 :  -0.2727 0.2727 0.0909  plane waves:     210
 k-point  28 :  -0.1818 0.2727 0.0909  plane waves:     211
 k-point  29 :  -0.3636 0.3636 0.0909  plane waves:     214
 k-point  30 :  -0.2727 0.3636 0.0909  plane waves:     214
 k-point  31 :  -0.4545 0.4545 0.0909  plane waves:     212
 k-point  32 :  -0.3636 0.4545 0.0909  plane waves:     211
 k-point  33 :  -0.2727 0.4545 0.0909  plane waves:     216
 k-point  34 :  -0.4545-0.4545 0.0909  plane waves:     214
 k-point  35 :  -0.3636-0.4545 0.0909  plane waves:     214
 k-point  36 :  -0.3636-0.3636 0.0909  plane waves:     212
 k-point  37 :   0.1818 0.1818 0.1818  plane waves:     210
 k-point  38 :   0.2727 0.1818 0.1818  plane waves:     216
 k-point  39 :  -0.1818 0.1818 0.1818  plane waves:     213
 k-point  40 :   0.2727 0.2727 0.1818  plane waves:     216
 k-point  41 :  -0.2727 0.2727 0.1818  plane waves:     213
 k-point  42 :  -0.3636 0.3636 0.1818  plane waves:     217
 k-point  43 :  -0.2727 0.3636 0.1818  plane waves:     213
 k-point  44 :  -0.4545 0.4545 0.1818  plane waves:     213
 k-point  45 :  -0.3636 0.4545 0.1818  plane waves:     217
 k-point  46 :  -0.4545-0.4545 0.1818  plane waves:     212
 k-point  47 :  -0.3636-0.4545 0.1818  plane waves:     213
 k-point  48 :  -0.2727 0.2727 0.2727  plane waves:     209
 k-point  49 :  -0.3636 0.3636 0.2727  plane waves:     216
 k-point  50 :  -0.4545 0.4545 0.2727  plane waves:     214
 k-point  51 :  -0.3636 0.4545 0.2727  plane waves:     220
 k-point  52 :  -0.4545-0.4545 0.2727  plane waves:     218
 k-point  53 :  -0.3636 0.3636 0.3636  plane waves:     220
 k-point  54 :  -0.4545 0.4545 0.3636  plane waves:     220
 k-point  55 :  -0.4545-0.4545 0.3636  plane waves:     224
 k-point  56 :  -0.4545 0.4545 0.4545  plane waves:     236

 maximum and minimum number of plane-waves per node :       236      201

 maximum number of plane-waves:       236
 maximum index in each direction: 
   IXMAX=    4   IYMAX=    4   IZMAX=    4
   IXMIN=   -4   IYMIN=   -4   IZMIN=   -4


 serial   3D FFT for wavefunctions
 parallel 3D FFT for charge:
    minimum data exchange during FFTs selected (reduces bandwidth)


 total amount of memory used by VASP MPI-rank0    33112. kBytes
=======================================================================

   base      :      30000. kBytes
   nonl-proj :        849. kBytes
   fftplans  :       1246. kBytes
   grid      :        577. kBytes
   one-center:          3. kBytes
   wavefun   :        437. kBytes
 
     INWAV:  cpu time    0.0000: real time    0.0004
 Broyden mixing: mesh for mixing (old mesh)
   NGX =  7   NGY =  7   NGZ =  7
  (NGX  = 32   NGY  = 32   NGZ  = 32)
  gives a total of    343 points

 initial charge density was supplied:
 charge density of overlapping atoms calculated
 number of electron       4.0000000 magnetization 
 keeping initial charge density in first step


--------------------------------------------------------------------------------------------------------


 Maximum index for augmentation-charges        18755 (set IRDMAX)


--------------------------------------------------------------------------------------------------------


 First call to EWALD:  gamma=   0.731
 Maximum number of real-space cells 3x 3x 3
 Maximum number of reciprocal cells 3x 3x 3

    FEWALD:  cpu time    0.0030: real time    0.0034


--------------------------------------- Iteration      1(   1)  ---------------------------------------


    POTLOK:  cpu time    0.0090: real time    0.0129
    SETDIJ:  cpu time    0.1620: real time    0.1623
     EDDAV:  cpu time    0.1660: real time    0.1656
       DOS:  cpu time    0.0010: real time    0.0012
    --------------------------------------------
      LOOP:  cpu time    0.3379: real time    0.3424

 eigenvalue-minimisations  :   984
 total energy-change (2. order) :-0.3171135E+01  (-0.1413016E+03)
 number of electron       4.0000000 magnetization 
 augmentation part        4.0000000 magnetization 

 Free energy of the ion-electron system (eV)
  ---------------------------------------------------
  alpha Z        PSCENC =         2.35685698
  Ewald energy   TEWEN  =      -137.14254950
  -Hartree energ DENC   =        -0.54037319
  -exchange      EXHF   =         0.00000000
  -V(xc)+E(xc)   XCENC  =        -8.77370263
  PAW double counting   =        88.12379961      -70.53051779
  entropy T*S    EENTRO =        -0.00060117
  eigenvalues    EBANDS =        20.27032602
  atomic energy  EATOM  =       103.06562707
  Solvation  Ediel_sol  =         0.00000000
  ---------------------------------------------------
  free energy    TOTEN  =        -3.17113458 eV

  energy without entropy =       -3.17053341  energy(sigma->0) =       -3.17083400


--------------------------------------------------------------------------------------------------------




--------------------------------------- Iteration      1(   2)  ---------------------------------------


     EDDAV:  cpu time    0.2500: real time    0.2617
       DOS:  cpu time    0.0010: real time    0.0012
    --------------------------------------------
      LOOP:  cpu time    0.2510: real time    0.2629

 eigenvalue-minimisations  :  1424
 total energy-change (2. order) :-0.1721436E+01  (-0.1661982E+01)
 number of electron       4.0000000 magnetization 
 augmentation part        4.0000000 magnetization 

 Free energy of the ion-electron system (eV)
  ---------------------------------------------------
  alpha Z        PSCENC =         2.35685698
  Ewald energy   TEWEN  =      -137.14254950
  -Hartree energ DENC   =        -0.54037319
  -exchange      EXHF   =         0.00000000
  -V(xc)+E(xc)   XCENC  =        -8.77370263
  PAW double counting   =        88.12379961      -70.53051779
  entropy T*S    EENTRO =        -0.00082107
  eigenvalues    EBANDS =        18.54911009
  atomic energy  EATOM  =       103.06562707
  Solvation  Ediel_sol  =         0.00000000
  ---------------------------------------------------
  free energy    TOTEN  =        -4.89257042 eV

  energy without entropy =       -4.89174934  energy(sigma->0) =       -4.89215988


--------------------------------------------------------------------------------------------------------




--------------------------------------- Iteration      1(   3)  ---------------------------------------


     EDDAV:  cpu time    0.1660: real time    0.1742
       DOS:  cpu time    0.0010: real time    0.0012
    --------------------------------------------
      LOOP:  cpu time    0.1680: real time    0.1754

 eigenvalue-minimisations  :   984
 total energy-change (2. order) :-0.6322304E-02  (-0.6322272E-02)
 number of electron       4.0000000 magnetization 
 augmentation part        4.0000000 magnetization 

 Free energy of the ion-electron system (eV)
  ---------------------------------------------------
  alpha Z        PSCENC =         2.35685698
  Ewald energy   TEWEN  =      -137.14254950
  -Hartree energ DENC   =        -0.54037319
  -exchange      EXHF   =         0.00000000
  -V(xc)+E(xc)   XCENC  =        -8.77370263
  PAW double counting   =        88.12379961      -70.53051779
  entropy T*S    EENTRO =        -0.00082562
  eigenvalues    EBANDS =        18.54279233
  atomic energy  EATOM  =       103.06562707
  Solvation  Ediel_sol  =         0.00000000
  ---------------------------------------------------
  free energy    TOTEN  =        -4.89889272 eV

  energy without entropy =       -4.89806710  energy(sigma->0) =       -4.89847991


--------------------------------------------------------------------------------------------------------




--------------------------------------- Iteration      1(   4)  ---------------------------------------


     EDDAV:  cpu time    0.2570: real time    0.2664
       DOS:  cpu time    0.0010: real time    0.0014
    --------------------------------------------
      LOOP:  cpu time    0.2580: real time    0.2677

 eigenvalue-minimisations  :  1456
 total energy-change (2. order) :-0.4694728E-05  (-0.4695983E-05)
 number of electron       4.0000000 magnetization 
 augmentation part        4.0000000 magnetization 

 Free energy of the ion-electron system (eV)
  ---------------------------------------------------
  alpha Z        PSCENC =         2.35685698
  Ewald energy   TEWEN  =      -137.14254950
  -Hartree energ DENC   =        -0.54037319
  -exchange      EXHF   =         0.00000000
  -V(xc)+E(xc)   XCENC  =        -8.77370263
  PAW double counting   =        88.12379961      -70.53051779
  entropy T*S    EENTRO =        -0.00082563
  eigenvalues    EBANDS =        18.54278765
  atomic energy  EATOM  =       103.06562707
  Solvation  Ediel_sol  =         0.00000000
  ---------------------------------------------------
  free energy    TOTEN  =        -4.89889741 eV

  energy without entropy =       -4.89807178  energy(sigma->0) =       -4.89848460


--------------------------------------------------------------------------------------------------------




--------------------------------------- Iteration      1(   5)  ---------------------------------------


     EDDAV:  cpu time    0.1620: real time    0.1694
       DOS:  cpu time    0.0010: real time    0.0013
    CHARGE:  cpu time    0.0120: real time    0.0124
    MIXING:  cpu time    0.0010: real time    0.0008
    --------------------------------------------
      LOOP:  cpu time    0.1760: real time    0.1839

 eigenvalue-minimisations  :   968
 total energy-change (2. order) :-0.2647894E-08  (-0.2412594E-08)
 number of electron       4.0000000 magnetization 
 augmentation part       -0.2406797 magnetization 

 Broyden mixing:
  rms(total) = 0.27008E+00    rms(broyden)= 0.27008E+00
  rms(prec ) = 0.40092E+00
  weight for this iteration     100.00

 Free energy of the ion-electron system (eV)
  ---------------------------------------------------
  alpha Z        PSCENC =         2.35685698
  Ewald energy   TEWEN  =      -137.14254950
  -Hartree energ DENC   =        -0.54037319
  -exchange      EXHF   =         0.00000000
  -V(xc)+E(xc)   XCENC  =        -8.77370263
  PAW double counting   =        88.12379961      -70.53051779
  entropy T*S    EENTRO =        -0.00082563
  eigenvalues    EBANDS =        18.54278765
  atomic energy  EATOM  =       103.06562707
  Solvation  Ediel_sol  =         0.00000000
  ---------------------------------------------------
  free energy    TOTEN  =        -4.89889742 eV

  energy without entropy =       -4.89807179  energy(sigma->0) =       -4.89848460


--------------------------------------------------------------------------------------------------------




--------------------------------------- Iteration      1(   6)  ---------------------------------------


    POTLOK:  cpu time    0.0120: real time    0.0195
    SETDIJ:  cpu time    0.1640: real time    0.1632
     EDDAV:  cpu time    0.1580: real time    0.1590
       DOS:  cpu time    0.0010: real time    0.0013
    CHARGE:  cpu time    0.0110: real time    0.0113
    MIXING:  cpu time    0.0010: real time    0.0008
    --------------------------------------------
      LOOP:  cpu time    0.3469: real time    0.3551

 eigenvalue-minimisations  :   952
 total energy-change (2. order) : 0.1149011E-01  (-0.3823928E-03)
 number of electron       4.0000000 magnetization 
 augmentation part       -0.2426522 magnetization 

 Broyden mixing:
  rms(total) = 0.14949E+00    rms(broyden)= 0.14949E+00
  rms(prec ) = 0.23186E+00
  weight for this iteration     100.00

 eigenvalues of (default mixing * dielectric matrix)
  average eigenvalue GAMMA=   2.2284
  2.2284

 Free energy of the ion-electron system (eV)
  ---------------------------------------------------
  alpha Z        PSCENC =         2.35685698
  Ewald energy   TEWEN  =      -137.14254950
  -Hartree energ DENC   =        -0.46719420
  -exchange      EXHF   =         0.00000000
  -V(xc)+E(xc)   XCENC  =        -8.75212911
  PAW double counting   =       169.92048849     -152.33030625
  entropy T*S    EENTRO =        -0.00084272
  eigenvalues    EBANDS =        18.46264193
  atomic energy  EATOM  =       103.06562707
  Solvation  Ediel_sol  =         0.00000000
  ---------------------------------------------------
  free energy    TOTEN  =        -4.88740731 eV

  energy without entropy =       -4.88656459  energy(sigma->0) =       -4.88698595


--------------------------------------------------------------------------------------------------------




--------------------------------------- Iteration      1(   7)  ---------------------------------------


    POTLOK:  cpu time    0.0120: real time    0.0229
    SETDIJ:  cpu time    0.1620: real time    0.1623
     EDDAV:  cpu time    0.1590: real time    0.1600
       DOS:  cpu time    0.0010: real time    0.0013
    CHARGE:  cpu time    0.0120: real time    0.0112
    MIXING:  cpu time    0.0000: real time    0.0008
    --------------------------------------------
      LOOP:  cpu time    0.3459: real time    0.3585

 eigenvalue-minimisations  :   968
 total energy-change (2. order) : 0.6513736E-02  (-0.7599196E-03)
 number of electron       4.0000000 magnetization 
 augmentation part       -0.2455035 magnetization 

 Broyden mixing:
  rms(total) = 0.13446E-01    rms(broyden)= 0.13446E-01
  rms(prec ) = 0.17848E-01
  weight for this iteration     100.00

 eigenvalues of (default mixing * dielectric matrix)
  average eigenvalue GAMMA=   2.4452
  2.4452  2.4452

 Free energy of the ion-electron system (eV)
  ---------------------------------------------------
  alpha Z        PSCENC =         2.35685698
  Ewald energy   TEWEN  =      -137.14254950
  -Hartree energ DENC   =        -0.38899012
  -exchange      EXHF   =         0.00000000
  -V(xc)+E(xc)   XCENC  =        -8.71778517
  PAW double counting   =       326.78761564     -309.20579693
  entropy T*S    EENTRO =        -0.00087063
  eigenvalues    EBANDS =        18.36499908
  atomic energy  EATOM  =       103.06562707
  Solvation  Ediel_sol  =         0.00000000
  ---------------------------------------------------
  free energy    TOTEN  =        -4.88089357 eV

  energy without entropy =       -4.88002294  energy(sigma->0) =       -4.88045826


--------------------------------------------------------------------------------------------------------




--------------------------------------- Iteration      1(   8)  ---------------------------------------


    POTLOK:  cpu time    0.0110: real time    0.0228
    SETDIJ:  cpu time    0.1620: real time    0.1618
     EDDAV:  cpu time    0.2210: real time    0.2208
       DOS:  cpu time    0.0010: real time    0.0013
    CHARGE:  cpu time    0.0110: real time    0.0112
    MIXING:  cpu time    0.0010: real time    0.0007
    --------------------------------------------
      LOOP:  cpu time    0.4059: real time    0.4186

 eigenvalue-minimisations  :  1280
 total energy-change (2. order) : 0.2074756E-04  (-0.3433942E-05)
 number of electron       4.0000000 magnetization 
 augmentation part       -0.2455924 magnetization 

 Broyden mixing:
  rms(total) = 0.11806E-02    rms(broyden)= 0.11805E-02
  rms(prec ) = 0.19043E-02
  weight for this iteration     100.00

 eigenvalues of (default mixing * dielectric matrix)
  average eigenvalue GAMMA=   2.0211
  0.9854  2.4042  2.6738

 Free energy of the ion-electron system (eV)
  ---------------------------------------------------
  alpha Z        PSCENC =         2.35685698
  Ewald energy   TEWEN  =      -137.14254950
  -Hartree energ DENC   =        -0.38991727
  -exchange      EXHF   =         0.00000000
  -V(xc)+E(xc)   XCENC  =        -8.71352846
  PAW double counting   =       312.30007685     -294.72481610
  entropy T*S    EENTRO =        -0.00087176
  eigenvalues    EBANDS =        18.36824935
  atomic energy  EATOM  =       103.06562707
  Solvation  Ediel_sol  =         0.00000000
  ---------------------------------------------------
  free energy    TOTEN  =        -4.88087282 eV

  energy without entropy =       -4.88000106  energy(sigma->0) =       -4.88043694


--------------------------------------------------------------------------------------------------------




--------------------------------------- Iteration      1(   9)  ---------------------------------------


    POTLOK:  cpu time    0.0110: real time    0.0181
    SETDIJ:  cpu time    0.1620: real time    0.1621
     EDDAV:  cpu time    0.1720: real time    0.1716
       DOS:  cpu time    0.0000: real time    0.0013
    --------------------------------------------
      LOOP:  cpu time    0.3459: real time    0.3531

 eigenvalue-minimisations  :  1008
 total energy-change (2. order) :-0.5702848E-06  (-0.3976090E-07)
 number of electron       4.0000000 magnetization 
 augmentation part       -0.2455924 magnetization 

 Free energy of the ion-electron system (eV)
  ---------------------------------------------------
  alpha Z        PSCENC =         2.35685698
  Ewald energy   TEWEN  =      -137.14254950
  -Hartree energ DENC   =        -0.38990759
  -exchange      EXHF   =         0.00000000
  -V(xc)+E(xc)   XCENC  =        -8.71304542
  PAW double counting   =       310.92734900     -293.35258733
  entropy T*S    EENTRO =        -0.00087202
  eigenvalues    EBANDS =        18.36825542
  atomic energy  EATOM  =       103.06562707
  Solvation  Ediel_sol  =         0.00000000
  ---------------------------------------------------
  free energy    TOTEN  =        -4.88087339 eV

  energy without entropy =       -4.88000137  energy(sigma->0) =       -4.88043738


--------------------------------------------------------------------------------------------------------




 average (electrostatic) potential at core
  the test charge radii are     0.9892
  (the norm of the test charge is              1.0000)
       1 -79.7188
 
 
 
 E-fermi :  10.2048     XC(G=0): -11.2497     alpha+bet :-16.7923

 Fermi energy:        10.2048149005

 k-point     1 :       0.0000    0.0000    0.0000
  band No.  band energies     occupation 
      1      -4.2222      2.00000
      2      21.9152      0.00000
      3      21.9152      0.00000
      4      21.9152      0.00000
      5      22.8871      0.00000
      6      22.8871      0.00000
      7      22.8871      0.00000
      8      26.6187      0.00000

 k-point     2 :       0.0909    0.0000    0.0000
  band No.  band energies     occupation 
      1      -3.9651      2.00000
      2      19.2799      0.00000
      3      20.1772      0.00000
      4      21.5414      0.00000
      5      22.0975      0.00000
      6      23.8478      0.00000
      7      25.0475      0.00000
      8      25.4540      0.00000

 k-point     3 :       0.1818    0.0000    0.0000
  band No.  band energies     occupation 
      1      -3.1956      2.00000
      2      15.4351      0.00000
      3      18.4660      0.00000
      4      20.6355      0.00000
      5      20.6383      0.00000
      6      22.7895      0.00000
      7      26.2711      0.00000
      8      26.6002      0.00000

 k-point     4 :       0.2727    0.0000    0.0000
  band No.  band energies     occupation 
      1      -1.9195      2.00000
      2      11.5755      0.00000
      3      17.1757      0.00000
      4      19.3226      0.00000
      5      19.6666      0.00000
      6      21.5903      0.00000
      7      27.4412      0.00000
      8      27.7497      0.00000

 k-point     5 :       0.3636    0.0000    0.0000
  band No.  band energies     occupation 
      1      -0.1464      2.00000
      2       8.0115      2.00000
      3      16.3159      0.00000
      4      18.3921      0.00000
      5      18.9254      0.00000
      6      20.7373      0.00000
      7      28.7846      0.00000
      8      29.4724      0.00000

 k-point     6 :       0.4545    0.0000    0.0000
  band No.  band energies     occupation 
      1       2.1065      2.00000
      2       4.8501      2.00000
      3      15.8866      0.00000
      4      17.9169      0.00000
      5      18.5348      0.00000
      6      20.2976      0.00000
      7      30.3399      0.00000
      8      31.0994      0.00000

 k-point     7 :       0.0909    0.0909    0.0000
  band No.  band energies     occupation 
      1      -3.4518      2.00000
      2      17.2688      0.00000
      3      17.7610      0.00000
      4      19.8257      0.00000
      5      22.5370      0.00000
      6      23.9123      0.00000
      7      25.0850      0.00000
      8      26.3141      0.00000

 k-point     8 :       0.1818    0.0909   -0.0000
  band No.  band energies     occupation 
      1      -2.4290      2.00000
      2      13.6362      0.00000
      3      16.0004      0.00000
      4      18.4740      0.00000
      5      21.8492      0.00000
      6      23.3694      0.00000
      7      25.6675      0.00000
      8      28.1513      0.00000

 k-point     9 :       0.2727    0.0909    0.0000
  band No.  band energies     occupation 
      1      -0.9042      2.00000
      2       9.9241      2.00000
      3      14.8693      0.00000
      4      17.4232      0.00000
      5      20.9169      0.00000
      6      22.8805      0.00000
      7      26.5676      0.00000
      8      30.0412      0.00000

 k-point    10 :       0.3636    0.0909   -0.0000
  band No.  band energies     occupation 
      1       1.1102      2.00000
      2       6.5584      2.00000
      3      14.1876      0.00000
      4      16.7690      0.00000
      5      20.2880      0.00000
      6      22.4465      0.00000
      7      28.1078      0.00000
      8      31.1480      0.00000

 k-point    11 :       0.4545    0.0909   -0.0000
  band No.  band energies     occupation 
      1       3.4545      2.00000
      2       3.7594      2.00000
      3      13.9593      0.00000
      4      16.5481      0.00000
      5      20.0720      0.00000
      6      22.2814      0.00000
      7      29.8051      0.00000
      8      30.1889      0.00000

 k-point    12 :       0.1818    0.1818    0.0000
  band No.  band energies     occupation 
      1      -1.1575      2.00000
      2      12.1168      0.00000
      3      12.4113      0.00000
      4      17.2426      0.00000
      5      22.4925      0.00000
      6      23.3398      0.00000
      7      27.3577      0.00000
      8      28.4503      0.00000

 k-point    13 :       0.2727    0.1818    0.0000
  band No.  band energies     occupation 
      1       0.6093      2.00000
      2       8.7271      2.00000
      3      11.3316      0.00000
      4      16.3899      0.00000
      5      22.1095      0.00000
      6      24.1819      0.00000
      7      27.5377      0.00000
      8      30.2889      0.00000

 k-point    14 :       0.3636    0.1818    0.0000
  band No.  band energies     occupation 
      1       2.8545      2.00000
      2       5.5839      2.00000
      3      10.8565      0.00000
      4      15.9524      0.00000
      5      21.7302      0.00000
      6      25.0813      0.00000
      7      27.8803      0.00000
      8      29.7659      0.00000

 k-point    15 :       0.2727    0.2727   -0.0000
  band No.  band energies     occupation 
      1       2.6087      2.00000
      2       7.8999      2.00000
      3       8.1210      2.00000
      4      15.7515      0.00000
      5      23.4336      0.00000
      6      24.2558      0.00000
      7      28.2042      0.00000
      8      30.5944      0.00000

 k-point    16 :       0.3636    0.2727    0.0000
  band No.  band energies     occupation 
      1       4.9485      2.00000
      2       5.2176      2.00000
      3       7.7756      2.00000
      4      15.5348      0.00000
      5      23.5582      0.00000
      6      25.5588      0.00000
      7      26.5578      0.00000
      8      31.4489      0.00000

 k-point    17 :       0.0909    0.0909    0.0909
  band No.  band energies     occupation 
      1      -2.6842      2.00000
      2      15.4073      0.00000
      3      16.1885      0.00000
      4      16.1885      0.00000
      5      24.5356      0.00000
      6      24.5356      0.00000
      7      26.4564      0.00000
      8      26.4564      0.00000

 k-point    18 :       0.1818    0.0909    0.0909
  band No.  band energies     occupation 
      1      -1.4112      2.00000
      2      12.0347      0.00000
      3      14.3588      0.00000
      4      14.8597      0.00000
      5      24.3227      0.00000
      6      24.7856      0.00000
      7      27.6566      0.00000
      8      27.8189      0.00000

 k-point    19 :       0.2727    0.0909    0.0909
  band No.  band energies     occupation 
      1       0.3578      2.00000
      2       8.4942      2.00000
      3      13.4345      0.00000
      4      13.9397      0.00000
      5      23.8944      0.00000
      6      24.1976      0.00000
      7      29.1955      0.00000
      8      29.6283      0.00000

 k-point    20 :       0.3636    0.0909    0.0909
  band No.  band energies     occupation 
      1       2.6060      2.00000
      2       5.3414      2.00000
      3      12.9759      0.00000
      4      13.4724      0.00000
      5      23.6064      0.00000
      6      23.8441      0.00000
      7      30.6451      0.00000
      8      31.3208      0.00000

 k-point    21 :      -0.0909    0.0909    0.0909
  band No.  band energies     occupation 
      1      -3.7083      2.00000
      2      18.7426      0.00000
      3      18.7426      0.00000
      4      20.1567      0.00000
      5      22.8843      0.00000
      6      23.3821      0.00000
      7      24.8237      0.00000
      8      24.8237      0.00000

 k-point    22 :       0.1818    0.1818    0.0909
  band No.  band energies     occupation 
      1       0.1063      2.00000
      2      10.7326      0.00000
      3      11.0276      0.00000
      4      13.4949      0.00000
      5      25.4186      0.00000
      6      26.2824      0.00000
      7      28.4033      0.00000
      8      29.2480      0.00000

 k-point    23 :       0.2727    0.1818    0.0909
  band No.  band energies     occupation 
      1       2.1115      2.00000
      2       7.5294      2.00000
      3      10.1764      1.57842
      4      12.7991      0.00000
      5      25.5004      0.00000
      6      26.8628      0.00000
      7      29.4838      0.00000
      8      30.9860      0.00000

 k-point    24 :       0.3636    0.1818    0.0909
  band No.  band energies     occupation 
      1       4.4553      2.00000
      2       4.7359      2.00000
      3       9.9361      2.00000
      4      12.5664      0.00000
      5      25.4051      0.00000
      6      27.0650      0.00000
      7      30.3862      0.00000
      8      31.2124      0.00000

 k-point    25 :      -0.1818    0.1818    0.0909
  band No.  band energies     occupation 
      1      -2.9397      2.00000
      2      15.5626      0.00000
      3      17.0340      0.00000
      4      19.3192      0.00000
      5      21.6224      0.00000
      6      22.4734      0.00000
      7      25.0698      0.00000
      8      27.2962      0.00000

 k-point    26 :       0.2727    0.2727    0.0909
  band No.  band energies     occupation 
      1       4.3394      2.00000
      2       6.9389      2.00000
      3       7.1673      2.00000
      4      12.3334      0.00000
      5      26.7846      0.00000
      6      27.9861      0.00000
      7      29.6696      0.00000
      8      31.8539      0.00000

 k-point    27 :      -0.2727    0.2727    0.0909
  band No.  band energies     occupation 
      1      -1.6651      2.00000
      2      11.7884      0.00000
      3      15.7076      0.00000
      4      18.3014      0.00000
      5      21.2428      0.00000
      6      21.7296      0.00000
      7      24.8532      0.00000
      8      30.5093      0.00000

 k-point    28 :      -0.1818    0.2727    0.0909
  band No.  band energies     occupation 
      1      -1.9193      2.00000
      2      13.8673      0.00000
      3      14.1149      0.00000
      4      18.8302      0.00000
      5      20.4491      0.00000
      6      22.1133      0.00000
      7      26.7571      0.00000
      8      27.6719      0.00000

 k-point    29 :      -0.3636    0.3636    0.0909
  band No.  band energies     occupation 
      1       0.1058      2.00000
      2       8.2462      2.00000
      3      14.8137      0.00000
      4      17.4648      0.00000
      5      20.3573      0.00000
      6      21.8455      0.00000
      7      25.4513      0.00000
      8      30.8337      0.00000

 k-point    30 :      -0.2727    0.3636    0.0909
  band No.  band energies     occupation 
      1      -0.3984      2.00000
      2      10.3710      0.00000
      3      12.8458      0.00000
      4      18.2335      0.00000
      5      20.5267      0.00000
      6      21.6639      0.00000
      7      26.4699      0.00000
      8      29.6628      0.00000

 k-point    31 :      -0.4545    0.4545    0.0909
  band No.  band energies     occupation 
      1       2.3559      2.00000
      2       5.0934      2.00000
      3      14.3650      0.00000
      4      17.0255      0.00000
      5      19.9037      0.00000
      6      21.7571      0.00000
      7      26.9950      0.00000
      8      29.1315      0.00000

 k-point    32 :      -0.3636    0.4545    0.0909
  band No.  band energies     occupation 
      1       1.6109      2.00000
      2       7.0363      2.00000
      3      12.1462      0.00000
      4      17.6551      0.00000
      5      20.1984      0.00000
      6      22.6671      0.00000
      7      25.9416      0.00000
      8      28.7643      0.00000

 k-point    33 :      -0.2727    0.4545    0.0909
  band No.  band energies     occupation 
      1       1.3614      2.00000
      2       9.3191      2.00000
      3       9.5273      2.00000
      4      18.5208      0.00000
      5      20.6494      0.00000
      6      21.1664      0.00000
      7      27.1115      0.00000
      8      29.5971      0.00000

 k-point    34 :      -0.4545   -0.4545    0.0909
  band No.  band energies     occupation 
      1       3.9562      2.00000
      2       4.2418      2.00000
      3      11.9121      0.00000
      4      17.4476      0.00000
      5      20.0131      0.00000
      6      23.4833      0.00000
      7      25.7239      0.00000
      8      27.7542      0.00000

 k-point    35 :      -0.3636   -0.4545    0.0909
  band No.  band energies     occupation 
      1       3.5969      2.00000
      2       6.3064      2.00000
      3       8.9490      2.00000
      4      18.3480      0.00000
      5      20.5516      0.00000
      6      22.4824      0.00000
      7      24.8019      0.00000
      8      30.3346      0.00000

 k-point    36 :      -0.3636   -0.3636    0.0909
  band No.  band energies     occupation 
      1       5.8278      2.00000
      2       6.1761      2.00000
      3       6.1761      2.00000
      4      18.4200      0.00000
      5      22.1321      0.00000
      6      22.4850      0.00000
      7      22.4850      0.00000
      8      33.3851      0.00000

 k-point    37 :       0.1818    0.1818    0.1818
  band No.  band energies     occupation 
      1       1.8626      2.00000
      2       9.6804      2.00000
      3      10.0839      1.99937
      4      10.0839      1.99937
      5      28.1062      0.00000
      6      28.1062      0.00000
      7      30.0093      0.00000
      8      30.0093      0.00000

 k-point    38 :       0.2727    0.1818    0.1818
  band No.  band energies     occupation 
      1       4.0952      2.00000
      2       6.8044      2.00000
      3       9.3526      2.00000
      4       9.6072      2.00000
      5      28.7125      0.00000
      6      28.9928      0.00000
      7      31.3047      0.00000
      8      31.6313      0.00000

 k-point    39 :      -0.1818    0.1818    0.1818
  band No.  band energies     occupation 
      1      -2.1739      2.00000
      2      15.2979      0.00000
      3      15.2979      0.00000
      4      17.3021      0.00000
      5      18.8457      0.00000
      6      24.8825      0.00000
      7      26.5563      0.00000
      8      26.5563      0.00000

 k-point    40 :       0.2727    0.2727    0.1818
  band No.  band energies     occupation 
      1       6.3081      2.00000
      2       6.6873      2.00000
      3       6.6873      2.00000
      4       9.2492      2.00000
      5      29.8796      0.00000
      6      31.0476      0.00000
      7      31.0476      0.00000
      8      32.6880      0.00000

 k-point    41 :      -0.2727    0.2727    0.1818
  band No.  band energies     occupation 
      1      -0.9039      2.00000
      2      12.3710      0.00000
      3      13.9489      0.00000
      4      16.4924      0.00000
      5      18.3742      0.00000
      6      24.3252      0.00000
      7      26.5130      0.00000
      8      29.2861      0.00000

 k-point    42 :      -0.3636    0.3636    0.1818
  band No.  band energies     occupation 
      1       0.8602      2.00000
      2       8.9396      2.00000
      3      13.0401      0.00000
      4      15.6670      0.00000
      5      19.5940      0.00000
      6      23.5063      0.00000
      7      25.4343      0.00000
      8      28.3063      0.00000

 k-point    43 :      -0.2727    0.3636    0.1818
  band No.  band energies     occupation 
      1       0.6093      2.00000
      2      11.1216      0.00000
      3      11.2910      0.00000
      4      16.5698      0.00000
      5      17.5137      0.00000
      6      24.1119      0.00000
      7      26.4664      0.00000
      8      28.9819      0.00000

 k-point    44 :      -0.4545    0.4545    0.1818
  band No.  band energies     occupation 
      1       3.1011      2.00000
      2       5.8195      2.00000
      3      12.5844      0.00000
      4      15.2095      0.00000
      5      21.1983      0.00000
      6      23.0726      0.00000
      7      23.9288      0.00000
      8      27.3819      0.00000

 k-point    45 :      -0.3636    0.4545    0.1818
  band No.  band energies     occupation 
      1       2.6072      2.00000
      2       7.9763      2.00000
      3      10.5038      0.00000
      4      16.2516      0.00000
      5      18.7521      0.00000
      6      23.0956      0.00000
      7      24.3782      0.00000
      8      29.5481      0.00000

 k-point    46 :      -0.4545   -0.4545    0.1818
  band No.  band energies     occupation 
      1       4.9505      2.00000
      2       5.2022      2.00000
      3      10.2669      0.07903
      4      16.0449      0.00000
      5      20.2917      0.00000
      6      21.5557      0.00000
      7      23.8019      0.00000
      8      29.5203      0.00000

 k-point    47 :      -0.3636   -0.4545    0.1818
  band No.  band energies     occupation 
      1       4.8229      2.00000
      2       7.4035      2.00000
      3       7.5932      2.00000
      4      17.6597      0.00000
      5      18.7372      0.00000
      6      20.8348      0.00000
      7      23.7524      0.00000
      8      32.4235      0.00000

 k-point    48 :      -0.2727    0.2727    0.2727
  band No.  band energies     occupation 
      1       0.3580      2.00000
      2      12.5870      0.00000
      3      12.5870      0.00000
      4      14.7719      0.00000
      5      15.7543      0.00000
      6      26.1070      0.00000
      7      27.3515      0.00000
      8      28.7755      0.00000

 k-point    49 :      -0.3636    0.3636    0.2727
  band No.  band energies     occupation 
      1       2.1099      2.00000
      2      10.0237      2.00000
      3      11.6710      0.00000
      4      14.2060      0.00000
      5      15.9778      0.00000
      6      23.1540      0.00000
      7      27.1211      0.00000
      8      29.5767      0.00000

 k-point    50 :      -0.4545    0.4545    0.2727
  band No.  band energies     occupation 
      1       4.3327      2.00000
      2       7.0110      2.00000
      3      11.2120      0.00000
      4      13.7675      0.00000
      5      17.8174      0.00000
      6      20.3992      0.00000
      7      26.7235      0.00000
      8      29.6905      0.00000

 k-point    51 :      -0.3636    0.4545    0.2727
  band No.  band energies     occupation 
      1       4.0881      2.00000
      2       9.2416      2.00000
      3       9.3868      2.00000
      4      14.8355      0.00000
      5      15.5188      0.00000
      6      20.1441      0.00000
      7      27.4729      0.00000
      8      31.8207      0.00000

 k-point    52 :      -0.4545   -0.4545    0.2727
  band No.  band energies     occupation 
      1       6.4128      2.00000
      2       6.6241      2.00000
      3       9.0806      2.00000
      4      14.8667      0.00000
      5      17.1328      0.00000
      6      17.7648      0.00000
      7      27.3561      0.00000
      8      32.4364      0.00000

 k-point    53 :      -0.3636    0.3636    0.3636
  band No.  band energies     occupation 
      1       3.8419      2.00000
      2      10.7517      0.00000
      3      10.7517      0.00000
      4      12.9459      0.00000
      5      13.6765      0.00000
      6      19.9147      0.00000
      7      30.6776      0.00000
      8      31.6192      0.00000

 k-point    54 :      -0.4545    0.4545    0.3636
  band No.  band energies     occupation 
      1       6.0285      2.00000
      2       8.5980      2.00000
      3      10.2912      0.01453
      4      12.7555      0.00000
      5      14.5131      0.00000
      6      16.9940      0.00000
      7      30.7025      0.00000
      8      32.5446      0.00000

 k-point    55 :      -0.4545   -0.4545    0.3636
  band No.  band energies     occupation 
      1       8.2102      2.00000
      2       8.4312      2.00000
      3       8.4312      2.00000
      4      13.7100      0.00000
      5      14.5165      0.00000
      6      14.5165      0.00000
      7      31.2440      0.00000
      8      34.7394      0.00000

 k-point    56 :      -0.4545    0.4545    0.4545
  band No.  band energies     occupation 
      1       8.1137      2.00000
      2       9.8298      2.00000
      3       9.8298      2.00000
      4      11.9573      0.00000
      5      12.6334      0.00000
      6      14.0763      0.00000
      7      34.3101      0.00000
      8      34.5402      0.00000


--------------------------------------------------------------------------------------------------------


 soft charge-density along one line, spin component           1
         0         1         2         3         4         5         6         7         8         9
 total charge-density along one line
 
 pseudopotential strength for first ion, spin component:           1
 17.950  25.041   0.000   0.000   0.000   0.000   0.000   0.000
 25.041  34.938   0.000   0.000   0.000   0.000   0.000   0.000
  0.000   0.000   4.095  -0.000   0.000   7.628  -0.000   0.000
  0.000   0.000  -0.000   4.095  -0.000  -0.000   7.628  -0.000
  0.000   0.000   0.000  -0.000   4.095   0.000  -0.000   7.628
  0.000   0.000   7.628  -0.000   0.000  14.220  -0.000   0.000
  0.000   0.000  -0.000   7.628  -0.000  -0.000  14.220  -0.000
  0.000   0.000   0.000  -0.000   7.628   0.000  -0.000  14.220
 total augmentation occupancy for first ion, spin component:           1
  4.943  -2.032   0.000   0.000   0.000   0.000   0.000   0.000
 -2.032   1.261   0.000   0.000   0.000   0.000   0.000   0.000
  0.000   0.000   2.371  -0.000   0.000  -0.561  -0.000   0.000
  0.000   0.000  -0.000   2.371   0.000  -0.000  -0.561   0.000
  0.000   0.000   0.000  -0.000   2.371   0.000  -0.000  -0.561
  0.000   0.000  -0.561  -0.000   0.000   0.147  -0.000   0.000
  0.000   0.000  -0.000  -0.561   0.000  -0.000   0.147   0.000
  0.000   0.000   0.000   0.000  -0.561   0.000   0.000   0.147


------------------------ aborting loop because EDIFF is reached ----------------------------------------


    CHARGE:  cpu time    0.0100: real time    0.0113
    FORLOC:  cpu time    0.0000: real time    0.0005
    FORNL :  cpu time    0.0350: real time    0.0347
    STRESS:  cpu time    0.2020: real time    0.2021
    FORCOR:  cpu time    0.0100: real time    0.0094
    FORHAR:  cpu time    0.0010: real time    0.0019
    MIXING:  cpu time    0.0000: real time    0.0005
    OFIELD:  cpu time    0.0000: real time    0.0002

  FORCE on cell =-STRESS in cart. coord.  units (eV):
  Direction    XX          YY          ZZ          XY          YZ          ZX
  --------------------------------------------------------------------------------------
  Alpha Z     2.35686     2.35686     2.35686
  Ewald     -45.71418   -45.71418   -45.71418     0.00000     0.00000    -0.00000
  Hartree     0.12997     0.12997     0.12997    -0.00000     0.00000     0.00000
  E(xc)     -12.74420   -12.74420   -12.74420     0.00000    -0.00000    -0.00000
  Local      -4.89541    -4.89541    -4.89541    -0.00001     0.00001     0.00001
  n-local    38.74238    38.42634    38.31888    -1.23979    -1.13777     0.51013
  augment    -6.25470    -6.25470    -6.25470     0.00001    -0.00001    -0.00001
  Kinetic    24.80532    34.97005    26.64619    12.83231    12.14543    -5.42988
  Fock        0.00000     0.00000     0.00000     0.00000     0.00000     0.00000
  -------------------------------------------------------------------------------------
  Total       0.18139     0.18139     0.18139    -0.00000    -0.00000     0.00000
  in kB      20.34657    20.34657    20.34657    -0.00000    -0.00000     0.00000
  external pressure =       20.35 kB  Pullay stress =        0.00 kB


 VOLUME and BASIS-vectors are now :
 -----------------------------------------------------------------------------
  energy-cutoff  :      350.00
  volume of cell :       14.28
      direct lattice vectors                 reciprocal lattice vectors
     1.528458886  1.528458886  1.528458886     0.327126889  0.327126889  0.000000000
     1.528458886 -1.528458886 -1.528458886     0.327126889  0.000000000 -0.327126889
    -1.528458886  1.528458886 -1.528458886     0.000000000  0.327126889 -0.327126889

  length of vectors
     2.647368448  2.647368448  2.647368448     0.462627283  0.462627283  0.462627283


 FORCES acting on ions
    electron-ion (+dipol)            ewald-force                    non-local-force                 convergence-correction
 -----------------------------------------------------------------------------------------------
   0.927E-15 0.542E-15 0.306E-15   -.199E-15 0.855E-15 -.851E-17   0.993E-23 -.993E-23 -.993E-23   -.477E-17 0.200E-18 0.165E-17
 -----------------------------------------------------------------------------------------------
   0.927E-15 0.542E-15 0.306E-15   -.199E-15 0.855E-15 -.851E-17   0.993E-23 -.993E-23 -.993E-23   -.477E-17 0.200E-18 0.165E-17
 
 
 POSITION                                       TOTAL-FORCE (eV/Angst)
 -----------------------------------------------------------------------------------
      0.00000      0.00000      0.00000         0.000000      0.000000      0.000000
 -----------------------------------------------------------------------------------
    total drift:                                0.000000      0.000000      0.000000


--------------------------------------------------------------------------------------------------------



  FREE ENERGIE OF THE ION-ELECTRON SYSTEM (eV)
  ---------------------------------------------------
  free  energy   TOTEN  =        -4.88087339 eV

  energy  without entropy=       -4.88000137  energy(sigma->0) =       -4.88043738
 


--------------------------------------------------------------------------------------------------------


    POTLOK:  cpu time    0.1740: real time    0.1816


--------------------------------------------------------------------------------------------------------




--------------------------------------------------------------------------------------------------------


  
 reached required accuracy - stopping structural energy minimisation
     LOOP+:  cpu time    3.2675: real time    3.4328
    4ORBIT:  cpu time    0.0000: real time    0.0000

 total amount of memory used by VASP MPI-rank0    33112. kBytes
=======================================================================

   base      :      30000. kBytes
   nonl-proj :        849. kBytes
   fftplans  :       1246. kBytes
   grid      :        577. kBytes
   one-center:          3. kBytes
   wavefun   :        437. kBytes
 
  
  
 General timing and accounting informations for this job:
 ========================================================
  
                  Total CPU time used (sec):        3.821
                            User time (sec):        3.647
                          System time (sec):        0.174
                         Elapsed time (sec):        4.521
  
                   Maximum memory used (kb):       50104.
                   Average memory used (kb):          N/A
  
                          Minor page faults:         9317
                          Major page faults:            1
                 Voluntary context switches:         9523
