 running on    4 total cores
 distrk:  each k-point on    4 cores,    1 groups
 distr:  one band on    1 cores,    4 groups
 vasp.6.2.0 18Jan21 (build Aug 12 2022 13:00:08) complex                        
  
 POSCAR found type information on POSCAR Si
 POSCAR found :  1 types and       1 ions
 scaLAPACK will be used
 LDA part: xc-table for Pade appr. of Perdew
 POSCAR, INCAR and KPOINTS ok, starting setup
 FFT: planning ...
 WAVECAR not read
 entering main loop
       N       E                     dE             d eps       ncg     rms          rms(c)
DAV:   1    -0.317113458109E+01   -0.31711E+01   -0.14130E+03   984   0.273E+02
DAV:   2    -0.489257041632E+01   -0.17214E+01   -0.16620E+01  1424   0.245E+01
DAV:   3    -0.489889271991E+01   -0.63223E-02   -0.63223E-02   984   0.157E+00
DAV:   4    -0.489889741463E+01   -0.46947E-05   -0.46960E-05  1456   0.425E-02
DAV:   5    -0.489889741728E+01   -0.26479E-08   -0.24126E-08   968   0.417E-04    0.270E+00
DAV:   6    -0.488740730527E+01    0.11490E-01   -0.38239E-03   952   0.273E-01    0.149E+00
DAV:   7    -0.488089356945E+01    0.65137E-02   -0.75992E-03   968   0.384E-01    0.134E-01
DAV:   8    -0.488087282189E+01    0.20748E-04   -0.34339E-05  1280   0.438E-02    0.118E-02
DAV:   9    -0.488087339217E+01   -0.57028E-06   -0.39761E-07  1008   0.360E-03
   1 F= -.48808734E+01 E0= -.48804374E+01  d E =-.488087E+01
 curvature:   0.00 expect dE= 0.000E+00 dE for cont linesearch  0.000E+00
 trial: gam= 0.00000 g(F)=  0.458E-65 g(S)=  0.000E+00 ort = 0.000E+00 (trialstep = 0.100E+01)
 search vector abs. value=  0.100E-09
 reached required accuracy - stopping structural energy minimisation
