unknown system                          
           1
     1.528459    1.528459    1.528459
     1.528459   -1.528459   -1.528459
    -1.528459    1.528459   -1.528459
   Si
     1
Direct configuration=     1
   0.00000000  0.00000000  0.00000000
