   2   2   0   0
  0.1922869E+02  0.3788770E-09  0.3788771E-09  0.3788769E-09  0.5000000E-15
  1.000000000000000E-004
  CAR 
 unknown system                          
     17.50328285     -7.09301965  301      6.43750884      1.00000000
     -7.093  0.0000E+00  0.0000E+00
     -7.011  0.0000E+00  0.0000E+00
     -6.929  0.0000E+00  0.0000E+00
     -6.847  0.0000E+00  0.0000E+00
     -6.765  0.0000E+00  0.0000E+00
     -6.683  0.0000E+00  0.0000E+00
     -6.601  0.0000E+00  0.0000E+00
     -6.519  0.0000E+00  0.0000E+00
     -6.437  0.0000E+00  0.0000E+00
     -6.355  0.0000E+00  0.0000E+00
     -6.273  0.0000E+00  0.0000E+00
     -6.191  0.1375E-12  0.1127E-13
     -6.109  0.2088E-07  0.1712E-08
     -6.027  0.2023E-04  0.1660E-05
     -5.945  0.3569E-03  0.3092E-04
     -5.863  0.9952E-03  0.1125E-03
     -5.781  0.1310E-02  0.2199E-03
     -5.699  0.1842E-02  0.3710E-03
     -5.617  0.1598E-02  0.5020E-03
     -5.535  0.2565E-02  0.7123E-03
     -5.453  0.2102E-02  0.8846E-03
     -5.371  0.2519E-02  0.1091E-02
     -5.289  0.2857E-02  0.1325E-02
     -5.207  0.3117E-02  0.1581E-02
     -5.125  0.3123E-02  0.1837E-02
     -5.043  0.2496E-02  0.2042E-02
     -4.961  0.4318E-02  0.2396E-02
     -4.879  0.3669E-02  0.2696E-02
     -4.797  0.3710E-02  0.3000E-02
     -4.715  0.2859E-02  0.3235E-02
     -4.633  0.5191E-02  0.3660E-02
     -4.551  0.4105E-02  0.3997E-02
     -4.469  0.4410E-02  0.4359E-02
     -4.387  0.4821E-02  0.4754E-02
     -4.305  0.4537E-02  0.5126E-02
     -4.223  0.3847E-02  0.5441E-02
     -4.141  0.6248E-02  0.5953E-02
     -4.059  0.6249E-02  0.6466E-02
     -3.977  0.5142E-02  0.6887E-02
     -3.896  0.4881E-02  0.7287E-02
     -3.814  0.5974E-02  0.7777E-02
     -3.732  0.6667E-02  0.8324E-02
     -3.650  0.7807E-02  0.8964E-02
     -3.568  0.6961E-02  0.9535E-02
     -3.486  0.8602E-02  0.1024E-01
     -3.404  0.1029E-01  0.1108E-01
     -3.322  0.4233E-02  0.1143E-01
     -3.240  0.8392E-02  0.1212E-01
     -3.158  0.9399E-02  0.1289E-01
     -3.076  0.7072E-02  0.1347E-01
     -2.994  0.6171E-02  0.1398E-01
     -2.912  0.7911E-02  0.1462E-01
     -2.830  0.7615E-02  0.1525E-01
     -2.748  0.4143E-02  0.1559E-01
     -2.666  0.3710E-02  0.1589E-01
     -2.584  0.6549E-02  0.1643E-01
     -2.502  0.7962E-02  0.1708E-01
     -2.420  0.6534E-02  0.1762E-01
     -2.338  0.4578E-02  0.1799E-01
     -2.256  0.3298E-02  0.1826E-01
     -2.174  0.2082E-02  0.1843E-01
     -2.092  0.2657E-02  0.1865E-01
     -2.010  0.4994E-02  0.1906E-01
     -1.928  0.6128E-02  0.1956E-01
     -1.846  0.2811E-02  0.1979E-01
     -1.764  0.2305E-02  0.1998E-01
     -1.682  0.2051E-03  0.2000E-01
     -1.600  0.3200E-06  0.2000E-01
     -1.518  0.5935E-08  0.2000E-01
     -1.436  0.2801E-04  0.2000E-01
     -1.354  0.1762E-02  0.2015E-01
     -1.272  0.6486E-02  0.2068E-01
     -1.190  0.4961E-02  0.2109E-01
     -1.108  0.2080E-02  0.2126E-01
     -1.026  0.2437E-02  0.2146E-01
     -0.944  0.1870E-02  0.2161E-01
     -0.862  0.4552E-02  0.2198E-01
     -0.780  0.9539E-02  0.2276E-01
     -0.698  0.1874E-01  0.2430E-01
     -0.616  0.1728E-01  0.2572E-01
     -0.534  0.1008E-01  0.2654E-01
     -0.452  0.6961E-02  0.2711E-01
     -0.370  0.8380E-02  0.2780E-01
     -0.288  0.8443E-02  0.2849E-01
     -0.206  0.4182E-02  0.2884E-01
     -0.124  0.6289E-02  0.2935E-01
     -0.042  0.1090E-01  0.3025E-01
      0.040  0.6113E-02  0.3075E-01
      0.122  0.2100E-02  0.3092E-01
      0.204  0.4403E-02  0.3128E-01
      0.286  0.7892E-02  0.3193E-01
      0.368  0.4645E-02  0.3231E-01
      0.450  0.2125E-02  0.3248E-01
      0.532  0.1207E-02  0.3258E-01
      0.614  0.5770E-02  0.3305E-01
      0.696  0.8706E-02  0.3377E-01
      0.778  0.2967E-02  0.3401E-01
      0.860  0.9450E-03  0.3409E-01
      0.942  0.1617E-02  0.3422E-01
      1.024  0.3760E-02  0.3453E-01
      1.106  0.6425E-02  0.3506E-01
      1.188  0.2302E-02  0.3525E-01
      1.270  0.1463E-02  0.3537E-01
      1.352  0.4932E-03  0.3541E-01
      1.434  0.2747E-02  0.3563E-01
      1.516  0.5756E-02  0.3610E-01
      1.598  0.4148E-02  0.3644E-01
      1.680  0.1430E-02  0.3656E-01
      1.762  0.4551E-02  0.3693E-01
      1.844  0.6517E-02  0.3747E-01
      1.926  0.8466E-02  0.3816E-01
      2.008  0.1672E-01  0.3953E-01
      2.090  0.1066E-01  0.4041E-01
      2.172  0.1011E-01  0.4124E-01
      2.254  0.6406E-02  0.4176E-01
      2.336  0.1087E-01  0.4265E-01
      2.418  0.1231E-01  0.4366E-01
      2.500  0.1076E-01  0.4454E-01
      2.582  0.9543E-02  0.4533E-01
      2.664  0.7759E-02  0.4596E-01
      2.746  0.8218E-02  0.4664E-01
      2.827  0.1358E-01  0.4775E-01
      2.909  0.1108E-01  0.4866E-01
      2.991  0.8775E-02  0.4938E-01
      3.073  0.1373E-01  0.5050E-01
      3.155  0.1270E-01  0.5154E-01
      3.237  0.1098E-01  0.5244E-01
      3.319  0.1191E-01  0.5342E-01
      3.401  0.1508E-01  0.5466E-01
      3.483  0.1749E-01  0.5609E-01
      3.565  0.1336E-01  0.5719E-01
      3.647  0.1495E-01  0.5841E-01
      3.729  0.1128E-01  0.5934E-01
      3.811  0.1390E-01  0.6048E-01
      3.893  0.1314E-01  0.6155E-01
      3.975  0.1412E-01  0.6271E-01
      4.057  0.1505E-01  0.6395E-01
      4.139  0.9939E-02  0.6476E-01
      4.221  0.1260E-01  0.6579E-01
      4.303  0.1292E-01  0.6685E-01
      4.385  0.1302E-01  0.6792E-01
      4.467  0.1071E-01  0.6880E-01
      4.549  0.1032E-01  0.6964E-01
      4.631  0.1503E-01  0.7088E-01
      4.713  0.8687E-02  0.7159E-01
      4.795  0.1337E-01  0.7269E-01
      4.877  0.1089E-01  0.7358E-01
      4.959  0.8151E-02  0.7425E-01
      5.041  0.9229E-02  0.7500E-01
      5.123  0.1222E-01  0.7601E-01
      5.205  0.7404E-02  0.7661E-01
      5.287  0.4957E-02  0.7702E-01
      5.369  0.4851E-02  0.7742E-01
      5.451  0.5108E-02  0.7784E-01
      5.533  0.4863E-02  0.7823E-01
      5.615  0.5293E-02  0.7867E-01
      5.697  0.2956E-02  0.7891E-01
      5.779  0.2796E-02  0.7914E-01
      5.861  0.3028E-02  0.7939E-01
      5.943  0.1947E-02  0.7955E-01
      6.025  0.2710E-02  0.7977E-01
      6.107  0.1295E-02  0.7988E-01
      6.189  0.1037E-02  0.7996E-01
      6.271  0.4626E-03  0.8000E-01
      6.353  0.1447E-04  0.8000E-01
      6.435  0.5373E-08  0.8000E-01
      6.517  0.1200E-13  0.8000E-01
      6.599  0.8754E-13  0.8000E-01
      6.681  0.2429E-07  0.8000E-01
      6.763  0.4656E-04  0.8000E-01
      6.845  0.1233E-02  0.8010E-01
      6.927  0.1577E-02  0.8023E-01
      7.009  0.1066E-02  0.8032E-01
      7.091  0.3770E-02  0.8063E-01
      7.173  0.4134E-02  0.8097E-01
      7.255  0.3196E-02  0.8123E-01
      7.337  0.5251E-02  0.8166E-01
      7.419  0.2831E-02  0.8189E-01
      7.501  0.4066E-02  0.8223E-01
      7.583  0.5700E-02  0.8269E-01
      7.665  0.9698E-02  0.8349E-01
      7.747  0.4547E-02  0.8386E-01
      7.829  0.4927E-02  0.8427E-01
      7.911  0.7232E-02  0.8486E-01
      7.993  0.8791E-02  0.8558E-01
      8.075  0.6909E-02  0.8615E-01
      8.157  0.8416E-02  0.8684E-01
      8.239  0.1260E-01  0.8787E-01
      8.321  0.1022E-01  0.8871E-01
      8.403  0.1025E-01  0.8955E-01
      8.485  0.1417E-01  0.9071E-01
      8.567  0.1875E-01  0.9225E-01
      8.649  0.1215E-01  0.9324E-01
      8.731  0.1425E-01  0.9441E-01
      8.813  0.1410E-01  0.9557E-01
      8.895  0.1503E-01  0.9680E-01
      8.977  0.1577E-01  0.9809E-01
      9.059  0.1096E-01  0.9899E-01
      9.141  0.1187E-01  0.9997E-01
      9.223  0.9896E-02  0.1008E+00
      9.305  0.1066E-01  0.1017E+00
      9.387  0.1296E-01  0.1027E+00
      9.468  0.1153E-01  0.1037E+00
      9.550  0.2046E-01  0.1053E+00
      9.632  0.2224E-01  0.1072E+00
      9.714  0.1553E-01  0.1084E+00
      9.796  0.1956E-01  0.1100E+00
      9.878  0.1876E-01  0.1116E+00
      9.960  0.1589E-01  0.1129E+00
     10.042  0.1608E-01  0.1142E+00
     10.124  0.1095E-01  0.1151E+00
     10.206  0.1292E-01  0.1162E+00
     10.288  0.1456E-01  0.1173E+00
     10.370  0.1444E-01  0.1185E+00
     10.452  0.1499E-01  0.1198E+00
     10.534  0.1103E-01  0.1207E+00
     10.616  0.1352E-01  0.1218E+00
     10.698  0.9172E-02  0.1225E+00
     10.780  0.1268E-01  0.1236E+00
     10.862  0.1202E-01  0.1245E+00
     10.944  0.1152E-01  0.1255E+00
     11.026  0.1149E-01  0.1264E+00
     11.108  0.1340E-01  0.1275E+00
     11.190  0.1142E-01  0.1285E+00
     11.272  0.9989E-02  0.1293E+00
     11.354  0.1357E-01  0.1304E+00
     11.436  0.1455E-01  0.1316E+00
     11.518  0.1009E-01  0.1324E+00
     11.600  0.8103E-02  0.1331E+00
     11.682  0.1618E-01  0.1344E+00
     11.764  0.1242E-01  0.1354E+00
     11.846  0.9769E-02  0.1362E+00
     11.928  0.6949E-02  0.1368E+00
     12.010  0.1179E-01  0.1378E+00
     12.092  0.1288E-01  0.1388E+00
     12.174  0.8912E-02  0.1396E+00
     12.256  0.7610E-02  0.1402E+00
     12.338  0.1489E-01  0.1414E+00
     12.420  0.1340E-01  0.1425E+00
     12.502  0.6835E-02  0.1431E+00
     12.584  0.9570E-02  0.1438E+00
     12.666  0.1103E-01  0.1447E+00
     12.748  0.8551E-02  0.1454E+00
     12.830  0.5508E-02  0.1459E+00
     12.912  0.5765E-02  0.1464E+00
     12.994  0.9581E-02  0.1472E+00
     13.076  0.1262E-01  0.1482E+00
     13.158  0.9493E-02  0.1490E+00
     13.240  0.1127E-01  0.1499E+00
     13.322  0.8460E-02  0.1506E+00
     13.404  0.8192E-02  0.1513E+00
     13.486  0.4038E-02  0.1516E+00
     13.568  0.3463E-02  0.1519E+00
     13.650  0.5954E-02  0.1524E+00
     13.732  0.5894E-02  0.1528E+00
     13.814  0.6457E-02  0.1534E+00
     13.896  0.8315E-02  0.1541E+00
     13.978  0.7213E-02  0.1547E+00
     14.060  0.9785E-02  0.1555E+00
     14.142  0.5025E-02  0.1559E+00
     14.224  0.3337E-02  0.1561E+00
     14.306  0.3975E-02  0.1565E+00
     14.388  0.3295E-02  0.1567E+00
     14.470  0.4889E-02  0.1571E+00
     14.552  0.1350E-02  0.1572E+00
     14.634  0.1691E-02  0.1574E+00
     14.716  0.3503E-02  0.1577E+00
     14.798  0.8586E-02  0.1584E+00
     14.880  0.3054E-02  0.1586E+00
     14.962  0.1385E-02  0.1587E+00
     15.044  0.1200E-03  0.1587E+00
     15.126  0.2070E-05  0.1588E+00
     15.208  0.4980E-03  0.1588E+00
     15.290  0.2452E-02  0.1590E+00
     15.372  0.8256E-03  0.1591E+00
     15.454  0.5028E-03  0.1591E+00
     15.536  0.2024E-02  0.1593E+00
     15.618  0.4254E-02  0.1596E+00
     15.700  0.1120E-02  0.1597E+00
     15.782  0.1784E-03  0.1597E+00
     15.864  0.7521E-06  0.1597E+00
     15.946  0.2206E-10  0.1597E+00
     16.028  0.1572E-07  0.1597E+00
     16.109  0.4207E-04  0.1597E+00
     16.191  0.1041E-02  0.1598E+00
     16.273  0.7150E-03  0.1599E+00
     16.355  0.8129E-03  0.1599E+00
     16.437  0.7176E-03  0.1600E+00
     16.519  0.5943E-04  0.1600E+00
     16.601  0.6261E-07  0.1600E+00
     16.683  0.4125E-12  0.1600E+00
     16.765  0.0000E+00  0.1600E+00
     16.847  0.0000E+00  0.1600E+00
     16.929  0.0000E+00  0.1600E+00
     17.011  0.0000E+00  0.1600E+00
     17.093  0.0000E+00  0.1600E+00
     17.175  0.0000E+00  0.1600E+00
     17.257  0.0000E+00  0.1600E+00
     17.339  0.0000E+00  0.1600E+00
     17.421  0.0000E+00  0.1600E+00
     17.503  0.0000E+00  0.1600E+00
