    2    2  100    1
  0.1922869E+02  0.3788769E-09  0.3788770E-09  0.3788769E-09  0.5000000E-15
  1.000000000000000E-004
  CAR 
 unknown system                          
      8    182      8
 
  0.4166667E-01  0.4166667E-01  0.4166667E-01  0.1157407E-02
    1       -5.975006   1.000000
    2        5.987584   1.000000
    3        6.201773   1.000000
    4        6.201776   1.000000
    5        8.884643   0.000000
    6        8.884650   0.000000
    7        8.888812   0.000000
    8       10.237064   0.000000
 
  0.1250000E+00  0.4166667E-01  0.4166667E-01  0.3472222E-02
    1       -5.849547   1.000000
    2        5.097525   1.000000
    3        5.759420   1.000000
    4        6.149938   1.000000
    5        9.005295   0.000000
    6        9.016417   0.000000
    7        9.243048   0.000000
    8       10.980309   0.000000
 
  0.2083333E+00  0.4166667E-01  0.4166667E-01  0.3472222E-02
    1       -5.539637   1.000000
    2        3.553928   1.000000
    3        5.379929   1.000000
    4        5.871932   1.000000
    5        8.812402   0.000000
    6        9.404994   0.000000
    7        9.727629   0.000000
    8       12.234936   0.000000
 
  0.2916667E+00  0.4166667E-01  0.4166667E-01  0.3472222E-02
    1       -5.057858   1.000000
    2        1.990226   1.000000
    3        5.077918   1.000000
    4        5.546069   1.000000
    5        8.516788   0.000000
    6        9.679795   0.000000
    7        9.944893   0.000000
    8       13.189524   0.000000
 
  0.3750000E+00  0.4166667E-01  0.4166667E-01  0.3472222E-02
    1       -4.439236   1.000000
    2        0.576524   1.000000
    3        4.883050   1.000000
    4        5.265249   1.000000
    5        8.275142   0.000000
    6        9.686476   0.000000
    7        9.827250   0.000000
    8       14.030496   0.000000
 
  0.4583333E+00  0.4166667E-01  0.4166667E-01  0.3472222E-02
    1       -3.802235   1.000000
    2       -0.524997   1.000000
    3        4.803403   1.000000
    4        5.064577   1.000000
    5        8.129780   0.000000
    6        9.628443   0.000000
    7        9.631554   0.000000
    8       14.164622   0.000000
 
 -0.4583333E+00  0.4166667E-01  0.4166667E-01  0.3472222E-02
    1       -3.553883   1.000000
    2       -0.890510   1.000000
    3        4.835932   1.000000
    4        4.959604   1.000000
    5        8.093643   0.000000
    6        9.521590   0.000000
    7        9.658944   0.000000
    8       14.121289   0.000000
 
 -0.3750000E+00  0.4166667E-01  0.4166667E-01  0.3472222E-02
    1       -4.000489   1.000000
    2       -0.210202   1.000000
    3        4.960043   1.000000
    4        4.973050   1.000000
    5        8.168585   0.000000
    6        9.536185   0.000000
    7        9.805964   0.000000
    8       14.084804   0.000000
 
 -0.2916667E+00  0.4166667E-01  0.4166667E-01  0.3472222E-02
    1       -4.656307   1.000000
    2        1.023019   1.000000
    3        5.072334   1.000000
    4        5.204525   1.000000
    5        8.348805   0.000000
    6        9.610018   0.000000
    7        9.995234   0.000000
    8       13.287831   0.000000
 
 -0.2083333E+00  0.4166667E-01  0.4166667E-01  0.3472222E-02
    1       -5.236044   1.000000
    2        2.500973   1.000000
    3        5.295758   1.000000
    4        5.511767   1.000000
    5        8.609332   0.000000
    6        9.542739   0.000000
    7       10.023908   0.000000
    8       12.545902   0.000000
 
 -0.1250000E+00  0.4166667E-01  0.4166667E-01  0.3472222E-02
    1       -5.662852   1.000000
    2        4.088113   1.000000
    3        5.612698   1.000000
    4        5.846902   1.000000
    5        8.846289   0.000000
    6        9.237779   0.000000
    7        9.698866   0.000000
    8       11.769825   0.000000
 
 -0.4166667E-01  0.4166667E-01  0.4166667E-01  0.3472222E-02
    1       -5.912151   1.000000
    2        5.571165   1.000000
    3        5.963946   1.000000
    4        6.080171   1.000000
    5        8.741832   0.000000
    6        9.127889   0.000000
    7        9.196760   0.000000
    8       10.588620   0.000000
 
  0.1250000E+00  0.1250000E+00  0.4166667E-01  0.3472222E-02
    1       -5.786692   1.000000
    2        5.029491   1.000000
    3        5.601008   1.000000
    4        5.725025   1.000000
    5        8.490901   0.000000
    6        9.588820   0.000000
    7        9.707183   0.000000
    8       11.024451   0.000000
 
  0.2083333E+00  0.1250000E+00  0.4166667E-01  0.6944444E-02
    1       -5.537827   1.000000
    2        3.971417   1.000000
    3        4.987444   1.000000
    4        5.577937   1.000000
    5        8.507201   0.000000
    6        9.836295   0.000000
    7       10.230518   0.000000
    8       11.344848   0.000000
 
  0.2916667E+00  0.1250000E+00  0.4166667E-01  0.6944444E-02
    1       -5.111836   1.000000
    2        2.497903   1.000000
    3        4.602106   1.000000
    4        5.275404   1.000000
    5        8.738852   0.000000
    6        9.773131   0.000000
    7       10.604252   0.000000
    8       11.402043   0.000000
 
  0.3750000E+00  0.1250000E+00  0.4166667E-01  0.6944444E-02
    1       -4.532932   1.000000
    2        1.064549   1.000000
    3        4.343263   1.000000
    4        4.956922   1.000000
    5        8.727566   0.000000
    6        9.691527   0.000000
    7       10.576168   0.000000
    8       12.029467   0.000000
 
  0.4583333E+00  0.1250000E+00  0.4166667E-01  0.6944444E-02
    1       -3.876948   1.000000
    2       -0.148979   1.000000
    3        4.165793   1.000000
    4        4.752098   1.000000
    5        8.639294   0.000000
    6        9.547446   0.000000
    7       10.379836   0.000000
    8       13.213801   0.000000
 
 -0.4583333E+00  0.1250000E+00  0.4166667E-01  0.6944444E-02
    1       -3.428769   1.000000
    2       -0.823571   1.000000
    3        4.039656   1.000000
    4        4.725858   1.000000
    5        8.622958   0.000000
    6        9.465958   0.000000
    7       10.232980   0.000000
    8       14.386999   0.000000
 
 -0.3750000E+00  0.1250000E+00  0.4166667E-01  0.6944444E-02
    1       -3.679541   1.000000
    2       -0.457988   1.000000
    3        3.984495   1.000000
    4        4.868838   1.000000
    5        8.702695   0.000000
    6        9.496875   0.000000
    7       10.216432   0.000000
    8       14.072299   0.000000
 
 -0.2916667E+00  0.1250000E+00  0.4166667E-01  0.6944444E-02
    1       -4.317501   1.000000
    2        0.630375   1.000000
    3        4.039451   1.000000
    4        5.136914   1.000000
    5        8.863440   0.000000
    6        9.602260   0.000000
    7       10.311067   0.000000
    8       12.855668   0.000000
 
 -0.2083333E+00  0.1250000E+00  0.4166667E-01  0.6944444E-02
    1       -4.935131   1.000000
    2        2.005787   1.000000
    3        4.234433   1.000000
    4        5.478164   1.000000
    5        9.058264   0.000000
    6        9.611796   0.000000
    7       10.358049   0.000000
    8       11.986080   0.000000
 
 -0.1250000E+00  0.1250000E+00  0.4166667E-01  0.6944444E-02
    1       -5.415655   1.000000
    2        3.453320   1.000000
    3        4.618220   1.000000
    4        5.807817   1.000000
    5        9.029521   0.000000
    6        9.531971   0.000000
    7       10.046378   0.000000
    8       11.744175   0.000000
 
 -0.4166667E-01  0.1250000E+00  0.4166667E-01  0.6944444E-02
    1       -5.724613   1.000000
    2        4.549027   1.000000
    3        5.394495   1.000000
    4        5.966153   1.000000
    5        8.795584   0.000000
    6        9.361046   0.000000
    7        9.630915   0.000000
    8       11.425467   0.000000
 
  0.2083333E+00  0.2083333E+00  0.4166667E-01  0.3472222E-02
    1       -5.350117   1.000000
    2        3.741979   1.000000
    3        4.812669   1.000000
    4        4.835997   1.000000
    5        7.867329   0.000000
    6       10.402425   0.000000
    7       10.947490   0.000000
    8       11.001658   0.000000
 
  0.2916667E+00  0.2083333E+00  0.4166667E-01  0.6944444E-02
    1       -4.982337   1.000000
    2        2.750266   1.000000
    3        4.205000   1.000000
    4        4.651314   1.000000
    5        7.903075   0.000000
    6        9.955247   0.000000
    7       11.185275   0.000000
    8       11.627208   0.000000
 
  0.3750000E+00  0.2083333E+00  0.4166667E-01  0.6944444E-02
    1       -4.451262   1.000000
    2        1.489146   1.000000
    3        3.747731   1.000000
    4        4.372118   1.000000
    5        8.166948   0.000000
    6       10.169813   0.000000
    7       10.998749   0.000000
    8       11.814657   0.000000
 
  0.4583333E+00  0.2083333E+00  0.4166667E-01  0.6944444E-02
    1       -3.805796   1.000000
    2        0.280640   1.000000
    3        3.349107   1.000000
    4        4.225838   1.000000
    5        8.234831   0.000000
    6       10.690768   0.000000
    7       11.230213   0.000000
    8       11.668177   0.000000
 
 -0.4583333E+00  0.2083333E+00  0.4166667E-01  0.6944444E-02
    1       -3.228801   1.000000
    2       -0.590334   1.000000
    3        3.028295   1.000000
    4        4.264836   1.000000
    5        8.318731   0.000000
    6       10.460494   0.000000
    7       11.466825   0.000000
    8       12.695178   0.000000
 
 -0.3750000E+00  0.2083333E+00  0.4166667E-01  0.6944444E-02
    1       -3.239432   1.000000
    2       -0.571509   1.000000
    3        2.834639   1.000000
    4        4.465128   1.000000
    5        8.535447   0.000000
    6       10.296142   0.000000
    7       11.341087   0.000000
    8       14.031248   0.000000
 
 -0.2916667E+00  0.2083333E+00  0.4166667E-01  0.6944444E-02
    1       -3.822232   1.000000
    2        0.312833   1.000000
    3        2.813746   1.000000
    4        4.791451   1.000000
    5        8.881501   0.000000
    6       10.196746   0.000000
    7       11.272231   0.000000
    8       12.637221   0.000000
 
 -0.2083333E+00  0.2083333E+00  0.4166667E-01  0.6944444E-02
    1       -4.464802   1.000000
    2        1.463641   1.000000
    3        3.054519   1.000000
    4        5.188578   1.000000
    5        9.284087   0.000000
    6        9.974765   0.000000
    7       11.091247   0.000000
    8       11.691701   0.000000
 
 -0.1250000E+00  0.2083333E+00  0.4166667E-01  0.6944444E-02
    1       -4.991793   1.000000
    2        2.411030   1.000000
    3        3.809720   1.000000
    4        5.546976   1.000000
    5        9.382741   0.000000
    6        9.584578   0.000000
    7       10.519595   0.000000
    8       11.610216   0.000000
 
 -0.4166667E-01  0.2083333E+00  0.4166667E-01  0.6944444E-02
    1       -5.355631   1.000000
    2        3.018904   1.000000
    3        5.004895   1.000000
    4        5.676975   1.000000
    5        8.877197   0.000000
    6        9.437236   0.000000
    7       10.093796   0.000000
    8       12.042327   0.000000
 
  0.2916667E+00  0.2916667E+00  0.4166667E-01  0.3472222E-02
    1       -4.672530   1.000000
    2        2.296466   1.000000
    3        4.078334   1.000000
    4        4.133533   1.000000
    5        7.303351   0.000000
    6        9.093932   0.000000
    7       12.390605   0.000000
    8       12.451070   0.000000
 
  0.3750000E+00  0.2916667E+00  0.4166667E-01  0.6944444E-02
    1       -4.193703   1.000000
    2        1.422488   1.000000
    3        3.562058   1.000000
    4        3.895900   1.000000
    5        7.420801   0.000000
    6        8.766539   0.000000
    7       12.545030   0.000000
    8       13.155051   0.000000
 
  0.4583333E+00  0.2916667E+00  0.4166667E-01  0.6944444E-02
    1       -3.577488   1.000000
    2        0.443941   1.000000
    3        2.901734   1.000000
    4        3.761351   1.000000
    5        7.652790   0.000000
    6        9.336271   0.000000
    7       12.317985   0.000000
    8       13.236226   0.000000
 
 -0.4583333E+00  0.2916667E+00  0.4166667E-01  0.6944444E-02
    1       -2.936229   1.000000
    2       -0.422505   1.000000
    3        2.331472   1.000000
    4        3.804309   1.000000
    5        7.767069   0.000000
    6       10.626112   0.000000
    7       12.043806   0.000000
    8       13.074091   0.000000
 
 -0.3750000E+00  0.2916667E+00  0.4166667E-01  0.6944444E-02
    1       -2.715191   1.000000
    2       -0.682476   1.000000
    3        1.975363   1.000000
    4        4.008321   1.000000
    5        7.997644   0.000000
    6       11.606822   0.000000
    7       12.354204   0.000000
    8       12.974341   0.000000
 
 -0.2916667E+00  0.2916667E+00  0.4166667E-01  0.6944444E-02
    1       -3.208096   1.000000
    2       -0.077237   1.000000
    3        1.929667   1.000000
    4        4.347449   1.000000
    5        8.381314   0.000000
    6       11.391453   0.000000
    7       12.529996   0.000000
    8       12.665472   0.000000
 
 -0.2083333E+00  0.2916667E+00  0.4166667E-01  0.6944444E-02
    1       -3.856374   1.000000
    2        0.630192   1.000000
    3        2.409521   1.000000
    4        4.772052   1.000000
    5        8.863438   0.000000
    6       10.623960   0.000000
    7       11.769211   0.000000
    8       12.069126   0.000000
 
 -0.1250000E+00  0.2916667E+00  0.4166667E-01  0.6944444E-02
    1       -4.415033   1.000000
    2        1.093957   1.000000
    3        3.480268   1.000000
    4        5.173118   1.000000
    5        9.170870   0.000000
    6        9.750005   0.000000
    7       10.713140   0.000000
    8       12.178350   0.000000
 
 -0.4166667E-01  0.2916667E+00  0.4166667E-01  0.6944444E-02
    1       -4.822676   1.000000
    2        1.509093   1.000000
    3        4.734360   1.000000
    4        5.345440   1.000000
    5        8.665124   0.000000
    6        9.588557   0.000000
    7       10.179588   0.000000
    8       12.576883   0.000000
 
  0.3750000E+00  0.3750000E+00  0.4166667E-01  0.3472222E-02
    1       -3.766705   1.000000
    2        0.799473   1.000000
    3        3.543764   1.000000
    4        3.640794   1.000000
    5        6.934273   0.000000
    6        8.001859   0.000000
    7       13.961950   0.000000
    8       13.972883   0.000000
 
  0.4583333E+00  0.3750000E+00  0.4166667E-01  0.6944444E-02
    1       -3.190063   1.000000
    2        0.025292   1.000000
    3        3.121379   1.000000
    4        3.429592   1.000000
    5        7.147626   0.000000
    6        7.915909   0.000000
    7       13.993882   0.000000
    8       14.759406   0.000000
 
 -0.4583333E+00  0.3750000E+00  0.4166667E-01  0.6944444E-02
    1       -2.530381   1.000000
    2       -0.705948   1.000000
    3        2.365143   1.000000
    4        3.447692   1.000000
    5        7.334433   0.000000
    6        8.885847   0.000000
    7       13.719195   0.000000
    8       14.791176   0.000000
 
 -0.3750000E+00  0.3750000E+00  0.4166667E-01  0.6944444E-02
    1       -2.157428   1.000000
    2       -1.055235   1.000000
    3        1.787446   1.000000
    4        3.630404   1.000000
    5        7.550460   0.000000
    6       10.419767   0.000000
    7       13.374478   0.000000
    8       14.285830   0.000000
 
 -0.2916667E+00  0.3750000E+00  0.4166667E-01  0.6944444E-02
    1       -2.599378   1.000000
    2       -0.646126   1.000000
    3        1.689940   1.000000
    4        3.957085   1.000000
    5        7.928695   0.000000
    6       11.959160   0.000000
    7       12.580636   0.000000
    8       13.382300   0.000000
 
 -0.2083333E+00  0.3750000E+00  0.4166667E-01  0.6944444E-02
    1       -3.214134   1.000000
    2       -0.301535   1.000000
    3        2.289140   1.000000
    4        4.387221   1.000000
    5        8.436072   0.000000
    6       10.866864   0.000000
    7       11.984662   0.000000
    8       13.278500   0.000000
 
 -0.1250000E+00  0.3750000E+00  0.4166667E-01  0.6944444E-02
    1       -3.759341   1.000000
    2       -0.089433   1.000000
    3        3.383823   1.000000
    4        4.826249   1.000000
    5        8.872854   0.000000
    6        9.748761   0.000000
    7       10.707621   0.000000
    8       13.368776   0.000000
 
 -0.4166667E-01  0.3750000E+00  0.4166667E-01  0.6944444E-02
    1       -4.176660   1.000000
    2        0.182838   1.000000
    3        4.578521   1.000000
    4        5.071358   1.000000
    5        8.468549   0.000000
    6        9.542177   0.000000
    7       10.011142   0.000000
    8       13.585694   0.000000
 
  0.4583333E+00  0.4583333E+00  0.4166667E-01  0.3472222E-02
    1       -2.653049   1.000000
    2       -0.664893   1.000000
    3        3.244633   1.000000
    4        3.361122   1.000000
    5        6.823755   0.000000
    6        7.279223   0.000000
    7       15.550037   0.000000
    8       15.589625   0.000000
 
 -0.4583333E+00  0.4583333E+00  0.4166667E-01  0.6944444E-02
    1       -2.001867   1.000000
    2       -1.347188   1.000000
    3        2.926444   1.000000
    4        3.235954   1.000000
    5        7.086776   0.000000
    6        7.489768   0.000000
    7       15.519883   0.000000
    8       16.178882   0.000000
 
 -0.3750000E+00  0.4583333E+00  0.4166667E-01  0.6944444E-02
    1       -1.985840   1.000000
    2       -1.275375   1.000000
    3        2.256974   1.000000
    4        3.386255   1.000000
    5        7.268111   0.000000
    6        8.797667   0.000000
    7       14.441050   0.000000
    8       15.260253   0.000000
 
 -0.2916667E+00  0.4583333E+00  0.4166667E-01  0.6944444E-02
    1       -2.498092   1.000000
    2       -0.768834   1.000000
    3        1.976254   1.000000
    4        3.688142   1.000000
    5        7.623468   0.000000
    6       10.489125   0.000000
    7       12.709697   0.000000
    8       13.828993   0.000000
 
 -0.2083333E+00  0.4583333E+00  0.4166667E-01  0.6944444E-02
    1       -2.935661   1.000000
    2       -0.679662   1.000000
    3        2.452997   1.000000
    4        4.110733   1.000000
    5        8.131435   0.000000
    6       11.039169   0.000000
    7       12.081631   0.000000
    8       12.596745   0.000000
 
 -0.1250000E+00  0.4583333E+00  0.4166667E-01  0.6944444E-02
    1       -3.305722   1.000000
    2       -0.764394   1.000000
    3        3.445373   1.000000
    4        4.578389   1.000000
    5        8.641292   0.000000
    6        9.785180   0.000000
    7       10.738544   0.000000
    8       14.429994   0.000000
 
 -0.4166667E-01  0.4583333E+00  0.4166667E-01  0.6944444E-02
    1       -3.602547   1.000000
    2       -0.737943   1.000000
    3        4.518412   1.000000
    4        4.910680   1.000000
    5        8.362511   0.000000
    6        9.475609   0.000000
    7        9.858876   0.000000
    8       14.258034   0.000000
 
 -0.4583333E+00 -0.4583333E+00  0.4166667E-01  0.3472222E-02
    1       -2.027646   1.000000
    2       -1.362520   1.000000
    3        3.184648   1.000000
    4        3.304707   1.000000
    5        6.866170   0.000000
    6        7.068820   0.000000
    7       16.313380   0.000000
    8       16.385269   0.000000
 
 -0.3750000E+00 -0.4583333E+00  0.4166667E-01  0.6944444E-02
    1       -2.616291   1.000000
    2       -0.670222   1.000000
    3        2.991729   1.000000
    4        3.300103   1.000000
    5        7.096262   0.000000
    6        7.642773   0.000000
    7       14.750163   0.000000
    8       15.574411   0.000000
 
 -0.2916667E+00 -0.4583333E+00  0.4166667E-01  0.6944444E-02
    1       -3.071449   1.000000
    2       -0.120341   1.000000
    3        2.581728   1.000000
    4        3.571696   1.000000
    5        7.464428   0.000000
    6        9.064121   0.000000
    7       13.005829   0.000000
    8       14.005685   0.000000
 
 -0.2083333E+00 -0.4583333E+00  0.4166667E-01  0.6944444E-02
    1       -3.382289   1.000000
    2       -0.074347   1.000000
    3        2.808969   1.000000
    4        3.981263   1.000000
    5        7.975197   0.000000
    6       10.813536   0.000000
    7       11.429847   0.000000
    8       12.343453   0.000000
 
 -0.1250000E+00 -0.4583333E+00  0.4166667E-01  0.6944444E-02
    1       -3.553685   1.000000
    2       -0.410130   1.000000
    3        3.625786   1.000000
    4        4.474919   1.000000
    5        8.526775   0.000000
    6        9.925066   0.000000
    7       10.873702   0.000000
    8       12.916701   0.000000
 
 -0.3750000E+00 -0.3750000E+00  0.4166667E-01  0.3472222E-02
    1       -3.234212   1.000000
    2        0.058552   1.000000
    3        3.364479   1.000000
    4        3.473451   1.000000
    5        6.844300   0.000000
    6        7.593015   0.000000
    7       14.756000   0.000000
    8       14.770688   0.000000
 
 -0.2916667E+00 -0.3750000E+00  0.4166667E-01  0.6944444E-02
    1       -3.717255   1.000000
    2        0.727064   1.000000
    3        3.312977   1.000000
    4        3.626911   1.000000
    5        7.255293   0.000000
    6        8.292550   0.000000
    7       13.259439   0.000000
    8       13.949427   0.000000
 
 -0.2083333E+00 -0.3750000E+00  0.4166667E-01  0.6944444E-02
    1       -4.039249   1.000000
    2        0.978379   1.000000
    3        3.304529   1.000000
    4        4.024014   1.000000
    5        7.890980   0.000000
    6        9.705625   0.000000
    7       11.649815   0.000000
    8       12.501262   0.000000
 
 -0.1250000E+00 -0.3750000E+00  0.4166667E-01  0.6944444E-02
    1       -4.192179   1.000000
    2        0.656745   1.000000
    3        3.881141   1.000000
    4        4.552248   1.000000
    5        8.515805   0.000000
    6       10.147412   0.000000
    7       11.073604   0.000000
    8       11.569854   0.000000
 
 -0.2916667E+00 -0.2916667E+00  0.4166667E-01  0.3472222E-02
    1       -4.247083   1.000000
    2        1.548766   1.000000
    3        3.782016   1.000000
    4        3.861643   1.000000
    5        7.089465   0.000000
    6        8.504252   0.000000
    7       13.167813   0.000000
    8       13.204648   0.000000
 
 -0.2083333E+00 -0.2916667E+00  0.4166667E-01  0.6944444E-02
    1       -4.616242   1.000000
    2        2.099599   1.000000
    3        3.861833   1.000000
    4        4.239013   1.000000
    5        7.639473   0.000000
    6        9.329663   0.000000
    7       11.848673   0.000000
    8       12.379314   0.000000
 
 -0.1250000E+00 -0.2916667E+00  0.4166667E-01  0.6944444E-02
    1       -4.809697   1.000000
    2        1.990868   1.000000
    3        4.184943   1.000000
    4        4.805861   1.000000
    5        8.461955   0.000000
    6       10.325157   0.000000
    7       10.767799   0.000000
    8       11.188145   0.000000
 
 -0.2083333E+00 -0.2083333E+00  0.4166667E-01  0.3472222E-02
    1       -5.040804   1.000000
    2        3.031695   1.000000
    3        4.431096   1.000000
    4        4.452655   1.000000
    5        7.566924   0.000000
    6        9.752151   0.000000
    7       11.637476   0.000000
    8       11.714564   0.000000
 
 -0.1250000E+00 -0.2083333E+00  0.4166667E-01  0.6944444E-02
    1       -5.290039   1.000000
    2        3.372888   1.000000
    3        4.583843   1.000000
    4        5.112394   1.000000
    5        8.198996   0.000000
    6       10.326924   0.000000
    7       10.845883   0.000000
    8       10.907327   0.000000
 
 -0.1250000E+00 -0.1250000E+00  0.4166667E-01  0.3472222E-02
    1       -5.599095   1.000000
    2        4.413036   1.000000
    3        5.202537   1.000000
    4        5.279982   1.000000
    5        8.185122   0.000000
    6       10.178284   0.000000
    7       10.324617   0.000000
    8       11.041132   0.000000
 
  0.1250000E+00  0.1250000E+00  0.1250000E+00  0.1157407E-02
    1       -5.787231   1.000000
    2        4.628920   1.000000
    3        5.941848   1.000000
    4        5.941851   1.000000
    5        8.854797   0.000000
    6        9.265695   0.000000
    7        9.265702   0.000000
    8       11.339190   0.000000
 
  0.2083333E+00  0.1250000E+00  0.1250000E+00  0.3472222E-02
    1       -5.600736   1.000000
    2        4.006188   1.000000
    3        5.027017   1.000000
    4        6.026541   1.000000
    5        9.213907   0.000000
    6        9.247171   0.000000
    7        9.574623   0.000000
    8       11.877065   0.000000
 
  0.2916667E+00  0.1250000E+00  0.1250000E+00  0.3472222E-02
    1       -5.233281   1.000000
    2        2.927980   1.000000
    3        4.209658   1.000000
    4        5.806295   1.000000
    5        9.363036   0.000000
    6        9.610744   0.000000
    7        9.927648   0.000000
    8       12.133798   0.000000
 
  0.3750000E+00  0.1250000E+00  0.1250000E+00  0.3472222E-02
    1       -4.702043   1.000000
    2        1.534791   1.000000
    3        3.852237   1.000000
    4        5.447879   1.000000
    5        9.086830   0.000000
    6        9.953510   0.000000
    7       10.141127   0.000000
    8       12.715110   0.000000
 
  0.4583333E+00  0.1250000E+00  0.1250000E+00  0.3472222E-02
    1       -4.056918   1.000000
    2        0.242464   1.000000
    3        3.715113   1.000000
    4        5.091345   1.000000
    5        8.810366   0.000000
    6        9.988985   0.000000
    7       10.079677   0.000000
    8       13.721209   0.000000
 
 -0.4583333E+00  0.1250000E+00  0.1250000E+00  0.3472222E-02
    1       -3.480148   1.000000
    2       -0.671470   1.000000
    3        3.739311   1.000000
    4        4.805896   1.000000
    5        8.598056   0.000000
    6        9.843880   0.000000
    7       10.174162   0.000000
    8       14.647859   0.000000
 
 -0.3750000E+00  0.1250000E+00  0.1250000E+00  0.3472222E-02
    1       -3.477155   1.000000
    2       -0.677000   1.000000
    3        3.903177   1.000000
    4        4.626707   1.000000
    5        8.489984   0.000000
    6        9.819426   0.000000
    7       10.356342   0.000000
    8       13.743829   0.000000
 
 -0.2916667E+00  0.1250000E+00  0.1250000E+00  0.3472222E-02
    1       -4.052170   1.000000
    2        0.231357   1.000000
    3        4.186768   1.000000
    4        4.573187   1.000000
    5        8.494959   0.000000
    6        9.913389   0.000000
    7       10.619921   0.000000
    8       12.360358   0.000000
 
 -0.2083333E+00  0.1250000E+00  0.1250000E+00  0.3472222E-02
    1       -4.698068   1.000000
    2        1.529437   1.000000
    3        4.562108   1.000000
    4        4.654749   1.000000
    5        8.536551   0.000000
    6       10.056672   0.000000
    7       10.848295   0.000000
    8       11.312492   0.000000
 
 -0.1250000E+00  0.1250000E+00  0.1250000E+00  0.3472222E-02
    1       -5.230477   1.000000
    2        2.984871   1.000000
    3        4.870196   1.000000
    4        4.972242   1.000000
    5        8.398750   0.000000
    6       10.116001   0.000000
    7       10.792622   0.000000
    8       11.007459   0.000000
 
  0.2083333E+00  0.2083333E+00  0.1250000E+00  0.3472222E-02
    1       -5.476964   1.000000
    2        3.536463   1.000000
    3        5.240761   1.000000
    4        5.477926   1.000000
    5        8.683763   0.000000
    6        9.558579   0.000000
    7       10.222701   0.000000
    8       11.607594   0.000000
 
  0.2916667E+00  0.2083333E+00  0.1250000E+00  0.6944444E-02
    1       -5.170303   1.000000
    2        2.900422   1.000000
    3        4.215662   1.000000
    4        5.396819   1.000000
    5        8.751142   0.000000
    6        9.937551   0.000000
    7       10.734754   0.000000
    8       11.113388   0.000000
 
  0.3750000E+00  0.2083333E+00  0.1250000E+00  0.6944444E-02
    1       -4.692816   1.000000
    2        1.904673   1.000000
    3        3.441962   1.000000
    4        5.107283   1.000000
    5        9.170432   0.000000
    6        9.842502   0.000000
    7       10.962469   0.000000
    8       11.312222   0.000000
 
  0.4583333E+00  0.2083333E+00  0.1250000E+00  0.6944444E-02
    1       -4.077730   1.000000
    2        0.684280   1.000000
    3        3.129736   1.000000
    4        4.734195   1.000000
    5        9.328194   0.000000
    6        9.553450   0.000000
    7       11.450991   0.000000
    8       11.740771   0.000000
 
 -0.4583333E+00  0.2083333E+00  0.1250000E+00  0.6944444E-02
    1       -3.437782   1.000000
    2       -0.357195   1.000000
    3        3.045778   1.000000
    4        4.431376   1.000000
    5        9.115992   0.000000
    6        9.491198   0.000000
    7       11.471589   0.000000
    8       13.049331   0.000000
 
 -0.3750000E+00  0.2083333E+00  0.1250000E+00  0.6944444E-02
    1       -3.181157   1.000000
    2       -0.720473   1.000000
    3        3.095282   1.000000
    4        4.282635   1.000000
    5        8.880508   0.000000
    6        9.631298   0.000000
    7       11.492693   0.000000
    8       13.632987   0.000000
 
 -0.2916667E+00  0.2083333E+00  0.1250000E+00  0.6944444E-02
    1       -3.632979   1.000000
    2       -0.064351   1.000000
    3        3.231159   1.000000
    4        4.334933   1.000000
    5        8.761984   0.000000
    6        9.891416   0.000000
    7       11.580217   0.000000
    8       12.095915   0.000000
 
 -0.2083333E+00  0.2083333E+00  0.1250000E+00  0.6944444E-02
    1       -4.289108   1.000000
    2        1.083782   1.000000
    3        3.453752   1.000000
    4        4.576188   1.000000
    5        8.701715   0.000000
    6       10.227107   0.000000
    7       10.874824   0.000000
    8       11.667368   0.000000
 
 -0.1250000E+00  0.2083333E+00  0.1250000E+00  0.6944444E-02
    1       -4.865945   1.000000
    2        2.345259   1.000000
    3        3.841917   1.000000
    4        4.905775   1.000000
    5        8.469157   0.000000
    6       10.291040   0.000000
    7       10.599550   0.000000
    8       11.489160   0.000000
 