<?xml version="1.0" encoding="ISO-8859-1"?>
<modeling>
 <generator>
  <i name="program" type="string">vasp </i>
  <i name="version" type="string">6.2.0  </i>
  <i name="subversion" type="string">18Jan21 (build Aug 12 2022 13:00:08) complex                          parallel </i>
  <i name="platform" type="string">LinuxIFC </i>
  <i name="date" type="string">2024 11 05 </i>
  <i name="time" type="string">05:57:12 </i>
 </generator>
 <incar>
  <i type="int" name="ISTART">     0</i>
  <i type="string" name="PREC">Accurate      (Accurate strictly avoids</i>
  <i type="logical" name="ADDGRID"> T  </i>
  <i type="int" name="ISPIN">     1</i>
  <i type="int" name="NELM">    90</i>
  <i type="int" name="NELMIN">     6</i>
  <i type="int" name="IBRION">     2</i>
  <i name="EDIFF">      0.00000100</i>
  <i name="EDIFFG">     -0.00200000</i>
  <i type="int" name="NSW">   100</i>
  <i type="int" name="ISIF">     2</i>
  <i type="int" name="ISYM">     2</i>
  <i name="ENCUT">    350.00000000</i>
  <i type="logical" name="LREAL"> F  </i>
  <i type="int" name="ISMEAR">     0</i>
  <i name="SIGMA">      0.05000000</i>
  <i type="logical" name="LWAVE"> F  </i>
  <i type="logical" name="LCHARG"> F  </i>
  <i type="logical" name="LASPH"> T  </i>
 </incar>
 <primitive_cell>
  <structure name="primitive_cell" >
   <crystal>
    <varray name="basis" >
     <v>       3.28117072       0.00000000       1.89438453 </v>
     <v>       1.09372357       3.09351865       1.89438453 </v>
     <v>       0.00000000       0.00000000       3.78876907 </v>
    </varray>
    <i name="volume">     38.45738067 </i>
    <varray name="rec_basis" >
     <v>       0.30476927      -0.10775217       0.00000000 </v>
     <v>       0.00000000       0.32325650       0.00000000 </v>
     <v>      -0.15238463      -0.10775217       0.26393797 </v>
    </varray>
   </crystal>
   <varray name="positions" >
    <v>       0.87500000       0.87500000       0.87500000 </v>
    <v>       0.12500000       0.12500000       0.12500000 </v>
   </varray>
  </structure>
  <varray name="primitive_index" >
   <v type="int" >        1 </v>
   <v type="int" >        2 </v>
  </varray>
 </primitive_cell>
 <kpoints>
  <generation param="Monkhorst-Pack">
   <v type="int" name="divisions">      12       12       12 </v>
   <v name="usershift">      0.00000000       0.00000000       0.00000000 </v>
   <v name="genvec1">      0.08333333      -0.00000000       0.00000000 </v>
   <v name="genvec2">      0.00000000       0.08333333       0.00000000 </v>
   <v name="genvec3">     -0.00000000      -0.00000000       0.08333333 </v>
   <v name="shift">      0.50000000       0.50000000       0.50000000 </v>
  </generation>
  <varray name="kpointlist" >
   <v>       0.04166667       0.04166667       0.04166667 </v>
   <v>       0.12500000       0.04166667       0.04166667 </v>
   <v>       0.20833333       0.04166667       0.04166667 </v>
   <v>       0.29166667       0.04166667       0.04166667 </v>
   <v>       0.37500000       0.04166667       0.04166667 </v>
   <v>       0.45833333       0.04166667       0.04166667 </v>
   <v>      -0.45833333       0.04166667       0.04166667 </v>
   <v>      -0.37500000       0.04166667       0.04166667 </v>
   <v>      -0.29166667       0.04166667       0.04166667 </v>
   <v>      -0.20833333       0.04166667       0.04166667 </v>
   <v>      -0.12500000       0.04166667       0.04166667 </v>
   <v>      -0.04166667       0.04166667       0.04166667 </v>
   <v>       0.12500000       0.12500000       0.04166667 </v>
   <v>       0.20833333       0.12500000       0.04166667 </v>
   <v>       0.29166667       0.12500000       0.04166667 </v>
   <v>       0.37500000       0.12500000       0.04166667 </v>
   <v>       0.45833333       0.12500000       0.04166667 </v>
   <v>      -0.45833333       0.12500000       0.04166667 </v>
   <v>      -0.37500000       0.12500000       0.04166667 </v>
   <v>      -0.29166667       0.12500000       0.04166667 </v>
   <v>      -0.20833333       0.12500000       0.04166667 </v>
   <v>      -0.12500000       0.12500000       0.04166667 </v>
   <v>      -0.04166667       0.12500000       0.04166667 </v>
   <v>       0.20833333       0.20833333       0.04166667 </v>
   <v>       0.29166667       0.20833333       0.04166667 </v>
   <v>       0.37500000       0.20833333       0.04166667 </v>
   <v>       0.45833333       0.20833333       0.04166667 </v>
   <v>      -0.45833333       0.20833333       0.04166667 </v>
   <v>      -0.37500000       0.20833333       0.04166667 </v>
   <v>      -0.29166667       0.20833333       0.04166667 </v>
   <v>      -0.20833333       0.20833333       0.04166667 </v>
   <v>      -0.12500000       0.20833333       0.04166667 </v>
   <v>      -0.04166667       0.20833333       0.04166667 </v>
   <v>       0.29166667       0.29166667       0.04166667 </v>
   <v>       0.37500000       0.29166667       0.04166667 </v>
   <v>       0.45833333       0.29166667       0.04166667 </v>
   <v>      -0.45833333       0.29166667       0.04166667 </v>
   <v>      -0.37500000       0.29166667       0.04166667 </v>
   <v>      -0.29166667       0.29166667       0.04166667 </v>
   <v>      -0.20833333       0.29166667       0.04166667 </v>
   <v>      -0.12500000       0.29166667       0.04166667 </v>
   <v>      -0.04166667       0.29166667       0.04166667 </v>
   <v>       0.37500000       0.37500000       0.04166667 </v>
   <v>       0.45833333       0.37500000       0.04166667 </v>
   <v>      -0.45833333       0.37500000       0.04166667 </v>
   <v>      -0.37500000       0.37500000       0.04166667 </v>
   <v>      -0.29166667       0.37500000       0.04166667 </v>
   <v>      -0.20833333       0.37500000       0.04166667 </v>
   <v>      -0.12500000       0.37500000       0.04166667 </v>
   <v>      -0.04166667       0.37500000       0.04166667 </v>
   <v>       0.45833333       0.45833333       0.04166667 </v>
   <v>      -0.45833333       0.45833333       0.04166667 </v>
   <v>      -0.37500000       0.45833333       0.04166667 </v>
   <v>      -0.29166667       0.45833333       0.04166667 </v>
   <v>      -0.20833333       0.45833333       0.04166667 </v>
   <v>      -0.12500000       0.45833333       0.04166667 </v>
   <v>      -0.04166667       0.45833333       0.04166667 </v>
   <v>      -0.45833333      -0.45833333       0.04166667 </v>
   <v>      -0.37500000      -0.45833333       0.04166667 </v>
   <v>      -0.29166667      -0.45833333       0.04166667 </v>
   <v>      -0.20833333      -0.45833333       0.04166667 </v>
   <v>      -0.12500000      -0.45833333       0.04166667 </v>
   <v>      -0.37500000      -0.37500000       0.04166667 </v>
   <v>      -0.29166667      -0.37500000       0.04166667 </v>
   <v>      -0.20833333      -0.37500000       0.04166667 </v>
   <v>      -0.12500000      -0.37500000       0.04166667 </v>
   <v>      -0.29166667      -0.29166667       0.04166667 </v>
   <v>      -0.20833333      -0.29166667       0.04166667 </v>
   <v>      -0.12500000      -0.29166667       0.04166667 </v>
   <v>      -0.20833333      -0.20833333       0.04166667 </v>
   <v>      -0.12500000      -0.20833333       0.04166667 </v>
   <v>      -0.12500000      -0.12500000       0.04166667 </v>
   <v>       0.12500000       0.12500000       0.12500000 </v>
   <v>       0.20833333       0.12500000       0.12500000 </v>
   <v>       0.29166667       0.12500000       0.12500000 </v>
   <v>       0.37500000       0.12500000       0.12500000 </v>
   <v>       0.45833333       0.12500000       0.12500000 </v>
   <v>      -0.45833333       0.12500000       0.12500000 </v>
   <v>      -0.37500000       0.12500000       0.12500000 </v>
   <v>      -0.29166667       0.12500000       0.12500000 </v>
   <v>      -0.20833333       0.12500000       0.12500000 </v>
   <v>      -0.12500000       0.12500000       0.12500000 </v>
   <v>       0.20833333       0.20833333       0.12500000 </v>
   <v>       0.29166667       0.20833333       0.12500000 </v>
   <v>       0.37500000       0.20833333       0.12500000 </v>
   <v>       0.45833333       0.20833333       0.12500000 </v>
   <v>      -0.45833333       0.20833333       0.12500000 </v>
   <v>      -0.37500000       0.20833333       0.12500000 </v>
   <v>      -0.29166667       0.20833333       0.12500000 </v>
   <v>      -0.20833333       0.20833333       0.12500000 </v>
   <v>      -0.12500000       0.20833333       0.12500000 </v>
   <v>       0.29166667       0.29166667       0.12500000 </v>
   <v>       0.37500000       0.29166667       0.12500000 </v>
   <v>       0.45833333       0.29166667       0.12500000 </v>
   <v>      -0.45833333       0.29166667       0.12500000 </v>
   <v>      -0.37500000       0.29166667       0.12500000 </v>
   <v>      -0.29166667       0.29166667       0.12500000 </v>
   <v>      -0.20833333       0.29166667       0.12500000 </v>
   <v>      -0.12500000       0.29166667       0.12500000 </v>
   <v>       0.37500000       0.37500000       0.12500000 </v>
   <v>       0.45833333       0.37500000       0.12500000 </v>
   <v>      -0.45833333       0.37500000       0.12500000 </v>
   <v>      -0.37500000       0.37500000       0.12500000 </v>
   <v>      -0.29166667       0.37500000       0.12500000 </v>
   <v>      -0.20833333       0.37500000       0.12500000 </v>
   <v>      -0.12500000       0.37500000       0.12500000 </v>
   <v>       0.45833333       0.45833333       0.12500000 </v>
   <v>      -0.45833333       0.45833333       0.12500000 </v>
   <v>      -0.37500000       0.45833333       0.12500000 </v>
   <v>      -0.29166667       0.45833333       0.12500000 </v>
   <v>      -0.20833333       0.45833333       0.12500000 </v>
   <v>      -0.12500000       0.45833333       0.12500000 </v>
   <v>      -0.45833333      -0.45833333       0.12500000 </v>
   <v>      -0.37500000      -0.45833333       0.12500000 </v>
   <v>      -0.29166667      -0.45833333       0.12500000 </v>
   <v>      -0.20833333      -0.45833333       0.12500000 </v>
   <v>      -0.37500000      -0.37500000       0.12500000 </v>
   <v>      -0.29166667      -0.37500000       0.12500000 </v>
   <v>      -0.20833333      -0.37500000       0.12500000 </v>
   <v>      -0.29166667      -0.29166667       0.12500000 </v>
   <v>      -0.20833333      -0.29166667       0.12500000 </v>
   <v>      -0.20833333      -0.20833333       0.12500000 </v>
   <v>       0.20833333       0.20833333       0.20833333 </v>
   <v>       0.29166667       0.20833333       0.20833333 </v>
   <v>       0.37500000       0.20833333       0.20833333 </v>
   <v>       0.45833333       0.20833333       0.20833333 </v>
   <v>      -0.45833333       0.20833333       0.20833333 </v>
   <v>      -0.37500000       0.20833333       0.20833333 </v>
   <v>      -0.29166667       0.20833333       0.20833333 </v>
   <v>      -0.20833333       0.20833333       0.20833333 </v>
   <v>       0.29166667       0.29166667       0.20833333 </v>
   <v>       0.37500000       0.29166667       0.20833333 </v>
   <v>       0.45833333       0.29166667       0.20833333 </v>
   <v>      -0.45833333       0.29166667       0.20833333 </v>
   <v>      -0.37500000       0.29166667       0.20833333 </v>
   <v>      -0.29166667       0.29166667       0.20833333 </v>
   <v>      -0.20833333       0.29166667       0.20833333 </v>
   <v>       0.37500000       0.37500000       0.20833333 </v>
   <v>       0.45833333       0.37500000       0.20833333 </v>
   <v>      -0.45833333       0.37500000       0.20833333 </v>
   <v>      -0.37500000       0.37500000       0.20833333 </v>
   <v>      -0.29166667       0.37500000       0.20833333 </v>
   <v>      -0.20833333       0.37500000       0.20833333 </v>
   <v>       0.45833333       0.45833333       0.20833333 </v>
   <v>      -0.45833333       0.45833333       0.20833333 </v>
   <v>      -0.37500000       0.45833333       0.20833333 </v>
   <v>      -0.29166667       0.45833333       0.20833333 </v>
   <v>      -0.20833333       0.45833333       0.20833333 </v>
   <v>      -0.45833333      -0.45833333       0.20833333 </v>
   <v>      -0.37500000      -0.45833333       0.20833333 </v>
   <v>      -0.29166667      -0.45833333       0.20833333 </v>
   <v>      -0.37500000      -0.37500000       0.20833333 </v>
   <v>      -0.29166667      -0.37500000       0.20833333 </v>
   <v>      -0.29166667      -0.29166667       0.20833333 </v>
   <v>       0.29166667       0.29166667       0.29166667 </v>
   <v>       0.37500000       0.29166667       0.29166667 </v>
   <v>       0.45833333       0.29166667       0.29166667 </v>
   <v>      -0.45833333       0.29166667       0.29166667 </v>
   <v>      -0.37500000       0.29166667       0.29166667 </v>
   <v>      -0.29166667       0.29166667       0.29166667 </v>
   <v>       0.37500000       0.37500000       0.29166667 </v>
   <v>       0.45833333       0.37500000       0.29166667 </v>
   <v>      -0.45833333       0.37500000       0.29166667 </v>
   <v>      -0.37500000       0.37500000       0.29166667 </v>
   <v>      -0.29166667       0.37500000       0.29166667 </v>
   <v>       0.45833333       0.45833333       0.29166667 </v>
   <v>      -0.45833333       0.45833333       0.29166667 </v>
   <v>      -0.37500000       0.45833333       0.29166667 </v>
   <v>      -0.29166667       0.45833333       0.29166667 </v>
   <v>      -0.45833333      -0.45833333       0.29166667 </v>
   <v>      -0.37500000      -0.45833333       0.29166667 </v>
   <v>      -0.37500000      -0.37500000       0.29166667 </v>
   <v>       0.37500000       0.37500000       0.37500000 </v>
   <v>       0.45833333       0.37500000       0.37500000 </v>
   <v>      -0.45833333       0.37500000       0.37500000 </v>
   <v>      -0.37500000       0.37500000       0.37500000 </v>
   <v>       0.45833333       0.45833333       0.37500000 </v>
   <v>      -0.45833333       0.45833333       0.37500000 </v>
   <v>      -0.37500000       0.45833333       0.37500000 </v>
   <v>      -0.45833333      -0.45833333       0.37500000 </v>
   <v>       0.45833333       0.45833333       0.45833333 </v>
   <v>      -0.45833333       0.45833333       0.45833333 </v>
  </varray>
  <varray name="weights" >
   <v>       0.00115741 </v>
   <v>       0.00347222 </v>
   <v>       0.00347222 </v>
   <v>       0.00347222 </v>
   <v>       0.00347222 </v>
   <v>       0.00347222 </v>
   <v>       0.00347222 </v>
   <v>       0.00347222 </v>
   <v>       0.00347222 </v>
   <v>       0.00347222 </v>
   <v>       0.00347222 </v>
   <v>       0.00347222 </v>
   <v>       0.00347222 </v>
   <v>       0.00694444 </v>
   <v>       0.00694444 </v>
   <v>       0.00694444 </v>
   <v>       0.00694444 </v>
   <v>       0.00694444 </v>
   <v>       0.00694444 </v>
   <v>       0.00694444 </v>
   <v>       0.00694444 </v>
   <v>       0.00694444 </v>
   <v>       0.00694444 </v>
   <v>       0.00347222 </v>
   <v>       0.00694444 </v>
   <v>       0.00694444 </v>
   <v>       0.00694444 </v>
   <v>       0.00694444 </v>
   <v>       0.00694444 </v>
   <v>       0.00694444 </v>
   <v>       0.00694444 </v>
   <v>       0.00694444 </v>
   <v>       0.00694444 </v>
   <v>       0.00347222 </v>
   <v>       0.00694444 </v>
   <v>       0.00694444 </v>
   <v>       0.00694444 </v>
   <v>       0.00694444 </v>
   <v>       0.00694444 </v>
   <v>       0.00694444 </v>
   <v>       0.00694444 </v>
   <v>       0.00694444 </v>
   <v>       0.00347222 </v>
   <v>       0.00694444 </v>
   <v>       0.00694444 </v>
   <v>       0.00694444 </v>
   <v>       0.00694444 </v>
   <v>       0.00694444 </v>
   <v>       0.00694444 </v>
   <v>       0.00694444 </v>
   <v>       0.00347222 </v>
   <v>       0.00694444 </v>
   <v>       0.00694444 </v>
   <v>       0.00694444 </v>
   <v>       0.00694444 </v>
   <v>       0.00694444 </v>
   <v>       0.00694444 </v>
   <v>       0.00347222 </v>
   <v>       0.00694444 </v>
   <v>       0.00694444 </v>
   <v>       0.00694444 </v>
   <v>       0.00694444 </v>
   <v>       0.00347222 </v>
   <v>       0.00694444 </v>
   <v>       0.00694444 </v>
   <v>       0.00694444 </v>
   <v>       0.00347222 </v>
   <v>       0.00694444 </v>
   <v>       0.00694444 </v>
   <v>       0.00347222 </v>
   <v>       0.00694444 </v>
   <v>       0.00347222 </v>
   <v>       0.00115741 </v>
   <v>       0.00347222 </v>
   <v>       0.00347222 </v>
   <v>       0.00347222 </v>
   <v>       0.00347222 </v>
   <v>       0.00347222 </v>
   <v>       0.00347222 </v>
   <v>       0.00347222 </v>
   <v>       0.00347222 </v>
   <v>       0.00347222 </v>
   <v>       0.00347222 </v>
   <v>       0.00694444 </v>
   <v>       0.00694444 </v>
   <v>       0.00694444 </v>
   <v>       0.00694444 </v>
   <v>       0.00694444 </v>
   <v>       0.00694444 </v>
   <v>       0.00694444 </v>
   <v>       0.00694444 </v>
   <v>       0.00347222 </v>
   <v>       0.00694444 </v>
   <v>       0.00694444 </v>
   <v>       0.00694444 </v>
   <v>       0.00694444 </v>
   <v>       0.00694444 </v>
   <v>       0.00694444 </v>
   <v>       0.00694444 </v>
   <v>       0.00347222 </v>
   <v>       0.00694444 </v>
   <v>       0.00694444 </v>
   <v>       0.00694444 </v>
   <v>       0.00694444 </v>
   <v>       0.00694444 </v>
   <v>       0.00694444 </v>
   <v>       0.00347222 </v>
   <v>       0.00694444 </v>
   <v>       0.00694444 </v>
   <v>       0.00694444 </v>
   <v>       0.00694444 </v>
   <v>       0.00694444 </v>
   <v>       0.00347222 </v>
   <v>       0.00694444 </v>
   <v>       0.00694444 </v>
   <v>       0.00694444 </v>
   <v>       0.00347222 </v>
   <v>       0.00694444 </v>
   <v>       0.00694444 </v>
   <v>       0.00347222 </v>
   <v>       0.00694444 </v>
   <v>       0.00347222 </v>
   <v>       0.00115741 </v>
   <v>       0.00347222 </v>
   <v>       0.00347222 </v>
   <v>       0.00347222 </v>
   <v>       0.00347222 </v>
   <v>       0.00347222 </v>
   <v>       0.00347222 </v>
   <v>       0.00347222 </v>
   <v>       0.00347222 </v>
   <v>       0.00694444 </v>
   <v>       0.00694444 </v>
   <v>       0.00694444 </v>
   <v>       0.00694444 </v>
   <v>       0.00694444 </v>
   <v>       0.00694444 </v>
   <v>       0.00347222 </v>
   <v>       0.00694444 </v>
   <v>       0.00694444 </v>
   <v>       0.00694444 </v>
   <v>       0.00694444 </v>
   <v>       0.00694444 </v>
   <v>       0.00347222 </v>
   <v>       0.00694444 </v>
   <v>       0.00694444 </v>
   <v>       0.00694444 </v>
   <v>       0.00694444 </v>
   <v>       0.00347222 </v>
   <v>       0.00694444 </v>
   <v>       0.00694444 </v>
   <v>       0.00347222 </v>
   <v>       0.00694444 </v>
   <v>       0.00347222 </v>
   <v>       0.00115741 </v>
   <v>       0.00347222 </v>
   <v>       0.00347222 </v>
   <v>       0.00347222 </v>
   <v>       0.00347222 </v>
   <v>       0.00347222 </v>
   <v>       0.00347222 </v>
   <v>       0.00694444 </v>
   <v>       0.00694444 </v>
   <v>       0.00694444 </v>
   <v>       0.00694444 </v>
   <v>       0.00347222 </v>
   <v>       0.00694444 </v>
   <v>       0.00694444 </v>
   <v>       0.00694444 </v>
   <v>       0.00347222 </v>
   <v>       0.00694444 </v>
   <v>       0.00347222 </v>
   <v>       0.00115741 </v>
   <v>       0.00347222 </v>
   <v>       0.00347222 </v>
   <v>       0.00347222 </v>
   <v>       0.00347222 </v>
   <v>       0.00694444 </v>
   <v>       0.00694444 </v>
   <v>       0.00347222 </v>
   <v>       0.00115741 </v>
   <v>       0.00347222 </v>
  </varray>
 </kpoints>
 <parameters>
  <separator name="general" >
   <i type="string" name="SYSTEM">unknown system</i>
   <i type="logical" name="LCOMPAT"> F  </i>
  </separator>
  <separator name="electronic" >
   <i type="string" name="PREC">accura</i>
   <i name="ENMAX">    350.00000000</i>
   <i name="ENAUG">    322.06900000</i>
   <i name="EDIFF">      0.00000100</i>
   <i type="int" name="IALGO">    38</i>
   <i type="int" name="IWAVPR">    11</i>
   <i type="int" name="NBANDS">     8</i>
   <i type="int" name="NBANDSLOW">    -1</i>
   <i type="int" name="NBANDSHIGH">    -1</i>
   <i name="NELECT">      8.00000000</i>
   <i type="int" name="TURBO">     0</i>
   <i type="int" name="IRESTART">     0</i>
   <i type="int" name="NREBOOT">     0</i>
   <i type="int" name="NMIN">     0</i>
   <i name="EREF">      0.00000000</i>
   <separator name="electronic smearing" >
    <i type="int" name="ISMEAR">     0</i>
    <i name="SIGMA">      0.05000000</i>
    <i name="KSPACING">      0.50000000</i>
    <i type="logical" name="KGAMMA"> T  </i>
    <i type="logical" name="KBLOWUP"> T  </i>
   </separator>
   <separator name="electronic projectors" >
    <i type="logical" name="LREAL"> F  </i>
    <v name="ROPT">      0.00000000</v>
    <i type="int" name="LMAXPAW">  -100</i>
    <i type="int" name="LMAXMIX">     2</i>
    <i type="logical" name="NLSPLINE"> F  </i>
   </separator>
   <separator name="electronic startup" >
    <i type="int" name="ISTART">     0</i>
    <i type="int" name="ICHARG">     2</i>
    <i type="int" name="INIWAV">     1</i>
   </separator>
   <separator name="electronic spin" >
    <i type="int" name="ISPIN">     1</i>
    <i type="logical" name="LNONCOLLINEAR"> F  </i>
    <v name="MAGMOM">      1.00000000      1.00000000</v>
    <i name="NUPDOWN">     -1.00000000</i>
    <i type="logical" name="LSORBIT"> F  </i>
    <v name="SAXIS">      0.00000000      0.00000000      1.00000000</v>
    <i type="logical" name="LSPIRAL"> F  </i>
    <v name="QSPIRAL">      0.00000000      0.00000000      0.00000000</v>
    <i type="logical" name="LZEROZ"> F  </i>
   </separator>
   <separator name="electronic exchange-correlation" >
    <i type="logical" name="LASPH"> T  </i>
    <i type="logical" name="LMETAGGA"> F  </i>
   </separator>
   <separator name="electronic convergence" >
    <i type="int" name="NELM">    90</i>
    <i type="int" name="NELMDL">    -5</i>
    <i type="int" name="NELMIN">     6</i>
    <i name="ENINI">    350.00000000</i>
    <separator name="electronic convergence detail" >
     <i type="logical" name="LDIAG"> T  </i>
     <i type="logical" name="LSUBROT"> F  </i>
     <i name="WEIMIN">      0.00100000</i>
     <i name="EBREAK">      0.00000003</i>
     <i name="DEPER">      0.30000000</i>
     <i type="int" name="NRMM">     4</i>
     <i name="TIME">      0.40000000</i>
    </separator>
   </separator>
   <separator name="electronic mixer" >
    <i name="AMIX">      0.40000000</i>
    <i name="BMIX">      1.00000000</i>
    <i name="AMIN">      0.10000000</i>
    <i name="AMIX_MAG">      1.60000000</i>
    <i name="BMIX_MAG">      1.00000000</i>
    <separator name="electronic mixer details" >
     <i type="int" name="IMIX">     4</i>
     <i type="logical" name="MIXFIRST"> F  </i>
     <i type="int" name="MAXMIX">   -45</i>
     <i name="WC">    100.00000000</i>
     <i type="int" name="INIMIX">     1</i>
     <i type="int" name="MIXPRE">     1</i>
     <i type="int" name="MREMOVE">     5</i>
    </separator>
   </separator>
   <separator name="electronic dipolcorrection" >
    <i type="logical" name="LDIPOL"> F  </i>
    <i type="logical" name="LMONO"> F  </i>
    <i type="int" name="IDIPOL">     0</i>
    <i name="EPSILON">      1.00000000</i>
    <v name="DIPOL">   -100.00000000   -100.00000000   -100.00000000</v>
    <i name="EFIELD">      0.00000000</i>
   </separator>
  </separator>
  <separator name="grids" >
   <i type="int" name="NGX">    24</i>
   <i type="int" name="NGY">    24</i>
   <i type="int" name="NGZ">    24</i>
   <i type="int" name="NGXF">    48</i>
   <i type="int" name="NGYF">    48</i>
   <i type="int" name="NGZF">    48</i>
   <i type="logical" name="ADDGRID"> T  </i>
  </separator>
  <separator name="ionic" >
   <i type="int" name="NSW">   100</i>
   <i type="int" name="IBRION">     2</i>
   <i type="int" name="MDALGO">     0</i>
   <i type="int" name="ISIF">     2</i>
   <i name="PSTRESS">      0.00000000</i>
   <i name="EDIFFG">     -0.00200000</i>
   <i type="int" name="NFREE">     1</i>
   <i name="POTIM">      0.50000000</i>
   <i name="SMASS">     -3.00000000</i>
   <i name="SCALEE">      1.00000000</i>
  </separator>
  <separator name="ionic md" >
   <i name="TEBEG">      0.00010000</i>
   <i name="TEEND">      0.00010000</i>
   <i type="int" name="NBLOCK">     1</i>
   <i type="int" name="KBLOCK">   100</i>
   <i type="int" name="NPACO">   256</i>
   <i name="APACO">     16.00000000</i>
  </separator>
  <separator name="symmetry" >
   <i type="int" name="ISYM">     2</i>
   <i name="SYMPREC">      0.00001000</i>
  </separator>
  <separator name="dos" >
   <i type="int" name="LORBIT">     0</i>
   <v name="RWIGS">     -1.00000000</v>
   <i type="int" name="NEDOS">   301</i>
   <i name="EMIN">     10.00000000</i>
   <i name="EMAX">    -10.00000000</i>
   <i name="EFERMI">      0.00000000</i>
  </separator>
  <separator name="writing" >
   <i type="int" name="NWRITE">     2</i>
   <i type="logical" name="LWAVE"> F  </i>
   <i type="logical" name="LDOWNSAMPLE"> F  </i>
   <i type="logical" name="LCHARG"> F  </i>
   <i type="logical" name="LPARD"> F  </i>
   <i type="logical" name="LVTOT"> F  </i>
   <i type="logical" name="LVHAR"> F  </i>
   <i type="logical" name="LELF"> F  </i>
   <i type="logical" name="LOPTICS"> F  </i>
   <v name="STM">      0.00000000      0.00000000      0.00000000      0.00000000      0.00000000      0.00000000      0.00000000</v>
  </separator>
  <separator name="performance" >
   <i type="int" name="NPAR">     4</i>
   <i type="int" name="NSIM">     4</i>
   <i type="int" name="NBLK">    -1</i>
   <i type="logical" name="LPLANE"> T  </i>
   <i type="logical" name="LSCALAPACK"> T  </i>
   <i type="logical" name="LSCAAWARE"> F  </i>
   <i type="logical" name="LSCALU"> F  </i>
   <i type="logical" name="LASYNC"> F  </i>
   <i type="logical" name="LORBITALREAL"> F  </i>
  </separator>
  <separator name="miscellaneous" >
   <i type="int" name="IDIOT">     3</i>
   <i type="int" name="PHON_NSTRUCT">    -1</i>
   <i type="logical" name="LMUSIC"> F  </i>
   <v name="POMASS">     28.08500000</v>
   <v name="DARWINR">      0.00000000</v>
   <v name="DARWINV">      1.00000000</v>
   <i type="logical" name="LCORR"> T  </i>
  </separator>
  <i type="logical" name="GGA_COMPAT"> T  </i>
  <i type="logical" name="LBERRY"> F  </i>
  <i type="int" name="ICORELEVEL">     0</i>
  <i type="logical" name="LDAU"> F  </i>
  <i type="int" name="I_CONSTRAINED_M">     0</i>
  <separator name="electronic exchange-correlation" >
   <i type="string" name="GGA">--</i>
   <i type="int" name="VOSKOWN">     0</i>
   <i type="logical" name="LHFCALC"> F  </i>
   <i type="string" name="PRECFOCK"></i>
   <i type="logical" name="LSYMGRAD"> F  </i>
   <i type="logical" name="LHFONE"> F  </i>
   <i type="logical" name="LRHFCALC"> F  </i>
   <i type="logical" name="LTHOMAS"> F  </i>
   <i type="logical" name="LMODELHF"> F  </i>
   <i type="logical" name="LFOCKACE"> F  </i>
   <i name="ENCUT4O">     -1.00000000</i>
   <i type="int" name="EXXOEP">     0</i>
   <i type="int" name="FOURORBIT">     0</i>
   <i name="AEXX">      0.00000000</i>
   <i name="HFALPHA">      0.00000000</i>
   <i name="MCALPHA">      0.00000000</i>
   <i name="ALDAX">      1.00000000</i>
   <i name="AGGAX">      1.00000000</i>
   <i name="ALDAC">      1.00000000</i>
   <i name="AGGAC">      1.00000000</i>
   <i type="int" name="NKREDX">     1</i>
   <i type="int" name="NKREDY">     1</i>
   <i type="int" name="NKREDZ">     1</i>
   <i type="logical" name="SHIFTRED"> F  </i>
   <i type="logical" name="ODDONLY"> F  </i>
   <i type="logical" name="EVENONLY"> F  </i>
   <i type="int" name="LMAXFOCK">     0</i>
   <i type="int" name="NMAXFOCKAE">     0</i>
   <i type="logical" name="LFOCKAEDFT"> F  </i>
   <i name="HFSCREEN">      0.00000000</i>
   <i name="HFSCREENC">      0.00000000</i>
   <i type="int" name="NBANDSGWLOW">     0</i>
  </separator>
  <separator name="vdW DFT" >
   <i type="logical" name="LUSE_VDW"> F  </i>
   <i name="Zab_VDW">     -0.84910000</i>
   <i name="PARAM1">      0.12340000</i>
   <i name="PARAM2">      1.00000000</i>
   <i name="PARAM3">      0.00000000</i>
  </separator>
  <separator name="model GW" >
   <i type="int" name="MODEL_GW">     0</i>
   <i name="MODEL_EPS0">     11.53721420</i>
   <i name="MODEL_ALPHA">      1.00000000</i>
  </separator>
  <separator name="linear response parameters" >
   <i type="logical" name="LEPSILON"> F  </i>
   <i type="logical" name="LRPA"> F  </i>
   <i type="logical" name="LNABLA"> F  </i>
   <i type="logical" name="LVEL"> F  </i>
   <i type="int" name="KINTER">     0</i>
   <i name="CSHIFT">      0.10000000</i>
   <i name="OMEGAMAX">     -1.00000000</i>
   <i name="DEG_THRESHOLD">      0.00200000</i>
   <i name="RTIME">     -0.10000000</i>
   <i name="WPLASMAI">      0.00000000</i>
   <v name="DFIELD">      0.00000000      0.00000000      0.00000000</v>
   <v name="WPLASMA">      0.00000000      0.00000000      0.00000000      0.00000000      0.00000000      0.00000000      0.00000000      0.00000000      0.00000000</v>
  </separator>
  <separator name="orbital magnetization" >
   <i type="logical" name="NUCIND"> F  </i>
   <v name="MAGPOS">      0.00000000      0.00000000      0.00000000</v>
   <i type="logical" name="LNICSALL"> T  </i>
   <i type="logical" name="ORBITALMAG"> F  </i>
   <i type="logical" name="LMAGBLOCH"> F  </i>
   <i type="logical" name="LCHIMAG"> F  </i>
   <i type="logical" name="LGAUGE"> T  </i>
   <i type="int" name="MAGATOM">     0</i>
   <v name="MAGDIPOL">      0.00000000      0.00000000      0.00000000</v>
   <v name="AVECCONST">      0.00000000      0.00000000      0.00000000</v>
  </separator>
  <separator name="response functions" >
   <i type="logical" name="LFINITE_TEMPERATURE"> F  </i>
   <i type="logical" name="LADDER"> F  </i>
   <i type="logical" name="LRPAFORCE"> F  </i>
   <i type="logical" name="LFXC"> F  </i>
   <i type="logical" name="LHARTREE"> T  </i>
   <i type="int" name="IBSE">     0</i>
   <v type="int" name="KPOINT">    -1     0     0     0</v>
   <i type="logical" name="LTCTC"> F  </i>
   <i type="logical" name="LTCTE"> F  </i>
   <i type="logical" name="LTETE"> F  </i>
   <i type="logical" name="LTRIPLET"> F  </i>
   <i type="logical" name="LFXCEPS"> F  </i>
   <i type="logical" name="LFXHEG"> F  </i>
   <i type="int" name="NATURALO">     2</i>
   <i type="logical" name="LHOLEGF"> F  </i>
   <i type="logical" name="L2ORDER"> F  </i>
   <i type="logical" name="LDMP1"> F  </i>
   <i type="logical" name="LMP2LT"> F  </i>
   <i type="logical" name="LSMP2LT"> F  </i>
   <i type="logical" name="LGWLF"> F  </i>
   <i name="ENCUTGW">     -2.00000000</i>
   <i name="ENCUTGWSOFT">     -2.00000000</i>
   <i name="ENCUTLF">     -1.00000000</i>
   <i type="logical" name="LESF_SPLINES"> F  </i>
   <i type="int" name="LMAXMP2">    -1</i>
   <i name="SCISSOR">      0.00000000</i>
   <i type="int" name="NOMEGA">     0</i>
   <i type="int" name="NOMEGAR">     0</i>
   <i type="int" name="NBANDSGW">    -1</i>
   <i type="int" name="NBANDSO">    -1</i>
   <i type="int" name="NBANDSV">    -1</i>
   <i type="int" name="NELM">    90</i>
   <i type="int" name="NELMHF">     1</i>
   <i type="int" name="DIM">     3</i>
   <i type="int" name="IESPILON">     4</i>
   <i type="int" name="ANTIRES">     0</i>
   <i name="OMEGAMAX">    -30.00000000</i>
   <i name="OMEGAMIN">    -30.00000000</i>
   <i name="OMEGATL">   -200.00000000</i>
   <i type="int" name="OMEGAGRID">     0</i>
   <i name="CSHIFT">     -0.10000000</i>
   <i type="logical" name="LSELFENERGY"> F  </i>
   <i type="logical" name="LSPECTRAL"> F  </i>
   <i type="logical" name="LSPECTRALGW"> F  </i>
   <i type="logical" name="LSINGLES"> F  </i>
   <i type="logical" name="LFERMIGW"> F  </i>
   <i type="logical" name="ODDONLYGW"> F  </i>
   <i type="logical" name="EVENONLYGW"> F  </i>
   <i type="int" name="NKREDLFX">     1</i>
   <i type="int" name="NKREDLFY">     1</i>
   <i type="int" name="NKREDLFZ">     1</i>
   <i type="int" name="MAXMEM">  2800</i>
   <i type="int" name="TELESCOPE">     0</i>
   <i type="int" name="NTAUPAR">    -1</i>
   <i type="int" name="NOMEGAPAR">    -1</i>
   <i name="DAMP_NEWTON">      0.80000001</i>
   <i name="LAMBDA">      1.00000000</i>
  </separator>
  <separator name="External order field" >
   <i name="OFIELD_KAPPA">      0.00000000</i>
   <v name="OFIELD_K">      0.00000000      0.00000000      0.00000000</v>
   <i name="OFIELD_Q6_NEAR">      0.00000000</i>
   <i name="OFIELD_Q6_FAR">      0.00000000</i>
   <i name="OFIELD_A">      0.00000000</i>
  </separator>
 </parameters>
 <atominfo>
  <atoms>       2 </atoms>
  <types>       1 </types>
  <array name="atoms" >
   <dimension dim="1">ion</dimension>
   <field type="string">element</field>
   <field type="int">atomtype</field>
   <set>
    <rc><c>Si</c><c>   1</c></rc>
    <rc><c>Si</c><c>   1</c></rc>
   </set>
  </array>
  <array name="atomtypes" >
   <dimension dim="1">type</dimension>
   <field type="int">atomspertype</field>
   <field type="string">element</field>
   <field>mass</field>
   <field>valence</field>
   <field type="string">pseudopotential</field>
   <set>
    <rc><c>   2</c><c>Si</c><c>     28.08500000</c><c>      4.00000000</c><c>  PAW_PBE Si 05Jan2001                  </c></rc>
   </set>
  </array>
 </atominfo>
 <structure name="initialpos" >
  <crystal>
   <varray name="basis" >
    <v>       3.28117072       0.00000000       1.89438453 </v>
    <v>       1.09372357       3.09351865       1.89438453 </v>
    <v>       0.00000000       0.00000000       3.78876907 </v>
   </varray>
   <i name="volume">     38.45738067 </i>
   <varray name="rec_basis" >
    <v>       0.30476927      -0.10775217       0.00000000 </v>
    <v>       0.00000000       0.32325650       0.00000000 </v>
    <v>      -0.15238463      -0.10775217       0.26393797 </v>
   </varray>
  </crystal>
  <varray name="positions" >
   <v>       0.87500000       0.87500000       0.87500000 </v>
   <v>       0.12500000       0.12500000       0.12500000 </v>
  </varray>
 </structure>
 <calculation>
  <scstep>
   <time name="dav">    1.46    1.46</time>
   <time name="total">    1.67    1.68</time>
   <energy>
    <i name="alphaZ">      3.50134411 </i>
    <i name="ewald">   -231.62931558 </i>
    <i name="hartreedc">    -10.40945593 </i>
    <i name="XCdc">    -18.44273188 </i>
    <i name="pawpsdc">    176.24759923 </i>
    <i name="pawaedc">   -141.06103558 </i>
    <i name="eentropy">     -0.00129652 </i>
    <i name="bandstr">     17.46725693 </i>
    <i name="atom">    206.13125414 </i>
    <i name="e_fr_energy">      1.80361892 </i>
    <i name="e_wo_entrp">      1.80491544 </i>
    <i name="e_0_energy">      1.80426718 </i>
   </energy>
  </scstep>
  <scstep>
   <time name="dav">    2.10    2.12</time>
   <time name="total">    2.10    2.12</time>
   <energy>
    <i name="e_fr_energy">    -10.86034499 </i>
    <i name="e_wo_entrp">    -10.86034499 </i>
    <i name="e_0_energy">    -10.86034499 </i>
   </energy>
  </scstep>
  <scstep>
   <time name="dav">    1.72    1.74</time>
   <time name="total">    1.72    1.74</time>
   <energy>
    <i name="e_fr_energy">    -11.00720050 </i>
    <i name="e_wo_entrp">    -11.00720050 </i>
    <i name="e_0_energy">    -11.00720050 </i>
   </energy>
  </scstep>
  <scstep>
   <time name="dav">    2.17    2.19</time>
   <time name="total">    2.17    2.19</time>
   <energy>
    <i name="e_fr_energy">    -11.00783103 </i>
    <i name="e_wo_entrp">    -11.00783103 </i>
    <i name="e_0_energy">    -11.00783103 </i>
   </energy>
  </scstep>
  <scstep>
   <time name="dav">    1.82    1.83</time>
   <time name="total">    1.93    1.95</time>
   <energy>
    <i name="e_fr_energy">    -11.00783145 </i>
    <i name="e_wo_entrp">    -11.00783145 </i>
    <i name="e_0_energy">    -11.00783145 </i>
   </energy>
  </scstep>
  <scstep>
   <time name="dav">    1.68    1.68</time>
   <time name="total">    2.00    2.02</time>
   <energy>
    <i name="e_fr_energy">    -10.86510067 </i>
    <i name="e_wo_entrp">    -10.86510067 </i>
    <i name="e_0_energy">    -10.86510067 </i>
   </energy>
  </scstep>
  <scstep>
   <time name="dav">    1.83    1.84</time>
   <time name="total">    2.16    2.18</time>
   <energy>
    <i name="e_fr_energy">    -10.80202045 </i>
    <i name="e_wo_entrp">    -10.80202045 </i>
    <i name="e_0_energy">    -10.80202045 </i>
   </energy>
  </scstep>
  <scstep>
   <time name="dav">    1.63    1.64</time>
   <time name="total">    1.97    1.98</time>
   <energy>
    <i name="e_fr_energy">    -10.80300414 </i>
    <i name="e_wo_entrp">    -10.80300414 </i>
    <i name="e_0_energy">    -10.80300414 </i>
   </energy>
  </scstep>
  <scstep>
   <time name="dav">    2.07    2.07</time>
   <time name="total">    2.40    2.42</time>
   <energy>
    <i name="e_fr_energy">    -10.80317934 </i>
    <i name="e_wo_entrp">    -10.80317934 </i>
    <i name="e_0_energy">    -10.80317934 </i>
   </energy>
  </scstep>
  <scstep>
   <time name="dav">    1.66    1.66</time>
   <time name="total">    1.99    2.00</time>
   <energy>
    <i name="e_fr_energy">    -10.80320456 </i>
    <i name="e_wo_entrp">    -10.80320456 </i>
    <i name="e_0_energy">    -10.80320456 </i>
   </energy>
  </scstep>
  <scstep>
   <time name="dav">    1.95    1.95</time>
   <time name="total">    2.16    2.18</time>
   <energy>
    <i name="alphaZ">      3.50134411 </i>
    <i name="ewald">   -231.62931558 </i>
    <i name="hartreedc">    -14.44344253 </i>
    <i name="XCdc">    -17.77584674 </i>
    <i name="pawpsdc">    960.93683152 </i>
    <i name="pawaedc">   -926.01230418 </i>
    <i name="eentropy">     -0.00000000 </i>
    <i name="bandstr">      8.48827514 </i>
    <i name="atom">    206.13125414 </i>
    <i name="e_fr_energy">    -10.80320412 </i>
    <i name="e_wo_entrp">    -10.80320412 </i>
    <i name="e_0_energy">    -10.80320412 </i>
   </energy>
  </scstep>
  <structure>
   <crystal>
    <varray name="basis" >
     <v>       3.28117072       0.00000000       1.89438453 </v>
     <v>       1.09372357       3.09351865       1.89438453 </v>
     <v>       0.00000000       0.00000000       3.78876907 </v>
    </varray>
    <i name="volume">     38.45738067 </i>
    <varray name="rec_basis" >
     <v>       0.30476927      -0.10775217       0.00000000 </v>
     <v>       0.00000000       0.32325650       0.00000000 </v>
     <v>      -0.15238463      -0.10775217       0.26393797 </v>
    </varray>
   </crystal>
   <varray name="positions" >
    <v>       0.87500000       0.87500000       0.87500000 </v>
    <v>       0.12500000       0.12500000       0.12500000 </v>
   </varray>
  </structure>
  <varray name="forces" >
   <v>       0.00000000       0.00000000       0.00000000 </v>
   <v>      -0.00000000       0.00000000      -0.00000000 </v>
  </varray>
  <varray name="stress" >
   <v>      61.61881087       0.00000000      -0.00000000 </v>
   <v>      -0.00000000      61.61885971       0.00000000 </v>
   <v>       0.00000000       0.00000000      61.61879350 </v>
  </varray>
  <energy>
   <i name="e_fr_energy">    -10.80320412 </i>
   <i name="e_wo_entrp">    -10.80320412 </i>
   <i name="e_0_energy">    -10.80320412 </i>
  </energy>
  <time name="totalsc">   24.47   24.82</time>
  <eigenvalues>
   <array>
    <dimension dim="1">band</dimension>
    <dimension dim="2">kpoint</dimension>
    <dimension dim="3">spin</dimension>
    <field>eigene</field>
    <field>occ</field>
    <set>
     <set comment="spin 1">
      <set comment="kpoint 1">
       <r>   -5.9750    1.0000 </r>
       <r>    5.9876    1.0000 </r>
       <r>    6.2018    1.0000 </r>
       <r>    6.2018    1.0000 </r>
       <r>    8.8846    0.0000 </r>
       <r>    8.8846    0.0000 </r>
       <r>    8.8888    0.0000 </r>
       <r>   10.2371    0.0000 </r>
      </set>
      <set comment="kpoint 2">
       <r>   -5.8495    1.0000 </r>
       <r>    5.0975    1.0000 </r>
       <r>    5.7594    1.0000 </r>
       <r>    6.1499    1.0000 </r>
       <r>    9.0053    0.0000 </r>
       <r>    9.0164    0.0000 </r>
       <r>    9.2430    0.0000 </r>
       <r>   10.9803    0.0000 </r>
      </set>
      <set comment="kpoint 3">
       <r>   -5.5396    1.0000 </r>
       <r>    3.5539    1.0000 </r>
       <r>    5.3799    1.0000 </r>
       <r>    5.8719    1.0000 </r>
       <r>    8.8124    0.0000 </r>
       <r>    9.4050    0.0000 </r>
       <r>    9.7276    0.0000 </r>
       <r>   12.2349    0.0000 </r>
      </set>
      <set comment="kpoint 4">
       <r>   -5.0579    1.0000 </r>
       <r>    1.9902    1.0000 </r>
       <r>    5.0779    1.0000 </r>
       <r>    5.5461    1.0000 </r>
       <r>    8.5168    0.0000 </r>
       <r>    9.6798    0.0000 </r>
       <r>    9.9449    0.0000 </r>
       <r>   13.1895    0.0000 </r>
      </set>
      <set comment="kpoint 5">
       <r>   -4.4392    1.0000 </r>
       <r>    0.5765    1.0000 </r>
       <r>    4.8830    1.0000 </r>
       <r>    5.2652    1.0000 </r>
       <r>    8.2751    0.0000 </r>
       <r>    9.6865    0.0000 </r>
       <r>    9.8272    0.0000 </r>
       <r>   14.0305    0.0000 </r>
      </set>
      <set comment="kpoint 6">
       <r>   -3.8022    1.0000 </r>
       <r>   -0.5250    1.0000 </r>
       <r>    4.8034    1.0000 </r>
       <r>    5.0646    1.0000 </r>
       <r>    8.1298    0.0000 </r>
       <r>    9.6284    0.0000 </r>
       <r>    9.6316    0.0000 </r>
       <r>   14.1646    0.0000 </r>
      </set>
      <set comment="kpoint 7">
       <r>   -3.5539    1.0000 </r>
       <r>   -0.8905    1.0000 </r>
       <r>    4.8359    1.0000 </r>
       <r>    4.9596    1.0000 </r>
       <r>    8.0936    0.0000 </r>
       <r>    9.5216    0.0000 </r>
       <r>    9.6589    0.0000 </r>
       <r>   14.1213    0.0000 </r>
      </set>
      <set comment="kpoint 8">
       <r>   -4.0005    1.0000 </r>
       <r>   -0.2102    1.0000 </r>
       <r>    4.9600    1.0000 </r>
       <r>    4.9730    1.0000 </r>
       <r>    8.1686    0.0000 </r>
       <r>    9.5362    0.0000 </r>
       <r>    9.8060    0.0000 </r>
       <r>   14.0848    0.0000 </r>
      </set>
      <set comment="kpoint 9">
       <r>   -4.6563    1.0000 </r>
       <r>    1.0230    1.0000 </r>
       <r>    5.0723    1.0000 </r>
       <r>    5.2045    1.0000 </r>
       <r>    8.3488    0.0000 </r>
       <r>    9.6100    0.0000 </r>
       <r>    9.9952    0.0000 </r>
       <r>   13.2878    0.0000 </r>
      </set>
      <set comment="kpoint 10">
       <r>   -5.2360    1.0000 </r>
       <r>    2.5010    1.0000 </r>
       <r>    5.2958    1.0000 </r>
       <r>    5.5118    1.0000 </r>
       <r>    8.6093    0.0000 </r>
       <r>    9.5427    0.0000 </r>
       <r>   10.0239    0.0000 </r>
       <r>   12.5459    0.0000 </r>
      </set>
      <set comment="kpoint 11">
       <r>   -5.6629    1.0000 </r>
       <r>    4.0881    1.0000 </r>
       <r>    5.6127    1.0000 </r>
       <r>    5.8469    1.0000 </r>
       <r>    8.8463    0.0000 </r>
       <r>    9.2378    0.0000 </r>
       <r>    9.6989    0.0000 </r>
       <r>   11.7698    0.0000 </r>
      </set>
      <set comment="kpoint 12">
       <r>   -5.9122    1.0000 </r>
       <r>    5.5712    1.0000 </r>
       <r>    5.9639    1.0000 </r>
       <r>    6.0802    1.0000 </r>
       <r>    8.7418    0.0000 </r>
       <r>    9.1279    0.0000 </r>
       <r>    9.1968    0.0000 </r>
       <r>   10.5886    0.0000 </r>
      </set>
      <set comment="kpoint 13">
       <r>   -5.7867    1.0000 </r>
       <r>    5.0295    1.0000 </r>
       <r>    5.6010    1.0000 </r>
       <r>    5.7250    1.0000 </r>
       <r>    8.4909    0.0000 </r>
       <r>    9.5888    0.0000 </r>
       <r>    9.7072    0.0000 </r>
       <r>   11.0245    0.0000 </r>
      </set>
      <set comment="kpoint 14">
       <r>   -5.5378    1.0000 </r>
       <r>    3.9714    1.0000 </r>
       <r>    4.9874    1.0000 </r>
       <r>    5.5779    1.0000 </r>
       <r>    8.5072    0.0000 </r>
       <r>    9.8363    0.0000 </r>
       <r>   10.2305    0.0000 </r>
       <r>   11.3448    0.0000 </r>
      </set>
      <set comment="kpoint 15">
       <r>   -5.1118    1.0000 </r>
       <r>    2.4979    1.0000 </r>
       <r>    4.6021    1.0000 </r>
       <r>    5.2754    1.0000 </r>
       <r>    8.7389    0.0000 </r>
       <r>    9.7731    0.0000 </r>
       <r>   10.6043    0.0000 </r>
       <r>   11.4020    0.0000 </r>
      </set>
      <set comment="kpoint 16">
       <r>   -4.5329    1.0000 </r>
       <r>    1.0645    1.0000 </r>
       <r>    4.3433    1.0000 </r>
       <r>    4.9569    1.0000 </r>
       <r>    8.7276    0.0000 </r>
       <r>    9.6915    0.0000 </r>
       <r>   10.5762    0.0000 </r>
       <r>   12.0295    0.0000 </r>
      </set>
      <set comment="kpoint 17">
       <r>   -3.8769    1.0000 </r>
       <r>   -0.1490    1.0000 </r>
       <r>    4.1658    1.0000 </r>
       <r>    4.7521    1.0000 </r>
       <r>    8.6393    0.0000 </r>
       <r>    9.5474    0.0000 </r>
       <r>   10.3798    0.0000 </r>
       <r>   13.2138    0.0000 </r>
      </set>
      <set comment="kpoint 18">
       <r>   -3.4288    1.0000 </r>
       <r>   -0.8236    1.0000 </r>
       <r>    4.0397    1.0000 </r>
       <r>    4.7259    1.0000 </r>
       <r>    8.6230    0.0000 </r>
       <r>    9.4660    0.0000 </r>
       <r>   10.2330    0.0000 </r>
       <r>   14.3870    0.0000 </r>
      </set>
      <set comment="kpoint 19">
       <r>   -3.6795    1.0000 </r>
       <r>   -0.4580    1.0000 </r>
       <r>    3.9845    1.0000 </r>
       <r>    4.8688    1.0000 </r>
       <r>    8.7027    0.0000 </r>
       <r>    9.4969    0.0000 </r>
       <r>   10.2164    0.0000 </r>
       <r>   14.0723    0.0000 </r>
      </set>
      <set comment="kpoint 20">
       <r>   -4.3175    1.0000 </r>
       <r>    0.6304    1.0000 </r>
       <r>    4.0395    1.0000 </r>
       <r>    5.1369    1.0000 </r>
       <r>    8.8634    0.0000 </r>
       <r>    9.6023    0.0000 </r>
       <r>   10.3111    0.0000 </r>
       <r>   12.8557    0.0000 </r>
      </set>
      <set comment="kpoint 21">
       <r>   -4.9351    1.0000 </r>
       <r>    2.0058    1.0000 </r>
       <r>    4.2344    1.0000 </r>
       <r>    5.4782    1.0000 </r>
       <r>    9.0583    0.0000 </r>
       <r>    9.6118    0.0000 </r>
       <r>   10.3580    0.0000 </r>
       <r>   11.9861    0.0000 </r>
      </set>
      <set comment="kpoint 22">
       <r>   -5.4157    1.0000 </r>
       <r>    3.4533    1.0000 </r>
       <r>    4.6182    1.0000 </r>
       <r>    5.8078    1.0000 </r>
       <r>    9.0295    0.0000 </r>
       <r>    9.5320    0.0000 </r>
       <r>   10.0464    0.0000 </r>
       <r>   11.7442    0.0000 </r>
      </set>
      <set comment="kpoint 23">
       <r>   -5.7246    1.0000 </r>
       <r>    4.5490    1.0000 </r>
       <r>    5.3945    1.0000 </r>
       <r>    5.9662    1.0000 </r>
       <r>    8.7956    0.0000 </r>
       <r>    9.3610    0.0000 </r>
       <r>    9.6309    0.0000 </r>
       <r>   11.4255    0.0000 </r>
      </set>
      <set comment="kpoint 24">
       <r>   -5.3501    1.0000 </r>
       <r>    3.7420    1.0000 </r>
       <r>    4.8127    1.0000 </r>
       <r>    4.8360    1.0000 </r>
       <r>    7.8673    0.0000 </r>
       <r>   10.4024    0.0000 </r>
       <r>   10.9475    0.0000 </r>
       <r>   11.0017    0.0000 </r>
      </set>
      <set comment="kpoint 25">
       <r>   -4.9823    1.0000 </r>
       <r>    2.7503    1.0000 </r>
       <r>    4.2050    1.0000 </r>
       <r>    4.6513    1.0000 </r>
       <r>    7.9031    0.0000 </r>
       <r>    9.9552    0.0000 </r>
       <r>   11.1853    0.0000 </r>
       <r>   11.6272    0.0000 </r>
      </set>
      <set comment="kpoint 26">
       <r>   -4.4513    1.0000 </r>
       <r>    1.4891    1.0000 </r>
       <r>    3.7477    1.0000 </r>
       <r>    4.3721    1.0000 </r>
       <r>    8.1669    0.0000 </r>
       <r>   10.1698    0.0000 </r>
       <r>   10.9987    0.0000 </r>
       <r>   11.8147    0.0000 </r>
      </set>
      <set comment="kpoint 27">
       <r>   -3.8058    1.0000 </r>
       <r>    0.2806    1.0000 </r>
       <r>    3.3491    1.0000 </r>
       <r>    4.2258    1.0000 </r>
       <r>    8.2348    0.0000 </r>
       <r>   10.6908    0.0000 </r>
       <r>   11.2302    0.0000 </r>
       <r>   11.6682    0.0000 </r>
      </set>
      <set comment="kpoint 28">
       <r>   -3.2288    1.0000 </r>
       <r>   -0.5903    1.0000 </r>
       <r>    3.0283    1.0000 </r>
       <r>    4.2648    1.0000 </r>
       <r>    8.3187    0.0000 </r>
       <r>   10.4605    0.0000 </r>
       <r>   11.4668    0.0000 </r>
       <r>   12.6952    0.0000 </r>
      </set>
      <set comment="kpoint 29">
       <r>   -3.2394    1.0000 </r>
       <r>   -0.5715    1.0000 </r>
       <r>    2.8346    1.0000 </r>
       <r>    4.4651    1.0000 </r>
       <r>    8.5354    0.0000 </r>
       <r>   10.2961    0.0000 </r>
       <r>   11.3411    0.0000 </r>
       <r>   14.0312    0.0000 </r>
      </set>
      <set comment="kpoint 30">
       <r>   -3.8222    1.0000 </r>
       <r>    0.3128    1.0000 </r>
       <r>    2.8137    1.0000 </r>
       <r>    4.7915    1.0000 </r>
       <r>    8.8815    0.0000 </r>
       <r>   10.1967    0.0000 </r>
       <r>   11.2722    0.0000 </r>
       <r>   12.6372    0.0000 </r>
      </set>
      <set comment="kpoint 31">
       <r>   -4.4648    1.0000 </r>
       <r>    1.4636    1.0000 </r>
       <r>    3.0545    1.0000 </r>
       <r>    5.1886    1.0000 </r>
       <r>    9.2841    0.0000 </r>
       <r>    9.9748    0.0000 </r>
       <r>   11.0912    0.0000 </r>
       <r>   11.6917    0.0000 </r>
      </set>
      <set comment="kpoint 32">
       <r>   -4.9918    1.0000 </r>
       <r>    2.4110    1.0000 </r>
       <r>    3.8097    1.0000 </r>
       <r>    5.5470    1.0000 </r>
       <r>    9.3827    0.0000 </r>
       <r>    9.5846    0.0000 </r>
       <r>   10.5196    0.0000 </r>
       <r>   11.6102    0.0000 </r>
      </set>
      <set comment="kpoint 33">
       <r>   -5.3556    1.0000 </r>
       <r>    3.0189    1.0000 </r>
       <r>    5.0049    1.0000 </r>
       <r>    5.6770    1.0000 </r>
       <r>    8.8772    0.0000 </r>
       <r>    9.4372    0.0000 </r>
       <r>   10.0938    0.0000 </r>
       <r>   12.0423    0.0000 </r>
      </set>
      <set comment="kpoint 34">
       <r>   -4.6725    1.0000 </r>
       <r>    2.2965    1.0000 </r>
       <r>    4.0783    1.0000 </r>
       <r>    4.1335    1.0000 </r>
       <r>    7.3034    0.0000 </r>
       <r>    9.0939    0.0000 </r>
       <r>   12.3906    0.0000 </r>
       <r>   12.4511    0.0000 </r>
      </set>
      <set comment="kpoint 35">
       <r>   -4.1937    1.0000 </r>
       <r>    1.4225    1.0000 </r>
       <r>    3.5621    1.0000 </r>
       <r>    3.8959    1.0000 </r>
       <r>    7.4208    0.0000 </r>
       <r>    8.7665    0.0000 </r>
       <r>   12.5450    0.0000 </r>
       <r>   13.1551    0.0000 </r>
      </set>
      <set comment="kpoint 36">
       <r>   -3.5775    1.0000 </r>
       <r>    0.4439    1.0000 </r>
       <r>    2.9017    1.0000 </r>
       <r>    3.7614    1.0000 </r>
       <r>    7.6528    0.0000 </r>
       <r>    9.3363    0.0000 </r>
       <r>   12.3180    0.0000 </r>
       <r>   13.2362    0.0000 </r>
      </set>
      <set comment="kpoint 37">
       <r>   -2.9362    1.0000 </r>
       <r>   -0.4225    1.0000 </r>
       <r>    2.3315    1.0000 </r>
       <r>    3.8043    1.0000 </r>
       <r>    7.7671    0.0000 </r>
       <r>   10.6261    0.0000 </r>
       <r>   12.0438    0.0000 </r>
       <r>   13.0741    0.0000 </r>
      </set>
      <set comment="kpoint 38">
       <r>   -2.7152    1.0000 </r>
       <r>   -0.6825    1.0000 </r>
       <r>    1.9754    1.0000 </r>
       <r>    4.0083    1.0000 </r>
       <r>    7.9976    0.0000 </r>
       <r>   11.6068    0.0000 </r>
       <r>   12.3542    0.0000 </r>
       <r>   12.9743    0.0000 </r>
      </set>
      <set comment="kpoint 39">
       <r>   -3.2081    1.0000 </r>
       <r>   -0.0772    1.0000 </r>
       <r>    1.9297    1.0000 </r>
       <r>    4.3474    1.0000 </r>
       <r>    8.3813    0.0000 </r>
       <r>   11.3915    0.0000 </r>
       <r>   12.5300    0.0000 </r>
       <r>   12.6655    0.0000 </r>
      </set>
      <set comment="kpoint 40">
       <r>   -3.8564    1.0000 </r>
       <r>    0.6302    1.0000 </r>
       <r>    2.4095    1.0000 </r>
       <r>    4.7721    1.0000 </r>
       <r>    8.8634    0.0000 </r>
       <r>   10.6240    0.0000 </r>
       <r>   11.7692    0.0000 </r>
       <r>   12.0691    0.0000 </r>
      </set>
      <set comment="kpoint 41">
       <r>   -4.4150    1.0000 </r>
       <r>    1.0940    1.0000 </r>
       <r>    3.4803    1.0000 </r>
       <r>    5.1731    1.0000 </r>
       <r>    9.1709    0.0000 </r>
       <r>    9.7500    0.0000 </r>
       <r>   10.7131    0.0000 </r>
       <r>   12.1784    0.0000 </r>
      </set>
      <set comment="kpoint 42">
       <r>   -4.8227    1.0000 </r>
       <r>    1.5091    1.0000 </r>
       <r>    4.7344    1.0000 </r>
       <r>    5.3454    1.0000 </r>
       <r>    8.6651    0.0000 </r>
       <r>    9.5886    0.0000 </r>
       <r>   10.1796    0.0000 </r>
       <r>   12.5769    0.0000 </r>
      </set>
      <set comment="kpoint 43">
       <r>   -3.7667    1.0000 </r>
       <r>    0.7995    1.0000 </r>
       <r>    3.5438    1.0000 </r>
       <r>    3.6408    1.0000 </r>
       <r>    6.9343    0.0000 </r>
       <r>    8.0019    0.0000 </r>
       <r>   13.9620    0.0000 </r>
       <r>   13.9729    0.0000 </r>
      </set>
      <set comment="kpoint 44">
       <r>   -3.1901    1.0000 </r>
       <r>    0.0253    1.0000 </r>
       <r>    3.1214    1.0000 </r>
       <r>    3.4296    1.0000 </r>
       <r>    7.1476    0.0000 </r>
       <r>    7.9159    0.0000 </r>
       <r>   13.9939    0.0000 </r>
       <r>   14.7594    0.0000 </r>
      </set>
      <set comment="kpoint 45">
       <r>   -2.5304    1.0000 </r>
       <r>   -0.7059    1.0000 </r>
       <r>    2.3651    1.0000 </r>
       <r>    3.4477    1.0000 </r>
       <r>    7.3344    0.0000 </r>
       <r>    8.8858    0.0000 </r>
       <r>   13.7192    0.0000 </r>
       <r>   14.7912    0.0000 </r>
      </set>
      <set comment="kpoint 46">
       <r>   -2.1574    1.0000 </r>
       <r>   -1.0552    1.0000 </r>
       <r>    1.7874    1.0000 </r>
       <r>    3.6304    1.0000 </r>
       <r>    7.5505    0.0000 </r>
       <r>   10.4198    0.0000 </r>
       <r>   13.3745    0.0000 </r>
       <r>   14.2858    0.0000 </r>
      </set>
      <set comment="kpoint 47">
       <r>   -2.5994    1.0000 </r>
       <r>   -0.6461    1.0000 </r>
       <r>    1.6899    1.0000 </r>
       <r>    3.9571    1.0000 </r>
       <r>    7.9287    0.0000 </r>
       <r>   11.9592    0.0000 </r>
       <r>   12.5806    0.0000 </r>
       <r>   13.3823    0.0000 </r>
      </set>
      <set comment="kpoint 48">
       <r>   -3.2141    1.0000 </r>
       <r>   -0.3015    1.0000 </r>
       <r>    2.2891    1.0000 </r>
       <r>    4.3872    1.0000 </r>
       <r>    8.4361    0.0000 </r>
       <r>   10.8669    0.0000 </r>
       <r>   11.9847    0.0000 </r>
       <r>   13.2785    0.0000 </r>
      </set>
      <set comment="kpoint 49">
       <r>   -3.7593    1.0000 </r>
       <r>   -0.0894    1.0000 </r>
       <r>    3.3838    1.0000 </r>
       <r>    4.8262    1.0000 </r>
       <r>    8.8729    0.0000 </r>
       <r>    9.7488    0.0000 </r>
       <r>   10.7076    0.0000 </r>
       <r>   13.3688    0.0000 </r>
      </set>
      <set comment="kpoint 50">
       <r>   -4.1767    1.0000 </r>
       <r>    0.1828    1.0000 </r>
       <r>    4.5785    1.0000 </r>
       <r>    5.0714    1.0000 </r>
       <r>    8.4685    0.0000 </r>
       <r>    9.5422    0.0000 </r>
       <r>   10.0111    0.0000 </r>
       <r>   13.5857    0.0000 </r>
      </set>
      <set comment="kpoint 51">
       <r>   -2.6530    1.0000 </r>
       <r>   -0.6649    1.0000 </r>
       <r>    3.2446    1.0000 </r>
       <r>    3.3611    1.0000 </r>
       <r>    6.8238    0.0000 </r>
       <r>    7.2792    0.0000 </r>
       <r>   15.5500    0.0000 </r>
       <r>   15.5896    0.0000 </r>
      </set>
      <set comment="kpoint 52">
       <r>   -2.0019    1.0000 </r>
       <r>   -1.3472    1.0000 </r>
       <r>    2.9264    1.0000 </r>
       <r>    3.2360    1.0000 </r>
       <r>    7.0868    0.0000 </r>
       <r>    7.4898    0.0000 </r>
       <r>   15.5199    0.0000 </r>
       <r>   16.1789    0.0000 </r>
      </set>
      <set comment="kpoint 53">
       <r>   -1.9858    1.0000 </r>
       <r>   -1.2754    1.0000 </r>
       <r>    2.2570    1.0000 </r>
       <r>    3.3863    1.0000 </r>
       <r>    7.2681    0.0000 </r>
       <r>    8.7977    0.0000 </r>
       <r>   14.4410    0.0000 </r>
       <r>   15.2603    0.0000 </r>
      </set>
      <set comment="kpoint 54">
       <r>   -2.4981    1.0000 </r>
       <r>   -0.7688    1.0000 </r>
       <r>    1.9763    1.0000 </r>
       <r>    3.6881    1.0000 </r>
       <r>    7.6235    0.0000 </r>
       <r>   10.4891    0.0000 </r>
       <r>   12.7097    0.0000 </r>
       <r>   13.8290    0.0000 </r>
      </set>
      <set comment="kpoint 55">
       <r>   -2.9357    1.0000 </r>
       <r>   -0.6797    1.0000 </r>
       <r>    2.4530    1.0000 </r>
       <r>    4.1107    1.0000 </r>
       <r>    8.1314    0.0000 </r>
       <r>   11.0392    0.0000 </r>
       <r>   12.0816    0.0000 </r>
       <r>   12.5967    0.0000 </r>
      </set>
      <set comment="kpoint 56">
       <r>   -3.3057    1.0000 </r>
       <r>   -0.7644    1.0000 </r>
       <r>    3.4454    1.0000 </r>
       <r>    4.5784    1.0000 </r>
       <r>    8.6413    0.0000 </r>
       <r>    9.7852    0.0000 </r>
       <r>   10.7385    0.0000 </r>
       <r>   14.4300    0.0000 </r>
      </set>
      <set comment="kpoint 57">
       <r>   -3.6025    1.0000 </r>
       <r>   -0.7379    1.0000 </r>
       <r>    4.5184    1.0000 </r>
       <r>    4.9107    1.0000 </r>
       <r>    8.3625    0.0000 </r>
       <r>    9.4756    0.0000 </r>
       <r>    9.8589    0.0000 </r>
       <r>   14.2580    0.0000 </r>
      </set>
      <set comment="kpoint 58">
       <r>   -2.0276    1.0000 </r>
       <r>   -1.3625    1.0000 </r>
       <r>    3.1846    1.0000 </r>
       <r>    3.3047    1.0000 </r>
       <r>    6.8662    0.0000 </r>
       <r>    7.0688    0.0000 </r>
       <r>   16.3134    0.0000 </r>
       <r>   16.3853    0.0000 </r>
      </set>
      <set comment="kpoint 59">
       <r>   -2.6163    1.0000 </r>
       <r>   -0.6702    1.0000 </r>
       <r>    2.9917    1.0000 </r>
       <r>    3.3001    1.0000 </r>
       <r>    7.0963    0.0000 </r>
       <r>    7.6428    0.0000 </r>
       <r>   14.7502    0.0000 </r>
       <r>   15.5744    0.0000 </r>
      </set>
      <set comment="kpoint 60">
       <r>   -3.0714    1.0000 </r>
       <r>   -0.1203    1.0000 </r>
       <r>    2.5817    1.0000 </r>
       <r>    3.5717    1.0000 </r>
       <r>    7.4644    0.0000 </r>
       <r>    9.0641    0.0000 </r>
       <r>   13.0058    0.0000 </r>
       <r>   14.0057    0.0000 </r>
      </set>
      <set comment="kpoint 61">
       <r>   -3.3823    1.0000 </r>
       <r>   -0.0743    1.0000 </r>
       <r>    2.8090    1.0000 </r>
       <r>    3.9813    1.0000 </r>
       <r>    7.9752    0.0000 </r>
       <r>   10.8135    0.0000 </r>
       <r>   11.4298    0.0000 </r>
       <r>   12.3435    0.0000 </r>
      </set>
      <set comment="kpoint 62">
       <r>   -3.5537    1.0000 </r>
       <r>   -0.4101    1.0000 </r>
       <r>    3.6258    1.0000 </r>
       <r>    4.4749    1.0000 </r>
       <r>    8.5268    0.0000 </r>
       <r>    9.9251    0.0000 </r>
       <r>   10.8737    0.0000 </r>
       <r>   12.9167    0.0000 </r>
      </set>
      <set comment="kpoint 63">
       <r>   -3.2342    1.0000 </r>
       <r>    0.0586    1.0000 </r>
       <r>    3.3645    1.0000 </r>
       <r>    3.4735    1.0000 </r>
       <r>    6.8443    0.0000 </r>
       <r>    7.5930    0.0000 </r>
       <r>   14.7560    0.0000 </r>
       <r>   14.7707    0.0000 </r>
      </set>
      <set comment="kpoint 64">
       <r>   -3.7173    1.0000 </r>
       <r>    0.7271    1.0000 </r>
       <r>    3.3130    1.0000 </r>
       <r>    3.6269    1.0000 </r>
       <r>    7.2553    0.0000 </r>
       <r>    8.2926    0.0000 </r>
       <r>   13.2594    0.0000 </r>
       <r>   13.9494    0.0000 </r>
      </set>
      <set comment="kpoint 65">
       <r>   -4.0392    1.0000 </r>
       <r>    0.9784    1.0000 </r>
       <r>    3.3045    1.0000 </r>
       <r>    4.0240    1.0000 </r>
       <r>    7.8910    0.0000 </r>
       <r>    9.7056    0.0000 </r>
       <r>   11.6498    0.0000 </r>
       <r>   12.5013    0.0000 </r>
      </set>
      <set comment="kpoint 66">
       <r>   -4.1922    1.0000 </r>
       <r>    0.6567    1.0000 </r>
       <r>    3.8811    1.0000 </r>
       <r>    4.5522    1.0000 </r>
       <r>    8.5158    0.0000 </r>
       <r>   10.1474    0.0000 </r>
       <r>   11.0736    0.0000 </r>
       <r>   11.5699    0.0000 </r>
      </set>
      <set comment="kpoint 67">
       <r>   -4.2471    1.0000 </r>
       <r>    1.5488    1.0000 </r>
       <r>    3.7820    1.0000 </r>
       <r>    3.8616    1.0000 </r>
       <r>    7.0895    0.0000 </r>
       <r>    8.5043    0.0000 </r>
       <r>   13.1678    0.0000 </r>
       <r>   13.2046    0.0000 </r>
      </set>
      <set comment="kpoint 68">
       <r>   -4.6162    1.0000 </r>
       <r>    2.0996    1.0000 </r>
       <r>    3.8618    1.0000 </r>
       <r>    4.2390    1.0000 </r>
       <r>    7.6395    0.0000 </r>
       <r>    9.3297    0.0000 </r>
       <r>   11.8487    0.0000 </r>
       <r>   12.3793    0.0000 </r>
      </set>
      <set comment="kpoint 69">
       <r>   -4.8097    1.0000 </r>
       <r>    1.9909    1.0000 </r>
       <r>    4.1849    1.0000 </r>
       <r>    4.8059    1.0000 </r>
       <r>    8.4620    0.0000 </r>
       <r>   10.3252    0.0000 </r>
       <r>   10.7678    0.0000 </r>
       <r>   11.1881    0.0000 </r>
      </set>
      <set comment="kpoint 70">
       <r>   -5.0408    1.0000 </r>
       <r>    3.0317    1.0000 </r>
       <r>    4.4311    1.0000 </r>
       <r>    4.4527    1.0000 </r>
       <r>    7.5669    0.0000 </r>
       <r>    9.7522    0.0000 </r>
       <r>   11.6375    0.0000 </r>
       <r>   11.7146    0.0000 </r>
      </set>
      <set comment="kpoint 71">
       <r>   -5.2900    1.0000 </r>
       <r>    3.3729    1.0000 </r>
       <r>    4.5838    1.0000 </r>
       <r>    5.1124    1.0000 </r>
       <r>    8.1990    0.0000 </r>
       <r>   10.3269    0.0000 </r>
       <r>   10.8459    0.0000 </r>
       <r>   10.9073    0.0000 </r>
      </set>
      <set comment="kpoint 72">
       <r>   -5.5991    1.0000 </r>
       <r>    4.4130    1.0000 </r>
       <r>    5.2025    1.0000 </r>
       <r>    5.2800    1.0000 </r>
       <r>    8.1851    0.0000 </r>
       <r>   10.1783    0.0000 </r>
       <r>   10.3246    0.0000 </r>
       <r>   11.0411    0.0000 </r>
      </set>
      <set comment="kpoint 73">
       <r>   -5.7872    1.0000 </r>
       <r>    4.6289    1.0000 </r>
       <r>    5.9418    1.0000 </r>
       <r>    5.9419    1.0000 </r>
       <r>    8.8548    0.0000 </r>
       <r>    9.2657    0.0000 </r>
       <r>    9.2657    0.0000 </r>
       <r>   11.3392    0.0000 </r>
      </set>
      <set comment="kpoint 74">
       <r>   -5.6007    1.0000 </r>
       <r>    4.0062    1.0000 </r>
       <r>    5.0270    1.0000 </r>
       <r>    6.0265    1.0000 </r>
       <r>    9.2139    0.0000 </r>
       <r>    9.2472    0.0000 </r>
       <r>    9.5746    0.0000 </r>
       <r>   11.8771    0.0000 </r>
      </set>
      <set comment="kpoint 75">
       <r>   -5.2333    1.0000 </r>
       <r>    2.9280    1.0000 </r>
       <r>    4.2097    1.0000 </r>
       <r>    5.8063    1.0000 </r>
       <r>    9.3630    0.0000 </r>
       <r>    9.6107    0.0000 </r>
       <r>    9.9276    0.0000 </r>
       <r>   12.1338    0.0000 </r>
      </set>
      <set comment="kpoint 76">
       <r>   -4.7020    1.0000 </r>
       <r>    1.5348    1.0000 </r>
       <r>    3.8522    1.0000 </r>
       <r>    5.4479    1.0000 </r>
       <r>    9.0868    0.0000 </r>
       <r>    9.9535    0.0000 </r>
       <r>   10.1411    0.0000 </r>
       <r>   12.7151    0.0000 </r>
      </set>
      <set comment="kpoint 77">
       <r>   -4.0569    1.0000 </r>
       <r>    0.2425    1.0000 </r>
       <r>    3.7151    1.0000 </r>
       <r>    5.0913    1.0000 </r>
       <r>    8.8104    0.0000 </r>
       <r>    9.9890    0.0000 </r>
       <r>   10.0797    0.0000 </r>
       <r>   13.7212    0.0000 </r>
      </set>
      <set comment="kpoint 78">
       <r>   -3.4801    1.0000 </r>
       <r>   -0.6715    1.0000 </r>
       <r>    3.7393    1.0000 </r>
       <r>    4.8059    1.0000 </r>
       <r>    8.5981    0.0000 </r>
       <r>    9.8439    0.0000 </r>
       <r>   10.1742    0.0000 </r>
       <r>   14.6479    0.0000 </r>
      </set>
      <set comment="kpoint 79">
       <r>   -3.4772    1.0000 </r>
       <r>   -0.6770    1.0000 </r>
       <r>    3.9032    1.0000 </r>
       <r>    4.6267    1.0000 </r>
       <r>    8.4900    0.0000 </r>
       <r>    9.8194    0.0000 </r>
       <r>   10.3563    0.0000 </r>
       <r>   13.7438    0.0000 </r>
      </set>
      <set comment="kpoint 80">
       <r>   -4.0522    1.0000 </r>
       <r>    0.2314    1.0000 </r>
       <r>    4.1868    1.0000 </r>
       <r>    4.5732    1.0000 </r>
       <r>    8.4950    0.0000 </r>
       <r>    9.9134    0.0000 </r>
       <r>   10.6199    0.0000 </r>
       <r>   12.3604    0.0000 </r>
      </set>
      <set comment="kpoint 81">
       <r>   -4.6981    1.0000 </r>
       <r>    1.5294    1.0000 </r>
       <r>    4.5621    1.0000 </r>
       <r>    4.6547    1.0000 </r>
       <r>    8.5366    0.0000 </r>
       <r>   10.0567    0.0000 </r>
       <r>   10.8483    0.0000 </r>
       <r>   11.3125    0.0000 </r>
      </set>
      <set comment="kpoint 82">
       <r>   -5.2305    1.0000 </r>
       <r>    2.9849    1.0000 </r>
       <r>    4.8702    1.0000 </r>
       <r>    4.9722    1.0000 </r>
       <r>    8.3988    0.0000 </r>
       <r>   10.1160    0.0000 </r>
       <r>   10.7926    0.0000 </r>
       <r>   11.0075    0.0000 </r>
      </set>
      <set comment="kpoint 83">
       <r>   -5.4770    1.0000 </r>
       <r>    3.5365    1.0000 </r>
       <r>    5.2408    1.0000 </r>
       <r>    5.4779    1.0000 </r>
       <r>    8.6838    0.0000 </r>
       <r>    9.5586    0.0000 </r>
       <r>   10.2227    0.0000 </r>
       <r>   11.6076    0.0000 </r>
      </set>
      <set comment="kpoint 84">
       <r>   -5.1703    1.0000 </r>
       <r>    2.9004    1.0000 </r>
       <r>    4.2157    1.0000 </r>
       <r>    5.3968    1.0000 </r>
       <r>    8.7511    0.0000 </r>
       <r>    9.9376    0.0000 </r>
       <r>   10.7348    0.0000 </r>
       <r>   11.1134    0.0000 </r>
      </set>
      <set comment="kpoint 85">
       <r>   -4.6928    1.0000 </r>
       <r>    1.9047    1.0000 </r>
       <r>    3.4420    1.0000 </r>
       <r>    5.1073    1.0000 </r>
       <r>    9.1704    0.0000 </r>
       <r>    9.8425    0.0000 </r>
       <r>   10.9625    0.0000 </r>
       <r>   11.3122    0.0000 </r>
      </set>
      <set comment="kpoint 86">
       <r>   -4.0777    1.0000 </r>
       <r>    0.6843    1.0000 </r>
       <r>    3.1297    1.0000 </r>
       <r>    4.7342    1.0000 </r>
       <r>    9.3282    0.0000 </r>
       <r>    9.5535    0.0000 </r>
       <r>   11.4510    0.0000 </r>
       <r>   11.7408    0.0000 </r>
      </set>
      <set comment="kpoint 87">
       <r>   -3.4378    1.0000 </r>
       <r>   -0.3572    1.0000 </r>
       <r>    3.0458    1.0000 </r>
       <r>    4.4314    1.0000 </r>
       <r>    9.1160    0.0000 </r>
       <r>    9.4912    0.0000 </r>
       <r>   11.4716    0.0000 </r>
       <r>   13.0493    0.0000 </r>
      </set>
      <set comment="kpoint 88">
       <r>   -3.1812    1.0000 </r>
       <r>   -0.7205    1.0000 </r>
       <r>    3.0953    1.0000 </r>
       <r>    4.2826    1.0000 </r>
       <r>    8.8805    0.0000 </r>
       <r>    9.6313    0.0000 </r>
       <r>   11.4927    0.0000 </r>
       <r>   13.6330    0.0000 </r>
      </set>
      <set comment="kpoint 89">
       <r>   -3.6330    1.0000 </r>
       <r>   -0.0644    1.0000 </r>
       <r>    3.2312    1.0000 </r>
       <r>    4.3349    1.0000 </r>
       <r>    8.7620    0.0000 </r>
       <r>    9.8914    0.0000 </r>
       <r>   11.5802    0.0000 </r>
       <r>   12.0959    0.0000 </r>
      </set>
      <set comment="kpoint 90">
       <r>   -4.2891    1.0000 </r>
       <r>    1.0838    1.0000 </r>
       <r>    3.4538    1.0000 </r>
       <r>    4.5762    1.0000 </r>
       <r>    8.7017    0.0000 </r>
       <r>   10.2271    0.0000 </r>
       <r>   10.8748    0.0000 </r>
       <r>   11.6674    0.0000 </r>
      </set>
      <set comment="kpoint 91">
       <r>   -4.8659    1.0000 </r>
       <r>    2.3453    1.0000 </r>
       <r>    3.8419    1.0000 </r>
       <r>    4.9058    1.0000 </r>
       <r>    8.4692    0.0000 </r>
       <r>   10.2910    0.0000 </r>
       <r>   10.5995    0.0000 </r>
       <r>   11.4892    0.0000 </r>
      </set>
      <set comment="kpoint 92">
       <r>   -4.9246    1.0000 </r>
       <r>    2.4289    1.0000 </r>
       <r>    4.4321    1.0000 </r>
       <r>    4.5241    1.0000 </r>
       <r>    8.0963    0.0000 </r>
       <r>   10.1995    0.0000 </r>
       <r>   10.9471    0.0000 </r>
       <r>   11.3873    0.0000 </r>
      </set>
      <set comment="kpoint 93">
       <r>   -4.5044    1.0000 </r>
       <r>    1.7795    1.0000 </r>
       <r>    3.5088    1.0000 </r>
       <r>    4.4116    1.0000 </r>
       <r>    8.2110    0.0000 </r>
       <r>    9.7782    0.0000 </r>
       <r>   11.0700    0.0000 </r>
       <r>   12.2752    0.0000 </r>
      </set>
      <set comment="kpoint 94">
       <r>   -3.9320    1.0000 </r>
       <r>    0.8992    1.0000 </r>
       <r>    2.8491    1.0000 </r>
       <r>    4.0652    1.0000 </r>
       <r>    8.7147    0.0000 </r>
       <r>    9.9049    0.0000 </r>
       <r>   10.7649    0.0000 </r>
       <r>   12.9850    0.0000 </r>
      </set>
      <set comment="kpoint 95">
       <r>   -3.2764    1.0000 </r>
       <r>   -0.0652    1.0000 </r>
       <r>    2.5011    1.0000 </r>
       <r>    3.7723    1.0000 </r>
       <r>    8.9173    0.0000 </r>
       <r>   10.2722    0.0000 </r>
       <r>   11.0989    0.0000 </r>
       <r>   13.1389    0.0000 </r>
      </set>
      <set comment="kpoint 96">
       <r>   -2.8173    1.0000 </r>
       <r>   -0.6683    1.0000 </r>
       <r>    2.3259    1.0000 </r>
       <r>    3.6922    1.0000 </r>
       <r>    9.0942    0.0000 </r>
       <r>    9.9917    0.0000 </r>
       <r>   12.5822    0.0000 </r>
       <r>   13.1293    0.0000 </r>
      </set>
      <set comment="kpoint 97">
       <r>   -3.0866    1.0000 </r>
       <r>   -0.3192    1.0000 </r>
       <r>    2.2929    1.0000 </r>
       <r>    3.8500    1.0000 </r>
       <r>    9.3907    0.0000 </r>
       <r>    9.7826    0.0000 </r>
       <r>   12.0078    0.0000 </r>
       <r>   13.0480    0.0000 </r>
      </set>
      <set comment="kpoint 98">
       <r>   -3.7294    1.0000 </r>
       <r>    0.5732    1.0000 </r>
       <r>    2.4912    1.0000 </r>
       <r>    4.1886    1.0000 </r>
       <r>    9.5417    0.0000 </r>
       <r>    9.8124    0.0000 </r>
       <r>   10.7665    0.0000 </r>
       <r>   12.8593    0.0000 </r>
      </set>
      <set comment="kpoint 99">
       <r>   -4.3386    1.0000 </r>
       <r>    1.4040    1.0000 </r>
       <r>    3.1192    1.0000 </r>
       <r>    4.5878    1.0000 </r>
       <r>    8.9291    0.0000 </r>
       <r>   10.2479    0.0000 </r>
       <r>   10.4081    0.0000 </r>
       <r>   12.1324    0.0000 </r>
      </set>
      <set comment="kpoint 100">
       <r>   -4.1418    1.0000 </r>
       <r>    1.2578    1.0000 </r>
       <r>    3.4696    1.0000 </r>
       <r>    3.9503    1.0000 </r>
       <r>    7.5552    0.0000 </r>
       <r>    9.1156    0.0000 </r>
       <r>   12.4215    0.0000 </r>
       <r>   12.6330    0.0000 </r>
      </set>
      <set comment="kpoint 101">
       <r>   -3.6198    1.0000 </r>
       <r>    0.5839    1.0000 </r>
       <r>    2.9886    1.0000 </r>
       <r>    3.5908    1.0000 </r>
       <r>    7.8170    0.0000 </r>
       <r>    8.8197    0.0000 </r>
       <r>   12.3128    0.0000 </r>
       <r>   13.9117    0.0000 </r>
      </set>
      <set comment="kpoint 102">
       <r>   -2.9799    1.0000 </r>
       <r>   -0.1623    1.0000 </r>
       <r>    2.4848    1.0000 </r>
       <r>    3.2086    1.0000 </r>
       <r>    8.4094    0.0000 </r>
       <r>    9.2120    0.0000 </r>
       <r>   11.9465    0.0000 </r>
       <r>   14.7296    0.0000 </r>
      </set>
      <set comment="kpoint 103">
       <r>   -2.3927    1.0000 </r>
       <r>   -0.7925    1.0000 </r>
       <r>    2.0096    1.0000 </r>
       <r>    3.1564    1.0000 </r>
       <r>    8.6168    0.0000 </r>
       <r>   10.5430    0.0000 </r>
       <r>   11.6490    0.0000 </r>
       <r>   13.8507    0.0000 </r>
      </set>
      <set comment="kpoint 104">
       <r>   -2.4700    1.0000 </r>
       <r>   -0.7028    1.0000 </r>
       <r>    1.7863    1.0000 </r>
       <r>    3.3704    1.0000 </r>
       <r>    8.9143    0.0000 </r>
       <r>   11.1075    0.0000 </r>
       <r>   12.0619    0.0000 </r>
       <r>   12.5939    0.0000 </r>
      </set>
      <set comment="kpoint 105">
       <r>   -3.0800    1.0000 </r>
       <r>   -0.1336    1.0000 </r>
       <r>    2.0209    1.0000 </r>
       <r>    3.7659    1.0000 </r>
       <r>    9.3438    0.0000 </r>
       <r>   10.2941    0.0000 </r>
       <r>   11.3498    0.0000 </r>
       <r>   13.6399    0.0000 </r>
      </set>
      <set comment="kpoint 106">
       <r>   -3.6955    1.0000 </r>
       <r>    0.3012    1.0000 </r>
       <r>    2.8036    1.0000 </r>
       <r>    4.2376    1.0000 </r>
       <r>    9.1402    0.0000 </r>
       <r>    9.8452    0.0000 </r>
       <r>   11.3434    0.0000 </r>
       <r>   12.2970    0.0000 </r>
      </set>
      <set comment="kpoint 107">
       <r>   -3.1495    1.0000 </r>
       <r>   -0.0228    1.0000 </r>
       <r>    2.8388    1.0000 </r>
       <r>    3.5706    1.0000 </r>
       <r>    7.1780    0.0000 </r>
       <r>    8.3832    0.0000 </r>
       <r>   13.9751    0.0000 </r>
       <r>   14.0231    0.0000 </r>
      </set>
      <set comment="kpoint 108">
       <r>   -2.5457    1.0000 </r>
       <r>   -0.6869    1.0000 </r>
       <r>    2.6868    1.0000 </r>
       <r>    3.1240    1.0000 </r>
       <r>    7.6189    0.0000 </r>
       <r>    8.2505    0.0000 </r>
       <r>   13.7014    0.0000 </r>
       <r>   15.5638    0.0000 </r>
      </set>
      <set comment="kpoint 109">
       <r>   -1.8967    1.0000 </r>
       <r>   -1.2913    1.0000 </r>
       <r>    2.3529    1.0000 </r>
       <r>    2.7905    1.0000 </r>
       <r>    8.2835    0.0000 </r>
       <r>    8.9063    0.0000 </r>
       <r>   13.3370    0.0000 </r>
       <r>   14.1106    0.0000 </r>
      </set>
      <set comment="kpoint 110">
       <r>   -2.0330    1.0000 </r>
       <r>   -1.1065    1.0000 </r>
       <r>    1.8860    1.0000 </r>
       <r>    3.0373    1.0000 </r>
       <r>    8.5545    0.0000 </r>
       <r>   10.4949    0.0000 </r>
       <r>   12.2992    0.0000 </r>
       <r>   13.0758    0.0000 </r>
      </set>
      <set comment="kpoint 111">
       <r>   -2.5911    1.0000 </r>
       <r>   -0.7076    1.0000 </r>
       <r>    1.9938    1.0000 </r>
       <r>    3.4749    1.0000 </r>
       <r>    8.9749    0.0000 </r>
       <r>   10.5512    0.0000 </r>
       <r>   12.4063    0.0000 </r>
       <r>   12.9846    0.0000 </r>
      </set>
      <set comment="kpoint 112">
       <r>   -3.1132    1.0000 </r>
       <r>   -0.5526    1.0000 </r>
       <r>    2.6922    1.0000 </r>
       <r>    4.0235    1.0000 </r>
       <r>    9.2678    0.0000 </r>
       <r>    9.5034    0.0000 </r>
       <r>   12.2818    0.0000 </r>
       <r>   12.7975    0.0000 </r>
      </set>
      <set comment="kpoint 113">
       <r>   -1.9936    1.0000 </r>
       <r>   -1.3234    1.0000 </r>
       <r>    2.5758    1.0000 </r>
       <r>    3.4051    1.0000 </r>
       <r>    7.0090    0.0000 </r>
       <r>    8.0709    0.0000 </r>
       <r>   15.3750    0.0000 </r>
       <r>   15.6710    0.0000 </r>
      </set>
      <set comment="kpoint 114">
       <r>   -1.9550    1.0000 </r>
       <r>   -1.3209    1.0000 </r>
       <r>    2.6250    1.0000 </r>
       <r>    3.0322    1.0000 </r>
       <r>    7.5864    0.0000 </r>
       <r>    8.1291    0.0000 </r>
       <r>   14.4484    0.0000 </r>
       <r>   15.2341    0.0000 </r>
      </set>
      <set comment="kpoint 115">
       <r>   -2.4477    1.0000 </r>
       <r>   -0.7245    1.0000 </r>
       <r>    2.3927    1.0000 </r>
       <r>    2.9351    1.0000 </r>
       <r>    8.3246    0.0000 </r>
       <r>    9.0092    0.0000 </r>
       <r>   12.6176    0.0000 </r>
       <r>   14.9097    0.0000 </r>
      </set>
      <set comment="kpoint 116">
       <r>   -2.8335    1.0000 </r>
       <r>   -0.4281    1.0000 </r>
       <r>    2.2279    1.0000 </r>
       <r>    3.4018    1.0000 </r>
       <r>    8.7392    0.0000 </r>
       <r>   10.5639    0.0000 </r>
       <r>   11.1472    0.0000 </r>
       <r>   13.9954    0.0000 </r>
      </set>
      <set comment="kpoint 117">
       <r>   -2.5860    1.0000 </r>
       <r>   -0.6811    1.0000 </r>
       <r>    2.6627    1.0000 </r>
       <r>    3.4605    1.0000 </r>
       <r>    7.0660    0.0000 </r>
       <r>    8.1747    0.0000 </r>
       <r>   14.6870    0.0000 </r>
       <r>   14.8437    0.0000 </r>
      </set>
      <set comment="kpoint 118">
       <r>   -3.1038    1.0000 </r>
       <r>   -0.0466    1.0000 </r>
       <r>    2.8089    1.0000 </r>
       <r>    3.3097    1.0000 </r>
       <r>    7.6934    0.0000 </r>
       <r>    8.4835    0.0000 </r>
       <r>   12.9887    0.0000 </r>
       <r>   14.7489    0.0000 </r>
      </set>
      <set comment="kpoint 119">
       <r>   -3.4773    1.0000 </r>
       <r>    0.3794    1.0000 </r>
       <r>    2.6368    1.0000 </r>
       <r>    3.5932    1.0000 </r>
       <r>    8.5398    0.0000 </r>
       <r>    9.5114    0.0000 </r>
       <r>   11.3273    0.0000 </r>
       <r>   13.8534    0.0000 </r>
      </set>
      <set comment="kpoint 120">
       <r>   -3.6700    1.0000 </r>
       <r>    0.6285    1.0000 </r>
       <r>    3.1074    1.0000 </r>
       <r>    3.7345    1.0000 </r>
       <r>    7.3425    0.0000 </r>
       <r>    8.6971    0.0000 </r>
       <r>   13.2147    0.0000 </r>
       <r>   13.2897    0.0000 </r>
      </set>
      <set comment="kpoint 121">
       <r>   -4.0880    1.0000 </r>
       <r>    1.1939    1.0000 </r>
       <r>    3.2229    1.0000 </r>
       <r>    3.9631    1.0000 </r>
       <r>    7.9908    0.0000 </r>
       <r>    9.2541    0.0000 </r>
       <r>   11.6725    0.0000 </r>
       <r>   13.0854    0.0000 </r>
      </set>
      <set comment="kpoint 122">
       <r>   -4.5610    1.0000 </r>
       <r>    1.8570    1.0000 </r>
[...]
       <r>   -0.7671    1.0000 </r>
       <r>    1.9426    1.0000 </r>
       <r>    3.5972    1.0000 </r>
       <r>    8.2080    0.0000 </r>
       <r>   11.2165    0.0000 </r>
       <r>   11.8555    0.0000 </r>
       <r>   13.8400    0.0000 </r>
      </set>
      <set comment="kpoint 172">
       <r>   -2.3648    1.0000 </r>
       <r>   -0.8673    1.0000 </r>
       <r>    1.6785    1.0000 </r>
       <r>    3.8877    1.0000 </r>
       <r>    7.5758    0.0000 </r>
       <r>   11.2698    0.0000 </r>
       <r>   13.2424    0.0000 </r>
       <r>   13.7009    0.0000 </r>
      </set>
      <set comment="kpoint 173">
       <r>   -4.2381    1.0000 </r>
       <r>    0.1512    1.0000 </r>
       <r>    5.1233    1.0000 </r>
       <r>    5.1233    1.0000 </r>
       <r>    8.0529    0.0000 </r>
       <r>    9.6896    0.0000 </r>
       <r>    9.6897    0.0000 </r>
       <r>   14.2086    0.0000 </r>
      </set>
      <set comment="kpoint 174">
       <r>   -3.9397    1.0000 </r>
       <r>   -0.1758    1.0000 </r>
       <r>    4.3102    1.0000 </r>
       <r>    5.0860    1.0000 </r>
       <r>    8.5092    0.0000 </r>
       <r>    9.7200    0.0000 </r>
       <r>    9.8014    0.0000 </r>
       <r>   14.2399    0.0000 </r>
      </set>
      <set comment="kpoint 175">
       <r>   -3.5012    1.0000 </r>
       <r>   -0.3717    1.0000 </r>
       <r>    3.1055    1.0000 </r>
       <r>    4.7366    1.0000 </r>
       <r>    8.5806    0.0000 </r>
       <r>   10.4197    0.0000 </r>
       <r>   10.5775    0.0000 </r>
       <r>   14.3451    0.0000 </r>
      </set>
      <set comment="kpoint 176">
       <r>   -2.9555    1.0000 </r>
       <r>   -0.5259    1.0000 </r>
       <r>    2.0969    1.0000 </r>
       <r>    4.2882    1.0000 </r>
       <r>    8.0630    0.0000 </r>
       <r>   11.7960    0.0000 </r>
       <r>   11.8244    0.0000 </r>
       <r>   13.3648    0.0000 </r>
      </set>
      <set comment="kpoint 177">
       <r>   -3.7398    1.0000 </r>
       <r>   -0.4923    1.0000 </r>
       <r>    4.5108    1.0000 </r>
       <r>    4.7897    1.0000 </r>
       <r>    8.4396    0.0000 </r>
       <r>    9.4945    0.0000 </r>
       <r>   10.0314    0.0000 </r>
       <r>   13.9237    0.0000 </r>
      </set>
      <set comment="kpoint 178">
       <r>   -3.4170    1.0000 </r>
       <r>   -0.6460    1.0000 </r>
       <r>    3.5811    1.0000 </r>
       <r>    4.5596    1.0000 </r>
       <r>    8.9342    0.0000 </r>
       <r>    9.3570    0.0000 </r>
       <r>   10.8094    0.0000 </r>
       <r>   13.8388    0.0000 </r>
      </set>
      <set comment="kpoint 179">
       <r>   -3.0016    1.0000 </r>
       <r>   -0.6724    1.0000 </r>
       <r>    2.5754    1.0000 </r>
       <r>    4.0804    1.0000 </r>
       <r>    8.7286    0.0000 </r>
       <r>   10.1251    0.0000 </r>
       <r>   12.2132    0.0000 </r>
       <r>   13.4331    0.0000 </r>
      </set>
      <set comment="kpoint 180">
       <r>   -3.2419    1.0000 </r>
       <r>   -0.7441    1.0000 </r>
       <r>    3.2544    1.0000 </r>
       <r>    4.4831    1.0000 </r>
       <r>    8.3484    0.0000 </r>
       <r>   10.4266    0.0000 </r>
       <r>   10.7696    0.0000 </r>
       <r>   13.5734    0.0000 </r>
      </set>
      <set comment="kpoint 181">
       <r>   -3.6649    1.0000 </r>
       <r>   -0.7733    1.0000 </r>
       <r>    5.0222    1.0000 </r>
       <r>    5.0222    1.0000 </r>
       <r>    7.9403    0.0000 </r>
       <r>    9.5791    0.0000 </r>
       <r>    9.5792    0.0000 </r>
       <r>   14.0464    0.0000 </r>
      </set>
      <set comment="kpoint 182">
       <r>   -3.4915    1.0000 </r>
       <r>   -0.8555    1.0000 </r>
       <r>    4.3512    1.0000 </r>
       <r>    4.8839    1.0000 </r>
       <r>    8.4210    0.0000 </r>
       <r>    9.5425    0.0000 </r>
       <r>    9.8615    0.0000 </r>
       <r>   14.3757    0.0000 </r>
      </set>
     </set>
    </set>
   </array>
  </eigenvalues>
  <separator name="orbital magnetization" >
   <v name="MAGDIPOLOUT">      0.00000000      0.00000000      0.00000000</v>
  </separator>
  <dos>
   <i name="efermi">      6.43750884 </i>
   <total>
    <array>
     <dimension dim="1">gridpoints</dimension>
     <dimension dim="2">spin</dimension>
     <field>energy</field>
     <field>total</field>
     <field>integrated</field>
     <set>
      <set comment="spin 1">
       <r>    -7.0930     0.0000     0.0000 </r>
       <r>    -7.0110     0.0000     0.0000 </r>
       <r>    -6.9290     0.0000     0.0000 </r>
       <r>    -6.8471     0.0000     0.0000 </r>
       <r>    -6.7651     0.0000     0.0000 </r>
       <r>    -6.6831     0.0000     0.0000 </r>
       <r>    -6.6011     0.0000     0.0000 </r>
       <r>    -6.5191     0.0000     0.0000 </r>
       <r>    -6.4371     0.0000     0.0000 </r>
       <r>    -6.3551     0.0000     0.0000 </r>
       <r>    -6.2731     0.0000     0.0000 </r>
       <r>    -6.1912     0.0000     0.0000 </r>
       <r>    -6.1092     0.0000     0.0000 </r>
       <r>    -6.0272     0.0020     0.0002 </r>
       <r>    -5.9452     0.0357     0.0031 </r>
       <r>    -5.8632     0.0995     0.0113 </r>
       <r>    -5.7812     0.1310     0.0220 </r>
       <r>    -5.6992     0.1842     0.0371 </r>
       <r>    -5.6172     0.1598     0.0502 </r>
       <r>    -5.5353     0.2565     0.0712 </r>
       <r>    -5.4533     0.2102     0.0885 </r>
       <r>    -5.3713     0.2519     0.1091 </r>
       <r>    -5.2893     0.2857     0.1325 </r>
       <r>    -5.2073     0.3117     0.1581 </r>
       <r>    -5.1253     0.3123     0.1837 </r>
       <r>    -5.0433     0.2496     0.2042 </r>
       <r>    -4.9613     0.4318     0.2396 </r>
       <r>    -4.8794     0.3669     0.2696 </r>
       <r>    -4.7974     0.3710     0.3000 </r>
       <r>    -4.7154     0.2859     0.3235 </r>
       <r>    -4.6334     0.5191     0.3660 </r>
       <r>    -4.5514     0.4105     0.3997 </r>
       <r>    -4.4694     0.4410     0.4359 </r>
       <r>    -4.3874     0.4821     0.4754 </r>
       <r>    -4.3054     0.4537     0.5126 </r>
       <r>    -4.2235     0.3847     0.5441 </r>
       <r>    -4.1415     0.6248     0.5953 </r>
       <r>    -4.0595     0.6249     0.6466 </r>
       <r>    -3.9775     0.5142     0.6887 </r>
       <r>    -3.8955     0.4881     0.7287 </r>
       <r>    -3.8135     0.5974     0.7777 </r>
       <r>    -3.7315     0.6667     0.8324 </r>
       <r>    -3.6495     0.7807     0.8964 </r>
       <r>    -3.5675     0.6961     0.9535 </r>
       <r>    -3.4856     0.8602     1.0240 </r>
       <r>    -3.4036     1.0294     1.1084 </r>
       <r>    -3.3216     0.4233     1.1431 </r>
       <r>    -3.2396     0.8392     1.2119 </r>
       <r>    -3.1576     0.9399     1.2890 </r>
       <r>    -3.0756     0.7072     1.3470 </r>
       <r>    -2.9936     0.6171     1.3975 </r>
       <r>    -2.9116     0.7911     1.4624 </r>
       <r>    -2.8297     0.7615     1.5248 </r>
       <r>    -2.7477     0.4143     1.5588 </r>
       <r>    -2.6657     0.3710     1.5892 </r>
       <r>    -2.5837     0.6549     1.6429 </r>
       <r>    -2.5017     0.7962     1.7082 </r>
       <r>    -2.4197     0.6534     1.7618 </r>
       <r>    -2.3377     0.4578     1.7993 </r>
       <r>    -2.2557     0.3298     1.8263 </r>
       <r>    -2.1738     0.2082     1.8434 </r>
       <r>    -2.0918     0.2657     1.8652 </r>
       <r>    -2.0098     0.4994     1.9061 </r>
       <r>    -1.9278     0.6128     1.9564 </r>
       <r>    -1.8458     0.2811     1.9794 </r>
       <r>    -1.7638     0.2305     1.9983 </r>
       <r>    -1.6818     0.0205     2.0000 </r>
       <r>    -1.5998     0.0000     2.0000 </r>
       <r>    -1.5179     0.0000     2.0000 </r>
       <r>    -1.4359     0.0028     2.0002 </r>
       <r>    -1.3539     0.1762     2.0147 </r>
       <r>    -1.2719     0.6486     2.0679 </r>
       <r>    -1.1899     0.4961     2.1085 </r>
       <r>    -1.1079     0.2080     2.1256 </r>
       <r>    -1.0259     0.2437     2.1456 </r>
       <r>    -0.9439     0.1870     2.1609 </r>
       <r>    -0.8620     0.4552     2.1982 </r>
       <r>    -0.7800     0.9539     2.2764 </r>
       <r>    -0.6980     1.8739     2.4301 </r>
       <r>    -0.6160     1.7284     2.5718 </r>
       <r>    -0.5340     1.0082     2.6544 </r>
       <r>    -0.4520     0.6961     2.7115 </r>
       <r>    -0.3700     0.8380     2.7802 </r>
       <r>    -0.2880     0.8443     2.8494 </r>
       <r>    -0.2061     0.4182     2.8837 </r>
       <r>    -0.1241     0.6289     2.9353 </r>
       <r>    -0.0421     1.0901     3.0246 </r>
       <r>     0.0399     0.6113     3.0748 </r>
       <r>     0.1219     0.2100     3.0920 </r>
       <r>     0.2039     0.4403     3.1281 </r>
       <r>     0.2859     0.7892     3.1928 </r>
       <r>     0.3679     0.4645     3.2309 </r>
       <r>     0.4498     0.2125     3.2483 </r>
       <r>     0.5318     0.1207     3.2582 </r>
       <r>     0.6138     0.5770     3.3055 </r>
       <r>     0.6958     0.8706     3.3769 </r>
       <r>     0.7778     0.2967     3.4012 </r>
       <r>     0.8598     0.0945     3.4089 </r>
       <r>     0.9418     0.1617     3.4222 </r>
       <r>     1.0238     0.3760     3.4530 </r>
       <r>     1.1057     0.6425     3.5057 </r>
       <r>     1.1877     0.2302     3.5246 </r>
       <r>     1.2697     0.1463     3.5366 </r>
       <r>     1.3517     0.0493     3.5406 </r>
       <r>     1.4337     0.2747     3.5631 </r>
       <r>     1.5157     0.5756     3.6103 </r>
       <r>     1.5977     0.4148     3.6443 </r>
       <r>     1.6797     0.1430     3.6561 </r>
       <r>     1.7616     0.4551     3.6934 </r>
       <r>     1.8436     0.6517     3.7468 </r>
       <r>     1.9256     0.8466     3.8162 </r>
       <r>     2.0076     1.6723     3.9533 </r>
       <r>     2.0896     1.0659     4.0407 </r>
       <r>     2.1716     1.0107     4.1236 </r>
       <r>     2.2536     0.6406     4.1761 </r>
       <r>     2.3356     1.0870     4.2652 </r>
       <r>     2.4176     1.2312     4.3662 </r>
       <r>     2.4995     1.0763     4.4544 </r>
       <r>     2.5815     0.9543     4.5326 </r>
       <r>     2.6635     0.7759     4.5963 </r>
       <r>     2.7455     0.8218     4.6636 </r>
       <r>     2.8275     1.3576     4.7749 </r>
       <r>     2.9095     1.1080     4.8658 </r>
       <r>     2.9915     0.8775     4.9377 </r>
       <r>     3.0735     1.3726     5.0503 </r>
       <r>     3.1554     1.2697     5.1544 </r>
       <r>     3.2374     1.0984     5.2444 </r>
       <r>     3.3194     1.1912     5.3421 </r>
       <r>     3.4014     1.5081     5.4657 </r>
       <r>     3.4834     1.7493     5.6092 </r>
       <r>     3.5654     1.3362     5.7187 </r>
       <r>     3.6474     1.4947     5.8413 </r>
       <r>     3.7294     1.1277     5.9337 </r>
       <r>     3.8113     1.3898     6.0477 </r>
       <r>     3.8933     1.3142     6.1554 </r>
       <r>     3.9753     1.4121     6.2712 </r>
       <r>     4.0573     1.5050     6.3946 </r>
       <r>     4.1393     0.9939     6.4761 </r>
       <r>     4.2213     1.2599     6.5794 </r>
       <r>     4.3033     1.2923     6.6853 </r>
       <r>     4.3853     1.3019     6.7921 </r>
       <r>     4.4672     1.0705     6.8798 </r>
       <r>     4.5492     1.0323     6.9645 </r>
       <r>     4.6312     1.5026     7.0877 </r>
       <r>     4.7132     0.8687     7.1589 </r>
       <r>     4.7952     1.3374     7.2685 </r>
       <r>     4.8772     1.0893     7.3578 </r>
       <r>     4.9592     0.8151     7.4247 </r>
       <r>     5.0412     0.9229     7.5003 </r>
       <r>     5.1231     1.2222     7.6005 </r>
       <r>     5.2051     0.7404     7.6612 </r>
       <r>     5.2871     0.4957     7.7019 </r>
       <r>     5.3691     0.4851     7.7417 </r>
       <r>     5.4511     0.5108     7.7835 </r>
       <r>     5.5331     0.4863     7.8234 </r>
       <r>     5.6151     0.5293     7.8668 </r>
       <r>     5.6971     0.2956     7.8910 </r>
       <r>     5.7790     0.2796     7.9140 </r>
       <r>     5.8610     0.3028     7.9388 </r>
       <r>     5.9430     0.1947     7.9547 </r>
       <r>     6.0250     0.2710     7.9770 </r>
       <r>     6.1070     0.1295     7.9876 </r>
       <r>     6.1890     0.1037     7.9961 </r>
       <r>     6.2710     0.0463     7.9999 </r>
       <r>     6.3530     0.0014     8.0000 </r>
       <r>     6.4349     0.0000     8.0000 </r>
       <r>     6.5169     0.0000     8.0000 </r>
       <r>     6.5989     0.0000     8.0000 </r>
       <r>     6.6809     0.0000     8.0000 </r>
       <r>     6.7629     0.0047     8.0004 </r>
       <r>     6.8449     0.1233     8.0105 </r>
       <r>     6.9269     0.1577     8.0234 </r>
       <r>     7.0089     0.1066     8.0322 </r>
       <r>     7.0908     0.3770     8.0631 </r>
       <r>     7.1728     0.4134     8.0970 </r>
       <r>     7.2548     0.3196     8.1232 </r>
       <r>     7.3368     0.5251     8.1662 </r>
       <r>     7.4188     0.2831     8.1894 </r>
       <r>     7.5008     0.4066     8.2228 </r>
       <r>     7.5828     0.5700     8.2695 </r>
       <r>     7.6648     0.9698     8.3490 </r>
       <r>     7.7467     0.4547     8.3863 </r>
       <r>     7.8287     0.4927     8.4267 </r>
       <r>     7.9107     0.7232     8.4860 </r>
       <r>     7.9927     0.8791     8.5581 </r>
       <r>     8.0747     0.6909     8.6147 </r>
       <r>     8.1567     0.8416     8.6837 </r>
       <r>     8.2387     1.2600     8.7870 </r>
       <r>     8.3207     1.0224     8.8708 </r>
       <r>     8.4027     1.0253     8.9549 </r>
       <r>     8.4846     1.4168     9.0710 </r>
       <r>     8.5666     1.8751     9.2248 </r>
       <r>     8.6486     1.2151     9.3244 </r>
       <r>     8.7306     1.4245     9.4412 </r>
       <r>     8.8126     1.4095     9.5568 </r>
       <r>     8.8946     1.5031     9.6800 </r>
       <r>     8.9766     1.5773     9.8093 </r>
       <r>     9.0586     1.0964     9.8992 </r>
       <r>     9.1405     1.1870     9.9965 </r>
       <r>     9.2225     0.9896    10.0777 </r>
       <r>     9.3045     1.0662    10.1651 </r>
       <r>     9.3865     1.2962    10.2713 </r>
       <r>     9.4685     1.1534    10.3659 </r>
       <r>     9.5505     2.0464    10.5337 </r>
       <r>     9.6325     2.2236    10.7160 </r>
       <r>     9.7145     1.5530    10.8433 </r>
       <r>     9.7964     1.9558    11.0037 </r>
       <r>     9.8784     1.8755    11.1574 </r>
       <r>     9.9604     1.5891    11.2877 </r>
       <r>    10.0424     1.6078    11.4195 </r>
       <r>    10.1244     1.0955    11.5094 </r>
       <r>    10.2064     1.2921    11.6153 </r>
       <r>    10.2884     1.4560    11.7347 </r>
       <r>    10.3704     1.4436    11.8530 </r>
       <r>    10.4523     1.4985    11.9759 </r>
       <r>    10.5343     1.1026    12.0663 </r>
       <r>    10.6163     1.3516    12.1771 </r>
       <r>    10.6983     0.9172    12.2523 </r>
       <r>    10.7803     1.2685    12.3563 </r>
       <r>    10.8623     1.2015    12.4548 </r>
       <r>    10.9443     1.1524    12.5493 </r>
       <r>    11.0263     1.1493    12.6435 </r>
       <r>    11.1082     1.3404    12.7534 </r>
       <r>    11.1902     1.1420    12.8471 </r>
       <r>    11.2722     0.9989    12.9289 </r>
       <r>    11.3542     1.3575    13.0402 </r>
       <r>    11.4362     1.4554    13.1596 </r>
       <r>    11.5182     1.0094    13.2423 </r>
       <r>    11.6002     0.8103    13.3088 </r>
       <r>    11.6822     1.6177    13.4414 </r>
       <r>    11.7641     1.2420    13.5432 </r>
       <r>    11.8461     0.9769    13.6233 </r>
       <r>    11.9281     0.6949    13.6803 </r>
       <r>    12.0101     1.1791    13.7770 </r>
       <r>    12.0921     1.2877    13.8825 </r>
       <r>    12.1741     0.8912    13.9556 </r>
       <r>    12.2561     0.7610    14.0180 </r>
       <r>    12.3381     1.4888    14.1401 </r>
       <r>    12.4200     1.3403    14.2499 </r>
       <r>    12.5020     0.6835    14.3060 </r>
       <r>    12.5840     0.9570    14.3844 </r>
       <r>    12.6660     1.1028    14.4749 </r>
       <r>    12.7480     0.8551    14.5450 </r>
       <r>    12.8300     0.5508    14.5901 </r>
       <r>    12.9120     0.5765    14.6374 </r>
       <r>    12.9940     0.9581    14.7159 </r>
       <r>    13.0759     1.2622    14.8194 </r>
       <r>    13.1579     0.9493    14.8973 </r>
       <r>    13.2399     1.1269    14.9897 </r>
       <r>    13.3219     0.8460    15.0590 </r>
       <r>    13.4039     0.8192    15.1262 </r>
       <r>    13.4859     0.4038    15.1593 </r>
       <r>    13.5679     0.3463    15.1877 </r>
       <r>    13.6499     0.5954    15.2365 </r>
       <r>    13.7318     0.5894    15.2848 </r>
       <r>    13.8138     0.6457    15.3378 </r>
       <r>    13.8958     0.8315    15.4059 </r>
       <r>    13.9778     0.7213    15.4651 </r>
       <r>    14.0598     0.9785    15.5453 </r>
       <r>    14.1418     0.5025    15.5865 </r>
       <r>    14.2238     0.3337    15.6139 </r>
       <r>    14.3058     0.3975    15.6465 </r>
       <r>    14.3878     0.3295    15.6735 </r>
       <r>    14.4697     0.4889    15.7136 </r>
       <r>    14.5517     0.1350    15.7246 </r>
       <r>    14.6337     0.1691    15.7385 </r>
       <r>    14.7157     0.3503    15.7672 </r>
       <r>    14.7977     0.8586    15.8376 </r>
       <r>    14.8797     0.3054    15.8627 </r>
       <r>    14.9617     0.1385    15.8740 </r>
       <r>    15.0437     0.0120    15.8750 </r>
       <r>    15.1256     0.0002    15.8750 </r>
       <r>    15.2076     0.0498    15.8791 </r>
       <r>    15.2896     0.2452    15.8992 </r>
       <r>    15.3716     0.0826    15.9060 </r>
       <r>    15.4536     0.0503    15.9101 </r>
       <r>    15.5356     0.2024    15.9267 </r>
       <r>    15.6176     0.4254    15.9616 </r>
       <r>    15.6996     0.1120    15.9708 </r>
       <r>    15.7815     0.0178    15.9722 </r>
       <r>    15.8635     0.0001    15.9722 </r>
       <r>    15.9455     0.0000    15.9722 </r>
       <r>    16.0275     0.0000    15.9722 </r>
       <r>    16.1095     0.0042    15.9726 </r>
       <r>    16.1915     0.1041    15.9811 </r>
       <r>    16.2735     0.0715    15.9870 </r>
       <r>    16.3555     0.0813    15.9936 </r>
       <r>    16.4374     0.0718    15.9995 </r>
       <r>    16.5194     0.0059    16.0000 </r>
       <r>    16.6014     0.0000    16.0000 </r>
       <r>    16.6834     0.0000    16.0000 </r>
       <r>    16.7654     0.0000    16.0000 </r>
       <r>    16.8474     0.0000    16.0000 </r>
       <r>    16.9294     0.0000    16.0000 </r>
       <r>    17.0114     0.0000    16.0000 </r>
       <r>    17.0933     0.0000    16.0000 </r>
       <r>    17.1753     0.0000    16.0000 </r>
       <r>    17.2573     0.0000    16.0000 </r>
       <r>    17.3393     0.0000    16.0000 </r>
       <r>    17.4213     0.0000    16.0000 </r>
       <r>    17.5033     0.0000    16.0000 </r>
      </set>
     </set>
    </array>
   </total>
  </dos>
 </calculation>
 <structure name="finalpos" >
  <crystal>
   <varray name="basis" >
    <v>       3.28117072       0.00000000       1.89438453 </v>
    <v>       1.09372357       3.09351865       1.89438453 </v>
    <v>       0.00000000       0.00000000       3.78876907 </v>
   </varray>
   <i name="volume">     38.45738067 </i>
   <varray name="rec_basis" >
    <v>       0.30476927      -0.10775217       0.00000000 </v>
    <v>       0.00000000       0.32325650       0.00000000 </v>
    <v>      -0.15238463      -0.10775217       0.26393797 </v>
   </varray>
  </crystal>
  <varray name="positions" >
   <v>       0.87500000       0.87500000       0.87500000 </v>
   <v>       0.12500000       0.12500000       0.12500000 </v>
  </varray>
 </structure>
</modeling>
