unknown system                          
           1
     3.281171    0.000000    1.894385
     1.093724    3.093519    1.894385
     0.000000    0.000000    3.788769
   Si
     2
Direct configuration=     1
   0.87500000  0.87500000  0.87500000
   0.12500000  0.12500000  0.12500000
