   2   2   0   0
  0.2016476E+02  0.3849278E-09  0.3849279E-09  0.3849278E-09  0.5000000E-15
  1.000000000000000E-004
  CAR 
 unknown system                          
     16.38442292     -7.24845637  301      5.83086526      1.00000000
     -7.248  0.0000E+00  0.0000E+00
     -7.170  0.0000E+00  0.0000E+00
     -7.091  0.0000E+00  0.0000E+00
     -7.012  0.0000E+00  0.0000E+00
     -6.933  0.0000E+00  0.0000E+00
     -6.855  0.0000E+00  0.0000E+00
     -6.776  0.0000E+00  0.0000E+00
     -6.697  0.0000E+00  0.0000E+00
     -6.618  0.0000E+00  0.0000E+00
     -6.539  0.0000E+00  0.0000E+00
     -6.461  0.8156E-19  0.6425E-20
     -6.382  0.6244E-12  0.4919E-13
     -6.303  0.3917E-07  0.3086E-08
     -6.224  0.2375E-04  0.1874E-05
     -6.146  0.3809E-03  0.3188E-04
     -6.067  0.1045E-02  0.1142E-03
     -5.988  0.1398E-02  0.2243E-03
     -5.909  0.1927E-02  0.3761E-03
     -5.830  0.1726E-02  0.5121E-03
     -5.752  0.2726E-02  0.7269E-03
     -5.673  0.2181E-02  0.8986E-03
     -5.594  0.2747E-02  0.1115E-02
     -5.515  0.2987E-02  0.1350E-02
     -5.437  0.3362E-02  0.1615E-02
     -5.358  0.3182E-02  0.1866E-02
     -5.279  0.2776E-02  0.2085E-02
     -5.200  0.4713E-02  0.2456E-02
     -5.121  0.3719E-02  0.2749E-02
     -5.043  0.3830E-02  0.3050E-02
     -4.964  0.3396E-02  0.3318E-02
     -4.885  0.5521E-02  0.3753E-02
     -4.806  0.4118E-02  0.4077E-02
     -4.728  0.5124E-02  0.4481E-02
     -4.649  0.4747E-02  0.4855E-02
     -4.570  0.4790E-02  0.5232E-02
     -4.491  0.4618E-02  0.5596E-02
     -4.413  0.6754E-02  0.6128E-02
     -4.334  0.6649E-02  0.6652E-02
     -4.255  0.4915E-02  0.7039E-02
     -4.176  0.5890E-02  0.7503E-02
     -4.097  0.6520E-02  0.8017E-02
     -4.019  0.7996E-02  0.8647E-02
     -3.940  0.7864E-02  0.9266E-02
     -3.861  0.8084E-02  0.9903E-02
     -3.782  0.1144E-01  0.1080E-01
     -3.704  0.6476E-02  0.1131E-01
     -3.625  0.6418E-02  0.1182E-01
     -3.546  0.1071E-01  0.1266E-01
     -3.467  0.7105E-02  0.1322E-01
     -3.388  0.7507E-02  0.1381E-01
     -3.310  0.7808E-02  0.1443E-01
     -3.231  0.8238E-02  0.1508E-01
     -3.152  0.5904E-02  0.1554E-01
     -3.073  0.3282E-02  0.1580E-01
     -2.995  0.5768E-02  0.1626E-01
     -2.916  0.8231E-02  0.1691E-01
     -2.837  0.7763E-02  0.1752E-01
     -2.758  0.5205E-02  0.1793E-01
     -2.679  0.3994E-02  0.1824E-01
     -2.601  0.2156E-02  0.1841E-01
     -2.522  0.2769E-02  0.1863E-01
     -2.443  0.3968E-02  0.1894E-01
     -2.364  0.6853E-02  0.1948E-01
     -2.286  0.3545E-02  0.1976E-01
     -2.207  0.2707E-02  0.1997E-01
     -2.128  0.3245E-03  0.2000E-01
     -2.049  0.1024E-05  0.2000E-01
     -1.970  0.1040E-08  0.2000E-01
     -1.892  0.8344E-05  0.2000E-01
     -1.813  0.1064E-02  0.2008E-01
     -1.734  0.6379E-02  0.2059E-01
     -1.655  0.5643E-02  0.2103E-01
     -1.577  0.2379E-02  0.2122E-01
     -1.498  0.2365E-02  0.2141E-01
     -1.419  0.2253E-02  0.2158E-01
     -1.340  0.2640E-02  0.2179E-01
     -1.261  0.5771E-02  0.2225E-01
     -1.183  0.1327E-01  0.2329E-01
     -1.104  0.1700E-01  0.2463E-01
     -1.025  0.1397E-01  0.2573E-01
     -0.946  0.1129E-01  0.2662E-01
     -0.868  0.7495E-02  0.2721E-01
     -0.789  0.9076E-02  0.2793E-01
     -0.710  0.9603E-02  0.2868E-01
     -0.631  0.4059E-02  0.2900E-01
     -0.552  0.7559E-02  0.2960E-01
     -0.474  0.1159E-01  0.3051E-01
     -0.395  0.4673E-02  0.3088E-01
     -0.316  0.1971E-02  0.3103E-01
     -0.237  0.4404E-02  0.3138E-01
     -0.159  0.8053E-02  0.3201E-01
     -0.080  0.5490E-02  0.3245E-01
     -0.001  0.1400E-02  0.3256E-01
      0.078  0.2814E-02  0.3278E-01
      0.157  0.5958E-02  0.3325E-01
      0.235  0.8456E-02  0.3391E-01
      0.314  0.2085E-02  0.3408E-01
      0.393  0.1325E-02  0.3418E-01
      0.472  0.2027E-02  0.3434E-01
      0.550  0.3313E-02  0.3460E-01
      0.629  0.6544E-02  0.3512E-01
      0.708  0.2984E-02  0.3535E-01
      0.787  0.5641E-03  0.3540E-01
      0.865  0.1973E-02  0.3555E-01
      0.944  0.3246E-02  0.3581E-01
      1.023  0.4675E-02  0.3618E-01
      1.102  0.3409E-02  0.3645E-01
      1.181  0.4228E-03  0.3648E-01
      1.259  0.1435E-02  0.3659E-01
      1.338  0.2376E-02  0.3678E-01
      1.417  0.6216E-02  0.3727E-01
      1.496  0.9288E-02  0.3800E-01
      1.574  0.1051E-01  0.3883E-01
      1.653  0.1355E-01  0.3990E-01
      1.732  0.9989E-02  0.4068E-01
      1.811  0.1066E-01  0.4152E-01
      1.890  0.1057E-01  0.4236E-01
      1.968  0.1251E-01  0.4334E-01
      2.047  0.1137E-01  0.4424E-01
      2.126  0.9752E-02  0.4500E-01
      2.205  0.8771E-02  0.4570E-01
      2.283  0.9061E-02  0.4641E-01
      2.362  0.1166E-01  0.4733E-01
      2.441  0.1519E-01  0.4852E-01
      2.520  0.9786E-02  0.4930E-01
      2.599  0.1035E-01  0.5011E-01
      2.677  0.1306E-01  0.5114E-01
      2.756  0.1168E-01  0.5206E-01
      2.835  0.1435E-01  0.5319E-01
      2.914  0.1547E-01  0.5441E-01
      2.992  0.1746E-01  0.5578E-01
      3.071  0.1496E-01  0.5696E-01
      3.150  0.1545E-01  0.5818E-01
      3.229  0.1216E-01  0.5914E-01
      3.308  0.1305E-01  0.6017E-01
      3.386  0.1635E-01  0.6145E-01
      3.465  0.1522E-01  0.6265E-01
      3.544  0.1512E-01  0.6384E-01
      3.623  0.1059E-01  0.6468E-01
      3.701  0.1170E-01  0.6560E-01
      3.780  0.1525E-01  0.6680E-01
      3.859  0.1392E-01  0.6790E-01
      3.938  0.1207E-01  0.6885E-01
      4.017  0.1130E-01  0.6974E-01
      4.095  0.1396E-01  0.7084E-01
      4.174  0.1002E-01  0.7163E-01
      4.253  0.1428E-01  0.7275E-01
      4.332  0.1126E-01  0.7364E-01
      4.410  0.9281E-02  0.7437E-01
      4.489  0.1008E-01  0.7517E-01
      4.568  0.1251E-01  0.7615E-01
      4.647  0.6561E-02  0.7667E-01
      4.726  0.5291E-02  0.7708E-01
      4.804  0.5156E-02  0.7749E-01
      4.883  0.5602E-02  0.7793E-01
      4.962  0.5569E-02  0.7837E-01
      5.041  0.4425E-02  0.7872E-01
      5.119  0.3189E-02  0.7897E-01
      5.198  0.3030E-02  0.7921E-01
      5.277  0.2799E-02  0.7943E-01
      5.356  0.2300E-02  0.7961E-01
      5.435  0.2486E-02  0.7981E-01
      5.513  0.1174E-02  0.7990E-01
      5.592  0.9875E-03  0.7998E-01
      5.671  0.2899E-03  0.8000E-01
      5.750  0.4731E-05  0.8000E-01
      5.828  0.1033E-08  0.8000E-01
      5.907  0.1935E-14  0.8000E-01
      5.986  0.0000E+00  0.8000E-01
      6.065  0.5241E-15  0.8000E-01
      6.144  0.5249E-09  0.8000E-01
      6.222  0.4685E-05  0.8000E-01
      6.301  0.5143E-03  0.8004E-01
      6.380  0.1914E-02  0.8019E-01
      6.459  0.1123E-02  0.8028E-01
      6.537  0.2022E-02  0.8044E-01
      6.616  0.5467E-02  0.8087E-01
      6.695  0.3029E-02  0.8111E-01
      6.774  0.4903E-02  0.8149E-01
      6.852  0.4403E-02  0.8184E-01
      6.931  0.3216E-02  0.8210E-01
      7.010  0.5165E-02  0.8250E-01
      7.089  0.9218E-02  0.8323E-01
      7.168  0.7503E-02  0.8382E-01
      7.246  0.5349E-02  0.8424E-01
      7.325  0.8544E-02  0.8491E-01
      7.404  0.9319E-02  0.8565E-01
      7.483  0.8886E-02  0.8635E-01
      7.561  0.9394E-02  0.8709E-01
      7.640  0.1472E-01  0.8825E-01
      7.719  0.1154E-01  0.8916E-01
      7.798  0.1264E-01  0.9015E-01
      7.877  0.2006E-01  0.9173E-01
      7.955  0.1791E-01  0.9314E-01
      8.034  0.1178E-01  0.9407E-01
      8.113  0.1429E-01  0.9520E-01
      8.192  0.1477E-01  0.9636E-01
      8.270  0.1507E-01  0.9755E-01
      8.349  0.1283E-01  0.9856E-01
      8.428  0.1112E-01  0.9943E-01
      8.507  0.1045E-01  0.1003E+00
      8.586  0.1337E-01  0.1013E+00
      8.664  0.9268E-02  0.1020E+00
      8.743  0.1097E-01  0.1029E+00
      8.822  0.1114E-01  0.1038E+00
      8.901  0.1807E-01  0.1052E+00
      8.979  0.2546E-01  0.1072E+00
      9.058  0.1932E-01  0.1087E+00
      9.137  0.2137E-01  0.1104E+00
      9.216  0.1726E-01  0.1118E+00
      9.295  0.1649E-01  0.1131E+00
      9.373  0.1578E-01  0.1143E+00
      9.452  0.1593E-01  0.1156E+00
      9.531  0.1736E-01  0.1169E+00
      9.610  0.1148E-01  0.1178E+00
      9.688  0.1160E-01  0.1188E+00
      9.767  0.1412E-01  0.1199E+00
      9.846  0.1299E-01  0.1209E+00
      9.925  0.1193E-01  0.1218E+00
     10.004  0.1573E-01  0.1231E+00
     10.082  0.9035E-02  0.1238E+00
     10.161  0.1081E-01  0.1246E+00
     10.240  0.1708E-01  0.1260E+00
     10.319  0.1335E-01  0.1270E+00
     10.397  0.1302E-01  0.1281E+00
     10.476  0.9524E-02  0.1288E+00
     10.555  0.1260E-01  0.1298E+00
     10.634  0.1587E-01  0.1311E+00
     10.713  0.1102E-01  0.1319E+00
     10.791  0.1113E-01  0.1328E+00
     10.870  0.1315E-01  0.1338E+00
     10.949  0.1614E-01  0.1351E+00
     11.028  0.9529E-02  0.1359E+00
     11.106  0.9301E-02  0.1366E+00
     11.185  0.8245E-02  0.1372E+00
     11.264  0.1241E-01  0.1382E+00
     11.343  0.1411E-01  0.1393E+00
     11.422  0.7842E-02  0.1399E+00
     11.500  0.1209E-01  0.1409E+00
     11.579  0.1300E-01  0.1419E+00
     11.658  0.1106E-01  0.1428E+00
     11.737  0.1026E-01  0.1436E+00
     11.815  0.8218E-02  0.1442E+00
     11.894  0.9685E-02  0.1450E+00
     11.973  0.7928E-02  0.1456E+00
     12.052  0.7161E-02  0.1462E+00
     12.131  0.8813E-02  0.1469E+00
     12.209  0.1085E-01  0.1477E+00
     12.288  0.1377E-01  0.1488E+00
     12.367  0.8799E-02  0.1495E+00
     12.446  0.7497E-02  0.1501E+00
     12.524  0.1061E-01  0.1510E+00
     12.603  0.5722E-02  0.1514E+00
     12.682  0.2951E-02  0.1516E+00
     12.761  0.4056E-02  0.1520E+00
     12.839  0.8046E-02  0.1526E+00
     12.918  0.8649E-02  0.1533E+00
     12.997  0.7734E-02  0.1539E+00
     13.076  0.7997E-02  0.1545E+00
     13.155  0.8244E-02  0.1552E+00
     13.233  0.4052E-02  0.1555E+00
     13.312  0.4717E-02  0.1559E+00
     13.391  0.3537E-02  0.1561E+00
     13.470  0.3632E-02  0.1564E+00
     13.548  0.5033E-02  0.1568E+00
     13.627  0.4641E-02  0.1572E+00
     13.706  0.1905E-02  0.1573E+00
     13.785  0.4365E-02  0.1577E+00
     13.864  0.9943E-02  0.1585E+00
     13.942  0.2297E-02  0.1586E+00
     14.021  0.1294E-02  0.1587E+00
     14.100  0.1639E-03  0.1587E+00
     14.179  0.2574E-04  0.1588E+00
     14.257  0.1305E-02  0.1589E+00
     14.336  0.2081E-02  0.1590E+00
     14.415  0.4934E-03  0.1591E+00
     14.494  0.7356E-03  0.1591E+00
     14.573  0.3599E-02  0.1594E+00
     14.651  0.3619E-02  0.1597E+00
     14.730  0.4791E-03  0.1597E+00
     14.809  0.4728E-05  0.1597E+00
     14.888  0.7382E-09  0.1597E+00
     14.966  0.4134E-06  0.1597E+00
     15.045  0.1796E-03  0.1597E+00
     15.124  0.1285E-02  0.1598E+00
     15.203  0.3387E-03  0.1599E+00
     15.282  0.7681E-03  0.1599E+00
     15.360  0.8828E-03  0.1600E+00
     15.439  0.7115E-04  0.1600E+00
     15.518  0.1176E-06  0.1600E+00
     15.597  0.1873E-11  0.1600E+00
     15.675  0.1957E-18  0.1600E+00
     15.754  0.0000E+00  0.1600E+00
     15.833  0.0000E+00  0.1600E+00
     15.912  0.0000E+00  0.1600E+00
     15.991  0.0000E+00  0.1600E+00
     16.069  0.0000E+00  0.1600E+00
     16.148  0.0000E+00  0.1600E+00
     16.227  0.0000E+00  0.1600E+00
     16.306  0.0000E+00  0.1600E+00
     16.384  0.0000E+00  0.1600E+00
