    2    2  100    1
  0.2016476E+02  0.3849278E-09  0.3849279E-09  0.3849278E-09  0.5000000E-15
  1.000000000000000E-004
  CAR 
 unknown system                          
      8    182      8
 
  0.4166667E-01  0.4166667E-01  0.4166667E-01  0.1157407E-02
    1       -6.174235   1.000000
    2        5.366114   1.000000
    3        5.585640   1.000000
    4        5.585643   1.000000
    5        8.223512   0.000000
    6        8.236884   0.000000
    7        8.236891   0.000000
    8        8.940920   0.000000
 
  0.1250000E+00  0.4166667E-01  0.4166667E-01  0.3472222E-02
    1       -6.055147   1.000000
    2        4.480583   1.000000
    3        5.173210   1.000000
    4        5.533513   1.000000
    5        8.280080   0.000000
    6        8.353077   0.000000
    7        8.538740   0.000000
    8        9.793188   0.000000
 
  0.2083333E+00  0.4166667E-01  0.4166667E-01  0.3472222E-02
    1       -5.761279   1.000000
    2        2.991171   1.000000
    3        4.809321   1.000000
    4        5.268675   1.000000
    5        8.001930   0.000000
    6        8.737641   0.000000
    7        9.031010   0.000000
    8       11.132914   0.000000
 
  0.2916667E+00  0.4166667E-01  0.4166667E-01  0.3472222E-02
    1       -5.305536   1.000000
    2        1.494970   1.000000
    3        4.517012   1.000000
    4        4.957072   1.000000
    5        7.690622   0.000000
    6        9.025249   0.000000
    7        9.275176   0.000000
    8       12.285370   0.000000
 
  0.3750000E+00  0.4166667E-01  0.4166667E-01  0.3472222E-02
    1       -4.723600   1.000000
    2        0.150435   1.000000
    3        4.326059   1.000000
    4        4.688075   1.000000
    5        7.444863   0.000000
    6        9.067523   0.000000
    7        9.201053   0.000000
    8       13.202458   0.000000
 
  0.4583333E+00  0.4166667E-01  0.4166667E-01  0.3472222E-02
    1       -4.132531   1.000000
    2       -0.885706   1.000000
    3        4.245379   1.000000
    4        4.496641   1.000000
    5        7.298646   0.000000
    6        9.032052   0.000000
    7        9.035242   0.000000
    8       13.440049   0.000000
 
 -0.4583333E+00  0.4166667E-01  0.4166667E-01  0.3472222E-02
    1       -3.906898   1.000000
    2       -1.223603   1.000000
    3        4.273162   1.000000
    4        4.398228   1.000000
    5        7.262891   0.000000
    6        8.935892   0.000000
    7        9.064468   0.000000
    8       13.410769   0.000000
 
 -0.3750000E+00  0.4166667E-01  0.4166667E-01  0.3472222E-02
    1       -4.315022   1.000000
    2       -0.591548   1.000000
    3        4.401978   1.000000
    4        4.402904   1.000000
    5        7.339236   0.000000
    6        8.940632   0.000000
    7        9.193831   0.000000
    8       13.332152   0.000000
 
 -0.2916667E+00  0.4166667E-01  0.4166667E-01  0.3472222E-02
    1       -4.927211   1.000000
    2        0.573991   1.000000
    3        4.513141   1.000000
    4        4.624694   1.000000
    5        7.522652   0.000000
    6        8.982919   0.000000
    7        9.348075   0.000000
    8       12.538040   0.000000
 
 -0.2083333E+00  0.4166667E-01  0.4166667E-01  0.3472222E-02
    1       -5.473890   1.000000
    2        1.982765   1.000000
    3        4.729824   1.000000
    4        4.919983   1.000000
    5        7.793869   0.000000
    6        8.875109   0.000000
    7        9.338235   0.000000
    8       11.734295   0.000000
 
 -0.1250000E+00  0.4166667E-01  0.4166667E-01  0.3472222E-02
    1       -5.878058   1.000000
    2        3.505117   1.000000
    3        5.033479   1.000000
    4        5.241023   1.000000
    5        8.086138   0.000000
    6        8.533383   0.000000
    7        9.007086   0.000000
    8       10.653040   0.000000
 
 -0.4166667E-01  0.4166667E-01  0.4166667E-01  0.3472222E-02
    1       -6.114562   1.000000
    2        4.944597   1.000000
    3        5.365498   1.000000
    4        5.464289   1.000000
    5        8.100222   0.000000
    6        8.418543   0.000000
    7        8.528816   0.000000
    8        9.344022   0.000000
 
  0.1250000E+00  0.1250000E+00  0.4166667E-01  0.3472222E-02
    1       -5.995462   1.000000
    2        4.393224   1.000000
    3        5.026147   1.000000
    4        5.124063   1.000000
    5        7.864591   0.000000
    6        8.839359   0.000000
    7        9.009795   0.000000
    8        9.854099   0.000000
 
  0.2083333E+00  0.1250000E+00  0.4166667E-01  0.6944444E-02
    1       -5.759378   1.000000
    2        3.362701   1.000000
    3        4.446168   1.000000
    4        4.981443   1.000000
    5        7.877082   0.000000
    6        9.004774   0.000000
    7        9.506164   0.000000
    8       10.492634   0.000000
 
  0.2916667E+00  0.1250000E+00  0.4166667E-01  0.6944444E-02
    1       -5.355982   1.000000
    2        1.960953   1.000000
    3        4.067454   1.000000
    4        4.694444   1.000000
    5        8.062760   0.000000
    6        8.965509   0.000000
    7        9.884407   0.000000
    8       10.729537   0.000000
 
  0.3750000E+00  0.1250000E+00  0.4166667E-01  0.6944444E-02
    1       -4.810021   1.000000
    2        0.600551   1.000000
    3        3.808542   1.000000
    4        4.396180   1.000000
    5        7.997966   0.000000
    6        8.983091   0.000000
    7        9.889668   0.000000
    8       11.322754   0.000000
 
  0.4583333E+00  0.1250000E+00  0.4166667E-01  0.6944444E-02
    1       -4.197448   1.000000
    2       -0.543731   1.000000
    3        3.629026   1.000000
    4        4.207290   1.000000
    5        7.881574   0.000000
    6        8.906282   0.000000
    7        9.721676   0.000000
    8       12.438113   0.000000
 
 -0.4583333E+00  0.1250000E+00  0.4166667E-01  0.6944444E-02
    1       -3.787582   1.000000
    2       -1.169570   1.000000
    3        3.506539   1.000000
    4        4.183328   1.000000
    5        7.841797   0.000000
    6        8.863476   0.000000
    7        9.585319   0.000000
    8       13.574124   0.000000
 
 -0.3750000E+00  0.1250000E+00  0.4166667E-01  0.6944444E-02
    1       -4.015715   1.000000
    2       -0.831878   1.000000
    3        3.459376   1.000000
    4        4.315946   1.000000
    5        7.901337   0.000000
    6        8.907783   0.000000
    7        9.563609   0.000000
    8       13.263922   0.000000
 
 -0.2916667E+00  0.1250000E+00  0.4166667E-01  0.6944444E-02
    1       -4.608036   1.000000
    2        0.189935   1.000000
    3        3.520831   1.000000
    4        4.567128   1.000000
    5        8.053480   0.000000
    6        8.988813   0.000000
    7        9.640307   0.000000
    8       12.106355   0.000000
 
 -0.2083333E+00  0.1250000E+00  0.4166667E-01  0.6944444E-02
    1       -5.189132   1.000000
    2        1.492777   1.000000
    3        3.718343   1.000000
    4        4.888977   1.000000
    5        8.267393   0.000000
    6        8.927477   0.000000
    7        9.659443   0.000000
    8       11.268239   0.000000
 
 -0.1250000E+00  0.1250000E+00  0.4166667E-01  0.6944444E-02
    1       -5.643668   1.000000
    2        2.867606   1.000000
    3        4.099095   1.000000
    4        5.201044   1.000000
    5        8.356007   0.000000
    6        8.715439   0.000000
    7        9.331982   0.000000
    8       10.908778   0.000000
 
 -0.4166667E-01  0.1250000E+00  0.4166667E-01  0.6944444E-02
    1       -5.936596   1.000000
    2        3.937233   1.000000
    3        4.830518   1.000000
    4        5.353496   1.000000
    5        8.143574   0.000000
    6        8.571391   0.000000
    7        8.930266   0.000000
    8       10.310767   0.000000
 
  0.2083333E+00  0.2083333E+00  0.4166667E-01  0.3472222E-02
    1       -5.581124   1.000000
    2        3.099276   1.000000
    3        4.281360   1.000000
    4        4.293546   1.000000
    5        7.276409   0.000000
    6        9.619965   0.000000
    7       10.215681   0.000000
    8       10.239583   0.000000
 
  0.2916667E+00  0.2083333E+00  0.4166667E-01  0.6944444E-02
    1       -5.232501   1.000000
    2        2.149513   1.000000
    3        3.705257   1.000000
    4        4.114437   1.000000
    5        7.310250   0.000000
    6        9.280505   0.000000
    7       10.412772   0.000000
    8       10.839571   0.000000
 
  0.3750000E+00  0.2083333E+00  0.4166667E-01  0.6944444E-02
    1       -4.730619   1.000000
    2        0.962775   1.000000
    3        3.254000   1.000000
    4        3.854751   1.000000
    5        7.567147   0.000000
    6        9.501486   0.000000
    7       10.211619   0.000000
    8       11.042841   0.000000
 
  0.4583333E+00  0.2083333E+00  0.4166667E-01  0.6944444E-02
    1       -4.124829   1.000000
    2       -0.171328   1.000000
    3        2.863928   1.000000
    4        3.719340   1.000000
    5        7.636905   0.000000
    6        9.944680   0.000000
    7       10.487894   0.000000
    8       10.918095   0.000000
 
 -0.4583333E+00  0.2083333E+00  0.4166667E-01  0.6944444E-02
    1       -3.592454   1.000000
    2       -0.979909   1.000000
    3        2.558077   1.000000
    4        3.754841   1.000000
    5        7.709817   0.000000
    6        9.727207   0.000000
    7       10.727600   0.000000
    8       11.900877   0.000000
 
 -0.3750000E+00  0.2083333E+00  0.4166667E-01  0.6944444E-02
    1       -3.603037   1.000000
    2       -0.961502   1.000000
    3        2.380234   1.000000
    4        3.941399   1.000000
    5        7.899165   0.000000
    6        9.589393   0.000000
    7       10.596254   0.000000
    8       13.227088   0.000000
 
 -0.2916667E+00  0.2083333E+00  0.4166667E-01  0.6944444E-02
    1       -4.141689   1.000000
    2       -0.140285   1.000000
    3        2.373649   1.000000
    4        4.246815   1.000000
    5        8.201852   0.000000
    6        9.509684   0.000000
    7       10.512896   0.000000
    8       11.882514   0.000000
 
 -0.2083333E+00  0.2083333E+00  0.4166667E-01  0.6944444E-02
    1       -4.744708   1.000000
    2        0.937854   1.000000
    3        2.622347   1.000000
    4        4.618791   1.000000
    5        8.546870   0.000000
    6        9.287019   0.000000
    7       10.335144   0.000000
    8       10.967821   0.000000
 
 -0.1250000E+00  0.2083333E+00  0.4166667E-01  0.6944444E-02
    1       -5.242410   1.000000
    2        1.855297   1.000000
    3        3.335267   1.000000
    4        4.954468   1.000000
    5        8.631306   0.000000
    6        8.855828   0.000000
    7        9.789933   0.000000
    8       10.894944   0.000000
 
 -0.4166667E-01  0.2083333E+00  0.4166667E-01  0.6944444E-02
    1       -5.586921   1.000000
    2        2.471223   1.000000
    3        4.452481   1.000000
    4        5.077781   1.000000
    5        8.103921   0.000000
    6        8.726977   0.000000
    7        9.390069   0.000000
    8       11.216811   0.000000
 
  0.2916667E+00  0.2916667E+00  0.4166667E-01  0.3472222E-02
    1       -4.938333   1.000000
    2        1.687771   1.000000
    3        3.583475   1.000000
    4        3.635891   1.000000
    5        6.746881   0.000000
    6        8.514916   0.000000
    7       11.551135   0.000000
    8       11.625402   0.000000
 
  0.3750000E+00  0.2916667E+00  0.4166667E-01  0.6944444E-02
    1       -4.484950   1.000000
    2        0.852994   1.000000
    3        3.098730   1.000000
    4        3.410617   1.000000
    5        6.861004   0.000000
    6        8.204803   0.000000
    7       11.693639   0.000000
    8       12.296967   0.000000
 
  0.4583333E+00  0.2916667E+00  0.4166667E-01  0.6944444E-02
    1       -3.904274   1.000000
    2       -0.070341   1.000000
    3        2.476093   1.000000
    4        3.283512   1.000000
    5        7.099160   0.000000
    6        8.728431   0.000000
    7       11.476179   0.000000
    8       12.382519   0.000000
 
 -0.4583333E+00  0.2916667E+00  0.4166667E-01  0.6944444E-02
    1       -3.307368   1.000000
    2       -0.877187   1.000000
    3        1.936749   1.000000
    4        3.322461   1.000000
    5        7.212744   0.000000
    6        9.968285   0.000000
    7       11.216776   0.000000
    8       12.216561   0.000000
 
 -0.3750000E+00  0.2916667E+00  0.4166667E-01  0.6944444E-02
    1       -3.108310   1.000000
    2       -1.112450   1.000000
    3        1.604086   1.000000
    4        3.513490   1.000000
    5        7.425692   0.000000
    6       10.886647   0.000000
    7       11.608488   0.000000
    8       12.053032   0.000000
 
 -0.2916667E+00  0.2916667E+00  0.4166667E-01  0.6944444E-02
    1       -3.564886   1.000000
    2       -0.551795   1.000000
    3        1.570886   1.000000
    4        3.831772   1.000000
    5        7.776479   0.000000
    6       10.650217   0.000000
    7       11.693727   0.000000
    8       11.922130   0.000000
 
 -0.2083333E+00  0.2916667E+00  0.4166667E-01  0.6944444E-02
    1       -4.172121   1.000000
    2        0.131963   1.000000
    3        2.016404   1.000000
    4        4.229406   1.000000
    5        8.203631   0.000000
    6        9.908399   0.000000
    7       10.975431   0.000000
    8       11.325094   0.000000
 
 -0.1250000E+00  0.2916667E+00  0.4166667E-01  0.6944444E-02
    1       -4.698500   1.000000
    2        0.613088   1.000000
    3        3.002309   1.000000
    4        4.603105   1.000000
    5        8.393098   0.000000
    6        9.108400   0.000000
    7        9.990877   0.000000
    8       11.451141   0.000000
 
 -0.4166667E-01  0.2916667E+00  0.4166667E-01  0.6944444E-02
    1       -5.083442   1.000000
    2        1.031825   1.000000
    3        4.187080   1.000000
    4        4.762405   1.000000
    5        7.850970   0.000000
    6        8.939642   0.000000
    7        9.509997   0.000000
    8       11.847050   0.000000
 
  0.3750000E+00  0.3750000E+00  0.4166667E-01  0.3472222E-02
    1       -4.079495   1.000000
    2        0.252497   1.000000
    3        3.077838   1.000000
    4        3.166294   1.000000
    5        6.406431   0.000000
    6        7.480449   0.000000
    7       13.053345   0.000000
    8       13.085174   0.000000
 
  0.4583333E+00  0.3750000E+00  0.4166667E-01  0.6944444E-02
    1       -3.534216   1.000000
    2       -0.485573   1.000000
    3        2.685356   1.000000
    4        2.969815   1.000000
    5        6.615293   0.000000
    6        7.383629   0.000000
    7       13.097433   0.000000
    8       13.825895   0.000000
 
 -0.4583333E+00  0.3750000E+00  0.4166667E-01  0.6944444E-02
    1       -2.915393   1.000000
    2       -1.180332   1.000000
    3        1.987644   1.000000
    4        2.985698   1.000000
    5        6.807856   0.000000
    6        8.285298   0.000000
    7       12.845277   0.000000
    8       13.841171   0.000000
 
 -0.3750000E+00  0.3750000E+00  0.4166667E-01  0.6944444E-02
    1       -2.578371   1.000000
    2       -1.501127   1.000000
    3        1.453249   1.000000
    4        3.157490   1.000000
    5        7.011259   0.000000
    6        9.757987   0.000000
    7       12.517983   0.000000
    8       13.348069   0.000000
 
 -0.2916667E+00  0.3750000E+00  0.4166667E-01  0.6944444E-02
    1       -2.996339   1.000000
    2       -1.102390   1.000000
    3        1.355339   1.000000
    4        3.465120   1.000000
    5        7.362507   0.000000
    6       11.285100   0.000000
    7       11.744384   0.000000
    8       12.489302   0.000000
 
 -0.2083333E+00  0.3750000E+00  0.4166667E-01  0.6944444E-02
    1       -3.573822   1.000000
    2       -0.734616   1.000000
    3        1.885630   1.000000
    4        3.868847   1.000000
    5        7.822519   0.000000
    6       10.142655   0.000000
    7       11.195535   0.000000
    8       12.498176   0.000000
 
 -0.1250000E+00  0.3750000E+00  0.4166667E-01  0.6944444E-02
    1       -4.085883   1.000000
    2       -0.498577   1.000000
    3        2.896728   1.000000
    4        4.277963   1.000000
    5        8.139766   0.000000
    6        9.108305   0.000000
    7       10.002293   0.000000
    8       12.585189   0.000000
 
 -0.4166667E-01  0.3750000E+00  0.4166667E-01  0.6944444E-02
    1       -4.477665   1.000000
    2       -0.225044   1.000000
    3        4.030581   1.000000
    4        4.503295   1.000000
    5        7.646172   0.000000
    6        8.937955   0.000000
    7        9.378412   0.000000
    8       12.812389   0.000000
 
  0.4583333E+00  0.4583333E+00  0.4166667E-01  0.3472222E-02
    1       -3.024216   1.000000
    2       -1.139825   1.000000
    3        2.793683   1.000000
    4        2.899442   1.000000
    5        6.316414   0.000000
    6        6.775757   0.000000
    7       14.584685   0.000000
    8       14.599993   0.000000
 
 -0.4583333E+00  0.4583333E+00  0.4166667E-01  0.6944444E-02
    1       -2.409255   1.000000
    2       -1.788597   1.000000
    3        2.502320   1.000000
    4        2.785180   1.000000
    5        6.575323   0.000000
    6        6.957002   0.000000
    7       14.550316   0.000000
    8       15.090118   0.000000
 
 -0.3750000E+00  0.4583333E+00  0.4166667E-01  0.6944444E-02
    1       -2.403505   1.000000
    2       -1.719503   1.000000
    3        1.888570   1.000000
    4        2.927145   1.000000
    5        6.747045   0.000000
    6        8.198051   0.000000
    7       13.537326   0.000000
    8       14.258115   0.000000
 
 -0.2916667E+00  0.4583333E+00  0.4166667E-01  0.6944444E-02
    1       -2.896495   1.000000
    2       -1.222161   1.000000
    3        1.620193   1.000000
    4        3.212310   1.000000
    5        7.079344   0.000000
    6        9.827951   0.000000
    7       11.875142   0.000000
    8       12.919687   0.000000
 
 -0.2083333E+00  0.4583333E+00  0.4166667E-01  0.6944444E-02
    1       -3.317640   1.000000
    2       -1.083040   1.000000
    3        2.031508   1.000000
    4        3.609978   1.000000
    5        7.546667   0.000000
    6       10.304393   0.000000
    7       11.338619   0.000000
    8       11.747841   0.000000
 
 -0.1250000E+00  0.4583333E+00  0.4166667E-01  0.6944444E-02
    1       -3.670333   1.000000
    2       -1.124131   1.000000
    3        2.946540   1.000000
    4        4.046706   1.000000
    5        7.952507   0.000000
    6        9.113946   0.000000
    7       10.043800   0.000000
    8       13.573261   0.000000
 
 -0.4166667E-01  0.4583333E+00  0.4166667E-01  0.6944444E-02
    1       -3.948773   1.000000
    2       -1.085641   1.000000
    3        3.966696   1.000000
    4        4.353432   1.000000
    5        7.537867   0.000000
    6        8.892938   0.000000
    7        9.245476   0.000000
    8       13.504630   0.000000
 
 -0.4583333E+00 -0.4583333E+00  0.4166667E-01  0.3472222E-02
    1       -2.431696   1.000000
    2       -1.801289   1.000000
    3        2.736624   1.000000
    4        2.845639   1.000000
    5        6.367092   0.000000
    6        6.564700   0.000000
    7       15.262113   0.000000
    8       15.310201   0.000000
 
 -0.3750000E+00 -0.4583333E+00  0.4166667E-01  0.6944444E-02
    1       -2.990919   1.000000
    2       -1.146760   1.000000
    3        2.563659   1.000000
    4        2.846426   1.000000
    5        6.575547   0.000000
    6        7.112556   0.000000
    7       13.824634   0.000000
    8       14.587506   0.000000
 
 -0.2916667E+00 -0.4583333E+00  0.4166667E-01  0.6944444E-02
    1       -3.426156   1.000000
    2       -0.618640   1.000000
    3        2.185221   1.000000
    4        3.103670   1.000000
    5        6.926997   0.000000
    6        8.461593   0.000000
    7       12.150895   0.000000
    8       13.108428   0.000000
 
 -0.2083333E+00 -0.4583333E+00  0.4166667E-01  0.6944444E-02
    1       -3.726440   1.000000
    2       -0.526927   1.000000
    3        2.367874   1.000000
    4        3.489753   1.000000
    5        7.403911   0.000000
    6       10.173542   0.000000
    7       10.587208   0.000000
    8       11.536901   0.000000
 
 -0.1250000E+00 -0.4583333E+00  0.4166667E-01  0.6944444E-02
    1       -3.895700   1.000000
    2       -0.797987   1.000000
    3        3.114964   1.000000
    4        3.951110   1.000000
    5        7.868390   0.000000
    6        9.213768   0.000000
    7       10.176448   0.000000
    8       12.135245   0.000000
 
 -0.3750000E+00 -0.3750000E+00  0.4166667E-01  0.3472222E-02
    1       -3.574854   1.000000
    2       -0.452809   1.000000
    3        2.907583   1.000000
    4        3.006634   1.000000
    5        6.327847   0.000000
    6        7.084098   0.000000
    7       13.825561   0.000000
    8       13.834214   0.000000
 
 -0.2916667E+00 -0.3750000E+00  0.4166667E-01  0.6944444E-02
    1       -4.033520   1.000000
    2        0.184421   1.000000
    3        2.865023   1.000000
    4        3.157131   1.000000
    5        6.710099   0.000000
    6        7.750580   0.000000
    7       12.386520   0.000000
    8       13.055610   0.000000
 
 -0.2083333E+00 -0.3750000E+00  0.4166667E-01  0.6944444E-02
    1       -4.340849   1.000000
    2        0.455887   1.000000
    3        2.843511   1.000000
    4        3.530801   1.000000
    5        7.316470   0.000000
    6        9.084410   0.000000
    7       10.821607   0.000000
    8       11.689945   0.000000
 
 -0.1250000E+00 -0.3750000E+00  0.4166667E-01  0.6944444E-02
    1       -4.488738   1.000000
    2        0.201225   1.000000
    3        3.363680   1.000000
    4        4.022175   1.000000
    5        7.873423   0.000000
    6        9.383991   0.000000
    7       10.352050   0.000000
    8       10.872209   0.000000
 
 -0.2916667E+00 -0.2916667E+00  0.4166667E-01  0.3472222E-02
    1       -4.534907   1.000000
    2        0.968693   1.000000
    3        3.303570   1.000000
    4        3.376885   1.000000
    5        6.548149   0.000000
    6        7.960766   0.000000
    7       12.292988   0.000000
    8       12.347933   0.000000
 
 -0.2083333E+00 -0.2916667E+00  0.4166667E-01  0.6944444E-02
    1       -4.885414   1.000000
    2        1.510468   1.000000
    3        3.380956   1.000000
    4        3.731299   1.000000
    5        7.063765   0.000000
    6        8.732239   0.000000
    7       11.024263   0.000000
    8       11.556837   0.000000
 
 -0.1250000E+00 -0.2916667E+00  0.4166667E-01  0.6944444E-02
    1       -5.069874   1.000000
    2        1.460631   1.000000
    3        3.667974   1.000000
    4        4.255772   1.000000
    5        7.831801   0.000000
    6        9.457982   0.000000
    7       10.163653   0.000000
    8       10.453304   0.000000
 
 -0.2083333E+00 -0.2083333E+00  0.4166667E-01  0.3472222E-02
    1       -5.287657   1.000000
    2        2.401268   1.000000
    3        3.915076   1.000000
    4        3.939486   1.000000
    5        6.993769   0.000000
    6        9.111368   0.000000
    7       10.837459   0.000000
    8       10.920479   0.000000
 
 -0.1250000E+00 -0.2083333E+00  0.4166667E-01  0.6944444E-02
    1       -5.524317   1.000000
    2        2.766768   1.000000
    3        4.064058   1.000000
    4        4.543543   1.000000
    5        7.587952   0.000000
    6        9.458198   0.000000
    7       10.150521   0.000000
    8       10.206761   0.000000
 
 -0.1250000E+00 -0.1250000E+00  0.4166667E-01  0.3472222E-02
    1       -5.817405   1.000000
    2        3.769098   1.000000
    3        4.650530   1.000000
    4        4.707079   1.000000
    5        7.576123   0.000000
    6        9.381080   0.000000
    7        9.594917   0.000000
    8       10.122272   0.000000
 
  0.1250000E+00  0.1250000E+00  0.1250000E+00  0.1157407E-02
    1       -5.996032   1.000000
    2        4.032524   1.000000
    3        5.340938   1.000000
    4        5.340941   1.000000
    5        8.069446   0.000000
    6        8.597696   0.000000
    7        8.597703   0.000000
    8       10.162028   0.000000
 
  0.2083333E+00  0.1250000E+00  0.1250000E+00  0.3472222E-02
    1       -5.819137   1.000000
    2        3.409358   1.000000
    3        4.485040   1.000000
    4        5.412120   1.000000
    5        8.413582   0.000000
    6        8.585880   0.000000
    7        8.855505   0.000000
    8       10.804036   0.000000
 
  0.2916667E+00  0.1250000E+00  0.1250000E+00  0.3472222E-02
    1       -5.470986   1.000000
    2        2.359250   1.000000
    3        3.713427   1.000000
    4        5.200675   1.000000
    5        8.540924   0.000000
    6        8.935980   0.000000
    7        9.216545   0.000000
    8       11.232938   0.000000
 
  0.3750000E+00  0.1250000E+00  0.1250000E+00  0.3472222E-02
    1       -4.969157   1.000000
    2        1.040351   1.000000
    3        3.355440   1.000000
    4        4.861466   1.000000
    5        8.282240   0.000000
    6        9.287314   0.000000
    7        9.461516   0.000000
    8       11.839307   0.000000
 
  0.4583333E+00  0.1250000E+00  0.1250000E+00  0.3472222E-02
    1       -4.364053   1.000000
    2       -0.179628   1.000000
    3        3.212209   1.000000
    4        4.525012   1.000000
    5        8.036665   0.000000
    6        9.322688   0.000000
    7        9.441610   0.000000
    8       12.911800   0.000000
 
 -0.4583333E+00  0.1250000E+00  0.1250000E+00  0.3472222E-02
    1       -3.832190   1.000000
    2       -1.032478   1.000000
    3        3.226441   1.000000
    4        4.256866   1.000000
    5        7.862882   0.000000
    6        9.164784   0.000000
    7        9.547036   0.000000
    8       13.803224   0.000000
 
 -0.3750000E+00  0.1250000E+00  0.1250000E+00  0.3472222E-02
    1       -3.829205   1.000000
    2       -1.037988   1.000000
    3        3.376611   1.000000
    4        4.090409   1.000000
    5        7.788984   0.000000
    6        9.114948   0.000000
    7        9.719762   0.000000
    8       12.932971   0.000000
 
 -0.2916667E+00  0.1250000E+00  0.1250000E+00  0.3472222E-02
    1       -4.359168   1.000000
    2       -0.190569   1.000000
    3        3.643907   1.000000
    4        4.043794   1.000000
    5        7.817332   0.000000
    6        9.173060   0.000000
    7        9.956153   0.000000
    8       11.619264   0.000000
 
 -0.2083333E+00  0.1250000E+00  0.1250000E+00  0.3472222E-02
    1       -4.965013   1.000000
    2        1.036077   1.000000
    3        4.002117   1.000000
    4        4.125395   1.000000
    5        7.878782   0.000000
    6        9.248667   0.000000
    7       10.143270   0.000000
    8       10.655160   0.000000
 
 -0.1250000E+00  0.1250000E+00  0.1250000E+00  0.3472222E-02
    1       -5.468044   1.000000
    2        2.416906   1.000000
    3        4.333521   1.000000
    4        4.397653   1.000000
    5        7.769901   0.000000
    6        9.252128   0.000000
    7       10.054085   0.000000
    8       10.365557   0.000000
 
  0.2083333E+00  0.2083333E+00  0.1250000E+00  0.3472222E-02
    1       -5.701758   1.000000
    2        2.962898   1.000000
    3        4.683675   1.000000
    4        4.879797   1.000000
    5        8.018209   0.000000
    6        8.752499   0.000000
    7        9.506799   0.000000
    8       10.774919   0.000000
 
  0.2916667E+00  0.2083333E+00  0.1250000E+00  0.6944444E-02
    1       -5.411121   1.000000
    2        2.322969   1.000000
    3        3.718122   1.000000
    4        4.810374   1.000000
    5        8.107705   0.000000
    6        9.090658   0.000000
    7        9.991724   0.000000
    8       10.454777   0.000000
 
  0.3750000E+00  0.2083333E+00  0.1250000E+00  0.6944444E-02
    1       -4.959529   1.000000
    2        1.358855   1.000000
    3        2.987641   1.000000
    4        4.541119   1.000000
    5        8.505621   0.000000
    6        9.055269   0.000000
    7       10.299368   0.000000
    8       10.556965   0.000000
 
  0.4583333E+00  0.2083333E+00  0.1250000E+00  0.6944444E-02
    1       -4.380662   1.000000
    2        0.212262   1.000000
    3        2.670720   1.000000
    4        4.193990   1.000000
    5        8.579846   0.000000
    6        8.927805   0.000000
    7       10.657551   0.000000
    8       11.051596   0.000000
 
 -0.4583333E+00  0.2083333E+00  0.1250000E+00  0.6944444E-02
    1       -3.785705   1.000000
    2       -0.759892   1.000000
    3        2.576356   1.000000
    4        3.913037   1.000000
    5        8.395053   0.000000
    6        8.874722   0.000000
    7       10.711064   0.000000
    8       12.270365   0.000000
 
 -0.3750000E+00  0.2083333E+00  0.1250000E+00  0.6944444E-02
    1       -3.551550   1.000000
    2       -1.094568   1.000000
    3        2.616952   1.000000
    4        3.775719   1.000000
    5        8.210340   0.000000
    6        8.972313   0.000000
    7       10.737611   0.000000
    8       12.817249   0.000000
 
 -0.2916667E+00  0.2083333E+00  0.1250000E+00  0.6944444E-02
    1       -3.965401   1.000000
    2       -0.488318   1.000000
    3        2.750090   1.000000
    4        3.823469   1.000000
    5        8.116250   0.000000
    6        9.193533   0.000000
    7       10.809743   0.000000
    8       11.355966   0.000000
 
 -0.2083333E+00  0.2083333E+00  0.1250000E+00  0.6944444E-02
    1       -4.578611   1.000000
    2        0.587301   1.000000
    3        2.976328   1.000000
    4        4.045200   1.000000
    5        8.065904   0.000000
    6        9.465091   0.000000
    7       10.190006   0.000000
    8       10.910605   0.000000
 
 -0.1250000E+00  0.2083333E+00  0.1250000E+00  0.6944444E-02
    1       -5.122741   1.000000
    2        1.774590   1.000000
    3        3.364459   1.000000
    4        4.350199   1.000000
    5        7.845445   0.000000
    6        9.456876   0.000000
    7        9.986586   0.000000
    8       10.711939   0.000000
 