 vasp.6.2.0 18Jan21 (build Aug 12 2022 13:00:08) complex                        
  
 executed on             LinuxIFC date 2024.11.03  21:55:24
 running on    4 total cores
 distrk:  each k-point on    4 cores,    1 groups
 distr:  one band on NCORE=   1 cores,    4 groups


--------------------------------------------------------------------------------------------------------


 INCAR:
   ISTART = 0            (Read existing wavefunction, if there)
   ISPIN = 1            (Non-Spin polarised DFT)
   LREAL = .FALSE.       (Projection operators: automatic)
   LWAVE = .FALSE.        (Write WAVECAR or not)
   LCHARG = .FALSE.        (Write CHGCAR or not)
   ADDGRID = .TRUE.        (Increase grid, helps GGA convergence)
   LASPH = .TRUE.        (Give more accurate total energies and band structure calculations)
   PREC = Accurate      (Accurate strictly avoids any aliasing or wrap around errors)
   ENCUT = 350          (Cut-off energy for plane wave basis set, in eV)
   ISMEAR = 0            (Gaussian smearing, metals:1)
   SIGMA = 0.05         (Smearing value in eV, metals:0.2)
   NELM = 90           (Max electronic SCF steps)
   NELMIN = 6            (Min electronic SCF steps)
   EDIFF = 1E-06        (SCF energy convergence, in eV)
   NSW = 100          (Max ionic steps)
   IBRION = 2            (Algorithm: 0-MD, 1-Quasi-New, 2-CG)
   ISIF = 3            (Stress/relaxation: 2-Ions, 3-Shape/Ions/V, 4-Shape/Ions)
   EDIFFG = -2E-03        (Ionic convergence, eV/AA)
   ISYM = 2              (Symmetry: 0\=none, 2\=GGA, 3\=hybrids)

 POTCAR:    PAW_PBE Si 05Jan2001                  
 POTCAR:    PAW_PBE Si 05Jan2001                  
   VRHFIN =Si: s2p2                                                                                 
   LEXCH  = PE                                                                                      
   EATOM  =   103.0669 eV,    7.5752 Ry                                                             
                                                                                                    
   TITEL  = PAW_PBE Si 05Jan2001                                                                    
   LULTRA =        F    use ultrasoft PP ?                                                          
   IUNSCR =        1    unscreen: 0-lin 1-nonlin 2-no                                               
   RPACOR =    1.500    partial core radius                                                         
   POMASS =   28.085; ZVAL   =    4.000    mass and valenz                                          
   RCORE  =    1.900    outmost cutoff radius                                                       
   RWIGS  =    2.480; RWIGS  =    1.312    wigner-seitz radius (au A)                               
   ENMAX  =  245.345; ENMIN  =  184.009 eV                                                          
   ICORE  =        2    local potential                                                             
   LCOR   =        T    correct aug charges                                                         
   LPAW   =        T    paw PP                                                                      
   EAUG   =  322.069                                                                                
   DEXC   =    0.000                                                                                
   RMAX   =    1.950    core radius for proj-oper                                                   
   RAUG   =    1.300    factor for augmentation sphere                                              
   RDEP   =    1.993    radius for radial grids                                                     
   RDEPT  =    1.837    core radius for aug-charge                                                  
                                                                                                    
   Atomic configuration                                                                             
    6 entries                                                                                       
     n  l   j            E        occ.                                                              
     1  0  0.50     -1785.8828   2.0000                                                             
     2  0  0.50      -139.4969   2.0000                                                             
     2  1  1.50       -95.5546   6.0000                                                             
     3  0  0.50       -10.8127   2.0000                                                             
     3  1  0.50        -4.0811   2.0000                                                             
     3  2  1.50        -4.0817   0.0000                                                             
   Description                                                                                      
     l       E           TYP  RCUT    TYP  RCUT                                                     
     0    -10.8127223     23  1.900                                                                 
     0     -7.6451159     23  1.900                                                                 
     1     -4.0811372     23  1.900                                                                 
     1      2.4879257     23  1.900                                                                 
     2     -4.0817478      7  1.900                                                                 
  local pseudopotential read in
  partial core-charges read in
  partial kinetic energy density read in
  atomic valenz-charges read in
  non local Contribution for L=           0  read in
    real space projection operators read in
  non local Contribution for L=           0  read in
    real space projection operators read in
  non local Contribution for L=           1  read in
    real space projection operators read in
  non local Contribution for L=           1  read in
    real space projection operators read in
    PAW grid and wavefunctions read in
 
   number of l-projection  operators is LMAX  =           4
   number of lm-projection operators is LMMAX =           8
 
  PAW_PBE Si 05Jan2001                  :
 energy of atom  1       EATOM= -103.0669
 kinetic energy error for atom=    0.0013 (will be added to EATOM!!)
 
 
 POSCAR: Si2
  positions in direct lattice
  No initial velocities read in
 exchange correlation table for  LEXCH =        8
   RHO(1)=    0.500       N(1)  =     2000
   RHO(2)=  100.500       N(2)  =     4000
 


--------------------------------------------------------------------------------------------------------


 ion  position               nearest neighbor table
   1  0.875  0.875  0.875-   2 2.36   2 2.36   2 2.36   2 2.36
   2  0.125  0.125  0.125-   1 2.36   1 2.36   1 2.36   1 2.36
 
  LATTYP: Found a face centered cubic cell.
 ALAT       =     5.4437031493
  
  Lattice vectors:
  
 A1 = (   3.3335730000,   0.0000000000,   1.9246390000)
 A2 = (   1.1111910000,   3.1429240000,   1.9246390000)
 A3 = (   0.0000000000,   0.0000000000,   3.8492780000)


Analysis of symmetry for initial positions (statically):
=====================================================================
 Subroutine PRICEL returns:
 Original cell was already a primitive cell.
 

 Routine SETGRP: Setting up the symmetry group for a 
 face centered cubic supercell.


 Subroutine GETGRP returns: Found 48 space group operations
 (whereof 12 operations were pure point group operations)
 out of a pool of 48 trial point group operations.


The static configuration has the point symmetry D_3d.
 The point group associated with its full space group is O_h .


Analysis of symmetry for dynamics (positions and initial velocities):
=====================================================================
 Subroutine PRICEL returns:
 Original cell was already a primitive cell.
 

 Routine SETGRP: Setting up the symmetry group for a 
 face centered cubic supercell.


 Subroutine GETGRP returns: Found 48 space group operations
 (whereof 12 operations were pure point group operations)
 out of a pool of 48 trial point group operations.


The dynamic configuration has the point symmetry D_3d.
 The point group associated with its full space group is O_h .


 Subroutine INISYM returns: Found 48 space group operations
 (whereof 12 operations are pure point group operations),
 and found     1 'primitive' translations


----------------------------------------------------------------------------------------

                                     Primitive cell                                     

  volume of cell :      40.3295

  direct lattice vectors                    reciprocal lattice vectors
     3.333573000  0.000000000  1.924639000     0.299978432 -0.106058350  0.000000000
     1.111191000  3.142924000  1.924639000     0.000000000  0.318175050  0.000000000
     0.000000000  0.000000000  3.849278000    -0.149989216 -0.106058350  0.259788979

  length of vectors
     3.849278403  3.849279412  3.849278000     0.318175161  0.318175050  0.318175190

  position of ions in fractional coordinates (direct lattice)
     0.875000000  0.875000000  0.875000000
     0.125000000  0.125000000  0.125000000

  ion indices of the primitive-cell ions
   primitive index   ion index
                 1           1
                 2           2

----------------------------------------------------------------------------------------

 
 
 KPOINTS: Automatic                               

Automatic generation of k-mesh.
 Grid dimensions read from file:
 generate k-points for:   12   12   12

 Generating k-lattice:

  Cartesian coordinates                     Fractional coordinates (reciprocal lattice)
     0.024998203 -0.008838196  0.000000000     0.083333333 -0.000000000  0.000000000
     0.000000000  0.026514587  0.000000000     0.000000000  0.083333333  0.000000000
    -0.012499101 -0.008838196  0.021649082     0.000000000  0.000000000  0.083333333

  Length of vectors
     0.026514597  0.026514587  0.026514599

  Shift w.r.t. Gamma in fractional coordinates (k-lattice)
     0.500000000  0.500000000  0.500000000

 
 Subroutine IBZKPT returns following result:
 ===========================================
 
 Found    182 irreducible k-points:
 
 Following reciprocal coordinates:
            Coordinates               Weight
  0.041667  0.041667  0.041667      8.000000
  0.125000  0.041667  0.041667     24.000000
  0.208333  0.041667  0.041667     24.000000
  0.291667  0.041667  0.041667     24.000000
  0.375000  0.041667  0.041667     24.000000
  0.458333  0.041667  0.041667     24.000000
 -0.458333  0.041667  0.041667     24.000000
 -0.375000  0.041667  0.041667     24.000000
 -0.291667  0.041667  0.041667     24.000000
 -0.208333  0.041667  0.041667     24.000000
 -0.125000  0.041667  0.041667     24.000000
 -0.041667  0.041667  0.041667     24.000000
  0.125000  0.125000  0.041667     24.000000
  0.208333  0.125000  0.041667     48.000000
  0.291667  0.125000  0.041667     48.000000
  0.375000  0.125000  0.041667     48.000000
  0.458333  0.125000  0.041667     48.000000
 -0.458333  0.125000  0.041667     48.000000
 -0.375000  0.125000  0.041667     48.000000
 -0.291667  0.125000  0.041667     48.000000
 -0.208333  0.125000  0.041667     48.000000
 -0.125000  0.125000  0.041667     48.000000
 -0.041667  0.125000  0.041667     48.000000
  0.208333  0.208333  0.041667     24.000000
  0.291667  0.208333  0.041667     48.000000
  0.375000  0.208333  0.041667     48.000000
  0.458333  0.208333  0.041667     48.000000
 -0.458333  0.208333  0.041667     48.000000
 -0.375000  0.208333  0.041667     48.000000
 -0.291667  0.208333  0.041667     48.000000
 -0.208333  0.208333  0.041667     48.000000
 -0.125000  0.208333  0.041667     48.000000
 -0.041667  0.208333  0.041667     48.000000
  0.291667  0.291667  0.041667     24.000000
  0.375000  0.291667  0.041667     48.000000
  0.458333  0.291667  0.041667     48.000000
 -0.458333  0.291667  0.041667     48.000000
 -0.375000  0.291667  0.041667     48.000000
 -0.291667  0.291667  0.041667     48.000000
 -0.208333  0.291667  0.041667     48.000000
 -0.125000  0.291667  0.041667     48.000000
 -0.041667  0.291667  0.041667     48.000000
  0.375000  0.375000  0.041667     24.000000
  0.458333  0.375000  0.041667     48.000000
 -0.458333  0.375000  0.041667     48.000000
 -0.375000  0.375000  0.041667     48.000000
 -0.291667  0.375000  0.041667     48.000000
 -0.208333  0.375000  0.041667     48.000000
 -0.125000  0.375000  0.041667     48.000000
 -0.041667  0.375000  0.041667     48.000000
  0.458333  0.458333  0.041667     24.000000
 -0.458333  0.458333  0.041667     48.000000
 -0.375000  0.458333  0.041667     48.000000
 -0.291667  0.458333  0.041667     48.000000
 -0.208333  0.458333  0.041667     48.000000
 -0.125000  0.458333  0.041667     48.000000
 -0.041667  0.458333  0.041667     48.000000
 -0.458333 -0.458333  0.041667     24.000000
 -0.375000 -0.458333  0.041667     48.000000
 -0.291667 -0.458333  0.041667     48.000000
 -0.208333 -0.458333  0.041667     48.000000
 -0.125000 -0.458333  0.041667     48.000000
 -0.375000 -0.375000  0.041667     24.000000
 -0.291667 -0.375000  0.041667     48.000000
 -0.208333 -0.375000  0.041667     48.000000
 -0.125000 -0.375000  0.041667     48.000000
 -0.291667 -0.291667  0.041667     24.000000
 -0.208333 -0.291667  0.041667     48.000000
 -0.125000 -0.291667  0.041667     48.000000
 -0.208333 -0.208333  0.041667     24.000000
 -0.125000 -0.208333  0.041667     48.000000
 -0.125000 -0.125000  0.041667     24.000000
  0.125000  0.125000  0.125000      8.000000
  0.208333  0.125000  0.125000     24.000000
  0.291667  0.125000  0.125000     24.000000
  0.375000  0.125000  0.125000     24.000000
  0.458333  0.125000  0.125000     24.000000
 -0.458333  0.125000  0.125000     24.000000
 -0.375000  0.125000  0.125000     24.000000
 -0.291667  0.125000  0.125000     24.000000
 -0.208333  0.125000  0.125000     24.000000
 -0.125000  0.125000  0.125000     24.000000
  0.208333  0.208333  0.125000     24.000000
  0.291667  0.208333  0.125000     48.000000
  0.375000  0.208333  0.125000     48.000000
  0.458333  0.208333  0.125000     48.000000
 -0.458333  0.208333  0.125000     48.000000
 -0.375000  0.208333  0.125000     48.000000
 -0.291667  0.208333  0.125000     48.000000
 -0.208333  0.208333  0.125000     48.000000
 -0.125000  0.208333  0.125000     48.000000
  0.291667  0.291667  0.125000     24.000000
  0.375000  0.291667  0.125000     48.000000
  0.458333  0.291667  0.125000     48.000000
 -0.458333  0.291667  0.125000     48.000000
 -0.375000  0.291667  0.125000     48.000000
 -0.291667  0.291667  0.125000     48.000000
 -0.208333  0.291667  0.125000     48.000000
 -0.125000  0.291667  0.125000     48.000000
  0.375000  0.375000  0.125000     24.000000
  0.458333  0.375000  0.125000     48.000000
 -0.458333  0.375000  0.125000     48.000000
 -0.375000  0.375000  0.125000     48.000000
 -0.291667  0.375000  0.125000     48.000000
 -0.208333  0.375000  0.125000     48.000000
 -0.125000  0.375000  0.125000     48.000000
  0.458333  0.458333  0.125000     24.000000
 -0.458333  0.458333  0.125000     48.000000
 -0.375000  0.458333  0.125000     48.000000
 -0.291667  0.458333  0.125000     48.000000
 -0.208333  0.458333  0.125000     48.000000
 -0.125000  0.458333  0.125000     48.000000
 -0.458333 -0.458333  0.125000     24.000000
 -0.375000 -0.458333  0.125000     48.000000
 -0.291667 -0.458333  0.125000     48.000000
 -0.208333 -0.458333  0.125000     48.000000
 -0.375000 -0.375000  0.125000     24.000000
 -0.291667 -0.375000  0.125000     48.000000
 -0.208333 -0.375000  0.125000     48.000000
 -0.291667 -0.291667  0.125000     24.000000
 -0.208333 -0.291667  0.125000     48.000000
 -0.208333 -0.208333  0.125000     24.000000
  0.208333  0.208333  0.208333      8.000000
  0.291667  0.208333  0.208333     24.000000
  0.375000  0.208333  0.208333     24.000000
  0.458333  0.208333  0.208333     24.000000
 -0.458333  0.208333  0.208333     24.000000
 -0.375000  0.208333  0.208333     24.000000
 -0.291667  0.208333  0.208333     24.000000
 -0.208333  0.208333  0.208333     24.000000
  0.291667  0.291667  0.208333     24.000000
  0.375000  0.291667  0.208333     48.000000
  0.458333  0.291667  0.208333     48.000000
 -0.458333  0.291667  0.208333     48.000000
 -0.375000  0.291667  0.208333     48.000000
 -0.291667  0.291667  0.208333     48.000000
 -0.208333  0.291667  0.208333     48.000000
  0.375000  0.375000  0.208333     24.000000
  0.458333  0.375000  0.208333     48.000000
 -0.458333  0.375000  0.208333     48.000000
 -0.375000  0.375000  0.208333     48.000000
 -0.291667  0.375000  0.208333     48.000000
 -0.208333  0.375000  0.208333     48.000000
  0.458333  0.458333  0.208333     24.000000
 -0.458333  0.458333  0.208333     48.000000
 -0.375000  0.458333  0.208333     48.000000
 -0.291667  0.458333  0.208333     48.000000
 -0.208333  0.458333  0.208333     48.000000
 -0.458333 -0.458333  0.208333     24.000000
 -0.375000 -0.458333  0.208333     48.000000
 -0.291667 -0.458333  0.208333     48.000000
 -0.375000 -0.375000  0.208333     24.000000
 -0.291667 -0.375000  0.208333     48.000000
 -0.291667 -0.291667  0.208333     24.000000
  0.291667  0.291667  0.291667      8.000000
  0.375000  0.291667  0.291667     24.000000
  0.458333  0.291667  0.291667     24.000000
 -0.458333  0.291667  0.291667     24.000000
 -0.375000  0.291667  0.291667     24.000000
 -0.291667  0.291667  0.291667     24.000000
  0.375000  0.375000  0.291667     24.000000
  0.458333  0.375000  0.291667     48.000000
 -0.458333  0.375000  0.291667     48.000000
 -0.375000  0.375000  0.291667     48.000000
 -0.291667  0.375000  0.291667     48.000000
  0.458333  0.458333  0.291667     24.000000
 -0.458333  0.458333  0.291667     48.000000
 -0.375000  0.458333  0.291667     48.000000
 -0.291667  0.458333  0.291667     48.000000
 -0.458333 -0.458333  0.291667     24.000000
 -0.375000 -0.458333  0.291667     48.000000
 -0.375000 -0.375000  0.291667     24.000000
  0.375000  0.375000  0.375000      8.000000
  0.458333  0.375000  0.375000     24.000000
 -0.458333  0.375000  0.375000     24.000000
 -0.375000  0.375000  0.375000     24.000000
  0.458333  0.458333  0.375000     24.000000
 -0.458333  0.458333  0.375000     48.000000
 -0.375000  0.458333  0.375000     48.000000
 -0.458333 -0.458333  0.375000     24.000000
  0.458333  0.458333  0.458333      8.000000
 -0.458333  0.458333  0.458333     24.000000
 
 Following cartesian coordinates:
            Coordinates               Weight
  0.006250  0.004419  0.010825      8.000000
  0.031248 -0.004419  0.010825     24.000000
  0.056246 -0.013257  0.010825     24.000000
  0.081244 -0.022095  0.010825     24.000000
  0.106242 -0.030934  0.010825     24.000000
  0.131241 -0.039772  0.010825     24.000000
 -0.143740  0.057448  0.010825     24.000000
 -0.118741  0.048610  0.010825     24.000000
 -0.093743  0.039772  0.010825     24.000000
 -0.068745  0.030934  0.010825     24.000000
 -0.043747  0.022095  0.010825     24.000000
 -0.018749  0.013257  0.010825     24.000000
  0.031248  0.022095  0.010825     24.000000
  0.056246  0.013257  0.010825     48.000000
  0.081244  0.004419  0.010825     48.000000
  0.106242 -0.004419  0.010825     48.000000
  0.131241 -0.013257  0.010825     48.000000
 -0.143740  0.083963  0.010825     48.000000
 -0.118741  0.075125  0.010825     48.000000
 -0.093743  0.066286  0.010825     48.000000
 -0.068745  0.057448  0.010825     48.000000
 -0.043747  0.048610  0.010825     48.000000
 -0.018749  0.039772  0.010825     48.000000
  0.056246  0.039772  0.010825     24.000000
  0.081244  0.030934  0.010825     48.000000
  0.106242  0.022095  0.010825     48.000000
  0.131241  0.013257  0.010825     48.000000
 -0.143740  0.110477  0.010825     48.000000
 -0.118741  0.101639  0.010825     48.000000
 -0.093743  0.092801  0.010825     48.000000
 -0.068745  0.083963  0.010825     48.000000
 -0.043747  0.075125  0.010825     48.000000
 -0.018749  0.066286  0.010825     48.000000
  0.081244  0.057448  0.010825     24.000000
  0.106242  0.048610  0.010825     48.000000
  0.131241  0.039772  0.010825     48.000000
 -0.143740  0.136992  0.010825     48.000000
 -0.118741  0.128154  0.010825     48.000000
 -0.093743  0.119316  0.010825     48.000000
 -0.068745  0.110477  0.010825     48.000000
 -0.043747  0.101639  0.010825     48.000000
 -0.018749  0.092801  0.010825     48.000000
  0.106242  0.075125  0.010825     24.000000
  0.131241  0.066286  0.010825     48.000000
 -0.143740  0.163507  0.010825     48.000000
 -0.118741  0.154668  0.010825     48.000000
 -0.093743  0.145830  0.010825     48.000000
 -0.068745  0.136992  0.010825     48.000000
 -0.043747  0.128154  0.010825     48.000000
 -0.018749  0.119316  0.010825     48.000000
  0.131241  0.092801  0.010825     24.000000
 -0.143740  0.190021  0.010825     48.000000
 -0.118741  0.181183  0.010825     48.000000
 -0.093743  0.172345  0.010825     48.000000
 -0.068745  0.163507  0.010825     48.000000
 -0.043747  0.154668  0.010825     48.000000
 -0.018749  0.145830  0.010825     48.000000
 -0.143740 -0.101639  0.010825     24.000000
 -0.118741 -0.110477  0.010825     48.000000
 -0.093743 -0.119316  0.010825     48.000000
 -0.068745 -0.128154  0.010825     48.000000
 -0.043747 -0.136992  0.010825     48.000000
 -0.118741 -0.083963  0.010825     24.000000
 -0.093743 -0.092801  0.010825     48.000000
 -0.068745 -0.101639  0.010825     48.000000
 -0.043747 -0.110477  0.010825     48.000000
 -0.093743 -0.066286  0.010825     24.000000
 -0.068745 -0.075125  0.010825     48.000000
 -0.043747 -0.083963  0.010825     48.000000
 -0.068745 -0.048610  0.010825     24.000000
 -0.043747 -0.057448  0.010825     48.000000
 -0.043747 -0.030934  0.010825     24.000000
  0.018749  0.013257  0.032474      8.000000
  0.043747  0.004419  0.032474     24.000000
  0.068745 -0.004419  0.032474     24.000000
  0.093743 -0.013257  0.032474     24.000000
  0.118741 -0.022095  0.032474     24.000000
 -0.156239  0.075125  0.032474     24.000000
 -0.131241  0.066286  0.032474     24.000000
 -0.106242  0.057448  0.032474     24.000000
 -0.081244  0.048610  0.032474     24.000000
 -0.056246  0.039772  0.032474     24.000000
  0.043747  0.030934  0.032474     24.000000
  0.068745  0.022095  0.032474     48.000000
  0.093743  0.013257  0.032474     48.000000
  0.118741  0.004419  0.032474     48.000000
 -0.156239  0.101639  0.032474     48.000000
 -0.131241  0.092801  0.032474     48.000000
 -0.106242  0.083963  0.032474     48.000000
 -0.081244  0.075125  0.032474     48.000000
 -0.056246  0.066286  0.032474     48.000000
  0.068745  0.048610  0.032474     24.000000
  0.093743  0.039772  0.032474     48.000000
  0.118741  0.030934  0.032474     48.000000
 -0.156239  0.128154  0.032474     48.000000
 -0.131241  0.119316  0.032474     48.000000
 -0.106242  0.110477  0.032474     48.000000
 -0.081244  0.101639  0.032474     48.000000
 -0.056246  0.092801  0.032474     48.000000
  0.093743  0.066286  0.032474     24.000000
  0.118741  0.057448  0.032474     48.000000
 -0.156239  0.154668  0.032474     48.000000
 -0.131241  0.145830  0.032474     48.000000
 -0.106242  0.136992  0.032474     48.000000
 -0.081244  0.128154  0.032474     48.000000
 -0.056246  0.119316  0.032474     48.000000
  0.118741  0.083963  0.032474     24.000000
 -0.156239  0.181183  0.032474     48.000000
 -0.131241  0.172345  0.032474     48.000000
 -0.106242  0.163507  0.032474     48.000000
 -0.081244  0.154668  0.032474     48.000000
 -0.056246  0.145830  0.032474     48.000000
 -0.156239 -0.110477  0.032474     24.000000
 -0.131241 -0.119316  0.032474     48.000000
 -0.106242 -0.128154  0.032474     48.000000
 -0.081244 -0.136992  0.032474     48.000000
 -0.131241 -0.092801  0.032474     24.000000
 -0.106242 -0.101639  0.032474     48.000000
 -0.081244 -0.110477  0.032474     48.000000
 -0.106242 -0.075125  0.032474     24.000000
 -0.081244 -0.083963  0.032474     48.000000
 -0.081244 -0.057448  0.032474     24.000000
  0.031248  0.022095  0.054123      8.000000
  0.056246  0.013257  0.054123     24.000000
  0.081244  0.004419  0.054123     24.000000
  0.106242 -0.004419  0.054123     24.000000
 -0.168738  0.092801  0.054123     24.000000
 -0.143740  0.083963  0.054123     24.000000
 -0.118741  0.075125  0.054123     24.000000
 -0.093743  0.066286  0.054123     24.000000
  0.056246  0.039772  0.054123     24.000000
  0.081244  0.030934  0.054123     48.000000
  0.106242  0.022095  0.054123     48.000000
 -0.168738  0.119316  0.054123     48.000000
 -0.143740  0.110477  0.054123     48.000000
 -0.118741  0.101639  0.054123     48.000000
 -0.093743  0.092801  0.054123     48.000000
  0.081244  0.057448  0.054123     24.000000
  0.106242  0.048610  0.054123     48.000000
 -0.168738  0.145830  0.054123     48.000000
 -0.143740  0.136992  0.054123     48.000000
 -0.118741  0.128154  0.054123     48.000000
 -0.093743  0.119316  0.054123     48.000000
  0.106242  0.075125  0.054123     24.000000
 -0.168738  0.172345  0.054123     48.000000
 -0.143740  0.163507  0.054123     48.000000
 -0.118741  0.154668  0.054123     48.000000
 -0.093743  0.145830  0.054123     48.000000
 -0.168738 -0.119316  0.054123     24.000000
 -0.143740 -0.128154  0.054123     48.000000
 -0.118741 -0.136992  0.054123     48.000000
 -0.143740 -0.101639  0.054123     24.000000
 -0.118741 -0.110477  0.054123     48.000000
 -0.118741 -0.083963  0.054123     24.000000
  0.043747  0.030934  0.075772      8.000000
  0.068745  0.022095  0.075772     24.000000
  0.093743  0.013257  0.075772     24.000000
 -0.181237  0.110477  0.075772     24.000000
 -0.156239  0.101639  0.075772     24.000000
 -0.131241  0.092801  0.075772     24.000000
  0.068745  0.048610  0.075772     24.000000
  0.093743  0.039772  0.075772     48.000000
 -0.181237  0.136992  0.075772     48.000000
 -0.156239  0.128154  0.075772     48.000000
 -0.131241  0.119316  0.075772     48.000000
  0.093743  0.066286  0.075772     24.000000
 -0.181237  0.163507  0.075772     48.000000
 -0.156239  0.154668  0.075772     48.000000
 -0.131241  0.145830  0.075772     48.000000
 -0.181237 -0.128154  0.075772     24.000000
 -0.156239 -0.136992  0.075772     48.000000
 -0.156239 -0.110477  0.075772     24.000000
  0.056246  0.039772  0.097421      8.000000
  0.081244  0.030934  0.097421     24.000000
 -0.193736  0.128154  0.097421     24.000000
 -0.168738  0.119316  0.097421     24.000000
  0.081244  0.057448  0.097421     24.000000
 -0.193736  0.154668  0.097421     48.000000
 -0.168738  0.145830  0.097421     48.000000
 -0.193736 -0.136992  0.097421     24.000000
  0.068745  0.048610  0.119070      8.000000
 -0.206235  0.145830  0.119070     24.000000
 


--------------------------------------------------------------------------------------------------------




 Dimension of arrays:
   k-points           NKPTS =    182   k-points in BZ     NKDIM =    182   number of bands    NBANDS=      8
   number of dos      NEDOS =    301   number of ions     NIONS =      2
   non local maximal  LDIM  =      4   non local SUM 2l+1 LMDIM =      8
   total plane-waves  NPLWV =  13824
   max r-space proj   IRMAX =      1   max aug-charges    IRDMAX=  91874
   dimension x,y,z NGX =    24 NGY =   24 NGZ =   24
   dimension x,y,z NGXF=    48 NGYF=   48 NGZF=   48
   support grid    NGXF=    96 NGYF=   96 NGZF=   96
   ions per type =               2
   NGX,Y,Z   is equivalent  to a cutoff of  10.37, 10.37, 10.37 a.u.
   NGXF,Y,Z  is equivalent  to a cutoff of  20.73, 20.73, 20.73 a.u.

 SYSTEM =  unknown system                          
 POSCAR =  Si2                                     

 Startparameter for this run:
   NWRITE =      2    write-flag & timer
   PREC   = accura    normal or accurate (medium, high low for compatibility)
   ISTART =      0    job   : 0-new  1-cont  2-samecut
   ICHARG =      2    charge: 1-file 2-atom 10-const
   ISPIN  =      1    spin polarized calculation?
   LNONCOLLINEAR =      F non collinear calculations
   LSORBIT =      F    spin-orbit coupling
   INIWAV =      1    electr: 0-lowe 1-rand  2-diag
   LASPH  =      T    aspherical Exc in radial PAW
   METAGGA=      F    non-selfconsistent MetaGGA calc.

 Electronic Relaxation 1
   ENCUT  =  350.0 eV  25.72 Ry    5.07 a.u.   5.87  5.87  5.87*2*pi/ulx,y,z
   ENINI  =  350.0     initial cutoff
   ENAUG  =  322.1 eV  augmentation charge cutoff
   NELM   =     90;   NELMIN=  6; NELMDL= -5     # of ELM steps 
   EDIFF  = 0.1E-05   stopping-criterion for ELM
   LREAL  =      F    real-space projection
   NLSPLINE    = F    spline interpolate recip. space projectors
   LCOMPAT=      F    compatible to vasp.4.4
   GGA_COMPAT  = T    GGA compatible to vasp.4.4-vasp.4.6
   LMAXPAW     = -100 max onsite density
   LMAXMIX     =    2 max onsite mixed and CHGCAR
   VOSKOWN=      0    Vosko Wilk Nusair interpolation
   ROPT   =    0.00000
 Ionic relaxation
   EDIFFG = -.2E-02   stopping-criterion for IOM
   NSW    =    100    number of steps for IOM
   NBLOCK =      1;   KBLOCK =    100    inner block; outer block 
   IBRION =      2    ionic relax: 0-MD 1-quasi-New 2-CG
   NFREE  =      1    steps in history (QN), initial steepest desc. (CG)
   ISIF   =      3    stress and relaxation
   IWAVPR =     11    prediction:  0-non 1-charg 2-wave 3-comb
   ISYM   =      2    0-nonsym 1-usesym 2-fastsym
   LCORR  =      T    Harris-Foulkes like correction to forces

   POTIM  = 0.5000    time-step for ionic-motion
   TEIN   =    0.0    initial temperature
   TEBEG  =    0.0;   TEEND  =   0.0 temperature during run
   SMASS  =  -3.00    Nose mass-parameter (am)
   estimated Nose-frequenzy (Omega)   =  0.10E-29 period in steps = 0.13E+47 mass=  -0.339E-27a.u.
   SCALEE = 1.0000    scale energy and forces
   NPACO  =    256;   APACO  = 16.0  distance and # of slots for P.C.
   PSTRESS=    0.0 pullay stress

  Mass of Ions in am
   POMASS =  28.09
  Ionic Valenz
   ZVAL   =   4.00
  Atomic Wigner-Seitz radii
   RWIGS  =  -1.00
  virtual crystal weights 
   VCA    =   1.00
   NELECT =       8.0000    total number of electrons
   NUPDOWN=      -1.0000    fix difference up-down

 DOS related values:
   EMIN   =  10.00;   EMAX   =-10.00  energy-range for DOS
   EFERMI =   0.00
   ISMEAR =     0;   SIGMA  =   0.05  broadening in eV -4-tet -1-fermi 0-gaus

 Electronic relaxation 2 (details)
   IALGO  =     38    algorithm
   LDIAG  =      T    sub-space diagonalisation (order eigenvalues)
   LSUBROT=      F    optimize rotation matrix (better conditioning)
   TURBO    =      0    0=normal 1=particle mesh
   IRESTART =      0    0=no restart 2=restart with 2 vectors
   NREBOOT  =      0    no. of reboots
   NMIN     =      0    reboot dimension
   EREF     =   0.00    reference energy to select bands
   IMIX   =      4    mixing-type and parameters
     AMIX     =   0.40;   BMIX     =  1.00
     AMIX_MAG =   1.60;   BMIX_MAG =  1.00
     AMIN     =   0.10
     WC   =   100.;   INIMIX=   1;  MIXPRE=   1;  MAXMIX= -45

 Intra band minimization:
   WEIMIN = 0.0010     energy-eigenvalue tresh-hold
   EBREAK =  0.31E-07  absolut break condition
   DEPER  =   0.30     relativ break condition  

   TIME   =   0.40     timestep for ELM

  volume/ion in A,a.u.               =      20.16       136.08
  Fermi-wavevector in a.u.,A,eV,Ry     =   0.954766  1.804247 12.402783  0.911579
  Thomas-Fermi vector in A             =   2.083543
 
 Write flags
   LWAVE        =      F    write WAVECAR
   LDOWNSAMPLE  =      F    k-point downsampling of WAVECAR
   LCHARG       =      F    write CHGCAR
   LVTOT        =      F    write LOCPOT, total local potential
   LVHAR        =      F    write LOCPOT, Hartree potential only
   LELF         =      F    write electronic localiz. function (ELF)
   LORBIT       =      0    0 simple, 1 ext, 2 COOP (PROOUT), +10 PAW based schemes


 Dipole corrections
   LMONO  =      F    monopole corrections only (constant potential shift)
   LDIPOL =      F    correct potential (dipole corrections)
   IDIPOL =      0    1-x, 2-y, 3-z, 4-all directions 
   EPSILON=  1.0000000 bulk dielectric constant

 Exchange correlation treatment:
   GGA     =    --    GGA type
   LEXCH   =     8    internal setting for exchange type
   VOSKOWN=      0    Vosko Wilk Nusair interpolation
   LHFCALC =     F    Hartree Fock is set to
   LHFONE  =     F    Hartree Fock one center treatment
   AEXX    =    0.0000 exact exchange contribution

 Linear response parameters
   LEPSILON=     F    determine dielectric tensor
   LRPA    =     F    only Hartree local field effects (RPA)
   LNABLA  =     F    use nabla operator in PAW spheres
   LVEL    =     F    velocity operator in full k-point grid
   LINTERFAST=   F  fast interpolation
   KINTER  =     0    interpolate to denser k-point grid
   CSHIFT  =0.1000    complex shift for real part using Kramers Kronig
   OMEGAMAX=  -1.0    maximum frequency
   DEG_THRESHOLD= 0.2000000E-02 threshold for treating states as degnerate
   RTIME   =   -0.100 relaxation time in fs
  (WPLASMAI=    0.000 imaginary part of plasma frequency in eV, 0.658/RTIME)
   DFIELD  = 0.0000000 0.0000000 0.0000000 field for delta impulse in time
 
 Orbital magnetization related:
   ORBITALMAG=     F  switch on orbital magnetization
   LCHIMAG   =     F  perturbation theory with respect to B field
   DQ        =  0.001000  dq finite difference perturbation B field
   LLRAUG    =     F  two centre corrections for induced B field



--------------------------------------------------------------------------------------------------------


 conjugate gradient relaxation of ions
 charge density and potential will be updated during run
 non-spin polarized calculation
 Variant of blocked Davidson
 Davidson routine will perform the subspace rotation
 perform sub-space diagonalisation
    after iterative eigenvector-optimisation
 modified Broyden-mixing scheme, WC =      100.0
 initial mixing is a Kerker type mixing with AMIX =  0.4000 and BMIX =      1.0000
 Hartree-type preconditioning will be used
 using additional bands            4
 reciprocal scheme for non local part
 use partial core corrections
 calculate Harris-corrections to forces 
   (improved forces if not selfconsistent)
 use gradient corrections 
 use of overlap-Matrix (Vanderbilt PP)
 Gauss-broadening in eV      SIGMA  =   0.05


--------------------------------------------------------------------------------------------------------


  energy-cutoff  :      350.00
  volume of cell :       40.33
      direct lattice vectors                 reciprocal lattice vectors
     3.333573000  0.000000000  1.924639000     0.299978432 -0.106058350  0.000000000
     1.111191000  3.142924000  1.924639000     0.000000000  0.318175050  0.000000000
     0.000000000  0.000000000  3.849278000    -0.149989216 -0.106058350  0.259788979

  length of vectors
     3.849278403  3.849279412  3.849278000     0.318175161  0.318175050  0.318175190


 
 k-points in units of 2pi/SCALE and weight: Automatic                               
   0.00624955  0.00441910  0.01082454       0.001
   0.03124775 -0.00441910  0.01082454       0.003
   0.05624596 -0.01325729  0.01082454       0.003
   0.08124416 -0.02209549  0.01082454       0.003
   0.10624236 -0.03093369  0.01082454       0.003
   0.13124056 -0.03977188  0.01082454       0.003
  -0.14373967  0.05744827  0.01082454       0.003
  -0.11874146  0.04861008  0.01082454       0.003
  -0.09374326  0.03977188  0.01082454       0.003
  -0.06874506  0.03093369  0.01082454       0.003
  -0.04374685  0.02209549  0.01082454       0.003
  -0.01874865  0.01325729  0.01082454       0.003
   0.03124775  0.02209549  0.01082454       0.003
   0.05624596  0.01325729  0.01082454       0.007
   0.08124416  0.00441910  0.01082454       0.007
   0.10624236 -0.00441910  0.01082454       0.007
   0.13124056 -0.01325729  0.01082454       0.007
  -0.14373967  0.08396286  0.01082454       0.007
  -0.11874146  0.07512466  0.01082454       0.007
  -0.09374326  0.06628647  0.01082454       0.007
  -0.06874506  0.05744827  0.01082454       0.007
  -0.04374685  0.04861008  0.01082454       0.007
  -0.01874865  0.03977188  0.01082454       0.007
   0.05624596  0.03977188  0.01082454       0.003
   0.08124416  0.03093369  0.01082454       0.007
   0.10624236  0.02209549  0.01082454       0.007
   0.13124056  0.01325729  0.01082454       0.007
  -0.14373967  0.11047745  0.01082454       0.007
  -0.11874146  0.10163925  0.01082454       0.007
  -0.09374326  0.09280106  0.01082454       0.007
  -0.06874506  0.08396286  0.01082454       0.007
  -0.04374685  0.07512466  0.01082454       0.007
  -0.01874865  0.06628647  0.01082454       0.007
   0.08124416  0.05744827  0.01082454       0.003
   0.10624236  0.04861008  0.01082454       0.007
   0.13124056  0.03977188  0.01082454       0.007
  -0.14373967  0.13699204  0.01082454       0.007
  -0.11874146  0.12815384  0.01082454       0.007
  -0.09374326  0.11931564  0.01082454       0.007
  -0.06874506  0.11047745  0.01082454       0.007
  -0.04374685  0.10163925  0.01082454       0.007
  -0.01874865  0.09280106  0.01082454       0.007
   0.10624236  0.07512466  0.01082454       0.003
   0.13124056  0.06628647  0.01082454       0.007
  -0.14373967  0.16350662  0.01082454       0.007
  -0.11874146  0.15466843  0.01082454       0.007
  -0.09374326  0.14583023  0.01082454       0.007
  -0.06874506  0.13699204  0.01082454       0.007
  -0.04374685  0.12815384  0.01082454       0.007
  -0.01874865  0.11931564  0.01082454       0.007
   0.13124056  0.09280106  0.01082454       0.003
  -0.14373967  0.19002121  0.01082454       0.007
  -0.11874146  0.18118301  0.01082454       0.007
  -0.09374326  0.17234482  0.01082454       0.007
  -0.06874506  0.16350662  0.01082454       0.007
  -0.04374685  0.15466843  0.01082454       0.007
  -0.01874865  0.14583023  0.01082454       0.007
  -0.14373967 -0.10163925  0.01082454       0.003
  -0.11874146 -0.11047745  0.01082454       0.007
  -0.09374326 -0.11931564  0.01082454       0.007
  -0.06874506 -0.12815384  0.01082454       0.007
  -0.04374685 -0.13699204  0.01082454       0.007
  -0.11874146 -0.08396286  0.01082454       0.003
  -0.09374326 -0.09280106  0.01082454       0.007
  -0.06874506 -0.10163925  0.01082454       0.007
  -0.04374685 -0.11047745  0.01082454       0.007
  -0.09374326 -0.06628647  0.01082454       0.003
  -0.06874506 -0.07512466  0.01082454       0.007
  -0.04374685 -0.08396286  0.01082454       0.007
  -0.06874506 -0.04861008  0.01082454       0.003
  -0.04374685 -0.05744827  0.01082454       0.007
  -0.04374685 -0.03093369  0.01082454       0.003
   0.01874865  0.01325729  0.03247362       0.001
   0.04374685  0.00441910  0.03247362       0.003
   0.06874506 -0.00441910  0.03247362       0.003
   0.09374326 -0.01325729  0.03247362       0.003
   0.11874146 -0.02209549  0.03247362       0.003
  -0.15623877  0.07512466  0.03247362       0.003
  -0.13124056  0.06628647  0.03247362       0.003
  -0.10624236  0.05744827  0.03247362       0.003
  -0.08124416  0.04861008  0.03247362       0.003
  -0.05624596  0.03977188  0.03247362       0.003
   0.04374685  0.03093369  0.03247362       0.003
   0.06874506  0.02209549  0.03247362       0.007
   0.09374326  0.01325729  0.03247362       0.007
   0.11874146  0.00441910  0.03247362       0.007
  -0.15623877  0.10163925  0.03247362       0.007
  -0.13124056  0.09280106  0.03247362       0.007
  -0.10624236  0.08396286  0.03247362       0.007
  -0.08124416  0.07512466  0.03247362       0.007
  -0.05624596  0.06628647  0.03247362       0.007
   0.06874506  0.04861008  0.03247362       0.003
   0.09374326  0.03977188  0.03247362       0.007
   0.11874146  0.03093369  0.03247362       0.007
  -0.15623877  0.12815384  0.03247362       0.007
  -0.13124056  0.11931564  0.03247362       0.007
  -0.10624236  0.11047745  0.03247362       0.007
  -0.08124416  0.10163925  0.03247362       0.007
  -0.05624596  0.09280106  0.03247362       0.007
   0.09374326  0.06628647  0.03247362       0.003
   0.11874146  0.05744827  0.03247362       0.007
  -0.15623877  0.15466843  0.03247362       0.007
  -0.13124056  0.14583023  0.03247362       0.007
  -0.10624236  0.13699204  0.03247362       0.007
  -0.08124416  0.12815384  0.03247362       0.007
  -0.05624596  0.11931564  0.03247362       0.007
   0.11874146  0.08396286  0.03247362       0.003
  -0.15623877  0.18118301  0.03247362       0.007
  -0.13124056  0.17234482  0.03247362       0.007
  -0.10624236  0.16350662  0.03247362       0.007
  -0.08124416  0.15466843  0.03247362       0.007
  -0.05624596  0.14583023  0.03247362       0.007
  -0.15623877 -0.11047745  0.03247362       0.003
  -0.13124056 -0.11931564  0.03247362       0.007
  -0.10624236 -0.12815384  0.03247362       0.007
  -0.08124416 -0.13699204  0.03247362       0.007
  -0.13124056 -0.09280106  0.03247362       0.003
  -0.10624236 -0.10163925  0.03247362       0.007
  -0.08124416 -0.11047745  0.03247362       0.007
  -0.10624236 -0.07512466  0.03247362       0.003
  -0.08124416 -0.08396286  0.03247362       0.007
  -0.08124416 -0.05744827  0.03247362       0.003
   0.03124775  0.02209549  0.05412270       0.001
   0.05624596  0.01325729  0.05412270       0.003
   0.08124416  0.00441910  0.05412270       0.003
   0.10624236 -0.00441910  0.05412270       0.003
  -0.16873787  0.09280106  0.05412270       0.003
  -0.14373967  0.08396286  0.05412270       0.003
  -0.11874146  0.07512466  0.05412270       0.003
  -0.09374326  0.06628647  0.05412270       0.003
   0.05624596  0.03977188  0.05412270       0.003
   0.08124416  0.03093369  0.05412270       0.007
   0.10624236  0.02209549  0.05412270       0.007
  -0.16873787  0.11931564  0.05412270       0.007
  -0.14373967  0.11047745  0.05412270       0.007
  -0.11874146  0.10163925  0.05412270       0.007
  -0.09374326  0.09280106  0.05412270       0.007
   0.08124416  0.05744827  0.05412270       0.003
   0.10624236  0.04861008  0.05412270       0.007
  -0.16873787  0.14583023  0.05412270       0.007
  -0.14373967  0.13699204  0.05412270       0.007
  -0.11874146  0.12815384  0.05412270       0.007
  -0.09374326  0.11931564  0.05412270       0.007
   0.10624236  0.07512466  0.05412270       0.003
  -0.16873787  0.17234482  0.05412270       0.007
  -0.14373967  0.16350662  0.05412270       0.007
  -0.11874146  0.15466843  0.05412270       0.007
  -0.09374326  0.14583023  0.05412270       0.007
  -0.16873787 -0.11931564  0.05412270       0.003
  -0.14373967 -0.12815384  0.05412270       0.007
  -0.11874146 -0.13699204  0.05412270       0.007
  -0.14373967 -0.10163925  0.05412270       0.003
  -0.11874146 -0.11047745  0.05412270       0.007
  -0.11874146 -0.08396286  0.05412270       0.003
   0.04374685  0.03093369  0.07577179       0.001
   0.06874506  0.02209549  0.07577179       0.003
   0.09374326  0.01325729  0.07577179       0.003
  -0.18123697  0.11047745  0.07577179       0.003
  -0.15623877  0.10163925  0.07577179       0.003
  -0.13124056  0.09280106  0.07577179       0.003
   0.06874506  0.04861008  0.07577179       0.003
   0.09374326  0.03977188  0.07577179       0.007
  -0.18123697  0.13699204  0.07577179       0.007
  -0.15623877  0.12815384  0.07577179       0.007
  -0.13124056  0.11931564  0.07577179       0.007
   0.09374326  0.06628647  0.07577179       0.003
  -0.18123697  0.16350662  0.07577179       0.007
  -0.15623877  0.15466843  0.07577179       0.007
  -0.13124056  0.14583023  0.07577179       0.007
  -0.18123697 -0.12815384  0.07577179       0.003
  -0.15623877 -0.13699204  0.07577179       0.007
  -0.15623877 -0.11047745  0.07577179       0.003
   0.05624596  0.03977188  0.09742087       0.001
   0.08124416  0.03093369  0.09742087       0.003
  -0.19373607  0.12815384  0.09742087       0.003
  -0.16873787  0.11931564  0.09742087       0.003
   0.08124416  0.05744827  0.09742087       0.003
  -0.19373607  0.15466843  0.09742087       0.007
  -0.16873787  0.14583023  0.09742087       0.007
  -0.19373607 -0.13699204  0.09742087       0.003
   0.06874506  0.04861008  0.11906995       0.001
  -0.20623517  0.14583023  0.11906995       0.003
 
 k-points in reciprocal lattice and weights: Automatic                               
   0.04166667  0.04166667  0.04166667       0.001
   0.12500000  0.04166667  0.04166667       0.003
   0.20833333  0.04166667  0.04166667       0.003
   0.29166667  0.04166667  0.04166667       0.003
   0.37500000  0.04166667  0.04166667       0.003
   0.45833333  0.04166667  0.04166667       0.003
  -0.45833333  0.04166667  0.04166667       0.003
  -0.37500000  0.04166667  0.04166667       0.003
  -0.29166667  0.04166667  0.04166667       0.003
  -0.20833333  0.04166667  0.04166667       0.003
  -0.12500000  0.04166667  0.04166667       0.003
  -0.04166667  0.04166667  0.04166667       0.003
   0.12500000  0.12500000  0.04166667       0.003
   0.20833333  0.12500000  0.04166667       0.007
   0.29166667  0.12500000  0.04166667       0.007
   0.37500000  0.12500000  0.04166667       0.007
   0.45833333  0.12500000  0.04166667       0.007
  -0.45833333  0.12500000  0.04166667       0.007
  -0.37500000  0.12500000  0.04166667       0.007
  -0.29166667  0.12500000  0.04166667       0.007
  -0.20833333  0.12500000  0.04166667       0.007
  -0.12500000  0.12500000  0.04166667       0.007
  -0.04166667  0.12500000  0.04166667       0.007
   0.20833333  0.20833333  0.04166667       0.003
   0.29166667  0.20833333  0.04166667       0.007
   0.37500000  0.20833333  0.04166667       0.007
   0.45833333  0.20833333  0.04166667       0.007
  -0.45833333  0.20833333  0.04166667       0.007
  -0.37500000  0.20833333  0.04166667       0.007
  -0.29166667  0.20833333  0.04166667       0.007
  -0.20833333  0.20833333  0.04166667       0.007
  -0.12500000  0.20833333  0.04166667       0.007
  -0.04166667  0.20833333  0.04166667       0.007
   0.29166667  0.29166667  0.04166667       0.003
   0.37500000  0.29166667  0.04166667       0.007
   0.45833333  0.29166667  0.04166667       0.007
  -0.45833333  0.29166667  0.04166667       0.007
  -0.37500000  0.29166667  0.04166667       0.007
  -0.29166667  0.29166667  0.04166667       0.007
  -0.20833333  0.29166667  0.04166667       0.007
  -0.12500000  0.29166667  0.04166667       0.007
  -0.04166667  0.29166667  0.04166667       0.007
   0.37500000  0.37500000  0.04166667       0.003
   0.45833333  0.37500000  0.04166667       0.007
  -0.45833333  0.37500000  0.04166667       0.007
  -0.37500000  0.37500000  0.04166667       0.007
  -0.29166667  0.37500000  0.04166667       0.007
  -0.20833333  0.37500000  0.04166667       0.007
  -0.12500000  0.37500000  0.04166667       0.007
  -0.04166667  0.37500000  0.04166667       0.007
   0.45833333  0.45833333  0.04166667       0.003
  -0.45833333  0.45833333  0.04166667       0.007
  -0.37500000  0.45833333  0.04166667       0.007
  -0.29166667  0.45833333  0.04166667       0.007
  -0.20833333  0.45833333  0.04166667       0.007
  -0.12500000  0.45833333  0.04166667       0.007
  -0.04166667  0.45833333  0.04166667       0.007
  -0.45833333 -0.45833333  0.04166667       0.003
  -0.37500000 -0.45833333  0.04166667       0.007
  -0.29166667 -0.45833333  0.04166667       0.007
  -0.20833333 -0.45833333  0.04166667       0.007
  -0.12500000 -0.45833333  0.04166667       0.007
  -0.37500000 -0.37500000  0.04166667       0.003
  -0.29166667 -0.37500000  0.04166667       0.007
  -0.20833333 -0.37500000  0.04166667       0.007
  -0.12500000 -0.37500000  0.04166667       0.007
  -0.29166667 -0.29166667  0.04166667       0.003
  -0.20833333 -0.29166667  0.04166667       0.007
  -0.12500000 -0.29166667  0.04166667       0.007
  -0.20833333 -0.20833333  0.04166667       0.003
  -0.12500000 -0.20833333  0.04166667       0.007
  -0.12500000 -0.12500000  0.04166667       0.003
   0.12500000  0.12500000  0.12500000       0.001
   0.20833333  0.12500000  0.12500000       0.003
   0.29166667  0.12500000  0.12500000       0.003
   0.37500000  0.12500000  0.12500000       0.003
   0.45833333  0.12500000  0.12500000       0.003
  -0.45833333  0.12500000  0.12500000       0.003
  -0.37500000  0.12500000  0.12500000       0.003
  -0.29166667  0.12500000  0.12500000       0.003
  -0.20833333  0.12500000  0.12500000       0.003
  -0.12500000  0.12500000  0.12500000       0.003
   0.20833333  0.20833333  0.12500000       0.003
   0.29166667  0.20833333  0.12500000       0.007
   0.37500000  0.20833333  0.12500000       0.007
   0.45833333  0.20833333  0.12500000       0.007
  -0.45833333  0.20833333  0.12500000       0.007
  -0.37500000  0.20833333  0.12500000       0.007
  -0.29166667  0.20833333  0.12500000       0.007
  -0.20833333  0.20833333  0.12500000       0.007
  -0.12500000  0.20833333  0.12500000       0.007
   0.29166667  0.29166667  0.12500000       0.003
   0.37500000  0.29166667  0.12500000       0.007
   0.45833333  0.29166667  0.12500000       0.007
  -0.45833333  0.29166667  0.12500000       0.007
  -0.37500000  0.29166667  0.12500000       0.007
  -0.29166667  0.29166667  0.12500000       0.007
  -0.20833333  0.29166667  0.12500000       0.007
  -0.12500000  0.29166667  0.12500000       0.007
   0.37500000  0.37500000  0.12500000       0.003
   0.45833333  0.37500000  0.12500000       0.007
  -0.45833333  0.37500000  0.12500000       0.007
  -0.37500000  0.37500000  0.12500000       0.007
  -0.29166667  0.37500000  0.12500000       0.007
  -0.20833333  0.37500000  0.12500000       0.007
  -0.12500000  0.37500000  0.12500000       0.007
   0.45833333  0.45833333  0.12500000       0.003
  -0.45833333  0.45833333  0.12500000       0.007
  -0.37500000  0.45833333  0.12500000       0.007
  -0.29166667  0.45833333  0.12500000       0.007
  -0.20833333  0.45833333  0.12500000       0.007
  -0.12500000  0.45833333  0.12500000       0.007
  -0.45833333 -0.45833333  0.12500000       0.003
  -0.37500000 -0.45833333  0.12500000       0.007
  -0.29166667 -0.45833333  0.12500000       0.007
  -0.20833333 -0.45833333  0.12500000       0.007
  -0.37500000 -0.37500000  0.12500000       0.003
  -0.29166667 -0.37500000  0.12500000       0.007
  -0.20833333 -0.37500000  0.12500000       0.007
  -0.29166667 -0.29166667  0.12500000       0.003
  -0.20833333 -0.29166667  0.12500000       0.007
  -0.20833333 -0.20833333  0.12500000       0.003
   0.20833333  0.20833333  0.20833333       0.001
   0.29166667  0.20833333  0.20833333       0.003
   0.37500000  0.20833333  0.20833333       0.003
   0.45833333  0.20833333  0.20833333       0.003
  -0.45833333  0.20833333  0.20833333       0.003
  -0.37500000  0.20833333  0.20833333       0.003
  -0.29166667  0.20833333  0.20833333       0.003
  -0.20833333  0.20833333  0.20833333       0.003
   0.29166667  0.29166667  0.20833333       0.003
   0.37500000  0.29166667  0.20833333       0.007
   0.45833333  0.29166667  0.20833333       0.007
  -0.45833333  0.29166667  0.20833333       0.007
  -0.37500000  0.29166667  0.20833333       0.007
  -0.29166667  0.29166667  0.20833333       0.007
  -0.20833333  0.29166667  0.20833333       0.007
   0.37500000  0.37500000  0.20833333       0.003
   0.45833333  0.37500000  0.20833333       0.007
  -0.45833333  0.37500000  0.20833333       0.007
  -0.37500000  0.37500000  0.20833333       0.007
  -0.29166667  0.37500000  0.20833333       0.007
  -0.20833333  0.37500000  0.20833333       0.007
   0.45833333  0.45833333  0.20833333       0.003
  -0.45833333  0.45833333  0.20833333       0.007
  -0.37500000  0.45833333  0.20833333       0.007
  -0.29166667  0.45833333  0.20833333       0.007
  -0.20833333  0.45833333  0.20833333       0.007
  -0.45833333 -0.45833333  0.20833333       0.003
  -0.37500000 -0.45833333  0.20833333       0.007
  -0.29166667 -0.45833333  0.20833333       0.007
  -0.37500000 -0.37500000  0.20833333       0.003
  -0.29166667 -0.37500000  0.20833333       0.007
  -0.29166667 -0.29166667  0.20833333       0.003
   0.29166667  0.29166667  0.29166667       0.001
   0.37500000  0.29166667  0.29166667       0.003
   0.45833333  0.29166667  0.29166667       0.003
  -0.45833333  0.29166667  0.29166667       0.003
  -0.37500000  0.29166667  0.29166667       0.003
  -0.29166667  0.29166667  0.29166667       0.003
   0.37500000  0.37500000  0.29166667       0.003
   0.45833333  0.37500000  0.29166667       0.007
  -0.45833333  0.37500000  0.29166667       0.007
  -0.37500000  0.37500000  0.29166667       0.007
  -0.29166667  0.37500000  0.29166667       0.007
   0.45833333  0.45833333  0.29166667       0.003
  -0.45833333  0.45833333  0.29166667       0.007
  -0.37500000  0.45833333  0.29166667       0.007
  -0.29166667  0.45833333  0.29166667       0.007
  -0.45833333 -0.45833333  0.29166667       0.003
  -0.37500000 -0.45833333  0.29166667       0.007
  -0.37500000 -0.37500000  0.29166667       0.003
   0.37500000  0.37500000  0.37500000       0.001
   0.45833333  0.37500000  0.37500000       0.003
  -0.45833333  0.37500000  0.37500000       0.003
  -0.37500000  0.37500000  0.37500000       0.003
   0.45833333  0.45833333  0.37500000       0.003
  -0.45833333  0.45833333  0.37500000       0.007
  -0.37500000  0.45833333  0.37500000       0.007
  -0.45833333 -0.45833333  0.37500000       0.003
   0.45833333  0.45833333  0.45833333       0.001
  -0.45833333  0.45833333  0.45833333       0.003
 
 position of ions in fractional coordinates (direct lattice) 
   0.87500000  0.87500000  0.87500000
   0.12500000  0.12500000  0.12500000
 
 position of ions in cartesian coordinates  (Angst):
   3.88916850  2.75005850  6.73623650
   0.55559550  0.39286550  0.96231950
 


--------------------------------------------------------------------------------------------------------


 k-point   1 :   0.0417 0.0417 0.0417  plane waves:     606
 k-point   2 :   0.1250 0.0417 0.0417  plane waves:     588
 k-point   3 :   0.2083 0.0417 0.0417  plane waves:     588
 k-point   4 :   0.2917 0.0417 0.0417  plane waves:     600
 k-point   5 :   0.3750 0.0417 0.0417  plane waves:     602
 k-point   6 :   0.4583 0.0417 0.0417  plane waves:     597
 k-point   7 :  -0.4583 0.0417 0.0417  plane waves:     597
 k-point   8 :  -0.3750 0.0417 0.0417  plane waves:     600
 k-point   9 :  -0.2917 0.0417 0.0417  plane waves:     600
 k-point  10 :  -0.2083 0.0417 0.0417  plane waves:     592
 k-point  11 :  -0.1250 0.0417 0.0417  plane waves:     588
 k-point  12 :  -0.0417 0.0417 0.0417  plane waves:     595
 k-point  13 :   0.1250 0.1250 0.0417  plane waves:     590
 k-point  14 :   0.2083 0.1250 0.0417  plane waves:     589
 k-point  15 :   0.2917 0.1250 0.0417  plane waves:     596
 k-point  16 :   0.3750 0.1250 0.0417  plane waves:     600
 k-point  17 :   0.4583 0.1250 0.0417  plane waves:     599
 k-point  18 :  -0.4583 0.1250 0.0417  plane waves:     595
 k-point  19 :  -0.3750 0.1250 0.0417  plane waves:     598
 k-point  20 :  -0.2917 0.1250 0.0417  plane waves:     598
 k-point  21 :  -0.2083 0.1250 0.0417  plane waves:     595
 k-point  22 :  -0.1250 0.1250 0.0417  plane waves:     591
 k-point  23 :  -0.0417 0.1250 0.0417  plane waves:     586
 k-point  24 :   0.2083 0.2083 0.0417  plane waves:     584
 k-point  25 :   0.2917 0.2083 0.0417  plane waves:     592
 k-point  26 :   0.3750 0.2083 0.0417  plane waves:     601
 k-point  27 :   0.4583 0.2083 0.0417  plane waves:     603
 k-point  28 :  -0.4583 0.2083 0.0417  plane waves:     597
 k-point  29 :  -0.3750 0.2083 0.0417  plane waves:     598
 k-point  30 :  -0.2917 0.2083 0.0417  plane waves:     604
 k-point  31 :  -0.2083 0.2083 0.0417  plane waves:     601
 k-point  32 :  -0.1250 0.2083 0.0417  plane waves:     597
 k-point  33 :  -0.0417 0.2083 0.0417  plane waves:     588
 k-point  34 :   0.2917 0.2917 0.0417  plane waves:     590
 k-point  35 :   0.3750 0.2917 0.0417  plane waves:     603
 k-point  36 :   0.4583 0.2917 0.0417  plane waves:     601
 k-point  37 :  -0.4583 0.2917 0.0417  plane waves:     602
 k-point  38 :  -0.3750 0.2917 0.0417  plane waves:     597
 k-point  39 :  -0.2917 0.2917 0.0417  plane waves:     603
 k-point  40 :  -0.2083 0.2917 0.0417  plane waves:     601
 k-point  41 :  -0.1250 0.2917 0.0417  plane waves:     603
 k-point  42 :  -0.0417 0.2917 0.0417  plane waves:     600
 k-point  43 :   0.3750 0.3750 0.0417  plane waves:     601
 k-point  44 :   0.4583 0.3750 0.0417  plane waves:     603
 k-point  45 :  -0.4583 0.3750 0.0417  plane waves:     605
 k-point  46 :  -0.3750 0.3750 0.0417  plane waves:     602
 k-point  47 :  -0.2917 0.3750 0.0417  plane waves:     600
 k-point  48 :  -0.2083 0.3750 0.0417  plane waves:     599
 k-point  49 :  -0.1250 0.3750 0.0417  plane waves:     597
 k-point  50 :  -0.0417 0.3750 0.0417  plane waves:     602
 k-point  51 :   0.4583 0.4583 0.0417  plane waves:     610
 k-point  52 :  -0.4583 0.4583 0.0417  plane waves:     607
 k-point  53 :  -0.3750 0.4583 0.0417  plane waves:     605
 k-point  54 :  -0.2917 0.4583 0.0417  plane waves:     603
 k-point  55 :  -0.2083 0.4583 0.0417  plane waves:     599
 k-point  56 :  -0.1250 0.4583 0.0417  plane waves:     598
 k-point  57 :  -0.0417 0.4583 0.0417  plane waves:     597
 k-point  58 :  -0.4583-0.4583 0.0417  plane waves:     606
 k-point  59 :  -0.3750-0.4583 0.0417  plane waves:     609
 k-point  60 :  -0.2917-0.4583 0.0417  plane waves:     600
 k-point  61 :  -0.2083-0.4583 0.0417  plane waves:     602
 k-point  62 :  -0.1250-0.4583 0.0417  plane waves:     597
 k-point  63 :  -0.3750-0.3750 0.0417  plane waves:     606
 k-point  64 :  -0.2917-0.3750 0.0417  plane waves:     601
 k-point  65 :  -0.2083-0.3750 0.0417  plane waves:     603
 k-point  66 :  -0.1250-0.3750 0.0417  plane waves:     600
 k-point  67 :  -0.2917-0.2917 0.0417  plane waves:     599
 k-point  68 :  -0.2083-0.2917 0.0417  plane waves:     598
 k-point  69 :  -0.1250-0.2917 0.0417  plane waves:     600
 k-point  70 :  -0.2083-0.2083 0.0417  plane waves:     586
 k-point  71 :  -0.1250-0.2083 0.0417  plane waves:     588
 k-point  72 :  -0.1250-0.1250 0.0417  plane waves:     589
 k-point  73 :   0.1250 0.1250 0.1250  plane waves:     585
 k-point  74 :   0.2083 0.1250 0.1250  plane waves:     588
 k-point  75 :   0.2917 0.1250 0.1250  plane waves:     595
 k-point  76 :   0.3750 0.1250 0.1250  plane waves:     598
 k-point  77 :   0.4583 0.1250 0.1250  plane waves:     600
 k-point  78 :  -0.4583 0.1250 0.1250  plane waves:     601
 k-point  79 :  -0.3750 0.1250 0.1250  plane waves:     598
 k-point  80 :  -0.2917 0.1250 0.1250  plane waves:     597
 k-point  81 :  -0.2083 0.1250 0.1250  plane waves:     600
 k-point  82 :  -0.1250 0.1250 0.1250  plane waves:     593
 k-point  83 :   0.2083 0.2083 0.1250  plane waves:     589
 k-point  84 :   0.2917 0.2083 0.1250  plane waves:     592
 k-point  85 :   0.3750 0.2083 0.1250  plane waves:     599
 k-point  86 :   0.4583 0.2083 0.1250  plane waves:     602
 k-point  87 :  -0.4583 0.2083 0.1250  plane waves:     597
 k-point  88 :  -0.3750 0.2083 0.1250  plane waves:     596
 k-point  89 :  -0.2917 0.2083 0.1250  plane waves:     598
 k-point  90 :  -0.2083 0.2083 0.1250  plane waves:     600
 k-point  91 :  -0.1250 0.2083 0.1250  plane waves:     596
 k-point  92 :   0.2917 0.2917 0.1250  plane waves:     597
 k-point  93 :   0.3750 0.2917 0.1250  plane waves:     601
 k-point  94 :   0.4583 0.2917 0.1250  plane waves:     599
 k-point  95 :  -0.4583 0.2917 0.1250  plane waves:     599
 k-point  96 :  -0.3750 0.2917 0.1250  plane waves:     600
 k-point  97 :  -0.2917 0.2917 0.1250  plane waves:     599
 k-point  98 :  -0.2083 0.2917 0.1250  plane waves:     599
 k-point  99 :  -0.1250 0.2917 0.1250  plane waves:     601
 k-point 100 :   0.3750 0.3750 0.1250  plane waves:     603
 k-point 101 :   0.4583 0.3750 0.1250  plane waves:     601
 k-point 102 :  -0.4583 0.3750 0.1250  plane waves:     598
 k-point 103 :  -0.3750 0.3750 0.1250  plane waves:     604
 k-point 104 :  -0.2917 0.3750 0.1250  plane waves:     602
 k-point 105 :  -0.2083 0.3750 0.1250  plane waves:     597
 k-point 106 :  -0.1250 0.3750 0.1250  plane waves:     599
 k-point 107 :   0.4583 0.4583 0.1250  plane waves:     598
 k-point 108 :  -0.4583 0.4583 0.1250  plane waves:     602
 k-point 109 :  -0.3750 0.4583 0.1250  plane waves:     604
 k-point 110 :  -0.2917 0.4583 0.1250  plane waves:     605
 k-point 111 :  -0.2083 0.4583 0.1250  plane waves:     602
 k-point 112 :  -0.1250 0.4583 0.1250  plane waves:     599
 k-point 113 :  -0.4583-0.4583 0.1250  plane waves:     608
 k-point 114 :  -0.3750-0.4583 0.1250  plane waves:     607
 k-point 115 :  -0.2917-0.4583 0.1250  plane waves:     602
 k-point 116 :  -0.2083-0.4583 0.1250  plane waves:     601
 k-point 117 :  -0.3750-0.3750 0.1250  plane waves:     605
 k-point 118 :  -0.2917-0.3750 0.1250  plane waves:     600
 k-point 119 :  -0.2083-0.3750 0.1250  plane waves:     600
 k-point 120 :  -0.2917-0.2917 0.1250  plane waves:     601
 k-point 121 :  -0.2083-0.2917 0.1250  plane waves:     602
 k-point 122 :  -0.2083-0.2083 0.1250  plane waves:     603
 k-point 123 :   0.2083 0.2083 0.2083  plane waves:     589
 k-point 124 :   0.2917 0.2083 0.2083  plane waves:     596
 k-point 125 :   0.3750 0.2083 0.2083  plane waves:     599
 k-point 126 :   0.4583 0.2083 0.2083  plane waves:     603
 k-point 127 :  -0.4583 0.2083 0.2083  plane waves:     597
 k-point 128 :  -0.3750 0.2083 0.2083  plane waves:     597
 k-point 129 :  -0.2917 0.2083 0.2083  plane waves:     600
 k-point 130 :  -0.2083 0.2083 0.2083  plane waves:     598
 k-point 131 :   0.2917 0.2917 0.2083  plane waves:     594
 k-point 132 :   0.3750 0.2917 0.2083  plane waves:     597
 k-point 133 :   0.4583 0.2917 0.2083  plane waves:     602
 k-point 134 :  -0.4583 0.2917 0.2083  plane waves:     599
 k-point 135 :  -0.3750 0.2917 0.2083  plane waves:     598
 k-point 136 :  -0.2917 0.2917 0.2083  plane waves:     601
 k-point 137 :  -0.2083 0.2917 0.2083  plane waves:     603
 k-point 138 :   0.3750 0.3750 0.2083  plane waves:     602
 k-point 139 :   0.4583 0.3750 0.2083  plane waves:     600
 k-point 140 :  -0.4583 0.3750 0.2083  plane waves:     596
 k-point 141 :  -0.3750 0.3750 0.2083  plane waves:     604
 k-point 142 :  -0.2917 0.3750 0.2083  plane waves:     603
 k-point 143 :  -0.2083 0.3750 0.2083  plane waves:     603
 k-point 144 :   0.4583 0.4583 0.2083  plane waves:     603
 k-point 145 :  -0.4583 0.4583 0.2083  plane waves:     598
 k-point 146 :  -0.3750 0.4583 0.2083  plane waves:     604
 k-point 147 :  -0.2917 0.4583 0.2083  plane waves:     608
 k-point 148 :  -0.2083 0.4583 0.2083  plane waves:     603
 k-point 149 :  -0.4583-0.4583 0.2083  plane waves:     606
 k-point 150 :  -0.3750-0.4583 0.2083  plane waves:     607
 k-point 151 :  -0.2917-0.4583 0.2083  plane waves:     605
 k-point 152 :  -0.3750-0.3750 0.2083  plane waves:     606
 k-point 153 :  -0.2917-0.3750 0.2083  plane waves:     602
 k-point 154 :  -0.2917-0.2917 0.2083  plane waves:     604
 k-point 155 :   0.2917 0.2917 0.2917  plane waves:     604
 k-point 156 :   0.3750 0.2917 0.2917  plane waves:     601
 k-point 157 :   0.4583 0.2917 0.2917  plane waves:     602
 k-point 158 :  -0.4583 0.2917 0.2917  plane waves:     604
 k-point 159 :  -0.3750 0.2917 0.2917  plane waves:     598
 k-point 160 :  -0.2917 0.2917 0.2917  plane waves:     601
 k-point 161 :   0.3750 0.3750 0.2917  plane waves:     601
 k-point 162 :   0.4583 0.3750 0.2917  plane waves:     598
 k-point 163 :  -0.4583 0.3750 0.2917  plane waves:     599
 k-point 164 :  -0.3750 0.3750 0.2917  plane waves:     597
 k-point 165 :  -0.2917 0.3750 0.2917  plane waves:     605
 k-point 166 :   0.4583 0.4583 0.2917  plane waves:     594
 k-point 167 :  -0.4583 0.4583 0.2917  plane waves:     599
 k-point 168 :  -0.3750 0.4583 0.2917  plane waves:     601
 k-point 169 :  -0.2917 0.4583 0.2917  plane waves:     599
 k-point 170 :  -0.4583-0.4583 0.2917  plane waves:     601
 k-point 171 :  -0.3750-0.4583 0.2917  plane waves:     603
 k-point 172 :  -0.3750-0.3750 0.2917  plane waves:     604
 k-point 173 :   0.3750 0.3750 0.3750  plane waves:     601
 k-point 174 :   0.4583 0.3750 0.3750  plane waves:     597
 k-point 175 :  -0.4583 0.3750 0.3750  plane waves:     595
 k-point 176 :  -0.3750 0.3750 0.3750  plane waves:     595
 k-point 177 :   0.4583 0.4583 0.3750  plane waves:     600
 k-point 178 :  -0.4583 0.4583 0.3750  plane waves:     598
 k-point 179 :  -0.3750 0.4583 0.3750  plane waves:     600
 k-point 180 :  -0.4583-0.4583 0.3750  plane waves:     602
 k-point 181 :   0.4583 0.4583 0.4583  plane waves:     595
 k-point 182 :  -0.4583 0.4583 0.4583  plane waves:     595

 maximum and minimum number of plane-waves per node :       610      584

 maximum number of plane-waves:       610
 maximum index in each direction: 
   IXMAX=    6   IYMAX=    6   IZMAX=    5
   IXMIN=   -6   IYMIN=   -6   IZMIN=   -6


 serial   3D FFT for wavefunctions
 parallel 3D FFT for charge:
    minimum data exchange during FFTs selected (reduces bandwidth)


 total amount of memory used by VASP MPI-rank0    46914. kBytes
=======================================================================

   base      :      30000. kBytes
   nonl-proj :       7148. kBytes
   fftplans  :       4177. kBytes
   grid      :       1926. kBytes
   one-center:          6. kBytes
   wavefun   :       3657. kBytes
 
     INWAV:  cpu time    0.0000: real time    0.0008
 Broyden mixing: mesh for mixing (old mesh)
   NGX = 11   NGY = 11   NGZ = 11
  (NGX  = 48   NGY  = 48   NGZ  = 48)
  gives a total of   1331 points

 initial charge density was supplied:
 charge density of overlapping atoms calculated
 number of electron       8.0000000 magnetization 
 keeping initial charge density in first step


--------------------------------------------------------------------------------------------------------


 Maximum index for augmentation-charges        22271 (set IRDMAX)


--------------------------------------------------------------------------------------------------------


 First call to EWALD:  gamma=   0.517
 Maximum number of real-space cells 3x 3x 3
 Maximum number of reciprocal cells 3x 3x 3

    FEWALD:  cpu time    0.0030: real time    0.0037


--------------------------------------- Iteration      1(   1)  ---------------------------------------


    POTLOK:  cpu time    0.0310: real time    0.0352
    SETDIJ:  cpu time    0.1790: real time    0.1794
     EDDAV:  cpu time    1.4778: real time    1.4786
       DOS:  cpu time    0.0020: real time    0.0031
    --------------------------------------------
      LOOP:  cpu time    1.6897: real time    1.6966

 eigenvalue-minimisations  :  2912
 total energy-change (2. order) : 0.2018203E+01  (-0.2608752E+03)
 number of electron       8.0000000 magnetization 
 augmentation part        8.0000000 magnetization 

 Free energy of the ion-electron system (eV)
  ---------------------------------------------------
  alpha Z        PSCENC =         3.33880741
  Ewald energy   TEWEN  =      -227.98820643
  -Hartree energ DENC   =       -11.11484531
  -exchange      EXHF   =         0.00000000
  -V(xc)+E(xc)   XCENC  =       -18.63153637
  PAW double counting   =       176.24759923     -141.06103558
  entropy T*S    EENTRO =        -0.00079753
  eigenvalues    EBANDS =        15.09696302
  atomic energy  EATOM  =       206.13125414
  Solvation  Ediel_sol  =         0.00000000
  ---------------------------------------------------
  free energy    TOTEN  =         2.01820258 eV

  energy without entropy =        2.01900011  energy(sigma->0) =        2.01860134


--------------------------------------------------------------------------------------------------------




--------------------------------------- Iteration      1(   2)  ---------------------------------------


     EDDAV:  cpu time    2.1707: real time    2.1898
       DOS:  cpu time    0.0020: real time    0.0019
    --------------------------------------------
      LOOP:  cpu time    2.1737: real time    2.1917

 eigenvalue-minimisations  :  4496
 total energy-change (2. order) :-0.1288357E+02  (-0.1242958E+02)
 number of electron       8.0000000 magnetization 
 augmentation part        8.0000000 magnetization 

 Free energy of the ion-electron system (eV)
  ---------------------------------------------------
  alpha Z        PSCENC =         3.33880741
  Ewald energy   TEWEN  =      -227.98820643
  -Hartree energ DENC   =       -11.11484531
  -exchange      EXHF   =         0.00000000
  -V(xc)+E(xc)   XCENC  =       -18.63153637
  PAW double counting   =       176.24759923     -141.06103558
  entropy T*S    EENTRO =        -0.00000000
  eigenvalues    EBANDS =         2.21259125
  atomic energy  EATOM  =       206.13125414
  Solvation  Ediel_sol  =         0.00000000
  ---------------------------------------------------
  free energy    TOTEN  =       -10.86537167 eV

  energy without entropy =      -10.86537167  energy(sigma->0) =      -10.86537167


--------------------------------------------------------------------------------------------------------




--------------------------------------- Iteration      1(   3)  ---------------------------------------


     EDDAV:  cpu time    1.8397: real time    1.8545
       DOS:  cpu time    0.0010: real time    0.0021
    --------------------------------------------
      LOOP:  cpu time    1.8407: real time    1.8565

 eigenvalue-minimisations  :  3808
 total energy-change (2. order) :-0.1555342E+00  (-0.1555342E+00)
 number of electron       8.0000000 magnetization 
 augmentation part        8.0000000 magnetization 

 Free energy of the ion-electron system (eV)
  ---------------------------------------------------
  alpha Z        PSCENC =         3.33880741
  Ewald energy   TEWEN  =      -227.98820643
  -Hartree energ DENC   =       -11.11484531
  -exchange      EXHF   =         0.00000000
  -V(xc)+E(xc)   XCENC  =       -18.63153637
  PAW double counting   =       176.24759923     -141.06103558
  entropy T*S    EENTRO =        -0.00000000
  eigenvalues    EBANDS =         2.05705703
  atomic energy  EATOM  =       206.13125414
  Solvation  Ediel_sol  =         0.00000000
  ---------------------------------------------------
  free energy    TOTEN  =       -11.02090589 eV

  energy without entropy =      -11.02090589  energy(sigma->0) =      -11.02090589


--------------------------------------------------------------------------------------------------------




--------------------------------------- Iteration      1(   4)  ---------------------------------------


     EDDAV:  cpu time    2.1407: real time    2.1532
       DOS:  cpu time    0.0010: real time    0.0019
    --------------------------------------------
      LOOP:  cpu time    2.1417: real time    2.1552

 eigenvalue-minimisations  :  4536
 total energy-change (2. order) :-0.5477297E-03  (-0.5477299E-03)
 number of electron       8.0000000 magnetization 
 augmentation part        8.0000000 magnetization 

 Free energy of the ion-electron system (eV)
  ---------------------------------------------------
  alpha Z        PSCENC =         3.33880741
  Ewald energy   TEWEN  =      -227.98820643
  -Hartree energ DENC   =       -11.11484531
  -exchange      EXHF   =         0.00000000
  -V(xc)+E(xc)   XCENC  =       -18.63153637
  PAW double counting   =       176.24759923     -141.06103558
  entropy T*S    EENTRO =        -0.00000000
  eigenvalues    EBANDS =         2.05650930
  atomic energy  EATOM  =       206.13125414
  Solvation  Ediel_sol  =         0.00000000
  ---------------------------------------------------
  free energy    TOTEN  =       -11.02145362 eV

  energy without entropy =      -11.02145362  energy(sigma->0) =      -11.02145362


--------------------------------------------------------------------------------------------------------




--------------------------------------- Iteration      1(   5)  ---------------------------------------


     EDDAV:  cpu time    1.8927: real time    1.9091
       DOS:  cpu time    0.0010: real time    0.0021
    CHARGE:  cpu time    0.1140: real time    0.1142
    MIXING:  cpu time    0.0020: real time    0.0014
    --------------------------------------------
      LOOP:  cpu time    2.0087: real time    2.0269

 eigenvalue-minimisations  :  3928
 total energy-change (2. order) :-0.6348474E-06  (-0.6348220E-06)
 number of electron       8.0000000 magnetization 
 augmentation part       -0.4703860 magnetization 

 Broyden mixing:
  rms(total) = 0.48590E+00    rms(broyden)= 0.48589E+00
  rms(prec ) = 0.94656E+00
  weight for this iteration     100.00

 Free energy of the ion-electron system (eV)
  ---------------------------------------------------
  alpha Z        PSCENC =         3.33880741
  Ewald energy   TEWEN  =      -227.98820643
  -Hartree energ DENC   =       -11.11484531
  -exchange      EXHF   =         0.00000000
  -V(xc)+E(xc)   XCENC  =       -18.63153637
  PAW double counting   =       176.24759923     -141.06103558
  entropy T*S    EENTRO =        -0.00000000
  eigenvalues    EBANDS =         2.05650866
  atomic energy  EATOM  =       206.13125414
  Solvation  Ediel_sol  =         0.00000000
  ---------------------------------------------------
  free energy    TOTEN  =       -11.02145425 eV

  energy without entropy =      -11.02145425  energy(sigma->0) =      -11.02145425


--------------------------------------------------------------------------------------------------------




--------------------------------------- Iteration      1(   6)  ---------------------------------------


    POTLOK:  cpu time    0.0440: real time    0.0558
    SETDIJ:  cpu time    0.1790: real time    0.1796
     EDDAV:  cpu time    1.9847: real time    1.9869
       DOS:  cpu time    0.0020: real time    0.0020
    CHARGE:  cpu time    0.1090: real time    0.1097
    MIXING:  cpu time    0.0020: real time    0.0015
    --------------------------------------------
      LOOP:  cpu time    2.3206: real time    2.3356

 eigenvalue-minimisations  :  3448
 total energy-change (2. order) : 0.1215054E+00  (-0.8002298E-02)
 number of electron       8.0000000 magnetization 
 augmentation part       -0.4646303 magnetization 

 Broyden mixing:
  rms(total) = 0.29725E+00    rms(broyden)= 0.29725E+00
  rms(prec ) = 0.56297E+00
  weight for this iteration     100.00

 eigenvalues of (default mixing * dielectric matrix)
  average eigenvalue GAMMA=   2.5663
  2.5663

 Free energy of the ion-electron system (eV)
  ---------------------------------------------------
  alpha Z        PSCENC =         3.33880741
  Ewald energy   TEWEN  =      -227.98820643
  -Hartree energ DENC   =       -12.59999413
  -exchange      EXHF   =         0.00000000
  -V(xc)+E(xc)   XCENC  =       -18.39630819
  PAW double counting   =       378.74796519     -343.66944888
  entropy T*S    EENTRO =        -0.00000000
  eigenvalues    EBANDS =         3.53598205
  atomic energy  EATOM  =       206.13125414
  Solvation  Ediel_sol  =         0.00000000
  ---------------------------------------------------
  free energy    TOTEN  =       -10.89994884 eV

  energy without entropy =      -10.89994884  energy(sigma->0) =      -10.89994884


--------------------------------------------------------------------------------------------------------




--------------------------------------- Iteration      1(   7)  ---------------------------------------


    POTLOK:  cpu time    0.0320: real time    0.0415
    SETDIJ:  cpu time    0.1720: real time    0.1729
     EDDAV:  cpu time    1.8197: real time    1.8208
       DOS:  cpu time    0.0020: real time    0.0021
    CHARGE:  cpu time    0.1070: real time    0.1085
    MIXING:  cpu time    0.0020: real time    0.0015
    --------------------------------------------
      LOOP:  cpu time    2.1347: real time    2.1472

 eigenvalue-minimisations  :  3776
 total energy-change (2. order) : 0.5554234E-01  (-0.1520744E-01)
 number of electron       8.0000000 magnetization 
 augmentation part       -0.4576383 magnetization 

 Broyden mixing:
  rms(total) = 0.18547E-01    rms(broyden)= 0.18546E-01
  rms(prec ) = 0.41247E-01
  weight for this iteration     100.00

 eigenvalues of (default mixing * dielectric matrix)
  average eigenvalue GAMMA=   2.0659
  1.7496  2.3822

 Free energy of the ion-electron system (eV)
  ---------------------------------------------------
  alpha Z        PSCENC =         3.33880741
  Ewald energy   TEWEN  =      -227.98820643
  -Hartree energ DENC   =       -15.02708551
  -exchange      EXHF   =         0.00000000
  -V(xc)+E(xc)   XCENC  =       -18.00433368
  PAW double counting   =       862.87915545     -827.94040509
  entropy T*S    EENTRO =        -0.00000000
  eigenvalues    EBANDS =         5.76640721
  atomic energy  EATOM  =       206.13125414
  Solvation  Ediel_sol  =         0.00000000
  ---------------------------------------------------
  free energy    TOTEN  =       -10.84440649 eV

  energy without entropy =      -10.84440649  energy(sigma->0) =      -10.84440649


--------------------------------------------------------------------------------------------------------




--------------------------------------- Iteration      1(   8)  ---------------------------------------


    POTLOK:  cpu time    0.0320: real time    0.0484
    SETDIJ:  cpu time    0.1720: real time    0.1731
     EDDAV:  cpu time    1.6368: real time    1.6381
       DOS:  cpu time    0.0020: real time    0.0019
    CHARGE:  cpu time    0.1080: real time    0.1087
    MIXING:  cpu time    0.0020: real time    0.0015
    --------------------------------------------
      LOOP:  cpu time    1.9527: real time    1.9718

 eigenvalue-minimisations  :  3312
 total energy-change (2. order) :-0.1056654E-02  (-0.3801511E-03)
 number of electron       8.0000000 magnetization 
 augmentation part       -0.4585929 magnetization 

 Broyden mixing:
  rms(total) = 0.73489E-02    rms(broyden)= 0.73486E-02
  rms(prec ) = 0.13172E-01
  weight for this iteration     100.00

 eigenvalues of (default mixing * dielectric matrix)
  average eigenvalue GAMMA=   2.2587
  2.8709  1.9527  1.9527

 Free energy of the ion-electron system (eV)
  ---------------------------------------------------
  alpha Z        PSCENC =         3.33880741
  Ewald energy   TEWEN  =      -227.98820643
  -Hartree energ DENC   =       -14.95456652
  -exchange      EXHF   =         0.00000000
  -V(xc)+E(xc)   XCENC  =       -18.00448037
  PAW double counting   =       872.34897759     -837.38347309
  entropy T*S    EENTRO =        -0.00000000
  eigenvalues    EBANDS =         5.66622411
  atomic energy  EATOM  =       206.13125414
  Solvation  Ediel_sol  =         0.00000000
  ---------------------------------------------------
  free energy    TOTEN  =       -10.84546315 eV

  energy without entropy =      -10.84546315  energy(sigma->0) =      -10.84546315


--------------------------------------------------------------------------------------------------------




--------------------------------------- Iteration      1(   9)  ---------------------------------------


    POTLOK:  cpu time    0.0330: real time    0.0431
    SETDIJ:  cpu time    0.1730: real time    0.1730
     EDDAV:  cpu time    2.6546: real time    2.6569
       DOS:  cpu time    0.0010: real time    0.0021
    CHARGE:  cpu time    0.1080: real time    0.1085
    MIXING:  cpu time    0.0010: real time    0.0014
    --------------------------------------------
      LOOP:  cpu time    2.9715: real time    2.9849

 eigenvalue-minimisations  :  4360
 total energy-change (2. order) :-0.1938342E-03  (-0.1918056E-04)
 number of electron       8.0000000 magnetization 
 augmentation part       -0.4587091 magnetization 

 Broyden mixing:
  rms(total) = 0.57329E-02    rms(broyden)= 0.57328E-02
  rms(prec ) = 0.65936E-02
  weight for this iteration     100.00

[...]
      8      11.1771      0.00000

 k-point   148 :      -0.2083    0.4583    0.2083
  band No.  band energies     occupation 
      1      -2.6271      2.00000
      2      -1.3542      2.00000
      3       1.6127      2.00000
      4       2.3938      2.00000
      5       9.3622      0.00000
      6       9.6814      0.00000
      7      10.2891      0.00000
      8      11.9099      0.00000

 k-point   149 :      -0.4583   -0.4583    0.2083
  band No.  band energies     occupation 
      1      -2.9001      2.00000
      2      -1.2043      2.00000
      3       1.7556      2.00000
      4       3.1772      2.00000
      5       6.7913      0.00000
      6       9.0169      0.00000
      7      12.8483      0.00000
      8      12.9111      0.00000

 k-point   150 :      -0.3750   -0.4583    0.2083
  band No.  band energies     occupation 
      1      -2.4178      2.00000
      2      -1.6498      2.00000
      3       1.6686      2.00000
      4       2.7908      2.00000
      5       7.2605      0.00000
      6       8.9887      0.00000
      7      12.4979      0.00000
      8      13.2903      0.00000

 k-point   151 :      -0.2917   -0.4583    0.2083
  band No.  band energies     occupation 
      1      -2.2719      2.00000
      2      -1.7224      2.00000
      3       1.7961      2.00000
      4       2.1998      2.00000
      5       8.4930      0.00000
      6       9.1325      0.00000
      7      11.4455      0.00000
      8      12.1703      0.00000

 k-point   152 :      -0.3750   -0.3750    0.2083
  band No.  band energies     occupation 
      1      -2.4735      2.00000
      2      -1.6289      2.00000
      3       1.6212      2.00000
      4       3.1268      2.00000
      5       6.7223      0.00000
      6       8.9399      0.00000
      7      13.4053      0.00000
      8      13.7067      0.00000

 k-point   153 :      -0.2917   -0.3750    0.2083
  band No.  band energies     occupation 
      1      -2.8543      2.00000
      2      -1.2155      2.00000
      3       1.7801      2.00000
      4       2.8686      2.00000
      5       7.3216      0.00000
      6       9.0669      0.00000
      7      11.8190      0.00000
      8      13.7838      0.00000

 k-point   154 :      -0.2917   -0.2917    0.2083
  band No.  band energies     occupation 
      1      -3.3735      2.00000
      2      -0.7347      2.00000
      3       2.0216      2.00000
      4       3.2772      2.00000
      5       6.9265      0.00000
      6       9.1724      0.00000
      7      12.1252      0.00000
      8      12.2343      0.00000

 k-point   155 :       0.2917    0.2917    0.2917
  band No.  band energies     occupation 
      1      -5.1420      2.00000
      2       1.0192      2.00000
      3       4.7484      2.00000
      4       4.7484      2.00000
      5       7.4415      0.00000
      6       9.1516      0.00000
      7       9.1516      0.00000
      8      13.0227      0.00000

 k-point   156 :       0.3750    0.2917    0.2917
  band No.  band energies     occupation 
      1      -4.8696      2.00000
      2       0.5921      2.00000
      3       3.8668      2.00000
      4       4.7920      2.00000
      5       7.8688      0.00000
      6       9.1491      0.00000
      7       9.3089      0.00000
      8      12.5371      0.00000

 k-point   157 :       0.4583    0.2917    0.2917
  band No.  band energies     occupation 
      1      -4.4409      2.00000
      2       0.2204      2.00000
      3       2.6739      2.00000
      4       4.5241      2.00000
      5       8.2065      0.00000
      6       9.7445      0.00000
      7       9.7554      0.00000
      8      12.2016      0.00000

 k-point   158 :      -0.4583    0.2917    0.2917
  band No.  band energies     occupation 
      1      -3.8845      2.00000
      2      -0.2192      2.00000
      3       1.7591      2.00000
      4       4.1210      2.00000
      5       7.8533      0.00000
      6      10.6904      0.00000
      7      10.9417      0.00000
      8      12.0809      0.00000

 k-point   159 :      -0.3750    0.2917    0.2917
  band No.  band energies     occupation 
      1      -3.2849      2.00000
      2      -0.8381      2.00000
      3       1.4177      2.00000
      4       3.7350      2.00000
      5       7.4228      0.00000
      6      11.5019      0.00000
      7      11.6641      0.00000
      8      12.4990      0.00000

 k-point   160 :      -0.2917    0.2917    0.2917
  band No.  band energies     occupation 
      1      -2.9794      2.00000
      2      -1.1958      2.00000
      3       1.5639      2.00000
      4       3.4423      2.00000
      5       7.1026      0.00000
      6      10.6461      0.00000
      7      11.9155      0.00000
      8      11.9916      0.00000

 k-point   161 :       0.3750    0.3750    0.2917
  band No.  band energies     occupation 
      1      -4.6645      2.00000
      2       0.1694      2.00000
      3       4.2036      2.00000
      4       4.2726      2.00000
      5       7.7731      0.00000
      6       8.9043      0.00000
      7       9.6168      0.00000
      8      12.0394      0.00000

 k-point   162 :       0.4583    0.3750    0.2917
  band No.  band energies     occupation 
      1      -4.3040      2.00000
      2      -0.1704      2.00000
      3       3.1511      2.00000
      4       4.2024      2.00000
      5       8.2150      0.00000
      6       8.9115      0.00000
      7      10.1775      0.00000
      8      11.6913      0.00000

 k-point   163 :      -0.4583    0.3750    0.2917
  band No.  band energies     occupation 
      1      -3.8082      2.00000
      2      -0.4680      2.00000
      3       2.1109      2.00000
      4       3.8334      2.00000
      5       8.4005      0.00000
      6       9.2872      0.00000
      7      11.2813      0.00000
      8      11.6013      0.00000

 k-point   164 :      -0.3750    0.3750    0.2917
  band No.  band energies     occupation 
      1      -3.2232      2.00000
      2      -0.8663      2.00000
      3       1.4631      2.00000
      4       3.4064      2.00000
      5       7.9476      0.00000
      6      10.5228      0.00000
      7      11.5502      0.00000
      8      12.4551      0.00000

 k-point   165 :      -0.2917    0.3750    0.2917
  band No.  band energies     occupation 
      1      -2.7145      2.00000
      2      -1.3437      2.00000
      3       1.3959      2.00000
      4       3.0641      2.00000
      5       7.5658      0.00000
      6      10.5935      0.00000
      7      11.5553      0.00000
      8      12.3748      0.00000

 k-point   166 :       0.4583    0.4583    0.2917
  band No.  band energies     occupation 
      1      -4.0192      2.00000
      2      -0.5052      2.00000
      3       3.0451      2.00000
      4       3.8389      2.00000
      5       7.6416      0.00000
      6       9.7463      0.00000
      7      10.3631      0.00000
      8      11.2820      0.00000

 k-point   167 :      -0.4583    0.4583    0.2917
  band No.  band energies     occupation 
      1      -3.6050      2.00000
      2      -0.7662      2.00000
      3       2.3236      2.00000
      4       3.5081      2.00000
      5       7.9231      0.00000
      6       9.6605      0.00000
      7      11.0865      0.00000
      8      11.5175      0.00000

 k-point   168 :      -0.3750    0.4583    0.2917
  band No.  band energies     occupation 
      1      -3.0915      2.00000
      2      -1.0380      2.00000
      3       1.7180      2.00000
      4       2.9565      2.00000
      5       8.9335      0.00000
      6       9.2257      0.00000
      7      11.0506      0.00000
      8      12.7553      0.00000

 k-point   169 :      -0.2917    0.4583    0.2917
  band No.  band energies     occupation 
      1      -2.5310      2.00000
      2      -1.4564      2.00000
      3       1.5294      2.00000
      4       2.4693      2.00000
      5       8.7819      0.00000
      6      10.2753      0.00000
      7      10.9070      0.00000
      8      11.2940      0.00000

 k-point   170 :      -0.4583   -0.4583    0.2917
  band No.  band energies     occupation 
      1      -3.2976      2.00000
      2      -1.0072      2.00000
      3       1.9546      2.00000
      4       3.5332      2.00000
      5       7.2361      0.00000
      6      10.7428      0.00000
      7      11.2583      0.00000
      8      11.3567      0.00000

 k-point   171 :      -0.3750   -0.4583    0.2917
  band No.  band energies     occupation 
      1      -2.9229      2.00000
      2      -1.2104      2.00000
      3       1.5820      2.00000
      4       3.1347      2.00000
      5       7.6286      0.00000
      6      10.5631      0.00000
      7      11.0246      0.00000
      8      12.8901      0.00000

 k-point   172 :      -0.3750   -0.3750    0.2917
  band No.  band energies     occupation 
      1      -2.7764      2.00000
      2      -1.3161      2.00000
      3       1.3488      2.00000
      4       3.3963      2.00000
      5       7.0339      0.00000
      6      10.5865      0.00000
      7      12.4138      0.00000
      8      12.7560      0.00000

 k-point   173 :       0.3750    0.3750    0.3750
  band No.  band energies     occupation 
      1      -4.5361      2.00000
      2      -0.2501      2.00000
      3       4.5547      2.00000
      4       4.5547      2.00000
      5       7.2212      0.00000
      6       9.0788      0.00000
      7       9.0788      0.00000
      8      13.4639      0.00000

 k-point   174 :       0.4583    0.3750    0.3750
  band No.  band energies     occupation 
      1      -4.2572      2.00000
      2      -0.5637      2.00000
      3       3.7735      2.00000
      4       4.5181      2.00000
      5       7.6887      0.00000
      6       9.1084      0.00000
      7       9.1895      0.00000
      8      13.4241      0.00000

 k-point   175 :      -0.4583    0.3750    0.3750
  band No.  band energies     occupation 
      1      -3.8463      2.00000
      2      -0.7671      2.00000
      3       2.6345      2.00000
      4       4.1933      2.00000
      5       7.9137      0.00000
      6       9.6677      0.00000
      7       9.9221      0.00000
      8      13.4713      0.00000

 k-point   176 :      -0.3750    0.3750    0.3750
  band No.  band energies     occupation 
      1      -3.3334      2.00000
      2      -0.9526      2.00000
      3       1.7106      2.00000
      4       3.7734      2.00000
      5       7.4807      0.00000
      6      11.0296      0.00000
      7      11.0702      0.00000
      8      12.5122      0.00000

 k-point   177 :       0.4583    0.4583    0.3750
  band No.  band energies     occupation 
      1      -4.0730      2.00000
      2      -0.8595      2.00000
      3       3.9547      2.00000
      4       4.2428      2.00000
      5       7.6410      0.00000
      6       8.8817      0.00000
      7       9.4102      0.00000
      8      13.1353      0.00000

 k-point   178 :      -0.4583    0.4583    0.3750
  band No.  band energies     occupation 
      1      -3.7720      2.00000
      2      -1.0140      2.00000
      3       3.0730      2.00000
      4       4.0311      2.00000
      5       8.1624      0.00000
      6       8.7764      0.00000
      7      10.1037      0.00000
      8      13.0245      0.00000

 k-point   179 :      -0.3750    0.4583    0.3750
  band No.  band energies     occupation 
      1      -3.3806      2.00000
      2      -1.0689      2.00000
      3       2.1399      2.00000
      4       3.5874      2.00000
      5       8.1019      0.00000
      6       9.4312      0.00000
      7      11.4195      0.00000
      8      12.6296      0.00000

 k-point   180 :      -0.4583   -0.4583    0.3750
  band No.  band energies     occupation 
      1      -3.6095      2.00000
      2      -1.1109      2.00000
      3       2.7683      2.00000
      4       3.9559      2.00000
      5       7.7170      0.00000
      6       9.6546      0.00000
      7      10.1116      0.00000
      8      12.7511      0.00000

 k-point   181 :       0.4583    0.4583    0.4583
  band No.  band energies     occupation 
      1      -4.0082      2.00000
      2      -1.1146      2.00000
      3       4.4564      2.00000
      4       4.4564      2.00000
      5       7.1076      0.00000
      6       8.9886      0.00000
      7       8.9886      0.00000
      8      13.3486      0.00000

 k-point   182 :      -0.4583    0.4583    0.4583
  band No.  band energies     occupation 
      1      -3.8474      2.00000
      2      -1.1949      2.00000
      3       3.8063      2.00000
      4       4.3285      2.00000
      5       7.6107      0.00000
      6       8.9405      0.00000
      7       9.2548      0.00000
      8      13.6180      0.00000


--------------------------------------------------------------------------------------------------------


 soft charge-density along one line, spin component           1
         0         1         2         3         4         5         6         7         8         9
 total charge-density along one line
 
 pseudopotential strength for first ion, spin component:           1
 18.437  25.722   0.000  -0.000   0.000   0.000  -0.000   0.000
 25.722  35.892   0.000  -0.000   0.000   0.000  -0.000   0.000
  0.000   0.000   4.181  -0.000  -0.000   7.791  -0.000  -0.000
 -0.000  -0.000  -0.000   4.181  -0.000  -0.000   7.791  -0.000
  0.000   0.000  -0.000  -0.000   4.181  -0.000  -0.000   7.791
  0.000   0.000   7.791  -0.000  -0.000  14.528  -0.000  -0.000
 -0.000  -0.000  -0.000   7.791  -0.000  -0.000  14.528  -0.000
  0.000   0.000  -0.000  -0.000   7.791  -0.000  -0.000  14.528
 total augmentation occupancy for first ion, spin component:           1
  5.531  -2.065  -0.000  -0.000   0.000  -0.000  -0.000   0.000
 -2.065   0.887   0.000   0.000   0.000  -0.000   0.000  -0.000
 -0.000  -0.000   2.942   0.000   0.000  -0.663  -0.000  -0.000
  0.000  -0.000   0.000   2.942   0.000   0.000  -0.663  -0.000
 -0.000   0.000   0.000   0.000   2.942  -0.000  -0.000  -0.663
  0.000   0.000  -0.663  -0.000  -0.000   0.158  -0.000   0.000
 -0.000   0.000  -0.000  -0.663   0.000   0.000   0.158  -0.000
  0.000  -0.000  -0.000  -0.000  -0.663   0.000  -0.000   0.158


------------------------ aborting loop because EDIFF is reached ----------------------------------------


    CHARGE:  cpu time    0.1080: real time    0.1084
    FORLOC:  cpu time    0.0010: real time    0.0017
    FORNL :  cpu time    0.1510: real time    0.1503
    STRESS:  cpu time    1.3288: real time    1.3297
    FORCOR:  cpu time    0.0310: real time    0.0310
    FORHAR:  cpu time    0.0060: real time    0.0062
    MIXING:  cpu time    0.0010: real time    0.0012
    OFIELD:  cpu time    0.0010: real time    0.0002

  FORCE on cell =-STRESS in cart. coord.  units (eV):
  Direction    XX          YY          ZZ          XY          YZ          ZX
  --------------------------------------------------------------------------------------
  Alpha Z     3.29544     3.29544     3.29544
  Ewald     -75.66559   -75.66566   -75.66558     0.00001     0.00000     0.00000
  Hartree     5.05398     5.05398     5.05398     0.00000     0.00000     0.00000
  E(xc)     -25.25217   -25.25217   -25.25217    -0.00000    -0.00000    -0.00000
  Local     -29.52426   -29.52424   -29.52424    -0.00000     0.00001     0.00001
  n-local    75.15498    77.51387    79.79668    -1.02042    -1.43080     0.09696
  augment   -11.64879   -11.64879   -11.64881    -0.00000    -0.00001    -0.00001
  Kinetic    54.81139    56.27968    57.67288    -0.12346     0.50827    -1.12644
  Fock        0.00000     0.00000     0.00000     0.00000     0.00000     0.00000
  -------------------------------------------------------------------------------------
  Total       0.00176     0.00176     0.00176    -0.00000     0.00000    -0.00000
  in kB       0.06898     0.06898     0.06898    -0.00000     0.00000    -0.00000
  external pressure =        0.07 kB  Pullay stress =        0.00 kB


 VOLUME and BASIS-vectors are now :
 -----------------------------------------------------------------------------
  energy-cutoff  :      350.00
  volume of cell :       40.86
      direct lattice vectors                 reciprocal lattice vectors
     3.348133390  0.000000000  1.933045442     0.298673883 -0.105597122 -0.000000000
     1.116044463  3.156651684  1.933045442    -0.000000000  0.316791366  0.000000000
    -0.000000000 -0.000000000  3.866090883    -0.149336941 -0.105597122  0.258659206

  length of vectors
     3.866091292  3.866092313  3.866090883     0.316791478  0.316791366  0.316791508


 FORCES acting on ions
    electron-ion (+dipol)            ewald-force                    non-local-force                 convergence-correction
 -----------------------------------------------------------------------------------------------
   0.525E-05 0.245E-04 0.591E-07   -.892E-05 -.418E-04 -.114E-13   0.362E-17 -.116E-16 -.416E-16   -.454E-07 -.319E-07 -.787E-07
   -.525E-05 -.245E-04 -.591E-07   0.892E-05 0.418E-04 0.114E-13   -.105E-16 0.116E-16 0.555E-16   0.454E-07 0.319E-07 0.787E-07
 -----------------------------------------------------------------------------------------------
   0.581E-13 -.381E-13 0.116E-12   0.207E-15 -.747E-16 -.401E-17   -.692E-17 -.129E-27 0.139E-16   -.449E-15 0.426E-15 0.179E-15
 
 
 POSITION                                       TOTAL-FORCE (eV/Angst)
 -----------------------------------------------------------------------------------
      3.90616      2.76207      6.76566        -0.000000     -0.000000     -0.000000
      0.55802      0.39458      0.96652         0.000000      0.000000      0.000000
 -----------------------------------------------------------------------------------
    total drift:                                0.000000     -0.000000      0.000000


--------------------------------------------------------------------------------------------------------



  FREE ENERGIE OF THE ION-ELECTRON SYSTEM (eV)
  ---------------------------------------------------
  free  energy   TOTEN  =       -10.84765801 eV

  energy  without entropy=      -10.84765801  energy(sigma->0) =      -10.84765801
 
 d Force = 0.0000000E+00[ 0.000E+00, 0.000E+00]  d Energy = 0.8982845E-03-0.898E-03
 d Force = 0.0000000E+00[ 0.000E+00, 0.000E+00]  d Ewald  = 0.6758541E+00-0.676E+00


--------------------------------------------------------------------------------------------------------


    POTLOK:  cpu time    0.2050: real time    0.2163


--------------------------------------------------------------------------------------------------------




--------------------------------------------------------------------------------------------------------


  
 reached required accuracy - stopping structural energy minimisation
     LOOP+:  cpu time   13.8219: real time   14.0684
    4ORBIT:  cpu time    0.0000: real time    0.0000

 total amount of memory used by VASP MPI-rank0    46914. kBytes
=======================================================================

   base      :      30000. kBytes
   nonl-proj :       7148. kBytes
   fftplans  :       4177. kBytes
   grid      :       1926. kBytes
   one-center:          6. kBytes
   wavefun   :       3657. kBytes
 
  
  
 General timing and accounting informations for this job:
 ========================================================
  
                  Total CPU time used (sec):       56.657
                            User time (sec):       55.916
                          System time (sec):        0.741
                         Elapsed time (sec):       58.606
  
                   Maximum memory used (kb):       78100.
                   Average memory used (kb):          N/A
  
                          Minor page faults:        16501
                          Major page faults:            1
                 Voluntary context switches:        30301
