 running on    4 total cores
 distrk:  each k-point on    4 cores,    1 groups
 distr:  one band on    1 cores,    4 groups
 vasp.6.2.0 18Jan21 (build Aug 12 2022 13:00:08) complex                        
  
 POSCAR found type information on POSCAR Si
 POSCAR found :  1 types and       2 ions
 scaLAPACK will be used
 LDA part: xc-table for Pade appr. of Perdew
 POSCAR, INCAR and KPOINTS ok, starting setup
 FFT: planning ...
 WAVECAR not read
 entering main loop
       N       E                     dE             d eps       ncg     rms          rms(c)
DAV:   1     0.201820257737E+01    0.20182E+01   -0.26088E+03  2912   0.583E+02
DAV:   2    -0.108653716654E+02   -0.12884E+02   -0.12430E+02  4496   0.668E+01
DAV:   3    -0.110209058866E+02   -0.15553E+00   -0.15553E+00  3808   0.924E+00
DAV:   4    -0.110214536162E+02   -0.54773E-03   -0.54773E-03  4536   0.580E-01
DAV:   5    -0.110214542511E+02   -0.63485E-06   -0.63482E-06  3928   0.156E-02    0.486E+00
DAV:   6    -0.108999488359E+02    0.12151E+00   -0.80023E-02  3448   0.147E+00    0.297E+00
DAV:   7    -0.108444064947E+02    0.55542E-01   -0.15207E-01  3776   0.216E+00    0.185E-01
DAV:   8    -0.108454631484E+02   -0.10567E-02   -0.38015E-03  3312   0.459E-01    0.735E-02
DAV:   9    -0.108456569826E+02   -0.19383E-03   -0.19181E-04  4360   0.107E-01    0.573E-02
DAV:  10    -0.108456818005E+02   -0.24818E-04   -0.29365E-05  3464   0.404E-02    0.981E-03
DAV:  11    -0.108456814610E+02    0.33950E-06   -0.58025E-07  4112   0.521E-03
   1 F= -.10845681E+02 E0= -.10845681E+02  d E =-.108457E+02
 curvature:   0.00 expect dE= 0.000E+00 dE for cont linesearch  0.000E+00
 trial: gam= 0.00000 g(F)=  0.105E-42 g(S)=  0.675E-02 ort = 0.000E+00 (trialstep = 0.100E+01)
 search vector abs. value=  0.675E-02
 bond charge predicted
       N       E                     dE             d eps       ncg     rms          rms(c)
DAV:   1    -0.108494618107E+02   -0.37800E-02   -0.10416E-01  3712   0.181E+00    0.303E-01
DAV:   2    -0.108476955008E+02    0.17663E-02   -0.14669E-03  3936   0.254E-01    0.182E-01
DAV:   3    -0.108467659654E+02    0.92954E-03   -0.19188E-03  3448   0.221E-01    0.603E-02
DAV:   4    -0.108467659524E+02    0.13039E-07   -0.19465E-05  4296   0.394E-02    0.540E-02
DAV:   5    -0.108467595512E+02    0.64012E-05   -0.50353E-06  3408   0.164E-02    0.132E-02
DAV:   6    -0.108467597231E+02   -0.17191E-06   -0.53185E-08  2016   0.217E-03
   2 F= -.10846760E+02 E0= -.10846760E+02  d E =-.107826E-02
 trial-energy change:   -0.001078  1 .order   -0.001172   -0.006750    0.004406
 step:   0.5929(harm=  0.6051)  dis= 0.00000  next Energy=   -10.847663 (dE=-0.198E-02)
 bond charge predicted
       N       E                     dE             d eps       ncg     rms          rms(c)
DAV:   1    -0.108480937905E+02   -0.13342E-02   -0.17483E-02  3608   0.747E-01    0.126E-01
DAV:   2    -0.108478027498E+02    0.29104E-03   -0.24409E-04  4008   0.103E-01    0.758E-02
DAV:   3    -0.108476557010E+02    0.14705E-03   -0.31982E-04  3464   0.904E-02    0.251E-02
DAV:   4    -0.108476563093E+02   -0.60828E-06   -0.32243E-06  4152   0.161E-02    0.225E-02
DAV:   5    -0.108476580700E+02   -0.17607E-05   -0.82039E-07  3144   0.668E-03    0.579E-03
DAV:   6    -0.108476580076E+02    0.62370E-07   -0.10355E-08  1608   0.945E-04
   3 F= -.10847658E+02 E0= -.10847658E+02  d E =-.197655E-02
 curvature:  -0.30 expect dE=-0.677E-07 dE for cont linesearch -0.677E-07
 trial: gam=-0.00573 g(F)=  0.160E-43 g(S)=  0.224E-06 ort = 0.389E-04 (trialstep = 0.919E+00)
 search vector abs. value=  0.107E-09
 reached required accuracy - stopping structural energy minimisation
