<?xml version="1.0" encoding="ISO-8859-1"?>
<modeling>
 <generator>
  <i name="program" type="string">vasp </i>
  <i name="version" type="string">6.2.0  </i>
  <i name="subversion" type="string">18Jan21 (build Aug 12 2022 13:00:08) complex                          parallel </i>
  <i name="platform" type="string">LinuxIFC </i>
  <i name="date" type="string">2024 11 03 </i>
  <i name="time" type="string">21:55:24 </i>
 </generator>
 <incar>
  <i type="int" name="ISTART">     0</i>
  <i type="string" name="PREC">Accurate      (Accurate strictly avoids</i>
  <i type="logical" name="ADDGRID"> T  </i>
  <i type="int" name="ISPIN">     1</i>
  <i type="int" name="NELM">    90</i>
  <i type="int" name="NELMIN">     6</i>
  <i type="int" name="IBRION">     2</i>
  <i name="EDIFF">      0.00000100</i>
  <i name="EDIFFG">     -0.00200000</i>
  <i type="int" name="NSW">   100</i>
  <i type="int" name="ISIF">     3</i>
  <i type="int" name="ISYM">     2</i>
  <i name="ENCUT">    350.00000000</i>
  <i type="logical" name="LREAL"> F  </i>
  <i type="int" name="ISMEAR">     0</i>
  <i name="SIGMA">      0.05000000</i>
  <i type="logical" name="LWAVE"> F  </i>
  <i type="logical" name="LCHARG"> F  </i>
  <i type="logical" name="LASPH"> T  </i>
 </incar>
 <primitive_cell>
  <structure name="primitive_cell" >
   <crystal>
    <varray name="basis" >
     <v>       3.33357300       0.00000000       1.92463900 </v>
     <v>       1.11119100       3.14292400       1.92463900 </v>
     <v>       0.00000000       0.00000000       3.84927800 </v>
    </varray>
    <i name="volume">     40.32952685 </i>
    <varray name="rec_basis" >
     <v>       0.29997843      -0.10605835       0.00000000 </v>
     <v>       0.00000000       0.31817505       0.00000000 </v>
     <v>      -0.14998922      -0.10605835       0.25978898 </v>
    </varray>
   </crystal>
   <varray name="positions" >
    <v>       0.87500000       0.87500000       0.87500000 </v>
    <v>       0.12500000       0.12500000       0.12500000 </v>
   </varray>
  </structure>
  <varray name="primitive_index" >
   <v type="int" >        1 </v>
   <v type="int" >        2 </v>
  </varray>
 </primitive_cell>
 <kpoints>
  <generation param="Monkhorst-Pack">
   <v type="int" name="divisions">      12       12       12 </v>
   <v name="usershift">      0.00000000       0.00000000       0.00000000 </v>
   <v name="genvec1">      0.08333333      -0.00000000       0.00000000 </v>
   <v name="genvec2">      0.00000000       0.08333333       0.00000000 </v>
   <v name="genvec3">      0.00000000       0.00000000       0.08333333 </v>
   <v name="shift">      0.50000000       0.50000000       0.50000000 </v>
  </generation>
  <varray name="kpointlist" >
   <v>       0.04166667       0.04166667       0.04166667 </v>
   <v>       0.12500000       0.04166667       0.04166667 </v>
   <v>       0.20833333       0.04166667       0.04166667 </v>
   <v>       0.29166667       0.04166667       0.04166667 </v>
   <v>       0.37500000       0.04166667       0.04166667 </v>
   <v>       0.45833333       0.04166667       0.04166667 </v>
   <v>      -0.45833333       0.04166667       0.04166667 </v>
   <v>      -0.37500000       0.04166667       0.04166667 </v>
   <v>      -0.29166667       0.04166667       0.04166667 </v>
   <v>      -0.20833333       0.04166667       0.04166667 </v>
   <v>      -0.12500000       0.04166667       0.04166667 </v>
   <v>      -0.04166667       0.04166667       0.04166667 </v>
   <v>       0.12500000       0.12500000       0.04166667 </v>
   <v>       0.20833333       0.12500000       0.04166667 </v>
   <v>       0.29166667       0.12500000       0.04166667 </v>
   <v>       0.37500000       0.12500000       0.04166667 </v>
   <v>       0.45833333       0.12500000       0.04166667 </v>
   <v>      -0.45833333       0.12500000       0.04166667 </v>
   <v>      -0.37500000       0.12500000       0.04166667 </v>
   <v>      -0.29166667       0.12500000       0.04166667 </v>
   <v>      -0.20833333       0.12500000       0.04166667 </v>
   <v>      -0.12500000       0.12500000       0.04166667 </v>
   <v>      -0.04166667       0.12500000       0.04166667 </v>
   <v>       0.20833333       0.20833333       0.04166667 </v>
   <v>       0.29166667       0.20833333       0.04166667 </v>
   <v>       0.37500000       0.20833333       0.04166667 </v>
   <v>       0.45833333       0.20833333       0.04166667 </v>
   <v>      -0.45833333       0.20833333       0.04166667 </v>
   <v>      -0.37500000       0.20833333       0.04166667 </v>
   <v>      -0.29166667       0.20833333       0.04166667 </v>
   <v>      -0.20833333       0.20833333       0.04166667 </v>
   <v>      -0.12500000       0.20833333       0.04166667 </v>
   <v>      -0.04166667       0.20833333       0.04166667 </v>
   <v>       0.29166667       0.29166667       0.04166667 </v>
   <v>       0.37500000       0.29166667       0.04166667 </v>
   <v>       0.45833333       0.29166667       0.04166667 </v>
   <v>      -0.45833333       0.29166667       0.04166667 </v>
   <v>      -0.37500000       0.29166667       0.04166667 </v>
   <v>      -0.29166667       0.29166667       0.04166667 </v>
   <v>      -0.20833333       0.29166667       0.04166667 </v>
   <v>      -0.12500000       0.29166667       0.04166667 </v>
   <v>      -0.04166667       0.29166667       0.04166667 </v>
   <v>       0.37500000       0.37500000       0.04166667 </v>
   <v>       0.45833333       0.37500000       0.04166667 </v>
   <v>      -0.45833333       0.37500000       0.04166667 </v>
   <v>      -0.37500000       0.37500000       0.04166667 </v>
   <v>      -0.29166667       0.37500000       0.04166667 </v>
   <v>      -0.20833333       0.37500000       0.04166667 </v>
   <v>      -0.12500000       0.37500000       0.04166667 </v>
   <v>      -0.04166667       0.37500000       0.04166667 </v>
   <v>       0.45833333       0.45833333       0.04166667 </v>
   <v>      -0.45833333       0.45833333       0.04166667 </v>
   <v>      -0.37500000       0.45833333       0.04166667 </v>
   <v>      -0.29166667       0.45833333       0.04166667 </v>
   <v>      -0.20833333       0.45833333       0.04166667 </v>
   <v>      -0.12500000       0.45833333       0.04166667 </v>
   <v>      -0.04166667       0.45833333       0.04166667 </v>
   <v>      -0.45833333      -0.45833333       0.04166667 </v>
   <v>      -0.37500000      -0.45833333       0.04166667 </v>
   <v>      -0.29166667      -0.45833333       0.04166667 </v>
   <v>      -0.20833333      -0.45833333       0.04166667 </v>
   <v>      -0.12500000      -0.45833333       0.04166667 </v>
   <v>      -0.37500000      -0.37500000       0.04166667 </v>
   <v>      -0.29166667      -0.37500000       0.04166667 </v>
   <v>      -0.20833333      -0.37500000       0.04166667 </v>
   <v>      -0.12500000      -0.37500000       0.04166667 </v>
   <v>      -0.29166667      -0.29166667       0.04166667 </v>
   <v>      -0.20833333      -0.29166667       0.04166667 </v>
   <v>      -0.12500000      -0.29166667       0.04166667 </v>
   <v>      -0.20833333      -0.20833333       0.04166667 </v>
   <v>      -0.12500000      -0.20833333       0.04166667 </v>
   <v>      -0.12500000      -0.12500000       0.04166667 </v>
   <v>       0.12500000       0.12500000       0.12500000 </v>
   <v>       0.20833333       0.12500000       0.12500000 </v>
   <v>       0.29166667       0.12500000       0.12500000 </v>
   <v>       0.37500000       0.12500000       0.12500000 </v>
   <v>       0.45833333       0.12500000       0.12500000 </v>
   <v>      -0.45833333       0.12500000       0.12500000 </v>
   <v>      -0.37500000       0.12500000       0.12500000 </v>
   <v>      -0.29166667       0.12500000       0.12500000 </v>
   <v>      -0.20833333       0.12500000       0.12500000 </v>
   <v>      -0.12500000       0.12500000       0.12500000 </v>
   <v>       0.20833333       0.20833333       0.12500000 </v>
   <v>       0.29166667       0.20833333       0.12500000 </v>
   <v>       0.37500000       0.20833333       0.12500000 </v>
   <v>       0.45833333       0.20833333       0.12500000 </v>
   <v>      -0.45833333       0.20833333       0.12500000 </v>
   <v>      -0.37500000       0.20833333       0.12500000 </v>
   <v>      -0.29166667       0.20833333       0.12500000 </v>
   <v>      -0.20833333       0.20833333       0.12500000 </v>
   <v>      -0.12500000       0.20833333       0.12500000 </v>
   <v>       0.29166667       0.29166667       0.12500000 </v>
   <v>       0.37500000       0.29166667       0.12500000 </v>
   <v>       0.45833333       0.29166667       0.12500000 </v>
   <v>      -0.45833333       0.29166667       0.12500000 </v>
   <v>      -0.37500000       0.29166667       0.12500000 </v>
   <v>      -0.29166667       0.29166667       0.12500000 </v>
   <v>      -0.20833333       0.29166667       0.12500000 </v>
   <v>      -0.12500000       0.29166667       0.12500000 </v>
   <v>       0.37500000       0.37500000       0.12500000 </v>
   <v>       0.45833333       0.37500000       0.12500000 </v>
   <v>      -0.45833333       0.37500000       0.12500000 </v>
   <v>      -0.37500000       0.37500000       0.12500000 </v>
   <v>      -0.29166667       0.37500000       0.12500000 </v>
   <v>      -0.20833333       0.37500000       0.12500000 </v>
   <v>      -0.12500000       0.37500000       0.12500000 </v>
   <v>       0.45833333       0.45833333       0.12500000 </v>
   <v>      -0.45833333       0.45833333       0.12500000 </v>
   <v>      -0.37500000       0.45833333       0.12500000 </v>
   <v>      -0.29166667       0.45833333       0.12500000 </v>
   <v>      -0.20833333       0.45833333       0.12500000 </v>
   <v>      -0.12500000       0.45833333       0.12500000 </v>
   <v>      -0.45833333      -0.45833333       0.12500000 </v>
   <v>      -0.37500000      -0.45833333       0.12500000 </v>
   <v>      -0.29166667      -0.45833333       0.12500000 </v>
   <v>      -0.20833333      -0.45833333       0.12500000 </v>
   <v>      -0.37500000      -0.37500000       0.12500000 </v>
   <v>      -0.29166667      -0.37500000       0.12500000 </v>
   <v>      -0.20833333      -0.37500000       0.12500000 </v>
   <v>      -0.29166667      -0.29166667       0.12500000 </v>
   <v>      -0.20833333      -0.29166667       0.12500000 </v>
   <v>      -0.20833333      -0.20833333       0.12500000 </v>
   <v>       0.20833333       0.20833333       0.20833333 </v>
   <v>       0.29166667       0.20833333       0.20833333 </v>
   <v>       0.37500000       0.20833333       0.20833333 </v>
   <v>       0.45833333       0.20833333       0.20833333 </v>
   <v>      -0.45833333       0.20833333       0.20833333 </v>
   <v>      -0.37500000       0.20833333       0.20833333 </v>
   <v>      -0.29166667       0.20833333       0.20833333 </v>
   <v>      -0.20833333       0.20833333       0.20833333 </v>
   <v>       0.29166667       0.29166667       0.20833333 </v>
   <v>       0.37500000       0.29166667       0.20833333 </v>
   <v>       0.45833333       0.29166667       0.20833333 </v>
   <v>      -0.45833333       0.29166667       0.20833333 </v>
   <v>      -0.37500000       0.29166667       0.20833333 </v>
   <v>      -0.29166667       0.29166667       0.20833333 </v>
   <v>      -0.20833333       0.29166667       0.20833333 </v>
   <v>       0.37500000       0.37500000       0.20833333 </v>
   <v>       0.45833333       0.37500000       0.20833333 </v>
   <v>      -0.45833333       0.37500000       0.20833333 </v>
   <v>      -0.37500000       0.37500000       0.20833333 </v>
   <v>      -0.29166667       0.37500000       0.20833333 </v>
   <v>      -0.20833333       0.37500000       0.20833333 </v>
   <v>       0.45833333       0.45833333       0.20833333 </v>
   <v>      -0.45833333       0.45833333       0.20833333 </v>
   <v>      -0.37500000       0.45833333       0.20833333 </v>
   <v>      -0.29166667       0.45833333       0.20833333 </v>
   <v>      -0.20833333       0.45833333       0.20833333 </v>
   <v>      -0.45833333      -0.45833333       0.20833333 </v>
   <v>      -0.37500000      -0.45833333       0.20833333 </v>
   <v>      -0.29166667      -0.45833333       0.20833333 </v>
   <v>      -0.37500000      -0.37500000       0.20833333 </v>
   <v>      -0.29166667      -0.37500000       0.20833333 </v>
   <v>      -0.29166667      -0.29166667       0.20833333 </v>
   <v>       0.29166667       0.29166667       0.29166667 </v>
   <v>       0.37500000       0.29166667       0.29166667 </v>
   <v>       0.45833333       0.29166667       0.29166667 </v>
   <v>      -0.45833333       0.29166667       0.29166667 </v>
   <v>      -0.37500000       0.29166667       0.29166667 </v>
   <v>      -0.29166667       0.29166667       0.29166667 </v>
   <v>       0.37500000       0.37500000       0.29166667 </v>
   <v>       0.45833333       0.37500000       0.29166667 </v>
   <v>      -0.45833333       0.37500000       0.29166667 </v>
   <v>      -0.37500000       0.37500000       0.29166667 </v>
   <v>      -0.29166667       0.37500000       0.29166667 </v>
   <v>       0.45833333       0.45833333       0.29166667 </v>
   <v>      -0.45833333       0.45833333       0.29166667 </v>
   <v>      -0.37500000       0.45833333       0.29166667 </v>
   <v>      -0.29166667       0.45833333       0.29166667 </v>
   <v>      -0.45833333      -0.45833333       0.29166667 </v>
   <v>      -0.37500000      -0.45833333       0.29166667 </v>
   <v>      -0.37500000      -0.37500000       0.29166667 </v>
   <v>       0.37500000       0.37500000       0.37500000 </v>
   <v>       0.45833333       0.37500000       0.37500000 </v>
   <v>      -0.45833333       0.37500000       0.37500000 </v>
   <v>      -0.37500000       0.37500000       0.37500000 </v>
   <v>       0.45833333       0.45833333       0.37500000 </v>
   <v>      -0.45833333       0.45833333       0.37500000 </v>
   <v>      -0.37500000       0.45833333       0.37500000 </v>
   <v>      -0.45833333      -0.45833333       0.37500000 </v>
   <v>       0.45833333       0.45833333       0.45833333 </v>
   <v>      -0.45833333       0.45833333       0.45833333 </v>
  </varray>
  <varray name="weights" >
   <v>       0.00115741 </v>
   <v>       0.00347222 </v>
   <v>       0.00347222 </v>
   <v>       0.00347222 </v>
   <v>       0.00347222 </v>
   <v>       0.00347222 </v>
   <v>       0.00347222 </v>
   <v>       0.00347222 </v>
   <v>       0.00347222 </v>
   <v>       0.00347222 </v>
   <v>       0.00347222 </v>
   <v>       0.00347222 </v>
   <v>       0.00347222 </v>
   <v>       0.00694444 </v>
   <v>       0.00694444 </v>
   <v>       0.00694444 </v>
   <v>       0.00694444 </v>
   <v>       0.00694444 </v>
   <v>       0.00694444 </v>
   <v>       0.00694444 </v>
   <v>       0.00694444 </v>
   <v>       0.00694444 </v>
   <v>       0.00694444 </v>
   <v>       0.00347222 </v>
   <v>       0.00694444 </v>
   <v>       0.00694444 </v>
   <v>       0.00694444 </v>
   <v>       0.00694444 </v>
   <v>       0.00694444 </v>
   <v>       0.00694444 </v>
   <v>       0.00694444 </v>
   <v>       0.00694444 </v>
   <v>       0.00694444 </v>
   <v>       0.00347222 </v>
   <v>       0.00694444 </v>
   <v>       0.00694444 </v>
   <v>       0.00694444 </v>
   <v>       0.00694444 </v>
   <v>       0.00694444 </v>
   <v>       0.00694444 </v>
   <v>       0.00694444 </v>
   <v>       0.00694444 </v>
   <v>       0.00347222 </v>
   <v>       0.00694444 </v>
   <v>       0.00694444 </v>
   <v>       0.00694444 </v>
   <v>       0.00694444 </v>
   <v>       0.00694444 </v>
   <v>       0.00694444 </v>
   <v>       0.00694444 </v>
   <v>       0.00347222 </v>
   <v>       0.00694444 </v>
   <v>       0.00694444 </v>
   <v>       0.00694444 </v>
   <v>       0.00694444 </v>
   <v>       0.00694444 </v>
   <v>       0.00694444 </v>
   <v>       0.00347222 </v>
   <v>       0.00694444 </v>
   <v>       0.00694444 </v>
   <v>       0.00694444 </v>
   <v>       0.00694444 </v>
   <v>       0.00347222 </v>
   <v>       0.00694444 </v>
   <v>       0.00694444 </v>
   <v>       0.00694444 </v>
   <v>       0.00347222 </v>
   <v>       0.00694444 </v>
   <v>       0.00694444 </v>
   <v>       0.00347222 </v>
   <v>       0.00694444 </v>
   <v>       0.00347222 </v>
   <v>       0.00115741 </v>
   <v>       0.00347222 </v>
   <v>       0.00347222 </v>
   <v>       0.00347222 </v>
   <v>       0.00347222 </v>
   <v>       0.00347222 </v>
   <v>       0.00347222 </v>
   <v>       0.00347222 </v>
   <v>       0.00347222 </v>
   <v>       0.00347222 </v>
   <v>       0.00347222 </v>
   <v>       0.00694444 </v>
   <v>       0.00694444 </v>
   <v>       0.00694444 </v>
   <v>       0.00694444 </v>
   <v>       0.00694444 </v>
   <v>       0.00694444 </v>
   <v>       0.00694444 </v>
   <v>       0.00694444 </v>
   <v>       0.00347222 </v>
   <v>       0.00694444 </v>
   <v>       0.00694444 </v>
   <v>       0.00694444 </v>
   <v>       0.00694444 </v>
   <v>       0.00694444 </v>
   <v>       0.00694444 </v>
   <v>       0.00694444 </v>
   <v>       0.00347222 </v>
   <v>       0.00694444 </v>
   <v>       0.00694444 </v>
   <v>       0.00694444 </v>
   <v>       0.00694444 </v>
   <v>       0.00694444 </v>
   <v>       0.00694444 </v>
   <v>       0.00347222 </v>
   <v>       0.00694444 </v>
   <v>       0.00694444 </v>
   <v>       0.00694444 </v>
   <v>       0.00694444 </v>
   <v>       0.00694444 </v>
   <v>       0.00347222 </v>
   <v>       0.00694444 </v>
   <v>       0.00694444 </v>
   <v>       0.00694444 </v>
   <v>       0.00347222 </v>
   <v>       0.00694444 </v>
   <v>       0.00694444 </v>
   <v>       0.00347222 </v>
   <v>       0.00694444 </v>
   <v>       0.00347222 </v>
   <v>       0.00115741 </v>
   <v>       0.00347222 </v>
   <v>       0.00347222 </v>
   <v>       0.00347222 </v>
   <v>       0.00347222 </v>
   <v>       0.00347222 </v>
   <v>       0.00347222 </v>
   <v>       0.00347222 </v>
   <v>       0.00347222 </v>
   <v>       0.00694444 </v>
   <v>       0.00694444 </v>
   <v>       0.00694444 </v>
   <v>       0.00694444 </v>
   <v>       0.00694444 </v>
   <v>       0.00694444 </v>
   <v>       0.00347222 </v>
   <v>       0.00694444 </v>
   <v>       0.00694444 </v>
   <v>       0.00694444 </v>
   <v>       0.00694444 </v>
   <v>       0.00694444 </v>
   <v>       0.00347222 </v>
   <v>       0.00694444 </v>
   <v>       0.00694444 </v>
   <v>       0.00694444 </v>
   <v>       0.00694444 </v>
   <v>       0.00347222 </v>
   <v>       0.00694444 </v>
   <v>       0.00694444 </v>
   <v>       0.00347222 </v>
   <v>       0.00694444 </v>
   <v>       0.00347222 </v>
   <v>       0.00115741 </v>
   <v>       0.00347222 </v>
   <v>       0.00347222 </v>
   <v>       0.00347222 </v>
   <v>       0.00347222 </v>
   <v>       0.00347222 </v>
   <v>       0.00347222 </v>
   <v>       0.00694444 </v>
   <v>       0.00694444 </v>
   <v>       0.00694444 </v>
   <v>       0.00694444 </v>
   <v>       0.00347222 </v>
   <v>       0.00694444 </v>
   <v>       0.00694444 </v>
   <v>       0.00694444 </v>
   <v>       0.00347222 </v>
   <v>       0.00694444 </v>
   <v>       0.00347222 </v>
   <v>       0.00115741 </v>
   <v>       0.00347222 </v>
   <v>       0.00347222 </v>
   <v>       0.00347222 </v>
   <v>       0.00347222 </v>
   <v>       0.00694444 </v>
   <v>       0.00694444 </v>
   <v>       0.00347222 </v>
   <v>       0.00115741 </v>
   <v>       0.00347222 </v>
  </varray>
 </kpoints>
 <parameters>
  <separator name="general" >
   <i type="string" name="SYSTEM">unknown system</i>
   <i type="logical" name="LCOMPAT"> F  </i>
  </separator>
  <separator name="electronic" >
   <i type="string" name="PREC">accura</i>
   <i name="ENMAX">    350.00000000</i>
   <i name="ENAUG">    322.06900000</i>
   <i name="EDIFF">      0.00000100</i>
   <i type="int" name="IALGO">    38</i>
   <i type="int" name="IWAVPR">    11</i>
   <i type="int" name="NBANDS">     8</i>
   <i type="int" name="NBANDSLOW">    -1</i>
   <i type="int" name="NBANDSHIGH">    -1</i>
   <i name="NELECT">      8.00000000</i>
   <i type="int" name="TURBO">     0</i>
   <i type="int" name="IRESTART">     0</i>
   <i type="int" name="NREBOOT">     0</i>
   <i type="int" name="NMIN">     0</i>
   <i name="EREF">      0.00000000</i>
   <separator name="electronic smearing" >
    <i type="int" name="ISMEAR">     0</i>
    <i name="SIGMA">      0.05000000</i>
    <i name="KSPACING">      0.50000000</i>
    <i type="logical" name="KGAMMA"> T  </i>
    <i type="logical" name="KBLOWUP"> T  </i>
   </separator>
   <separator name="electronic projectors" >
    <i type="logical" name="LREAL"> F  </i>
    <v name="ROPT">      0.00000000</v>
    <i type="int" name="LMAXPAW">  -100</i>
    <i type="int" name="LMAXMIX">     2</i>
    <i type="logical" name="NLSPLINE"> F  </i>
   </separator>
   <separator name="electronic startup" >
    <i type="int" name="ISTART">     0</i>
    <i type="int" name="ICHARG">     2</i>
    <i type="int" name="INIWAV">     1</i>
   </separator>
   <separator name="electronic spin" >
    <i type="int" name="ISPIN">     1</i>
    <i type="logical" name="LNONCOLLINEAR"> F  </i>
    <v name="MAGMOM">      1.00000000      1.00000000</v>
    <i name="NUPDOWN">     -1.00000000</i>
    <i type="logical" name="LSORBIT"> F  </i>
    <v name="SAXIS">      0.00000000      0.00000000      1.00000000</v>
    <i type="logical" name="LSPIRAL"> F  </i>
    <v name="QSPIRAL">      0.00000000      0.00000000      0.00000000</v>
    <i type="logical" name="LZEROZ"> F  </i>
   </separator>
   <separator name="electronic exchange-correlation" >
    <i type="logical" name="LASPH"> T  </i>
    <i type="logical" name="LMETAGGA"> F  </i>
   </separator>
   <separator name="electronic convergence" >
    <i type="int" name="NELM">    90</i>
    <i type="int" name="NELMDL">    -5</i>
    <i type="int" name="NELMIN">     6</i>
    <i name="ENINI">    350.00000000</i>
    <separator name="electronic convergence detail" >
     <i type="logical" name="LDIAG"> T  </i>
     <i type="logical" name="LSUBROT"> F  </i>
     <i name="WEIMIN">      0.00100000</i>
     <i name="EBREAK">      0.00000003</i>
     <i name="DEPER">      0.30000000</i>
     <i type="int" name="NRMM">     4</i>
     <i name="TIME">      0.40000000</i>
    </separator>
   </separator>
   <separator name="electronic mixer" >
    <i name="AMIX">      0.40000000</i>
    <i name="BMIX">      1.00000000</i>
    <i name="AMIN">      0.10000000</i>
    <i name="AMIX_MAG">      1.60000000</i>
    <i name="BMIX_MAG">      1.00000000</i>
    <separator name="electronic mixer details" >
     <i type="int" name="IMIX">     4</i>
     <i type="logical" name="MIXFIRST"> F  </i>
     <i type="int" name="MAXMIX">   -45</i>
     <i name="WC">    100.00000000</i>
     <i type="int" name="INIMIX">     1</i>
     <i type="int" name="MIXPRE">     1</i>
     <i type="int" name="MREMOVE">     5</i>
    </separator>
   </separator>
   <separator name="electronic dipolcorrection" >
    <i type="logical" name="LDIPOL"> F  </i>
    <i type="logical" name="LMONO"> F  </i>
    <i type="int" name="IDIPOL">     0</i>
    <i name="EPSILON">      1.00000000</i>
    <v name="DIPOL">   -100.00000000   -100.00000000   -100.00000000</v>
    <i name="EFIELD">      0.00000000</i>
   </separator>
  </separator>
  <separator name="grids" >
   <i type="int" name="NGX">    24</i>
   <i type="int" name="NGY">    24</i>
   <i type="int" name="NGZ">    24</i>
   <i type="int" name="NGXF">    48</i>
   <i type="int" name="NGYF">    48</i>
   <i type="int" name="NGZF">    48</i>
   <i type="logical" name="ADDGRID"> T  </i>
  </separator>
  <separator name="ionic" >
   <i type="int" name="NSW">   100</i>
   <i type="int" name="IBRION">     2</i>
   <i type="int" name="MDALGO">     0</i>
   <i type="int" name="ISIF">     3</i>
   <i name="PSTRESS">      0.00000000</i>
   <i name="EDIFFG">     -0.00200000</i>
   <i type="int" name="NFREE">     1</i>
   <i name="POTIM">      0.50000000</i>
   <i name="SMASS">     -3.00000000</i>
   <i name="SCALEE">      1.00000000</i>
  </separator>
  <separator name="ionic md" >
   <i name="TEBEG">      0.00010000</i>
   <i name="TEEND">      0.00010000</i>
   <i type="int" name="NBLOCK">     1</i>
   <i type="int" name="KBLOCK">   100</i>
   <i type="int" name="NPACO">   256</i>
   <i name="APACO">     16.00000000</i>
  </separator>
  <separator name="symmetry" >
   <i type="int" name="ISYM">     2</i>
   <i name="SYMPREC">      0.00001000</i>
  </separator>
  <separator name="dos" >
   <i type="int" name="LORBIT">     0</i>
   <v name="RWIGS">     -1.00000000</v>
   <i type="int" name="NEDOS">   301</i>
   <i name="EMIN">     10.00000000</i>
   <i name="EMAX">    -10.00000000</i>
   <i name="EFERMI">      0.00000000</i>
  </separator>
  <separator name="writing" >
   <i type="int" name="NWRITE">     2</i>
   <i type="logical" name="LWAVE"> F  </i>
   <i type="logical" name="LDOWNSAMPLE"> F  </i>
   <i type="logical" name="LCHARG"> F  </i>
   <i type="logical" name="LPARD"> F  </i>
   <i type="logical" name="LVTOT"> F  </i>
   <i type="logical" name="LVHAR"> F  </i>
   <i type="logical" name="LELF"> F  </i>
   <i type="logical" name="LOPTICS"> F  </i>
   <v name="STM">      0.00000000      0.00000000      0.00000000      0.00000000      0.00000000      0.00000000      0.00000000</v>
  </separator>
  <separator name="performance" >
   <i type="int" name="NPAR">     4</i>
   <i type="int" name="NSIM">     4</i>
   <i type="int" name="NBLK">    -1</i>
   <i type="logical" name="LPLANE"> T  </i>
   <i type="logical" name="LSCALAPACK"> T  </i>
   <i type="logical" name="LSCAAWARE"> F  </i>
   <i type="logical" name="LSCALU"> F  </i>
   <i type="logical" name="LASYNC"> F  </i>
   <i type="logical" name="LORBITALREAL"> F  </i>
  </separator>
  <separator name="miscellaneous" >
   <i type="int" name="IDIOT">     3</i>
   <i type="int" name="PHON_NSTRUCT">    -1</i>
   <i type="logical" name="LMUSIC"> F  </i>
   <v name="POMASS">     28.08500000</v>
   <v name="DARWINR">      0.00000000</v>
   <v name="DARWINV">      1.00000000</v>
   <i type="logical" name="LCORR"> T  </i>
  </separator>
  <i type="logical" name="GGA_COMPAT"> T  </i>
  <i type="logical" name="LBERRY"> F  </i>
  <i type="int" name="ICORELEVEL">     0</i>
  <i type="logical" name="LDAU"> F  </i>
  <i type="int" name="I_CONSTRAINED_M">     0</i>
  <separator name="electronic exchange-correlation" >
   <i type="string" name="GGA">--</i>
   <i type="int" name="VOSKOWN">     0</i>
   <i type="logical" name="LHFCALC"> F  </i>
   <i type="string" name="PRECFOCK"></i>
   <i type="logical" name="LSYMGRAD"> F  </i>
   <i type="logical" name="LHFONE"> F  </i>
   <i type="logical" name="LRHFCALC"> F  </i>
   <i type="logical" name="LTHOMAS"> F  </i>
   <i type="logical" name="LMODELHF"> F  </i>
   <i type="logical" name="LFOCKACE"> F  </i>
   <i name="ENCUT4O">     -1.00000000</i>
   <i type="int" name="EXXOEP">     0</i>
   <i type="int" name="FOURORBIT">     0</i>
   <i name="AEXX">      0.00000000</i>
   <i name="HFALPHA">      0.00000000</i>
   <i name="MCALPHA">      0.00000000</i>
   <i name="ALDAX">      1.00000000</i>
   <i name="AGGAX">      1.00000000</i>
   <i name="ALDAC">      1.00000000</i>
   <i name="AGGAC">      1.00000000</i>
   <i type="int" name="NKREDX">     1</i>
   <i type="int" name="NKREDY">     1</i>
   <i type="int" name="NKREDZ">     1</i>
   <i type="logical" name="SHIFTRED"> F  </i>
   <i type="logical" name="ODDONLY"> F  </i>
   <i type="logical" name="EVENONLY"> F  </i>
   <i type="int" name="LMAXFOCK">     0</i>
   <i type="int" name="NMAXFOCKAE">     0</i>
   <i type="logical" name="LFOCKAEDFT"> F  </i>
   <i name="HFSCREEN">      0.00000000</i>
   <i name="HFSCREENC">      0.00000000</i>
   <i type="int" name="NBANDSGWLOW">     0</i>
  </separator>
  <separator name="vdW DFT" >
   <i type="logical" name="LUSE_VDW"> F  </i>
   <i name="Zab_VDW">     -0.84910000</i>
   <i name="PARAM1">      0.12340000</i>
   <i name="PARAM2">      1.00000000</i>
   <i name="PARAM3">      0.00000000</i>
  </separator>
  <separator name="model GW" >
   <i type="int" name="MODEL_GW">     0</i>
   <i name="MODEL_EPS0">     12.09885805</i>
   <i name="MODEL_ALPHA">      1.00000000</i>
  </separator>
  <separator name="linear response parameters" >
   <i type="logical" name="LEPSILON"> F  </i>
   <i type="logical" name="LRPA"> F  </i>
   <i type="logical" name="LNABLA"> F  </i>
   <i type="logical" name="LVEL"> F  </i>
   <i type="int" name="KINTER">     0</i>
   <i name="CSHIFT">      0.10000000</i>
   <i name="OMEGAMAX">     -1.00000000</i>
   <i name="DEG_THRESHOLD">      0.00200000</i>
   <i name="RTIME">     -0.10000000</i>
   <i name="WPLASMAI">      0.00000000</i>
   <v name="DFIELD">      0.00000000      0.00000000      0.00000000</v>
   <v name="WPLASMA">      0.00000000      0.00000000      0.00000000      0.00000000      0.00000000      0.00000000      0.00000000      0.00000000      0.00000000</v>
  </separator>
  <separator name="orbital magnetization" >
   <i type="logical" name="NUCIND"> F  </i>
   <v name="MAGPOS">      0.00000000      0.00000000      0.00000000</v>
   <i type="logical" name="LNICSALL"> T  </i>
   <i type="logical" name="ORBITALMAG"> F  </i>
   <i type="logical" name="LMAGBLOCH"> F  </i>
   <i type="logical" name="LCHIMAG"> F  </i>
   <i type="logical" name="LGAUGE"> T  </i>
   <i type="int" name="MAGATOM">     0</i>
   <v name="MAGDIPOL">      0.00000000      0.00000000      0.00000000</v>
   <v name="AVECCONST">      0.00000000      0.00000000      0.00000000</v>
  </separator>
  <separator name="response functions" >
   <i type="logical" name="LFINITE_TEMPERATURE"> F  </i>
   <i type="logical" name="LADDER"> F  </i>
   <i type="logical" name="LRPAFORCE"> F  </i>
   <i type="logical" name="LFXC"> F  </i>
   <i type="logical" name="LHARTREE"> T  </i>
   <i type="int" name="IBSE">     0</i>
   <v type="int" name="KPOINT">    -1     0     0     0</v>
   <i type="logical" name="LTCTC"> F  </i>
   <i type="logical" name="LTCTE"> F  </i>
   <i type="logical" name="LTETE"> F  </i>
   <i type="logical" name="LTRIPLET"> F  </i>
   <i type="logical" name="LFXCEPS"> F  </i>
   <i type="logical" name="LFXHEG"> F  </i>
   <i type="int" name="NATURALO">     2</i>
   <i type="logical" name="LHOLEGF"> F  </i>
   <i type="logical" name="L2ORDER"> F  </i>
   <i type="logical" name="LDMP1"> F  </i>
   <i type="logical" name="LMP2LT"> F  </i>
   <i type="logical" name="LSMP2LT"> F  </i>
   <i type="logical" name="LGWLF"> F  </i>
   <i name="ENCUTGW">     -2.00000000</i>
   <i name="ENCUTGWSOFT">     -2.00000000</i>
   <i name="ENCUTLF">     -1.00000000</i>
   <i type="logical" name="LESF_SPLINES"> F  </i>
   <i type="int" name="LMAXMP2">    -1</i>
   <i name="SCISSOR">      0.00000000</i>
   <i type="int" name="NOMEGA">     0</i>
   <i type="int" name="NOMEGAR">     0</i>
   <i type="int" name="NBANDSGW">    -1</i>
   <i type="int" name="NBANDSO">    -1</i>
   <i type="int" name="NBANDSV">    -1</i>
   <i type="int" name="NELM">    90</i>
   <i type="int" name="NELMHF">     1</i>
   <i type="int" name="DIM">     3</i>
   <i type="int" name="IESPILON">     4</i>
   <i type="int" name="ANTIRES">     0</i>
   <i name="OMEGAMAX">    -30.00000000</i>
   <i name="OMEGAMIN">    -30.00000000</i>
   <i name="OMEGATL">   -200.00000000</i>
   <i type="int" name="OMEGAGRID">     0</i>
   <i name="CSHIFT">     -0.10000000</i>
   <i type="logical" name="LSELFENERGY"> F  </i>
   <i type="logical" name="LSPECTRAL"> F  </i>
   <i type="logical" name="LSPECTRALGW"> F  </i>
   <i type="logical" name="LSINGLES"> F  </i>
   <i type="logical" name="LFERMIGW"> F  </i>
   <i type="logical" name="ODDONLYGW"> F  </i>
   <i type="logical" name="EVENONLYGW"> F  </i>
   <i type="int" name="NKREDLFX">     1</i>
   <i type="int" name="NKREDLFY">     1</i>
   <i type="int" name="NKREDLFZ">     1</i>
   <i type="int" name="MAXMEM">  2800</i>
   <i type="int" name="TELESCOPE">     0</i>
   <i type="int" name="NTAUPAR">    -1</i>
   <i type="int" name="NOMEGAPAR">    -1</i>
   <i name="DAMP_NEWTON">      0.80000001</i>
   <i name="LAMBDA">      1.00000000</i>
  </separator>
  <separator name="External order field" >
   <i name="OFIELD_KAPPA">      0.00000000</i>
   <v name="OFIELD_K">      0.00000000      0.00000000      0.00000000</v>
   <i name="OFIELD_Q6_NEAR">      0.00000000</i>
   <i name="OFIELD_Q6_FAR">      0.00000000</i>
   <i name="OFIELD_A">      0.00000000</i>
  </separator>
 </parameters>
 <atominfo>
  <atoms>       2 </atoms>
  <types>       1 </types>
  <array name="atoms" >
   <dimension dim="1">ion</dimension>
   <field type="string">element</field>
   <field type="int">atomtype</field>
   <set>
    <rc><c>Si</c><c>   1</c></rc>
    <rc><c>Si</c><c>   1</c></rc>
   </set>
  </array>
  <array name="atomtypes" >
   <dimension dim="1">type</dimension>
   <field type="int">atomspertype</field>
   <field type="string">element</field>
   <field>mass</field>
   <field>valence</field>
   <field type="string">pseudopotential</field>
   <set>
    <rc><c>   2</c><c>Si</c><c>     28.08500000</c><c>      4.00000000</c><c>  PAW_PBE Si 05Jan2001                  </c></rc>
   </set>
  </array>
 </atominfo>
 <structure name="initialpos" >
  <crystal>
   <varray name="basis" >
    <v>       3.33357300       0.00000000       1.92463900 </v>
    <v>       1.11119100       3.14292400       1.92463900 </v>
    <v>       0.00000000       0.00000000       3.84927800 </v>
   </varray>
   <i name="volume">     40.32952685 </i>
   <varray name="rec_basis" >
    <v>       0.29997843      -0.10605835       0.00000000 </v>
    <v>       0.00000000       0.31817505       0.00000000 </v>
    <v>      -0.14998922      -0.10605835       0.25978898 </v>
   </varray>
  </crystal>
  <varray name="positions" >
   <v>       0.87500000       0.87500000       0.87500000 </v>
   <v>       0.12500000       0.12500000       0.12500000 </v>
  </varray>
 </structure>
 <calculation>
  <scstep>
   <time name="dav">    1.48    1.48</time>
   <time name="total">    1.69    1.70</time>
   <energy>
    <i name="alphaZ">      3.33880741 </i>
    <i name="ewald">   -227.98820643 </i>
    <i name="hartreedc">    -11.11484531 </i>
    <i name="XCdc">    -18.63153637 </i>
    <i name="pawpsdc">    176.24759923 </i>
    <i name="pawaedc">   -141.06103558 </i>
    <i name="eentropy">     -0.00079753 </i>
    <i name="bandstr">     15.09696302 </i>
    <i name="atom">    206.13125414 </i>
    <i name="e_fr_energy">      2.01820258 </i>
    <i name="e_wo_entrp">      2.01900011 </i>
    <i name="e_0_energy">      2.01860134 </i>
   </energy>
  </scstep>
  <scstep>
   <time name="dav">    2.17    2.19</time>
   <time name="total">    2.17    2.19</time>
   <energy>
    <i name="e_fr_energy">    -10.86537167 </i>
    <i name="e_wo_entrp">    -10.86537167 </i>
    <i name="e_0_energy">    -10.86537167 </i>
   </energy>
  </scstep>
  <scstep>
   <time name="dav">    1.84    1.85</time>
   <time name="total">    1.84    1.86</time>
   <energy>
    <i name="e_fr_energy">    -11.02090589 </i>
    <i name="e_wo_entrp">    -11.02090589 </i>
    <i name="e_0_energy">    -11.02090589 </i>
   </energy>
  </scstep>
  <scstep>
   <time name="dav">    2.14    2.15</time>
   <time name="total">    2.14    2.16</time>
   <energy>
    <i name="e_fr_energy">    -11.02145362 </i>
    <i name="e_wo_entrp">    -11.02145362 </i>
    <i name="e_0_energy">    -11.02145362 </i>
   </energy>
  </scstep>
  <scstep>
   <time name="dav">    1.89    1.91</time>
   <time name="total">    2.01    2.03</time>
   <energy>
    <i name="e_fr_energy">    -11.02145425 </i>
    <i name="e_wo_entrp">    -11.02145425 </i>
    <i name="e_0_energy">    -11.02145425 </i>
   </energy>
  </scstep>
  <scstep>
   <time name="dav">    1.98    1.99</time>
   <time name="total">    2.32    2.34</time>
   <energy>
    <i name="e_fr_energy">    -10.89994884 </i>
    <i name="e_wo_entrp">    -10.89994884 </i>
    <i name="e_0_energy">    -10.89994884 </i>
   </energy>
  </scstep>
  <scstep>
   <time name="dav">    1.82    1.82</time>
   <time name="total">    2.13    2.15</time>
   <energy>
    <i name="e_fr_energy">    -10.84440649 </i>
    <i name="e_wo_entrp">    -10.84440649 </i>
    <i name="e_0_energy">    -10.84440649 </i>
   </energy>
  </scstep>
  <scstep>
   <time name="dav">    1.64    1.64</time>
   <time name="total">    1.95    1.97</time>
   <energy>
    <i name="e_fr_energy">    -10.84546315 </i>
    <i name="e_wo_entrp">    -10.84546315 </i>
    <i name="e_0_energy">    -10.84546315 </i>
   </energy>
  </scstep>
  <scstep>
   <time name="dav">    2.65    2.66</time>
   <time name="total">    2.97    2.98</time>
   <energy>
    <i name="e_fr_energy">    -10.84565698 </i>
    <i name="e_wo_entrp">    -10.84565698 </i>
    <i name="e_0_energy">    -10.84565698 </i>
   </energy>
  </scstep>
  <scstep>
   <time name="dav">    1.70    1.71</time>
   <time name="total">    2.02    2.03</time>
   <energy>
    <i name="e_fr_energy">    -10.84568180 </i>
    <i name="e_wo_entrp">    -10.84568180 </i>
    <i name="e_0_energy">    -10.84568180 </i>
   </energy>
  </scstep>
  <scstep>
   <time name="dav">    1.98    1.98</time>
   <time name="total">    2.18    2.20</time>
   <energy>
    <i name="alphaZ">      3.33880741 </i>
    <i name="ewald">   -227.98820643 </i>
    <i name="hartreedc">    -15.00442215 </i>
    <i name="XCdc">    -17.99570777 </i>
    <i name="pawpsdc">    864.83803849 </i>
    <i name="pawaedc">   -829.86959695 </i>
    <i name="eentropy">     -0.00000000 </i>
    <i name="bandstr">      5.70415179 </i>
    <i name="atom">    206.13125414 </i>
    <i name="e_fr_energy">    -10.84568146 </i>
    <i name="e_wo_entrp">    -10.84568146 </i>
    <i name="e_0_energy">    -10.84568146 </i>
   </energy>
  </scstep>
  <structure>
   <crystal>
    <varray name="basis" >
     <v>       3.33357300       0.00000000       1.92463900 </v>
     <v>       1.11119100       3.14292400       1.92463900 </v>
     <v>       0.00000000       0.00000000       3.84927800 </v>
    </varray>
    <i name="volume">     40.32952685 </i>
    <varray name="rec_basis" >
     <v>       0.29997843      -0.10605835       0.00000000 </v>
     <v>       0.00000000       0.31817505       0.00000000 </v>
     <v>      -0.14998922      -0.10605835       0.25978898 </v>
    </varray>
   </crystal>
   <varray name="positions" >
    <v>       0.87500000       0.87500000       0.87500000 </v>
    <v>       0.12500000       0.12500000       0.12500000 </v>
   </varray>
  </structure>
  <varray name="forces" >
   <v>      -0.00000000       0.00000000       0.00000000 </v>
   <v>       0.00000000      -0.00000000      -0.00000000 </v>
  </varray>
  <varray name="stress" >
   <v>      12.13342674       0.00000000       0.00000000 </v>
   <v>       0.00000000      12.13343627       0.00000000 </v>
   <v>      -0.00000000      -0.00000000      12.13342334 </v>
  </varray>
  <energy>
   <i name="e_fr_energy">    -10.84568146 </i>
   <i name="e_wo_entrp">    -10.84568146 </i>
   <i name="e_0_energy">    -10.84568146 </i>
  </energy>
  <time name="totalsc">   25.70   26.18</time>
 </calculation>
 <calculation>
  <scstep>
   <time name="dav">    1.80    1.80</time>
   <time name="total">    2.12    2.12</time>
   <energy>
    <i name="alphaZ">      3.26608937 </i>
    <i name="ewald">   -226.32087514 </i>
    <i name="hartreedc">    -14.89624889 </i>
    <i name="XCdc">    -18.10331135 </i>
    <i name="pawpsdc">    864.81303986 </i>
    <i name="pawaedc">   -829.84460520 </i>
    <i name="eentropy">     -0.00000000 </i>
    <i name="bandstr">      4.10519539 </i>
    <i name="atom">    206.13125414 </i>
    <i name="e_fr_energy">    -10.84946181 </i>
    <i name="e_wo_entrp">    -10.84946181 </i>
    <i name="e_0_energy">    -10.84946181 </i>
   </energy>
  </scstep>
  <scstep>
   <time name="dav">    1.95    1.95</time>
   <time name="total">    2.26    2.28</time>
   <energy>
    <i name="e_fr_energy">    -10.84769550 </i>
    <i name="e_wo_entrp">    -10.84769550 </i>
    <i name="e_0_energy">    -10.84769550 </i>
   </energy>
  </scstep>
  <scstep>
   <time name="dav">    1.69    1.69</time>
   <time name="total">    2.00    2.02</time>
   <energy>
    <i name="e_fr_energy">    -10.84676597 </i>
    <i name="e_wo_entrp">    -10.84676597 </i>
    <i name="e_0_energy">    -10.84676597 </i>
   </energy>
  </scstep>
  <scstep>
   <time name="dav">    2.07    2.07</time>
   <time name="total">    2.39    2.41</time>
   <energy>
    <i name="e_fr_energy">    -10.84676595 </i>
    <i name="e_wo_entrp">    -10.84676595 </i>
    <i name="e_0_energy">    -10.84676595 </i>
   </energy>
  </scstep>
  <scstep>
   <time name="dav">    1.67    1.67</time>
   <time name="total">    1.98    2.00</time>
   <energy>
    <i name="e_fr_energy">    -10.84675955 </i>
    <i name="e_wo_entrp">    -10.84675955 </i>
    <i name="e_0_energy">    -10.84675955 </i>
   </energy>
  </scstep>
  <scstep>
   <time name="dav">    1.15    1.16</time>
   <time name="total">    1.36    1.37</time>
   <energy>
    <i name="alphaZ">      3.26608937 </i>
    <i name="ewald">   -226.32087514 </i>
    <i name="hartreedc">    -15.26863446 </i>
    <i name="XCdc">    -18.09606385 </i>
    <i name="pawpsdc">    826.82282511 </i>
    <i name="pawaedc">   -791.83542993 </i>
    <i name="eentropy">     -0.00000000 </i>
    <i name="bandstr">      4.45407504 </i>
    <i name="atom">    206.13125414 </i>
    <i name="e_fr_energy">    -10.84675972 </i>
    <i name="e_wo_entrp">    -10.84675972 </i>
    <i name="e_0_energy">    -10.84675972 </i>
   </energy>
  </scstep>
  <structure>
   <crystal>
    <varray name="basis" >
     <v>       3.35813180       0.00000000       1.93881803 </v>
     <v>       1.11937727       3.16607829       1.93881803 </v>
     <v>      -0.00000000      -0.00000000       3.87763605 </v>
    </varray>
    <i name="volume">     41.22744600 </i>
    <varray name="rec_basis" >
     <v>       0.29778462      -0.10528272      -0.00000000 </v>
     <v>      -0.00000000       0.31584816       0.00000000 </v>
     <v>      -0.14889231      -0.10528272       0.25788908 </v>
    </varray>
   </crystal>
   <varray name="positions" >
    <v>       0.87500000       0.87500000       0.87500000 </v>
    <v>       0.12500000       0.12500000       0.12500000 </v>
   </varray>
  </structure>
  <varray name="forces" >
   <v>      -0.00000000       0.00000000      -0.00000000 </v>
   <v>       0.00000000      -0.00000000       0.00000000 </v>
  </varray>
  <varray name="stress" >
   <v>      -7.74680043       0.00000000       0.00000000 </v>
   <v>       0.00000000      -7.74680660       0.00000000 </v>
   <v>       0.00000000       0.00000000      -7.74679823 </v>
  </varray>
  <energy>
   <i name="e_fr_energy">    -10.84675972 </i>
   <i name="e_wo_entrp">    -10.84675972 </i>
   <i name="e_0_energy">    -10.84675972 </i>
  </energy>
  <time name="totalsc">   14.36   14.63</time>
 </calculation>
 <calculation>
  <scstep>
   <time name="dav">    1.75    1.75</time>
   <time name="total">    2.07    2.07</time>
   <energy>
    <i name="alphaZ">      3.29543706 </i>
    <i name="ewald">   -226.99672927 </i>
    <i name="hartreedc">    -15.31497621 </i>
    <i name="XCdc">    -18.05261144 </i>
    <i name="pawpsdc">    825.01015007 </i>
    <i name="pawaedc">   -790.02286363 </i>
    <i name="eentropy">     -0.00000000 </i>
    <i name="bandstr">      5.10224549 </i>
    <i name="atom">    206.13125414 </i>
    <i name="e_fr_energy">    -10.84809379 </i>
    <i name="e_wo_entrp">    -10.84809379 </i>
    <i name="e_0_energy">    -10.84809379 </i>
   </energy>
  </scstep>
  <scstep>
   <time name="dav">    1.98    1.98</time>
   <time name="total">    2.29    2.31</time>
   <energy>
    <i name="e_fr_energy">    -10.84780275 </i>
    <i name="e_wo_entrp">    -10.84780275 </i>
    <i name="e_0_energy">    -10.84780275 </i>
   </energy>
  </scstep>
  <scstep>
   <time name="dav">    1.70    1.70</time>
   <time name="total">    2.01    2.03</time>
   <energy>
    <i name="e_fr_energy">    -10.84765570 </i>
    <i name="e_wo_entrp">    -10.84765570 </i>
    <i name="e_0_energy">    -10.84765570 </i>
   </energy>
  </scstep>
  <scstep>
   <time name="dav">    1.99    1.99</time>
   <time name="total">    2.30    2.32</time>
   <energy>
    <i name="e_fr_energy">    -10.84765631 </i>
    <i name="e_wo_entrp">    -10.84765631 </i>
    <i name="e_0_energy">    -10.84765631 </i>
   </energy>
  </scstep>
  <scstep>
   <time name="dav">    1.56    1.57</time>
   <time name="total">    1.88    1.89</time>
   <energy>
    <i name="e_fr_energy">    -10.84765807 </i>
    <i name="e_wo_entrp">    -10.84765807 </i>
    <i name="e_0_energy">    -10.84765807 </i>
   </energy>
  </scstep>
  <scstep>
   <time name="dav">    1.00    1.00</time>
   <time name="total">    1.21    1.22</time>
   <energy>
    <i name="alphaZ">      3.29543706 </i>
    <i name="ewald">   -226.99672927 </i>
    <i name="hartreedc">    -15.16217648 </i>
    <i name="XCdc">    -18.05537693 </i>
    <i name="pawpsdc">    840.75964422 </i>
    <i name="pawaedc">   -805.77993933 </i>
    <i name="eentropy">     -0.00000000 </i>
    <i name="bandstr">      4.96022857 </i>
    <i name="atom">    206.13125414 </i>
    <i name="e_fr_energy">    -10.84765801 </i>
    <i name="e_wo_entrp">    -10.84765801 </i>
    <i name="e_0_energy">    -10.84765801 </i>
   </energy>
  </scstep>
  <structure>
   <crystal>
    <varray name="basis" >
     <v>       3.34813339       0.00000000       1.93304544 </v>
     <v>       1.11604446       3.15665168       1.93304544 </v>
     <v>      -0.00000000      -0.00000000       3.86609088 </v>
    </varray>
    <i name="volume">     40.86029277 </i>
    <varray name="rec_basis" >
     <v>       0.29867388      -0.10559712      -0.00000000 </v>
     <v>      -0.00000000       0.31679137       0.00000000 </v>
     <v>      -0.14933694      -0.10559712       0.25865921 </v>
    </varray>
   </crystal>
   <varray name="positions" >
    <v>       0.87500000       0.87500000       0.87500000 </v>
    <v>       0.12500000       0.12500000       0.12500000 </v>
   </varray>
  </structure>
  <varray name="forces" >
   <v>      -0.00000000      -0.00000000      -0.00000000 </v>
   <v>       0.00000000       0.00000000       0.00000000 </v>
  </varray>
  <varray name="stress" >
   <v>       0.06898284       0.00000000      -0.00000000 </v>
   <v>      -0.00000000       0.06898289       0.00000000 </v>
   <v>      -0.00000000       0.00000000       0.06898282 </v>
  </varray>
  <energy>
   <i name="e_fr_energy">    -10.84765801 </i>
   <i name="e_wo_entrp">    -10.84765801 </i>
   <i name="e_0_energy">    -10.84765801 </i>
  </energy>
  <time name="totalsc">   13.82   14.07</time>
  <eigenvalues>
   <array>
    <dimension dim="1">band</dimension>
    <dimension dim="2">kpoint</dimension>
    <dimension dim="3">spin</dimension>
    <field>eigene</field>
    <field>occ</field>
    <set>
     <set comment="spin 1">
      <set comment="kpoint 1">
       <r>   -6.1742    1.0000 </r>
       <r>    5.3661    1.0000 </r>
       <r>    5.5856    1.0000 </r>
       <r>    5.5856    1.0000 </r>
       <r>    8.2235    0.0000 </r>
       <r>    8.2369    0.0000 </r>
       <r>    8.2369    0.0000 </r>
       <r>    8.9409    0.0000 </r>
      </set>
      <set comment="kpoint 2">
       <r>   -6.0551    1.0000 </r>
       <r>    4.4806    1.0000 </r>
       <r>    5.1732    1.0000 </r>
       <r>    5.5335    1.0000 </r>
       <r>    8.2801    0.0000 </r>
       <r>    8.3531    0.0000 </r>
       <r>    8.5387    0.0000 </r>
       <r>    9.7932    0.0000 </r>
      </set>
      <set comment="kpoint 3">
       <r>   -5.7613    1.0000 </r>
       <r>    2.9912    1.0000 </r>
       <r>    4.8093    1.0000 </r>
       <r>    5.2687    1.0000 </r>
       <r>    8.0019    0.0000 </r>
       <r>    8.7376    0.0000 </r>
       <r>    9.0310    0.0000 </r>
       <r>   11.1329    0.0000 </r>
      </set>
      <set comment="kpoint 4">
       <r>   -5.3055    1.0000 </r>
       <r>    1.4950    1.0000 </r>
       <r>    4.5170    1.0000 </r>
       <r>    4.9571    1.0000 </r>
       <r>    7.6906    0.0000 </r>
       <r>    9.0252    0.0000 </r>
       <r>    9.2752    0.0000 </r>
       <r>   12.2854    0.0000 </r>
      </set>
      <set comment="kpoint 5">
       <r>   -4.7236    1.0000 </r>
       <r>    0.1504    1.0000 </r>
       <r>    4.3261    1.0000 </r>
       <r>    4.6881    1.0000 </r>
       <r>    7.4449    0.0000 </r>
       <r>    9.0675    0.0000 </r>
       <r>    9.2011    0.0000 </r>
       <r>   13.2025    0.0000 </r>
      </set>
      <set comment="kpoint 6">
       <r>   -4.1325    1.0000 </r>
       <r>   -0.8857    1.0000 </r>
       <r>    4.2454    1.0000 </r>
       <r>    4.4966    1.0000 </r>
       <r>    7.2986    0.0000 </r>
       <r>    9.0321    0.0000 </r>
       <r>    9.0352    0.0000 </r>
       <r>   13.4400    0.0000 </r>
      </set>
      <set comment="kpoint 7">
       <r>   -3.9069    1.0000 </r>
       <r>   -1.2236    1.0000 </r>
       <r>    4.2732    1.0000 </r>
       <r>    4.3982    1.0000 </r>
       <r>    7.2629    0.0000 </r>
       <r>    8.9359    0.0000 </r>
       <r>    9.0645    0.0000 </r>
       <r>   13.4108    0.0000 </r>
      </set>
      <set comment="kpoint 8">
       <r>   -4.3150    1.0000 </r>
       <r>   -0.5915    1.0000 </r>
       <r>    4.4020    1.0000 </r>
       <r>    4.4029    1.0000 </r>
       <r>    7.3392    0.0000 </r>
       <r>    8.9406    0.0000 </r>
       <r>    9.1938    0.0000 </r>
       <r>   13.3322    0.0000 </r>
      </set>
      <set comment="kpoint 9">
       <r>   -4.9272    1.0000 </r>
       <r>    0.5740    1.0000 </r>
       <r>    4.5131    1.0000 </r>
       <r>    4.6247    1.0000 </r>
       <r>    7.5227    0.0000 </r>
       <r>    8.9829    0.0000 </r>
       <r>    9.3481    0.0000 </r>
       <r>   12.5380    0.0000 </r>
      </set>
      <set comment="kpoint 10">
       <r>   -5.4739    1.0000 </r>
       <r>    1.9828    1.0000 </r>
       <r>    4.7298    1.0000 </r>
       <r>    4.9200    1.0000 </r>
       <r>    7.7939    0.0000 </r>
       <r>    8.8751    0.0000 </r>
       <r>    9.3382    0.0000 </r>
       <r>   11.7343    0.0000 </r>
      </set>
      <set comment="kpoint 11">
       <r>   -5.8781    1.0000 </r>
       <r>    3.5051    1.0000 </r>
       <r>    5.0335    1.0000 </r>
       <r>    5.2410    1.0000 </r>
       <r>    8.0861    0.0000 </r>
       <r>    8.5334    0.0000 </r>
       <r>    9.0071    0.0000 </r>
       <r>   10.6530    0.0000 </r>
      </set>
      <set comment="kpoint 12">
       <r>   -6.1146    1.0000 </r>
       <r>    4.9446    1.0000 </r>
       <r>    5.3655    1.0000 </r>
       <r>    5.4643    1.0000 </r>
       <r>    8.1002    0.0000 </r>
       <r>    8.4185    0.0000 </r>
       <r>    8.5288    0.0000 </r>
       <r>    9.3440    0.0000 </r>
      </set>
      <set comment="kpoint 13">
       <r>   -5.9955    1.0000 </r>
       <r>    4.3932    1.0000 </r>
       <r>    5.0261    1.0000 </r>
       <r>    5.1241    1.0000 </r>
       <r>    7.8646    0.0000 </r>
       <r>    8.8394    0.0000 </r>
       <r>    9.0098    0.0000 </r>
       <r>    9.8541    0.0000 </r>
      </set>
      <set comment="kpoint 14">
       <r>   -5.7594    1.0000 </r>
       <r>    3.3627    1.0000 </r>
       <r>    4.4462    1.0000 </r>
       <r>    4.9814    1.0000 </r>
       <r>    7.8771    0.0000 </r>
       <r>    9.0048    0.0000 </r>
       <r>    9.5062    0.0000 </r>
       <r>   10.4926    0.0000 </r>
      </set>
      <set comment="kpoint 15">
       <r>   -5.3560    1.0000 </r>
       <r>    1.9610    1.0000 </r>
       <r>    4.0675    1.0000 </r>
       <r>    4.6944    1.0000 </r>
       <r>    8.0628    0.0000 </r>
       <r>    8.9655    0.0000 </r>
       <r>    9.8844    0.0000 </r>
       <r>   10.7295    0.0000 </r>
      </set>
      <set comment="kpoint 16">
       <r>   -4.8100    1.0000 </r>
       <r>    0.6006    1.0000 </r>
       <r>    3.8085    1.0000 </r>
       <r>    4.3962    1.0000 </r>
       <r>    7.9980    0.0000 </r>
       <r>    8.9831    0.0000 </r>
       <r>    9.8897    0.0000 </r>
       <r>   11.3228    0.0000 </r>
      </set>
      <set comment="kpoint 17">
       <r>   -4.1974    1.0000 </r>
       <r>   -0.5437    1.0000 </r>
       <r>    3.6290    1.0000 </r>
       <r>    4.2073    1.0000 </r>
       <r>    7.8816    0.0000 </r>
       <r>    8.9063    0.0000 </r>
       <r>    9.7217    0.0000 </r>
       <r>   12.4381    0.0000 </r>
      </set>
      <set comment="kpoint 18">
       <r>   -3.7876    1.0000 </r>
       <r>   -1.1696    1.0000 </r>
       <r>    3.5065    1.0000 </r>
       <r>    4.1833    1.0000 </r>
       <r>    7.8418    0.0000 </r>
       <r>    8.8635    0.0000 </r>
       <r>    9.5853    0.0000 </r>
       <r>   13.5741    0.0000 </r>
      </set>
      <set comment="kpoint 19">
       <r>   -4.0157    1.0000 </r>
       <r>   -0.8319    1.0000 </r>
       <r>    3.4594    1.0000 </r>
       <r>    4.3159    1.0000 </r>
       <r>    7.9013    0.0000 </r>
       <r>    8.9078    0.0000 </r>
       <r>    9.5636    0.0000 </r>
       <r>   13.2639    0.0000 </r>
      </set>
      <set comment="kpoint 20">
       <r>   -4.6080    1.0000 </r>
       <r>    0.1899    1.0000 </r>
       <r>    3.5208    1.0000 </r>
       <r>    4.5671    1.0000 </r>
       <r>    8.0535    0.0000 </r>
       <r>    8.9888    0.0000 </r>
       <r>    9.6403    0.0000 </r>
       <r>   12.1064    0.0000 </r>
      </set>
      <set comment="kpoint 21">
       <r>   -5.1891    1.0000 </r>
       <r>    1.4928    1.0000 </r>
       <r>    3.7183    1.0000 </r>
       <r>    4.8890    1.0000 </r>
       <r>    8.2674    0.0000 </r>
       <r>    8.9275    0.0000 </r>
       <r>    9.6594    0.0000 </r>
       <r>   11.2682    0.0000 </r>
      </set>
      <set comment="kpoint 22">
       <r>   -5.6437    1.0000 </r>
       <r>    2.8676    1.0000 </r>
       <r>    4.0991    1.0000 </r>
       <r>    5.2010    1.0000 </r>
       <r>    8.3560    0.0000 </r>
       <r>    8.7154    0.0000 </r>
       <r>    9.3320    0.0000 </r>
       <r>   10.9088    0.0000 </r>
      </set>
      <set comment="kpoint 23">
       <r>   -5.9366    1.0000 </r>
       <r>    3.9372    1.0000 </r>
       <r>    4.8305    1.0000 </r>
       <r>    5.3535    1.0000 </r>
       <r>    8.1436    0.0000 </r>
       <r>    8.5714    0.0000 </r>
       <r>    8.9303    0.0000 </r>
       <r>   10.3108    0.0000 </r>
      </set>
      <set comment="kpoint 24">
       <r>   -5.5811    1.0000 </r>
       <r>    3.0993    1.0000 </r>
       <r>    4.2814    1.0000 </r>
       <r>    4.2935    1.0000 </r>
       <r>    7.2764    0.0000 </r>
       <r>    9.6200    0.0000 </r>
       <r>   10.2157    0.0000 </r>
       <r>   10.2396    0.0000 </r>
      </set>
      <set comment="kpoint 25">
       <r>   -5.2325    1.0000 </r>
       <r>    2.1495    1.0000 </r>
       <r>    3.7053    1.0000 </r>
       <r>    4.1144    1.0000 </r>
       <r>    7.3103    0.0000 </r>
       <r>    9.2805    0.0000 </r>
       <r>   10.4128    0.0000 </r>
       <r>   10.8396    0.0000 </r>
      </set>
      <set comment="kpoint 26">
       <r>   -4.7306    1.0000 </r>
       <r>    0.9628    1.0000 </r>
       <r>    3.2540    1.0000 </r>
       <r>    3.8548    1.0000 </r>
       <r>    7.5671    0.0000 </r>
       <r>    9.5015    0.0000 </r>
       <r>   10.2116    0.0000 </r>
       <r>   11.0428    0.0000 </r>
      </set>
      <set comment="kpoint 27">
       <r>   -4.1248    1.0000 </r>
       <r>   -0.1713    1.0000 </r>
       <r>    2.8639    1.0000 </r>
       <r>    3.7193    1.0000 </r>
       <r>    7.6369    0.0000 </r>
       <r>    9.9447    0.0000 </r>
       <r>   10.4879    0.0000 </r>
       <r>   10.9181    0.0000 </r>
      </set>
      <set comment="kpoint 28">
       <r>   -3.5925    1.0000 </r>
       <r>   -0.9799    1.0000 </r>
       <r>    2.5581    1.0000 </r>
       <r>    3.7548    1.0000 </r>
       <r>    7.7098    0.0000 </r>
       <r>    9.7272    0.0000 </r>
       <r>   10.7276    0.0000 </r>
       <r>   11.9009    0.0000 </r>
      </set>
      <set comment="kpoint 29">
       <r>   -3.6030    1.0000 </r>
       <r>   -0.9615    1.0000 </r>
       <r>    2.3802    1.0000 </r>
       <r>    3.9414    1.0000 </r>
       <r>    7.8992    0.0000 </r>
       <r>    9.5894    0.0000 </r>
       <r>   10.5963    0.0000 </r>
       <r>   13.2271    0.0000 </r>
      </set>
      <set comment="kpoint 30">
       <r>   -4.1417    1.0000 </r>
       <r>   -0.1403    1.0000 </r>
       <r>    2.3736    1.0000 </r>
       <r>    4.2468    1.0000 </r>
       <r>    8.2019    0.0000 </r>
       <r>    9.5097    0.0000 </r>
       <r>   10.5129    0.0000 </r>
       <r>   11.8825    0.0000 </r>
      </set>
      <set comment="kpoint 31">
       <r>   -4.7447    1.0000 </r>
       <r>    0.9379    1.0000 </r>
       <r>    2.6223    1.0000 </r>
       <r>    4.6188    1.0000 </r>
       <r>    8.5469    0.0000 </r>
       <r>    9.2870    0.0000 </r>
       <r>   10.3351    0.0000 </r>
       <r>   10.9678    0.0000 </r>
      </set>
      <set comment="kpoint 32">
       <r>   -5.2424    1.0000 </r>
       <r>    1.8553    1.0000 </r>
       <r>    3.3353    1.0000 </r>
       <r>    4.9545    1.0000 </r>
       <r>    8.6313    0.0000 </r>
       <r>    8.8558    0.0000 </r>
       <r>    9.7899    0.0000 </r>
       <r>   10.8949    0.0000 </r>
      </set>
      <set comment="kpoint 33">
       <r>   -5.5869    1.0000 </r>
       <r>    2.4712    1.0000 </r>
       <r>    4.4525    1.0000 </r>
       <r>    5.0778    1.0000 </r>
       <r>    8.1039    0.0000 </r>
       <r>    8.7270    0.0000 </r>
       <r>    9.3901    0.0000 </r>
       <r>   11.2168    0.0000 </r>
      </set>
      <set comment="kpoint 34">
       <r>   -4.9383    1.0000 </r>
       <r>    1.6878    1.0000 </r>
       <r>    3.5835    1.0000 </r>
       <r>    3.6359    1.0000 </r>
       <r>    6.7469    0.0000 </r>
       <r>    8.5149    0.0000 </r>
       <r>   11.5511    0.0000 </r>
       <r>   11.6254    0.0000 </r>
      </set>
      <set comment="kpoint 35">
       <r>   -4.4849    1.0000 </r>
       <r>    0.8530    1.0000 </r>
       <r>    3.0987    1.0000 </r>
       <r>    3.4106    1.0000 </r>
       <r>    6.8610    0.0000 </r>
       <r>    8.2048    0.0000 </r>
       <r>   11.6936    0.0000 </r>
       <r>   12.2970    0.0000 </r>
      </set>
      <set comment="kpoint 36">
       <r>   -3.9043    1.0000 </r>
       <r>   -0.0703    1.0000 </r>
       <r>    2.4761    1.0000 </r>
       <r>    3.2835    1.0000 </r>
       <r>    7.0992    0.0000 </r>
       <r>    8.7284    0.0000 </r>
       <r>   11.4762    0.0000 </r>
       <r>   12.3825    0.0000 </r>
      </set>
      <set comment="kpoint 37">
       <r>   -3.3074    1.0000 </r>
       <r>   -0.8772    1.0000 </r>
       <r>    1.9367    1.0000 </r>
       <r>    3.3225    1.0000 </r>
       <r>    7.2127    0.0000 </r>
       <r>    9.9683    0.0000 </r>
       <r>   11.2168    0.0000 </r>
       <r>   12.2166    0.0000 </r>
      </set>
      <set comment="kpoint 38">
       <r>   -3.1083    1.0000 </r>
       <r>   -1.1125    1.0000 </r>
       <r>    1.6041    1.0000 </r>
       <r>    3.5135    1.0000 </r>
       <r>    7.4257    0.0000 </r>
       <r>   10.8866    0.0000 </r>
       <r>   11.6085    0.0000 </r>
       <r>   12.0530    0.0000 </r>
      </set>
      <set comment="kpoint 39">
       <r>   -3.5649    1.0000 </r>
       <r>   -0.5518    1.0000 </r>
       <r>    1.5709    1.0000 </r>
       <r>    3.8318    1.0000 </r>
       <r>    7.7765    0.0000 </r>
       <r>   10.6502    0.0000 </r>
       <r>   11.6937    0.0000 </r>
       <r>   11.9221    0.0000 </r>
      </set>
      <set comment="kpoint 40">
       <r>   -4.1721    1.0000 </r>
       <r>    0.1320    1.0000 </r>
       <r>    2.0164    1.0000 </r>
       <r>    4.2294    1.0000 </r>
       <r>    8.2036    0.0000 </r>
       <r>    9.9084    0.0000 </r>
       <r>   10.9754    0.0000 </r>
       <r>   11.3251    0.0000 </r>
      </set>
      <set comment="kpoint 41">
       <r>   -4.6985    1.0000 </r>
       <r>    0.6131    1.0000 </r>
       <r>    3.0023    1.0000 </r>
       <r>    4.6031    1.0000 </r>
       <r>    8.3931    0.0000 </r>
       <r>    9.1084    0.0000 </r>
       <r>    9.9909    0.0000 </r>
       <r>   11.4511    0.0000 </r>
      </set>
      <set comment="kpoint 42">
       <r>   -5.0834    1.0000 </r>
       <r>    1.0318    1.0000 </r>
       <r>    4.1871    1.0000 </r>
       <r>    4.7624    1.0000 </r>
       <r>    7.8510    0.0000 </r>
       <r>    8.9396    0.0000 </r>
       <r>    9.5100    0.0000 </r>
       <r>   11.8471    0.0000 </r>
      </set>
      <set comment="kpoint 43">
       <r>   -4.0795    1.0000 </r>
       <r>    0.2525    1.0000 </r>
       <r>    3.0778    1.0000 </r>
       <r>    3.1663    1.0000 </r>
       <r>    6.4064    0.0000 </r>
       <r>    7.4804    0.0000 </r>
       <r>   13.0533    0.0000 </r>
       <r>   13.0852    0.0000 </r>
      </set>
      <set comment="kpoint 44">
       <r>   -3.5342    1.0000 </r>
       <r>   -0.4856    1.0000 </r>
       <r>    2.6854    1.0000 </r>
       <r>    2.9698    1.0000 </r>
       <r>    6.6153    0.0000 </r>
       <r>    7.3836    0.0000 </r>
       <r>   13.0974    0.0000 </r>
       <r>   13.8259    0.0000 </r>
      </set>
      <set comment="kpoint 45">
       <r>   -2.9154    1.0000 </r>
       <r>   -1.1803    1.0000 </r>
       <r>    1.9876    1.0000 </r>
       <r>    2.9857    1.0000 </r>
       <r>    6.8079    0.0000 </r>
       <r>    8.2853    0.0000 </r>
       <r>   12.8453    0.0000 </r>
       <r>   13.8412    0.0000 </r>
      </set>
      <set comment="kpoint 46">
       <r>   -2.5784    1.0000 </r>
       <r>   -1.5011    1.0000 </r>
       <r>    1.4532    1.0000 </r>
       <r>    3.1575    1.0000 </r>
       <r>    7.0113    0.0000 </r>
       <r>    9.7580    0.0000 </r>
       <r>   12.5180    0.0000 </r>
       <r>   13.3481    0.0000 </r>
      </set>
      <set comment="kpoint 47">
       <r>   -2.9963    1.0000 </r>
       <r>   -1.1024    1.0000 </r>
       <r>    1.3553    1.0000 </r>
       <r>    3.4651    1.0000 </r>
       <r>    7.3625    0.0000 </r>
       <r>   11.2851    0.0000 </r>
       <r>   11.7444    0.0000 </r>
       <r>   12.4893    0.0000 </r>
      </set>
      <set comment="kpoint 48">
       <r>   -3.5738    1.0000 </r>
       <r>   -0.7346    1.0000 </r>
       <r>    1.8856    1.0000 </r>
       <r>    3.8688    1.0000 </r>
       <r>    7.8225    0.0000 </r>
       <r>   10.1427    0.0000 </r>
       <r>   11.1955    0.0000 </r>
       <r>   12.4982    0.0000 </r>
      </set>
      <set comment="kpoint 49">
       <r>   -4.0859    1.0000 </r>
       <r>   -0.4986    1.0000 </r>
       <r>    2.8967    1.0000 </r>
       <r>    4.2780    1.0000 </r>
       <r>    8.1398    0.0000 </r>
       <r>    9.1083    0.0000 </r>
       <r>   10.0023    0.0000 </r>
       <r>   12.5852    0.0000 </r>
      </set>
      <set comment="kpoint 50">
       <r>   -4.4777    1.0000 </r>
       <r>   -0.2250    1.0000 </r>
       <r>    4.0306    1.0000 </r>
       <r>    4.5033    1.0000 </r>
       <r>    7.6462    0.0000 </r>
       <r>    8.9380    0.0000 </r>
       <r>    9.3784    0.0000 </r>
       <r>   12.8124    0.0000 </r>
      </set>
      <set comment="kpoint 51">
       <r>   -3.0242    1.0000 </r>
       <r>   -1.1398    1.0000 </r>
       <r>    2.7937    1.0000 </r>
       <r>    2.8994    1.0000 </r>
       <r>    6.3164    0.0000 </r>
       <r>    6.7758    0.0000 </r>
       <r>   14.5847    0.0000 </r>
       <r>   14.6000    0.0000 </r>
      </set>
      <set comment="kpoint 52">
       <r>   -2.4093    1.0000 </r>
       <r>   -1.7886    1.0000 </r>
       <r>    2.5023    1.0000 </r>
       <r>    2.7852    1.0000 </r>
       <r>    6.5753    0.0000 </r>
       <r>    6.9570    0.0000 </r>
       <r>   14.5503    0.0000 </r>
       <r>   15.0901    0.0000 </r>
      </set>
      <set comment="kpoint 53">
       <r>   -2.4035    1.0000 </r>
       <r>   -1.7195    1.0000 </r>
       <r>    1.8886    1.0000 </r>
       <r>    2.9271    1.0000 </r>
       <r>    6.7470    0.0000 </r>
       <r>    8.1981    0.0000 </r>
       <r>   13.5373    0.0000 </r>
       <r>   14.2581    0.0000 </r>
      </set>
      <set comment="kpoint 54">
       <r>   -2.8965    1.0000 </r>
       <r>   -1.2222    1.0000 </r>
       <r>    1.6202    1.0000 </r>
       <r>    3.2123    1.0000 </r>
       <r>    7.0793    0.0000 </r>
       <r>    9.8280    0.0000 </r>
       <r>   11.8751    0.0000 </r>
       <r>   12.9197    0.0000 </r>
      </set>
      <set comment="kpoint 55">
       <r>   -3.3176    1.0000 </r>
       <r>   -1.0830    1.0000 </r>
       <r>    2.0315    1.0000 </r>
       <r>    3.6100    1.0000 </r>
       <r>    7.5467    0.0000 </r>
       <r>   10.3044    0.0000 </r>
       <r>   11.3386    0.0000 </r>
       <r>   11.7478    0.0000 </r>
      </set>
      <set comment="kpoint 56">
       <r>   -3.6703    1.0000 </r>
       <r>   -1.1241    1.0000 </r>
       <r>    2.9465    1.0000 </r>
       <r>    4.0467    1.0000 </r>
       <r>    7.9525    0.0000 </r>
       <r>    9.1139    0.0000 </r>
       <r>   10.0438    0.0000 </r>
       <r>   13.5733    0.0000 </r>
      </set>
      <set comment="kpoint 57">
       <r>   -3.9488    1.0000 </r>
       <r>   -1.0856    1.0000 </r>
       <r>    3.9667    1.0000 </r>
       <r>    4.3534    1.0000 </r>
       <r>    7.5379    0.0000 </r>
       <r>    8.8929    0.0000 </r>
       <r>    9.2455    0.0000 </r>
       <r>   13.5046    0.0000 </r>
      </set>
      <set comment="kpoint 58">
       <r>   -2.4317    1.0000 </r>
       <r>   -1.8013    1.0000 </r>
       <r>    2.7366    1.0000 </r>
       <r>    2.8456    1.0000 </r>
       <r>    6.3671    0.0000 </r>
       <r>    6.5647    0.0000 </r>
       <r>   15.2621    0.0000 </r>
       <r>   15.3102    0.0000 </r>
      </set>
      <set comment="kpoint 59">
       <r>   -2.9909    1.0000 </r>
       <r>   -1.1468    1.0000 </r>
       <r>    2.5637    1.0000 </r>
       <r>    2.8464    1.0000 </r>
       <r>    6.5755    0.0000 </r>
       <r>    7.1126    0.0000 </r>
       <r>   13.8246    0.0000 </r>
       <r>   14.5875    0.0000 </r>
      </set>
      <set comment="kpoint 60">
       <r>   -3.4262    1.0000 </r>
       <r>   -0.6186    1.0000 </r>
       <r>    2.1852    1.0000 </r>
       <r>    3.1037    1.0000 </r>
       <r>    6.9270    0.0000 </r>
       <r>    8.4616    0.0000 </r>
       <r>   12.1509    0.0000 </r>
       <r>   13.1084    0.0000 </r>
      </set>
      <set comment="kpoint 61">
       <r>   -3.7264    1.0000 </r>
       <r>   -0.5269    1.0000 </r>
       <r>    2.3679    1.0000 </r>
       <r>    3.4898    1.0000 </r>
       <r>    7.4039    0.0000 </r>
       <r>   10.1735    0.0000 </r>
       <r>   10.5872    0.0000 </r>
       <r>   11.5369    0.0000 </r>
      </set>
      <set comment="kpoint 62">
       <r>   -3.8957    1.0000 </r>
       <r>   -0.7980    1.0000 </r>
       <r>    3.1150    1.0000 </r>
       <r>    3.9511    1.0000 </r>
       <r>    7.8684    0.0000 </r>
       <r>    9.2138    0.0000 </r>
       <r>   10.1764    0.0000 </r>
       <r>   12.1352    0.0000 </r>
      </set>
      <set comment="kpoint 63">
       <r>   -3.5749    1.0000 </r>
       <r>   -0.4528    1.0000 </r>
       <r>    2.9076    1.0000 </r>
       <r>    3.0066    1.0000 </r>
       <r>    6.3278    0.0000 </r>
       <r>    7.0841    0.0000 </r>
       <r>   13.8256    0.0000 </r>
       <r>   13.8342    0.0000 </r>
      </set>
      <set comment="kpoint 64">
       <r>   -4.0335    1.0000 </r>
       <r>    0.1844    1.0000 </r>
       <r>    2.8650    1.0000 </r>
       <r>    3.1571    1.0000 </r>
       <r>    6.7101    0.0000 </r>
       <r>    7.7506    0.0000 </r>
       <r>   12.3865    0.0000 </r>
       <r>   13.0556    0.0000 </r>
      </set>
      <set comment="kpoint 65">
       <r>   -4.3408    1.0000 </r>
       <r>    0.4559    1.0000 </r>
       <r>    2.8435    1.0000 </r>
       <r>    3.5308    1.0000 </r>
       <r>    7.3165    0.0000 </r>
       <r>    9.0844    0.0000 </r>
       <r>   10.8216    0.0000 </r>
       <r>   11.6899    0.0000 </r>
      </set>
      <set comment="kpoint 66">
       <r>   -4.4887    1.0000 </r>
       <r>    0.2012    1.0000 </r>
       <r>    3.3637    1.0000 </r>
       <r>    4.0222    1.0000 </r>
       <r>    7.8734    0.0000 </r>
       <r>    9.3840    0.0000 </r>
       <r>   10.3520    0.0000 </r>
       <r>   10.8722    0.0000 </r>
      </set>
      <set comment="kpoint 67">
       <r>   -4.5349    1.0000 </r>
       <r>    0.9687    1.0000 </r>
       <r>    3.3036    1.0000 </r>
       <r>    3.3769    1.0000 </r>
       <r>    6.5481    0.0000 </r>
       <r>    7.9608    0.0000 </r>
       <r>   12.2930    0.0000 </r>
       <r>   12.3479    0.0000 </r>
      </set>
      <set comment="kpoint 68">
       <r>   -4.8854    1.0000 </r>
       <r>    1.5105    1.0000 </r>
       <r>    3.3810    1.0000 </r>
       <r>    3.7313    1.0000 </r>
       <r>    7.0638    0.0000 </r>
       <r>    8.7322    0.0000 </r>
       <r>   11.0243    0.0000 </r>
       <r>   11.5568    0.0000 </r>
      </set>
      <set comment="kpoint 69">
       <r>   -5.0699    1.0000 </r>
       <r>    1.4606    1.0000 </r>
       <r>    3.6680    1.0000 </r>
       <r>    4.2558    1.0000 </r>
       <r>    7.8318    0.0000 </r>
       <r>    9.4580    0.0000 </r>
       <r>   10.1637    0.0000 </r>
       <r>   10.4533    0.0000 </r>
      </set>
      <set comment="kpoint 70">
       <r>   -5.2877    1.0000 </r>
       <r>    2.4013    1.0000 </r>
       <r>    3.9151    1.0000 </r>
       <r>    3.9395    1.0000 </r>
       <r>    6.9938    0.0000 </r>
       <r>    9.1114    0.0000 </r>
       <r>   10.8375    0.0000 </r>
       <r>   10.9205    0.0000 </r>
      </set>
      <set comment="kpoint 71">
       <r>   -5.5243    1.0000 </r>
       <r>    2.7668    1.0000 </r>
       <r>    4.0641    1.0000 </r>
       <r>    4.5435    1.0000 </r>
       <r>    7.5880    0.0000 </r>
       <r>    9.4582    0.0000 </r>
       <r>   10.1505    0.0000 </r>
       <r>   10.2068    0.0000 </r>
      </set>
      <set comment="kpoint 72">
       <r>   -5.8174    1.0000 </r>
       <r>    3.7691    1.0000 </r>
       <r>    4.6505    1.0000 </r>
       <r>    4.7071    1.0000 </r>
       <r>    7.5761    0.0000 </r>
       <r>    9.3811    0.0000 </r>
       <r>    9.5949    0.0000 </r>
       <r>   10.1223    0.0000 </r>
      </set>
      <set comment="kpoint 73">
       <r>   -5.9960    1.0000 </r>
       <r>    4.0325    1.0000 </r>
       <r>    5.3409    1.0000 </r>
       <r>    5.3409    1.0000 </r>
       <r>    8.0694    0.0000 </r>
       <r>    8.5977    0.0000 </r>
       <r>    8.5977    0.0000 </r>
       <r>   10.1620    0.0000 </r>
      </set>
      <set comment="kpoint 74">
       <r>   -5.8191    1.0000 </r>
       <r>    3.4094    1.0000 </r>
       <r>    4.4850    1.0000 </r>
       <r>    5.4121    1.0000 </r>
       <r>    8.4136    0.0000 </r>
       <r>    8.5859    0.0000 </r>
       <r>    8.8555    0.0000 </r>
       <r>   10.8040    0.0000 </r>
      </set>
      <set comment="kpoint 75">
       <r>   -5.4710    1.0000 </r>
       <r>    2.3592    1.0000 </r>
       <r>    3.7134    1.0000 </r>
       <r>    5.2007    1.0000 </r>
       <r>    8.5409    0.0000 </r>
       <r>    8.9360    0.0000 </r>
       <r>    9.2165    0.0000 </r>
       <r>   11.2329    0.0000 </r>
      </set>
      <set comment="kpoint 76">
       <r>   -4.9692    1.0000 </r>
       <r>    1.0404    1.0000 </r>
       <r>    3.3554    1.0000 </r>
       <r>    4.8615    1.0000 </r>
       <r>    8.2822    0.0000 </r>
       <r>    9.2873    0.0000 </r>
       <r>    9.4615    0.0000 </r>
       <r>   11.8393    0.0000 </r>
      </set>
      <set comment="kpoint 77">
       <r>   -4.3641    1.0000 </r>
       <r>   -0.1796    1.0000 </r>
       <r>    3.2122    1.0000 </r>
       <r>    4.5250    1.0000 </r>
       <r>    8.0367    0.0000 </r>
       <r>    9.3227    0.0000 </r>
       <r>    9.4416    0.0000 </r>
       <r>   12.9118    0.0000 </r>
      </set>
      <set comment="kpoint 78">
       <r>   -3.8322    1.0000 </r>
       <r>   -1.0325    1.0000 </r>
       <r>    3.2264    1.0000 </r>
       <r>    4.2569    1.0000 </r>
       <r>    7.8629    0.0000 </r>
       <r>    9.1648    0.0000 </r>
       <r>    9.5470    0.0000 </r>
       <r>   13.8032    0.0000 </r>
      </set>
      <set comment="kpoint 79">
       <r>   -3.8292    1.0000 </r>
       <r>   -1.0380    1.0000 </r>
       <r>    3.3766    1.0000 </r>
       <r>    4.0904    1.0000 </r>
       <r>    7.7890    0.0000 </r>
       <r>    9.1149    0.0000 </r>
       <r>    9.7198    0.0000 </r>
       <r>   12.9330    0.0000 </r>
      </set>
      <set comment="kpoint 80">
       <r>   -4.3592    1.0000 </r>
       <r>   -0.1906    1.0000 </r>
       <r>    3.6439    1.0000 </r>
       <r>    4.0438    1.0000 </r>
       <r>    7.8173    0.0000 </r>
       <r>    9.1731    0.0000 </r>
       <r>    9.9562    0.0000 </r>
       <r>   11.6193    0.0000 </r>
      </set>
      <set comment="kpoint 81">
       <r>   -4.9650    1.0000 </r>
       <r>    1.0361    1.0000 </r>
       <r>    4.0021    1.0000 </r>
       <r>    4.1254    1.0000 </r>
       <r>    7.8788    0.0000 </r>
       <r>    9.2487    0.0000 </r>
       <r>   10.1433    0.0000 </r>
       <r>   10.6552    0.0000 </r>
      </set>
      <set comment="kpoint 82">
       <r>   -5.4680    1.0000 </r>
       <r>    2.4169    1.0000 </r>
       <r>    4.3335    1.0000 </r>
       <r>    4.3977    1.0000 </r>
       <r>    7.7699    0.0000 </r>
       <r>    9.2521    0.0000 </r>
       <r>   10.0541    0.0000 </r>
       <r>   10.3656    0.0000 </r>
      </set>
      <set comment="kpoint 83">
       <r>   -5.7018    1.0000 </r>
       <r>    2.9629    1.0000 </r>
       <r>    4.6837    1.0000 </r>
       <r>    4.8798    1.0000 </r>
       <r>    8.0182    0.0000 </r>
       <r>    8.7525    0.0000 </r>
       <r>    9.5068    0.0000 </r>
       <r>   10.7749    0.0000 </r>
      </set>
      <set comment="kpoint 84">
       <r>   -5.4111    1.0000 </r>
       <r>    2.3230    1.0000 </r>
       <r>    3.7181    1.0000 </r>
       <r>    4.8104    1.0000 </r>
       <r>    8.1077    0.0000 </r>
       <r>    9.0907    0.0000 </r>
       <r>    9.9917    0.0000 </r>
       <r>   10.4548    0.0000 </r>
      </set>
      <set comment="kpoint 85">
       <r>   -4.9595    1.0000 </r>
       <r>    1.3589    1.0000 </r>
       <r>    2.9876    1.0000 </r>
       <r>    4.5411    1.0000 </r>
       <r>    8.5056    0.0000 </r>
       <r>    9.0553    0.0000 </r>
       <r>   10.2994    0.0000 </r>
       <r>   10.5570    0.0000 </r>
      </set>
      <set comment="kpoint 86">
       <r>   -4.3807    1.0000 </r>
       <r>    0.2123    1.0000 </r>
       <r>    2.6707    1.0000 </r>
       <r>    4.1940    1.0000 </r>
       <r>    8.5798    0.0000 </r>
       <r>    8.9278    0.0000 </r>
       <r>   10.6576    0.0000 </r>
       <r>   11.0516    0.0000 </r>
      </set>
      <set comment="kpoint 87">
       <r>   -3.7857    1.0000 </r>
       <r>   -0.7599    1.0000 </r>
       <r>    2.5764    1.0000 </r>
       <r>    3.9130    1.0000 </r>
       <r>    8.3951    0.0000 </r>
       <r>    8.8747    0.0000 </r>
       <r>   10.7111    0.0000 </r>
       <r>   12.2704    0.0000 </r>
      </set>
      <set comment="kpoint 88">
       <r>   -3.5516    1.0000 </r>
       <r>   -1.0946    1.0000 </r>
       <r>    2.6170    1.0000 </r>
       <r>    3.7757    1.0000 </r>
       <r>    8.2103    0.0000 </r>
       <r>    8.9723    0.0000 </r>
       <r>   10.7376    0.0000 </r>
       <r>   12.8172    0.0000 </r>
      </set>
      <set comment="kpoint 89">
       <r>   -3.9654    1.0000 </r>
       <r>   -0.4883    1.0000 </r>
       <r>    2.7501    1.0000 </r>
       <r>    3.8235    1.0000 </r>
       <r>    8.1163    0.0000 </r>
       <r>    9.1935    0.0000 </r>
       <r>   10.8097    0.0000 </r>
       <r>   11.3560    0.0000 </r>
      </set>
      <set comment="kpoint 90">
       <r>   -4.5786    1.0000 </r>
       <r>    0.5873    1.0000 </r>
       <r>    2.9763    1.0000 </r>
       <r>    4.0452    1.0000 </r>
       <r>    8.0659    0.0000 </r>
       <r>    9.4651    0.0000 </r>
       <r>   10.1900    0.0000 </r>
       <r>   10.9106    0.0000 </r>
      </set>
      <set comment="kpoint 91">
       <r>   -5.1227    1.0000 </r>
       <r>    1.7746    1.0000 </r>
       <r>    3.3645    1.0000 </r>
       <r>    4.3502    1.0000 </r>
       <r>    7.8454    0.0000 </r>
       <r>    9.4569    0.0000 </r>
       <r>    9.9866    0.0000 </r>
       <r>   10.7119    0.0000 </r>
      </set>
      <set comment="kpoint 92">
       <r>   -5.1781    1.0000 </r>
       <r>    1.8643    1.0000 </r>
       <r>    3.8925    1.0000 </r>
       <r>    4.0054    1.0000 </r>
       <r>    7.4925    0.0000 </r>
       <r>    9.4642    0.0000 </r>
       <r>   10.2149    0.0000 </r>
       <r>   10.6285    0.0000 </r>
      </set>
      <set comment="kpoint 93">
       <r>   -4.7803    1.0000 </r>
       <r>    1.2165    1.0000 </r>
       <r>    3.0497    1.0000 </r>
       <r>    3.8914    1.0000 </r>
       <r>    7.6050    0.0000 </r>
       <r>    9.1447    0.0000 </r>
       <r>   10.2847    0.0000 </r>
       <r>   11.4610    0.0000 </r>
      </set>
      <set comment="kpoint 94">
       <r>   -4.2403    1.0000 </r>
       <r>    0.3695    1.0000 </r>
       <r>    2.4298    1.0000 </r>
       <r>    3.5736    1.0000 </r>
       <r>    8.0902    0.0000 </r>
       <r>    9.2898    0.0000 </r>
       <r>    9.9800    0.0000 </r>
       <r>   12.1439    0.0000 </r>
      </set>
      <set comment="kpoint 95">
       <r>   -3.6267    1.0000 </r>
       <r>   -0.5319    1.0000 </r>
       <r>    2.0868    1.0000 </r>
       <r>    3.3044    1.0000 </r>
       <r>    8.2966    0.0000 </r>
       <r>    9.5926    0.0000 </r>
       <r>   10.3463    0.0000 </r>
       <r>   12.2958    0.0000 </r>
      </set>
      <set comment="kpoint 96">
       <r>   -3.2049    1.0000 </r>
       <r>   -1.0862    1.0000 </r>
       <r>    1.9149    1.0000 </r>
       <r>    3.2305    1.0000 </r>
       <r>    8.4678    0.0000 </r>
       <r>    9.3017    0.0000 </r>
       <r>   11.8212    0.0000 </r>
       <r>   12.2630    0.0000 </r>
      </set>
      <set comment="kpoint 97">
       <r>   -3.4520    1.0000 </r>
       <r>   -0.7658    1.0000 </r>
       <r>    1.8912    1.0000 </r>
       <r>    3.3760    1.0000 </r>
       <r>    8.7500    0.0000 </r>
       <r>    9.0985    0.0000 </r>
       <r>   11.2410    0.0000 </r>
       <r>   12.2286    0.0000 </r>
      </set>
      <set comment="kpoint 98">
       <r>   -4.0511    1.0000 </r>
       <r>    0.0647    1.0000 </r>
       <r>    2.0939    1.0000 </r>
       <r>    3.6893    1.0000 </r>
       <r>    8.8785    0.0000 </r>
       <r>    9.1317    0.0000 </r>
       <r>   10.0516    0.0000 </r>
       <r>   12.0327    0.0000 </r>
      </set>
      <set comment="kpoint 99">
       <r>   -4.6245    1.0000 </r>
       <r>    0.8661    1.0000 </r>
       <r>    2.6833    1.0000 </r>
[...]
       <r>   -1.2104    1.0000 </r>
       <r>    1.5820    1.0000 </r>
       <r>    3.1347    1.0000 </r>
       <r>    7.6286    0.0000 </r>
       <r>   10.5631    0.0000 </r>
       <r>   11.0246    0.0000 </r>
       <r>   12.8901    0.0000 </r>
      </set>
      <set comment="kpoint 172">
       <r>   -2.7764    1.0000 </r>
       <r>   -1.3161    1.0000 </r>
       <r>    1.3488    1.0000 </r>
       <r>    3.3963    1.0000 </r>
       <r>    7.0339    0.0000 </r>
       <r>   10.5865    0.0000 </r>
       <r>   12.4138    0.0000 </r>
       <r>   12.7560    0.0000 </r>
      </set>
      <set comment="kpoint 173">
       <r>   -4.5361    1.0000 </r>
       <r>   -0.2501    1.0000 </r>
       <r>    4.5547    1.0000 </r>
       <r>    4.5547    1.0000 </r>
       <r>    7.2212    0.0000 </r>
       <r>    9.0788    0.0000 </r>
       <r>    9.0788    0.0000 </r>
       <r>   13.4639    0.0000 </r>
      </set>
      <set comment="kpoint 174">
       <r>   -4.2572    1.0000 </r>
       <r>   -0.5637    1.0000 </r>
       <r>    3.7735    1.0000 </r>
       <r>    4.5181    1.0000 </r>
       <r>    7.6887    0.0000 </r>
       <r>    9.1084    0.0000 </r>
       <r>    9.1895    0.0000 </r>
       <r>   13.4241    0.0000 </r>
      </set>
      <set comment="kpoint 175">
       <r>   -3.8463    1.0000 </r>
       <r>   -0.7671    1.0000 </r>
       <r>    2.6345    1.0000 </r>
       <r>    4.1933    1.0000 </r>
       <r>    7.9137    0.0000 </r>
       <r>    9.6677    0.0000 </r>
       <r>    9.9221    0.0000 </r>
       <r>   13.4713    0.0000 </r>
      </set>
      <set comment="kpoint 176">
       <r>   -3.3334    1.0000 </r>
       <r>   -0.9526    1.0000 </r>
       <r>    1.7106    1.0000 </r>
       <r>    3.7734    1.0000 </r>
       <r>    7.4807    0.0000 </r>
       <r>   11.0296    0.0000 </r>
       <r>   11.0702    0.0000 </r>
       <r>   12.5122    0.0000 </r>
      </set>
      <set comment="kpoint 177">
       <r>   -4.0730    1.0000 </r>
       <r>   -0.8595    1.0000 </r>
       <r>    3.9547    1.0000 </r>
       <r>    4.2428    1.0000 </r>
       <r>    7.6410    0.0000 </r>
       <r>    8.8817    0.0000 </r>
       <r>    9.4102    0.0000 </r>
       <r>   13.1353    0.0000 </r>
      </set>
      <set comment="kpoint 178">
       <r>   -3.7720    1.0000 </r>
       <r>   -1.0140    1.0000 </r>
       <r>    3.0730    1.0000 </r>
       <r>    4.0311    1.0000 </r>
       <r>    8.1624    0.0000 </r>
       <r>    8.7764    0.0000 </r>
       <r>   10.1037    0.0000 </r>
       <r>   13.0245    0.0000 </r>
      </set>
      <set comment="kpoint 179">
       <r>   -3.3806    1.0000 </r>
       <r>   -1.0689    1.0000 </r>
       <r>    2.1399    1.0000 </r>
       <r>    3.5874    1.0000 </r>
       <r>    8.1019    0.0000 </r>
       <r>    9.4312    0.0000 </r>
       <r>   11.4195    0.0000 </r>
       <r>   12.6296    0.0000 </r>
      </set>
      <set comment="kpoint 180">
       <r>   -3.6095    1.0000 </r>
       <r>   -1.1109    1.0000 </r>
       <r>    2.7683    1.0000 </r>
       <r>    3.9559    1.0000 </r>
       <r>    7.7170    0.0000 </r>
       <r>    9.6546    0.0000 </r>
       <r>   10.1116    0.0000 </r>
       <r>   12.7511    0.0000 </r>
      </set>
      <set comment="kpoint 181">
       <r>   -4.0082    1.0000 </r>
       <r>   -1.1146    1.0000 </r>
       <r>    4.4564    1.0000 </r>
       <r>    4.4564    1.0000 </r>
       <r>    7.1076    0.0000 </r>
       <r>    8.9886    0.0000 </r>
       <r>    8.9886    0.0000 </r>
       <r>   13.3486    0.0000 </r>
      </set>
      <set comment="kpoint 182">
       <r>   -3.8474    1.0000 </r>
       <r>   -1.1949    1.0000 </r>
       <r>    3.8063    1.0000 </r>
       <r>    4.3285    1.0000 </r>
       <r>    7.6107    0.0000 </r>
       <r>    8.9405    0.0000 </r>
       <r>    9.2548    0.0000 </r>
       <r>   13.6180    0.0000 </r>
      </set>
     </set>
    </set>
   </array>
  </eigenvalues>
  <separator name="orbital magnetization" >
   <v name="MAGDIPOLOUT">      0.00000000      0.00000000      0.00000000</v>
  </separator>
  <dos>
   <i name="efermi">      5.83086526 </i>
   <total>
    <array>
     <dimension dim="1">gridpoints</dimension>
     <dimension dim="2">spin</dimension>
     <field>energy</field>
     <field>total</field>
     <field>integrated</field>
     <set>
      <set comment="spin 1">
       <r>    -7.2485     0.0000     0.0000 </r>
       <r>    -7.1697     0.0000     0.0000 </r>
       <r>    -7.0909     0.0000     0.0000 </r>
       <r>    -7.0121     0.0000     0.0000 </r>
       <r>    -6.9334     0.0000     0.0000 </r>
       <r>    -6.8546     0.0000     0.0000 </r>
       <r>    -6.7758     0.0000     0.0000 </r>
       <r>    -6.6970     0.0000     0.0000 </r>
       <r>    -6.6182     0.0000     0.0000 </r>
       <r>    -6.5395     0.0000     0.0000 </r>
       <r>    -6.4607     0.0000     0.0000 </r>
       <r>    -6.3819     0.0000     0.0000 </r>
       <r>    -6.3031     0.0000     0.0000 </r>
       <r>    -6.2244     0.0024     0.0002 </r>
       <r>    -6.1456     0.0381     0.0032 </r>
       <r>    -6.0668     0.1045     0.0114 </r>
       <r>    -5.9880     0.1398     0.0224 </r>
       <r>    -5.9093     0.1927     0.0376 </r>
       <r>    -5.8305     0.1726     0.0512 </r>
       <r>    -5.7517     0.2726     0.0727 </r>
       <r>    -5.6729     0.2181     0.0899 </r>
       <r>    -5.5942     0.2747     0.1115 </r>
       <r>    -5.5154     0.2987     0.1350 </r>
       <r>    -5.4366     0.3362     0.1615 </r>
       <r>    -5.3578     0.3182     0.1866 </r>
       <r>    -5.2790     0.2776     0.2085 </r>
       <r>    -5.2003     0.4713     0.2456 </r>
       <r>    -5.1215     0.3719     0.2749 </r>
       <r>    -5.0427     0.3830     0.3050 </r>
       <r>    -4.9639     0.3396     0.3318 </r>
       <r>    -4.8852     0.5521     0.3753 </r>
       <r>    -4.8064     0.4118     0.4077 </r>
       <r>    -4.7276     0.5124     0.4481 </r>
       <r>    -4.6488     0.4747     0.4855 </r>
       <r>    -4.5701     0.4790     0.5232 </r>
       <r>    -4.4913     0.4618     0.5596 </r>
       <r>    -4.4125     0.6754     0.6128 </r>
       <r>    -4.3337     0.6649     0.6652 </r>
       <r>    -4.2550     0.4915     0.7039 </r>
       <r>    -4.1762     0.5890     0.7503 </r>
       <r>    -4.0974     0.6520     0.8017 </r>
       <r>    -4.0186     0.7996     0.8647 </r>
       <r>    -3.9399     0.7864     0.9266 </r>
       <r>    -3.8611     0.8084     0.9903 </r>
       <r>    -3.7823     1.1443     1.0804 </r>
       <r>    -3.7035     0.6476     1.1314 </r>
       <r>    -3.6247     0.6418     1.1820 </r>
       <r>    -3.5460     1.0709     1.2664 </r>
       <r>    -3.4672     0.7105     1.3223 </r>
       <r>    -3.3884     0.7507     1.3815 </r>
       <r>    -3.3096     0.7808     1.4430 </r>
       <r>    -3.2309     0.8238     1.5079 </r>
       <r>    -3.1521     0.5904     1.5544 </r>
       <r>    -3.0733     0.3282     1.5802 </r>
       <r>    -2.9945     0.5768     1.6257 </r>
       <r>    -2.9158     0.8231     1.6905 </r>
       <r>    -2.8370     0.7763     1.7517 </r>
       <r>    -2.7582     0.5205     1.7927 </r>
       <r>    -2.6794     0.3994     1.8241 </r>
       <r>    -2.6007     0.2156     1.8411 </r>
       <r>    -2.5219     0.2769     1.8629 </r>
       <r>    -2.4431     0.3968     1.8942 </r>
       <r>    -2.3643     0.6853     1.9482 </r>
       <r>    -2.2856     0.3545     1.9761 </r>
       <r>    -2.2068     0.2707     1.9974 </r>
       <r>    -2.1280     0.0324     2.0000 </r>
       <r>    -2.0492     0.0001     2.0000 </r>
       <r>    -1.9704     0.0000     2.0000 </r>
       <r>    -1.8917     0.0008     2.0001 </r>
       <r>    -1.8129     0.1064     2.0084 </r>
       <r>    -1.7341     0.6379     2.0587 </r>
       <r>    -1.6553     0.5643     2.1032 </r>
       <r>    -1.5766     0.2379     2.1219 </r>
       <r>    -1.4978     0.2365     2.1405 </r>
       <r>    -1.4190     0.2253     2.1583 </r>
       <r>    -1.3402     0.2640     2.1791 </r>
       <r>    -1.2615     0.5771     2.2245 </r>
       <r>    -1.1827     1.3274     2.3291 </r>
       <r>    -1.1039     1.6999     2.4630 </r>
       <r>    -1.0251     1.3968     2.5730 </r>
       <r>    -0.9464     1.1292     2.6620 </r>
       <r>    -0.8676     0.7495     2.7210 </r>
       <r>    -0.7888     0.9076     2.7925 </r>
       <r>    -0.7100     0.9603     2.8682 </r>
       <r>    -0.6313     0.4059     2.9002 </r>
       <r>    -0.5525     0.7559     2.9597 </r>
       <r>    -0.4737     1.1585     3.0510 </r>
       <r>    -0.3949     0.4673     3.0878 </r>
       <r>    -0.3161     0.1971     3.1033 </r>
       <r>    -0.2374     0.4404     3.1380 </r>
       <r>    -0.1586     0.8053     3.2015 </r>
       <r>    -0.0798     0.5490     3.2447 </r>
       <r>    -0.0010     0.1400     3.2557 </r>
       <r>     0.0777     0.2814     3.2779 </r>
       <r>     0.1565     0.5958     3.3248 </r>
       <r>     0.2353     0.8456     3.3914 </r>
       <r>     0.3141     0.2085     3.4079 </r>
       <r>     0.3928     0.1325     3.4183 </r>
       <r>     0.4716     0.2027     3.4343 </r>
       <r>     0.5504     0.3313     3.4604 </r>
       <r>     0.6292     0.6544     3.5119 </r>
       <r>     0.7079     0.2984     3.5354 </r>
       <r>     0.7867     0.0564     3.5399 </r>
       <r>     0.8655     0.1973     3.5554 </r>
       <r>     0.9443     0.3246     3.5810 </r>
       <r>     1.0231     0.4675     3.6178 </r>
       <r>     1.1018     0.3409     3.6447 </r>
       <r>     1.1806     0.0423     3.6480 </r>
       <r>     1.2594     0.1435     3.6593 </r>
       <r>     1.3382     0.2376     3.6780 </r>
       <r>     1.4169     0.6216     3.7270 </r>
       <r>     1.4957     0.9288     3.8001 </r>
       <r>     1.5745     1.0511     3.8829 </r>
       <r>     1.6533     1.3546     3.9897 </r>
       <r>     1.7320     0.9989     4.0683 </r>
       <r>     1.8108     1.0656     4.1523 </r>
       <r>     1.8896     1.0571     4.2356 </r>
       <r>     1.9684     1.2507     4.3341 </r>
       <r>     2.0471     1.1371     4.4237 </r>
       <r>     2.1259     0.9752     4.5005 </r>
       <r>     2.2047     0.8771     4.5696 </r>
       <r>     2.2835     0.9061     4.6409 </r>
       <r>     2.3622     1.1661     4.7328 </r>
       <r>     2.4410     1.5188     4.8525 </r>
       <r>     2.5198     0.9786     4.9295 </r>
       <r>     2.5986     1.0349     5.0111 </r>
       <r>     2.6774     1.3061     5.1140 </r>
       <r>     2.7561     1.1682     5.2060 </r>
       <r>     2.8349     1.4354     5.3191 </r>
       <r>     2.9137     1.5466     5.4409 </r>
       <r>     2.9925     1.7464     5.5785 </r>
       <r>     3.0712     1.4956     5.6963 </r>
       <r>     3.1500     1.5447     5.8180 </r>
       <r>     3.2288     1.2162     5.9138 </r>
       <r>     3.3076     1.3051     6.0166 </r>
       <r>     3.3863     1.6352     6.1454 </r>
       <r>     3.4651     1.5217     6.2653 </r>
       <r>     3.5439     1.5122     6.3844 </r>
       <r>     3.6227     1.0592     6.4678 </r>
       <r>     3.7014     1.1702     6.5600 </r>
       <r>     3.7802     1.5254     6.6802 </r>
       <r>     3.8590     1.3924     6.7899 </r>
       <r>     3.9378     1.2072     6.8850 </r>
       <r>     4.0165     1.1298     6.9740 </r>
       <r>     4.0953     1.3960     7.0839 </r>
       <r>     4.1741     1.0019     7.1629 </r>
       <r>     4.2529     1.4276     7.2753 </r>
       <r>     4.3317     1.1259     7.3640 </r>
       <r>     4.4104     0.9281     7.4371 </r>
       <r>     4.4892     1.0079     7.5165 </r>
       <r>     4.5680     1.2509     7.6151 </r>
       <r>     4.6468     0.6561     7.6668 </r>
       <r>     4.7255     0.5291     7.7084 </r>
       <r>     4.8043     0.5156     7.7490 </r>
       <r>     4.8831     0.5602     7.7932 </r>
       <r>     4.9619     0.5569     7.8371 </r>
       <r>     5.0406     0.4425     7.8719 </r>
       <r>     5.1194     0.3189     7.8970 </r>
       <r>     5.1982     0.3030     7.9209 </r>
       <r>     5.2770     0.2799     7.9429 </r>
       <r>     5.3557     0.2300     7.9611 </r>
       <r>     5.4345     0.2486     7.9807 </r>
       <r>     5.5133     0.1174     7.9899 </r>
       <r>     5.5921     0.0987     7.9977 </r>
       <r>     5.6709     0.0290     8.0000 </r>
       <r>     5.7496     0.0005     8.0000 </r>
       <r>     5.8284     0.0000     8.0000 </r>
       <r>     5.9072     0.0000     8.0000 </r>
       <r>     5.9860     0.0000     8.0000 </r>
       <r>     6.0647     0.0000     8.0000 </r>
       <r>     6.1435     0.0000     8.0000 </r>
       <r>     6.2223     0.0005     8.0000 </r>
       <r>     6.3011     0.0514     8.0041 </r>
       <r>     6.3798     0.1914     8.0192 </r>
       <r>     6.4586     0.1123     8.0280 </r>
       <r>     6.5374     0.2022     8.0439 </r>
       <r>     6.6162     0.5467     8.0870 </r>
       <r>     6.6949     0.3029     8.1109 </r>
       <r>     6.7737     0.4903     8.1495 </r>
       <r>     6.8525     0.4403     8.1842 </r>
       <r>     6.9313     0.3216     8.2095 </r>
       <r>     7.0100     0.5165     8.2502 </r>
       <r>     7.0888     0.9218     8.3228 </r>
       <r>     7.1676     0.7503     8.3819 </r>
       <r>     7.2464     0.5349     8.4241 </r>
       <r>     7.3252     0.8544     8.4914 </r>
       <r>     7.4039     0.9319     8.5648 </r>
       <r>     7.4827     0.8886     8.6348 </r>
       <r>     7.5615     0.9394     8.7088 </r>
       <r>     7.6403     1.4715     8.8247 </r>
       <r>     7.7190     1.1538     8.9156 </r>
       <r>     7.7978     1.2644     9.0152 </r>
       <r>     7.8766     2.0064     9.1733 </r>
       <r>     7.9554     1.7911     9.3144 </r>
       <r>     8.0341     1.1778     9.4071 </r>
       <r>     8.1129     1.4287     9.5197 </r>
       <r>     8.1917     1.4773     9.6361 </r>
       <r>     8.2705     1.5069     9.7548 </r>
       <r>     8.3492     1.2831     9.8558 </r>
       <r>     8.4280     1.1118     9.9434 </r>
       <r>     8.5068     1.0448    10.0257 </r>
       <r>     8.5856     1.3372    10.1311 </r>
       <r>     8.6643     0.9268    10.2041 </r>
       <r>     8.7431     1.0973    10.2905 </r>
       <r>     8.8219     1.1143    10.3783 </r>
       <r>     8.9007     1.8067    10.5206 </r>
       <r>     8.9795     2.5456    10.7212 </r>
       <r>     9.0582     1.9322    10.8734 </r>
       <r>     9.1370     2.1374    11.0417 </r>
       <r>     9.2158     1.7262    11.1777 </r>
       <r>     9.2946     1.6495    11.3077 </r>
       <r>     9.3733     1.5784    11.4320 </r>
       <r>     9.4521     1.5933    11.5575 </r>
       <r>     9.5309     1.7357    11.6942 </r>
       <r>     9.6097     1.1483    11.7847 </r>
       <r>     9.6884     1.1599    11.8761 </r>
       <r>     9.7672     1.4116    11.9873 </r>
       <r>     9.8460     1.2986    12.0896 </r>
       <r>     9.9248     1.1928    12.1835 </r>
       <r>    10.0035     1.5726    12.3074 </r>
       <r>    10.0823     0.9035    12.3786 </r>
       <r>    10.1611     1.0813    12.4638 </r>
       <r>    10.2399     1.7077    12.5983 </r>
       <r>    10.3187     1.3349    12.7035 </r>
       <r>    10.3974     1.3016    12.8060 </r>
       <r>    10.4762     0.9524    12.8810 </r>
       <r>    10.5550     1.2596    12.9802 </r>
       <r>    10.6338     1.5870    13.1053 </r>
       <r>    10.7125     1.1016    13.1920 </r>
       <r>    10.7913     1.1133    13.2797 </r>
       <r>    10.8701     1.3153    13.3834 </r>
       <r>    10.9489     1.6138    13.5105 </r>
       <r>    11.0276     0.9529    13.5855 </r>
       <r>    11.1064     0.9301    13.6588 </r>
       <r>    11.1852     0.8245    13.7238 </r>
       <r>    11.2640     1.2406    13.8215 </r>
       <r>    11.3427     1.4114    13.9327 </r>
       <r>    11.4215     0.7842    13.9945 </r>
       <r>    11.5003     1.2094    14.0897 </r>
       <r>    11.5791     1.3004    14.1922 </r>
       <r>    11.6578     1.1058    14.2793 </r>
       <r>    11.7366     1.0256    14.3601 </r>
       <r>    11.8154     0.8218    14.4248 </r>
       <r>    11.8942     0.9685    14.5011 </r>
       <r>    11.9730     0.7928    14.5636 </r>
       <r>    12.0517     0.7161    14.6200 </r>
       <r>    12.1305     0.8813    14.6894 </r>
       <r>    12.2093     1.0853    14.7749 </r>
       <r>    12.2881     1.3769    14.8834 </r>
       <r>    12.3668     0.8799    14.9527 </r>
       <r>    12.4456     0.7497    15.0117 </r>
       <r>    12.5244     1.0605    15.0953 </r>
       <r>    12.6032     0.5722    15.1404 </r>
       <r>    12.6819     0.2951    15.1636 </r>
       <r>    12.7607     0.4056    15.1956 </r>
       <r>    12.8395     0.8046    15.2589 </r>
       <r>    12.9183     0.8649    15.3271 </r>
       <r>    12.9970     0.7734    15.3880 </r>
       <r>    13.0758     0.7997    15.4510 </r>
       <r>    13.1546     0.8244    15.5159 </r>
       <r>    13.2334     0.4052    15.5479 </r>
       <r>    13.3121     0.4717    15.5850 </r>
       <r>    13.3909     0.3537    15.6129 </r>
       <r>    13.4697     0.3632    15.6415 </r>
       <r>    13.5485     0.5033    15.6811 </r>
       <r>    13.6273     0.4641    15.7177 </r>
       <r>    13.7060     0.1905    15.7327 </r>
       <r>    13.7848     0.4365    15.7671 </r>
       <r>    13.8636     0.9943    15.8454 </r>
       <r>    13.9424     0.2297    15.8635 </r>
       <r>    14.0211     0.1294    15.8737 </r>
       <r>    14.0999     0.0164    15.8750 </r>
       <r>    14.1787     0.0026    15.8752 </r>
       <r>    14.2575     0.1305    15.8855 </r>
       <r>    14.3362     0.2081    15.9019 </r>
       <r>    14.4150     0.0493    15.9058 </r>
       <r>    14.4938     0.0736    15.9116 </r>
       <r>    14.5726     0.3599    15.9399 </r>
       <r>    14.6513     0.3619    15.9684 </r>
       <r>    14.7301     0.0479    15.9722 </r>
       <r>    14.8089     0.0005    15.9722 </r>
       <r>    14.8877     0.0000    15.9722 </r>
       <r>    14.9665     0.0000    15.9722 </r>
       <r>    15.0452     0.0180    15.9736 </r>
       <r>    15.1240     0.1285    15.9838 </r>
       <r>    15.2028     0.0339    15.9864 </r>
       <r>    15.2816     0.0768    15.9925 </r>
       <r>    15.3603     0.0883    15.9994 </r>
       <r>    15.4391     0.0071    16.0000 </r>
       <r>    15.5179     0.0000    16.0000 </r>
       <r>    15.5967     0.0000    16.0000 </r>
       <r>    15.6754     0.0000    16.0000 </r>
       <r>    15.7542     0.0000    16.0000 </r>
       <r>    15.8330     0.0000    16.0000 </r>
       <r>    15.9118     0.0000    16.0000 </r>
       <r>    15.9905     0.0000    16.0000 </r>
       <r>    16.0693     0.0000    16.0000 </r>
       <r>    16.1481     0.0000    16.0000 </r>
       <r>    16.2269     0.0000    16.0000 </r>
       <r>    16.3056     0.0000    16.0000 </r>
       <r>    16.3844     0.0000    16.0000 </r>
      </set>
     </set>
    </array>
   </total>
  </dos>
 </calculation>
 <structure name="finalpos" >
  <crystal>
   <varray name="basis" >
    <v>       3.34813339       0.00000000       1.93304544 </v>
    <v>       1.11604446       3.15665168       1.93304544 </v>
    <v>      -0.00000000      -0.00000000       3.86609088 </v>
   </varray>
   <i name="volume">     40.86029277 </i>
   <varray name="rec_basis" >
    <v>       0.29867388      -0.10559712      -0.00000000 </v>
    <v>      -0.00000000       0.31679137       0.00000000 </v>
    <v>      -0.14933694      -0.10559712       0.25865921 </v>
   </varray>
  </crystal>
  <varray name="positions" >
   <v>       0.87500000       0.87500000       0.87500000 </v>
   <v>       0.12500000       0.12500000       0.12500000 </v>
  </varray>
 </structure>
</modeling>
