unknown system                          
   1.00000000000000     
     2.793987   -0.000000    0.000000
     0.000000    2.793987    0.000000
     0.000000   -0.000000    2.793987
   Fe
     2
Direct
  0.000000  0.000000  0.000000
  0.500000  0.500000  0.500000
 
   36   36   36
  198.95      193.98      179.78      158.30      132.29      104.76      78.448      55.479      37.145      23.879    
  15.344      10.599      8.3742      7.2862      6.5129      5.9887      5.6670      5.5035      5.4510      5.5035    
  5.6670      5.9887      6.5129      7.2862      8.3742      10.599      15.344      23.879      37.145      55.479    
  78.448      104.76      132.29      158.30      179.78      193.98      193.98      189.15      175.35      154.46    
  129.13      102.30      76.628      54.206      36.313      23.380      15.081      10.486      8.3378      7.2697    
  6.5028      5.9853      5.6673      5.5063      5.4543      5.5063      5.6673      5.9853      6.5028      7.2697    
  8.3378      10.486      15.081      23.380      36.313      54.206      76.628      102.30      129.13      154.46    
  175.35      189.15      179.78      175.35      162.68      143.44      120.06      95.204      71.375      50.531    
  33.912      21.949      14.336      10.173      8.2357      7.2198      6.4731      5.9751      5.6683      5.5142    
  5.4636      5.5142      5.6683      5.9751      6.4731      7.2198      8.2357      10.173      14.336      21.949    
  33.912      50.531      71.375      95.204      120.06      143.44      162.68      175.35      158.30      154.46    
  143.44      126.66      106.18      84.322      63.289      44.874      30.234      19.783      13.230      9.7211    
  8.0834      7.1352      6.4254      5.9575      5.6700      5.5258      5.4785      5.5258      5.6700      5.9575    
  6.4254      7.1352      8.0834      9.7211      13.230      19.783      30.234      44.874      63.289      84.322    
  106.18      126.66      143.44      154.46      132.29      129.13      120.06      106.18      89.163      70.910    
  53.303      37.905      25.743      17.187      11.946      9.2180      7.8955      7.0156      6.3626      5.9327    
  5.6722      5.5392      5.4975      5.5392      5.6722      5.9327      6.3626      7.0156      7.8955      9.2180    
  11.946      17.187      25.743      37.905      53.303      70.910      89.163      106.18      120.06      129.13    
  104.76      102.30      95.204      84.322      70.910      56.483      42.564      30.459      21.023      14.537    
  10.693      8.7396      7.6727      6.8668      6.2872      5.9021      5.6736      5.5530      5.5181      5.5530    
  5.6736      5.9021      6.2872      6.8668      7.6727      8.7396      10.693      14.537      21.023      30.459    
  42.564      56.483      70.910      84.322      95.204      102.30      78.448      76.628      71.375      63.289    
  53.303      42.564      32.261      23.413      16.667      12.190      9.6418      8.3112      7.4104      6.7015    
  6.2014      5.8692      5.6717      5.5668      5.5362      5.5668      5.6717      5.8692      6.2014      6.7015    
  7.4104      8.3112      9.6418      12.190      16.667      23.413      32.261      42.564      53.303      63.289    
  71.375      76.628      55.479      54.206      50.531      44.874      37.905      30.459      23.413      17.496    
  13.150      10.389      8.8539      7.8974      7.1216      6.5312      6.1102      5.8352      5.6659      5.5787    
  5.5501      5.5787      5.6659      5.8352      6.1102      6.5312      7.1216      7.8974      8.8539      10.389    
  13.150      17.496      23.413      30.459      37.905      44.874      50.531      54.206      37.145      36.313    
  33.912      30.234      25.743      21.023      16.667      13.150      10.684      9.1806      8.2378      7.4679    
  6.8372      6.3607      6.0232      5.7979      5.6587      5.5837      5.5605      5.5837      5.6587      5.7979    
  6.0232      6.3607      6.8372      7.4679      8.2378      9.1806      10.684      13.150      16.667      21.023    
  25.743      30.234      33.912      36.313      23.879      23.380      21.949      19.783      17.187      14.537    
  12.190      10.389      9.1806      8.3611      7.6638      7.0565      6.5707      6.2030      5.9399      5.7605    
  5.6467      5.5839      5.5640      5.5839      5.6467      5.7605      5.9399      6.2030      6.5707      7.0565    
  7.6638      8.3611      9.1806      10.389      12.190      14.537      17.187      19.783      21.949      23.380    
  15.344      15.081      14.336      13.230      11.946      10.693      9.6418      8.8539      8.2378      7.6638    
  7.1364      6.6911      6.3341      6.0625      5.8633      5.7235      5.6306      5.5778      5.5605      5.5778    
  5.6306      5.7235      5.8633      6.0625      6.3341      6.6911      7.1364      7.6638      8.2378      8.8539    
  9.6418      10.693      11.946      13.230      14.336      15.081      10.599      10.486      10.173      9.7211    
  9.2180      8.7396      8.3112      7.8974      7.4679      7.0565      6.6911      6.3823      6.1341      5.9407    
  5.7935      5.6844      5.6092      5.5647      5.5501      5.5647      5.6092      5.6844      5.7935      5.9407    
  6.1341      6.3823      6.6911      7.0565      7.4679      7.8974      8.3112      8.7396      9.2180      9.7211    
  10.173      10.486      8.3742      8.3378      8.2357      8.0834      7.8955      7.6727      7.4104      7.1216    
  6.8372      6.5707      6.3341      6.1341      5.9696      5.8356      5.7281      5.6453      5.5853      5.5487    
  5.5362      5.5487      5.5853      5.6453      5.7281      5.8356      5.9696      6.1341      6.3341      6.5707    
  6.8372      7.1216      7.4104      7.6727      7.8955      8.0834      8.2357      8.3378      7.2862      7.2697    
  7.2198      7.1352      7.0156      6.8668      6.7015      6.5312      6.3607      6.2030      6.0625      5.9407    
  5.8356      5.7451      5.6694      5.6069      5.5591      5.5285      5.5181      5.5285      5.5591      5.6069    
  5.6694      5.7451      5.8356      5.9407      6.0625      6.2030      6.3607      6.5312      6.7015      6.8668    
  7.0156      7.1352      7.2198      7.2697      6.5129      6.5028      6.4731      6.4254      6.3626      6.2872    
  6.2014      6.1102      6.0232      5.9399      5.8633      5.7935      5.7281      5.6694      5.6157      5.5684    
  5.5305      5.5061      5.4975      5.5061      5.5305      5.5684      5.6157      5.6694      5.7281      5.7935    
  5.8633      5.9399      6.0232      6.1102      6.2014      6.2872      6.3626      6.4254      6.4731      6.5028    
  5.9887      5.9853      5.9751      5.9575      5.9327      5.9021      5.8692      5.8352      5.7979      5.7605    
  5.7235      5.6844      5.6453      5.6069      5.5684      5.5327      5.5038      5.4850      5.4785      5.4850    
  5.5038      5.5327      5.5684      5.6069      5.6453      5.6844      5.7235      5.7605      5.7979      5.8352    
  5.8692      5.9021      5.9327      5.9575      5.9751      5.9853      5.6670      5.6673      5.6683      5.6700    
  5.6722      5.6736      5.6717      5.6659      5.6587      5.6467      5.6306      5.6092      5.5853      5.5591    
  5.5305      5.5038      5.4822      5.4684      5.4636      5.4684      5.4822      5.5038      5.5305      5.5591    
  5.5853      5.6092      5.6306      5.6467      5.6587      5.6659      5.6717      5.6736      5.6722      5.6700    
  5.6683      5.6673      5.5035      5.5063      5.5142      5.5258      5.5392      5.5530      5.5668      5.5787    
  5.5837      5.5839      5.5778      5.5647      5.5487      5.5285      5.5061      5.4850      5.4684      5.4578    
  5.4543      5.4578      5.4684      5.4850      5.5061      5.5285      5.5487      5.5647      5.5778      5.5839    
  5.5837      5.5787      5.5668      5.5530      5.5392      5.5258      5.5142      5.5063      5.4510      5.4543    
  5.4636      5.4785      5.4975      5.5181      5.5362      5.5501      5.5605      5.5640      5.5605      5.5501    
  5.5362      5.5181      5.4975      5.4785      5.4636      5.4543      5.4510      5.4543      5.4636      5.4785    
  5.4975      5.5181      5.5362      5.5501      5.5605      5.5640      5.5605      5.5501      5.5362      5.5181    
  5.4975      5.4785      5.4636      5.4543      5.5035      5.5063      5.5142      5.5258      5.5392      5.5530    
  5.5668      5.5787      5.5837      5.5839      5.5778      5.5647      5.5487      5.5285      5.5061      5.4850    
  5.4684      5.4578      5.4543      5.4578      5.4684      5.4850      5.5061      5.5285      5.5487      5.5647    
  5.5778      5.5839      5.5837      5.5787      5.5668      5.5530      5.5392      5.5258      5.5142      5.5063    
  5.6670      5.6673      5.6683      5.6700      5.6722      5.6736      5.6717      5.6659      5.6587      5.6467    
  5.6306      5.6092      5.5853      5.5591      5.5305      5.5038      5.4822      5.4684      5.4636      5.4684    
  5.4822      5.5038      5.5305      5.5591      5.5853      5.6092      5.6306      5.6467      5.6587      5.6659    
  5.6717      5.6736      5.6722      5.6700      5.6683      5.6673      5.9887      5.9853      5.9751      5.9575    
  5.9327      5.9021      5.8692      5.8352      5.7979      5.7605      5.7235      5.6844      5.6453      5.6069    
  5.5684      5.5327      5.5038      5.4850      5.4785      5.4850      5.5038      5.5327      5.5684      5.6069    
  5.6453      5.6844      5.7235      5.7605      5.7979      5.8352      5.8692      5.9021      5.9327      5.9575    
  5.9751      5.9853      6.5129      6.5028      6.4731      6.4254      6.3626      6.2872      6.2014      6.1102    
  6.0232      5.9399      5.8633      5.7935      5.7281      5.6694      5.6157      5.5684      5.5305      5.5061    
  5.4975      5.5061      5.5305      5.5684      5.6157      5.6694      5.7281      5.7935      5.8633      5.9399    
  6.0232      6.1102      6.2014      6.2872      6.3626      6.4254      6.4731      6.5028      7.2862      7.2697    
  7.2198      7.1352      7.0156      6.8668      6.7015      6.5312      6.3607      6.2030      6.0625      5.9407    
  5.8356      5.7451      5.6694      5.6069      5.5591      5.5285      5.5181      5.5285      5.5591      5.6069    
  5.6694      5.7451      5.8356      5.9407      6.0625      6.2030      6.3607      6.5312      6.7015      6.8668    
  7.0156      7.1352      7.2198      7.2697      8.3742      8.3378      8.2357      8.0834      7.8955      7.6727    
  7.4104      7.1216      6.8372      6.5707      6.3341      6.1341      5.9696      5.8356      5.7281      5.6453    
  5.5853      5.5487      5.5362      5.5487      5.5853      5.6453      5.7281      5.8356      5.9696      6.1341    
  6.3341      6.5707      6.8372      7.1216      7.4104      7.6727      7.8955      8.0834      8.2357      8.3378    
  10.599      10.486      10.173      9.7211      9.2180      8.7396      8.3112      7.8974      7.4679      7.0565    
  6.6911      6.3823      6.1341      5.9407      5.7935      5.6844      5.6092      5.5647      5.5501      5.5647    
  5.6092      5.6844      5.7935      5.9407      6.1341      6.3823      6.6911      7.0565      7.4679      7.8974    
  8.3112      8.7396      9.2180      9.7211      10.173      10.486      15.344      15.081      14.336      13.230    
  11.946      10.693      9.6418      8.8539      8.2378      7.6638      7.1364      6.6911      6.3341      6.0625    
  5.8633      5.7235      5.6306      5.5778      5.5605      5.5778      5.6306      5.7235      5.8633      6.0625    
  6.3341      6.6911      7.1364      7.6638      8.2378      8.8539      9.6418      10.693      11.946      13.230    
  14.336      15.081      23.879      23.380      21.949      19.783      17.187      14.537      12.190      10.389    
  9.1806      8.3611      7.6638      7.0565      6.5707      6.2030      5.9399      5.7605      5.6467      5.5839    
  5.5640      5.5839      5.6467      5.7605      5.9399      6.2030      6.5707      7.0565      7.6638      8.3611    
  9.1806      10.389      12.190      14.537      17.187      19.783      21.949      23.380      37.145      36.313    
  33.912      30.234      25.743      21.023      16.667      13.150      10.684      9.1806      8.2378      7.4679    
  6.8372      6.3607      6.0232      5.7979      5.6587      5.5837      5.5605      5.5837      5.6587      5.7979    
  6.0232      6.3607      6.8372      7.4679      8.2378      9.1806      10.684      13.150      16.667      21.023    
  25.743      30.234      33.912      36.313      55.479      54.206      50.531      44.874      37.905      30.459    
  23.413      17.496      13.150      10.389      8.8539      7.8974      7.1216      6.5312      6.1102      5.8352    
  5.6659      5.5787      5.5501      5.5787      5.6659      5.8352      6.1102      6.5312      7.1216      7.8974    
  8.8539      10.389      13.150      17.496      23.413      30.459      37.905      44.874      50.531      54.206    
  78.448      76.628      71.375      63.289      53.303      42.564      32.261      23.413      16.667      12.190    
  9.6418      8.3112      7.4104      6.7015      6.2014      5.8692      5.6717      5.5668      5.5362      5.5668    
  5.6717      5.8692      6.2014      6.7015      7.4104      8.3112      9.6418      12.190      16.667      23.413    
  32.261      42.564      53.303      63.289      71.375      76.628      104.76      102.30      95.204      84.322    
  70.910      56.483      42.564      30.459      21.023      14.537      10.693      8.7396      7.6727      6.8668    
  6.2872      5.9021      5.6736      5.5530      5.5181      5.5530      5.6736      5.9021      6.2872      6.8668    
  7.6727      8.7396      10.693      14.537      21.023      30.459      42.564      56.483      70.910      84.322    
  95.204      102.30      132.29      129.13      120.06      106.18      89.163      70.910      53.303      37.905    
  25.743      17.187      11.946      9.2180      7.8955      7.0156      6.3626      5.9327      5.6722      5.5392    
  5.4975      5.5392      5.6722      5.9327      6.3626      7.0156      7.8955      9.2180      11.946      17.187    
  25.743      37.905      53.303      70.910      89.163      106.18      120.06      129.13      158.30      154.46    
  143.44      126.66      106.18      84.322      63.289      44.874      30.234      19.783      13.230      9.7211    
  8.0834      7.1352      6.4254      5.9575      5.6700      5.5258      5.4785      5.5258      5.6700      5.9575    
  6.4254      7.1352      8.0834      9.7211      13.230      19.783      30.234      44.874      63.289      84.322    
  106.18      126.66      143.44      154.46      179.78      175.35      162.68      143.44      120.06      95.204    
  71.375      50.531      33.912      21.949      14.336      10.173      8.2357      7.2198      6.4731      5.9751    
  5.6683      5.5142      5.4636      5.5142      5.6683      5.9751      6.4731      7.2198      8.2357      10.173    
  14.336      21.949      33.912      50.531      71.375      95.204      120.06      143.44      162.68      175.35    
  193.98      189.15      175.35      154.46      129.13      102.30      76.628      54.206      36.313      23.380    
  15.081      10.486      8.3378      7.2697      6.5028      5.9853      5.6673      5.5063      5.4543      5.5063    
  5.6673      5.9853      6.5028      7.2697      8.3378      10.486      15.081      23.380      36.313      54.206    
  76.628      102.30      129.13      154.46      175.35      189.15      193.98      189.15      175.35      154.46    
  129.13      102.30      76.628      54.206      36.313      23.380      15.081      10.486      8.3378      7.2697    
  6.5028      5.9853      5.6673      5.5063      5.4543      5.5063      5.6673      5.9853      6.5028      7.2697    
  8.3378      10.486      15.081      23.380      36.313      54.206      76.628      102.30      129.13      154.46    
  175.35      189.15      189.15      184.46      171.05      150.72      126.06      99.894      74.850      52.960    
  35.499      22.894      14.827      10.379      8.3034      7.2538      6.4934      5.9825      5.6681      5.5095    
  5.4578      5.5095      5.6681      5.9825      6.4934      7.2538      8.3034      10.379      14.827      22.894    
  35.499      52.960      74.850      99.894      126.06      150.72      171.05      184.46      175.35      171.05    
  158.71      139.99      117.21      92.971      69.715      49.368      33.154      21.500      14.106      10.079    
  8.2064      7.2054      6.4655      5.9735      5.6705      5.5184      5.4684      5.5184      5.6705      5.9735    
  6.4655      7.2054      8.2064      10.079      14.106      21.500      33.154      49.368      69.715      92.971    
  117.21      139.99      158.71      171.05      154.46      150.72      139.99      123.64      103.68      82.344    
  61.813      43.840      29.565      19.393      13.036      9.6470      8.0608      7.1230      6.4207      5.9580    
  5.6742      5.5315      5.4850      5.5315      5.6742      5.9580      6.4207      7.1230      8.0608      9.6470    
  13.036      19.393      29.565      43.840      61.813      82.344      103.68      123.64      139.99      150.72    
  129.13      126.06      117.21      103.68      87.065      69.246      52.057      37.037      25.188      16.873    
  11.798      9.1668      7.8791      7.0066      6.3612      5.9358      5.6788      5.5469      5.5061      5.5469    
  5.6788      5.9358      6.3612      7.0066      7.8791      9.1668      11.798      16.873      25.188      37.037    
  52.057      69.246      87.065      103.68      117.21      126.06      102.30      99.894      92.971      82.344    
  69.246      55.158      41.575      29.776      20.596      14.307      10.594      8.7092      7.6608      6.8619    
  6.2892      5.9083      5.6825      5.5630      5.5285      5.5630      5.6825      5.9083      6.2892      6.8619    
  7.6608      8.7092      10.594      14.307      20.596      29.776      41.575      55.158      69.246      82.344    
  92.971      99.894      76.628      74.850      69.715      61.813      52.057      41.575      31.530      22.917    
  16.371      12.042      9.5866      8.2944      7.4025      6.7015      6.2067      5.8785      5.6829      5.5792    
  5.5487      5.5792      5.6829      5.8785      6.2067      6.7015      7.4025      8.2944      9.5866      12.042    
  16.371      22.917      31.530      41.575      52.057      61.813      69.715      74.850      54.206      52.960    
  49.368      43.840      37.037      29.776      22.917      17.175      12.971      10.310      8.8286      7.8872    
  7.1190      6.5355      6.1194      5.8474      5.6797      5.5931      5.5647      5.5931      5.6797      5.8474    
  6.1194      6.5355      7.1190      7.8872      8.8286      10.310      12.971      17.175      22.917      29.776    
  37.037      43.840      49.368      52.960      36.313      35.499      33.154      29.565      25.188      20.596    
  16.371      12.971      10.595      9.1481      8.2255      7.4631      6.8402      6.3694      6.0358      5.8128    
  5.6752      5.6008      5.5778      5.6008      5.6752      5.8128      6.0358      6.3694      6.8402      7.4631    
  8.2255      9.1481      10.595      12.971      16.371      20.596      25.188      29.565      33.154      35.499    
  23.380      22.894      21.500      19.393      16.873      14.307      12.042      10.310      9.1481      8.3478    
  7.6579      7.0584      6.5788      6.2159      5.9564      5.7790      5.6662      5.6036      5.5839      5.6036    
  5.6662      5.7790      5.9564      6.2159      6.5788      7.0584      7.6579      8.3478      9.1481      10.310    
  12.042      14.307      16.873      19.393      21.500      22.894      15.081      14.827      14.106      13.036    
  11.798      10.594      9.5866      8.8286      8.2255      7.6579      7.1379      6.6988      6.3473      6.0799    
  5.8830      5.7445      5.6528      5.6008      5.5837      5.6008      5.6528      5.7445      5.8830      6.0799    
  6.3473      6.6988      7.1379      7.6579      8.2255      8.8286      9.5866      10.594      11.798      13.036    
  14.106      14.827      10.486      10.379      10.079      9.6470      9.1668      8.7092      8.2944      7.8872    
  7.4631      7.0584      6.6988      6.3955      6.1519      5.9611      5.8167      5.7104      5.6369      5.5931    
  5.5787      5.5931      5.6369      5.7104      5.8167      5.9611      6.1519      6.3955      6.6988      7.0584    
  7.4631      7.8872      8.2944      8.7092      9.1668      9.6470      10.079      10.379      8.3378      8.3034    
  8.2064      8.0608      7.8791      7.6608      7.4025      7.1190      6.8402      6.5788      6.3473      6.1519    
  5.9902      5.8604      5.7566      5.6753      5.6157      5.5792      5.5668      5.5792      5.6157      5.6753    
  5.7566      5.8604      5.9902      6.1519      6.3473      6.5788      6.8402      7.1190      7.4025      7.6608    
  7.8791      8.0608      8.2064      8.3034      7.2697      7.2538      7.2054      7.1230      7.0066      6.8619    
  6.7015      6.5355      6.3694      6.2159      6.0799      5.9611      5.8604      5.7743      5.7000      5.6385    
  5.5921      5.5630      5.5530      5.5630      5.5921      5.6385      5.7000      5.7743      5.8604      5.9611    
  6.0799      6.2159      6.3694      6.5355      6.7015      6.8619      7.0066      7.1230      7.2054      7.2538    
  6.5028      6.4934      6.4655      6.4207      6.3612      6.2892      6.2067      6.1194      6.0358      5.9564    
  5.8830      5.8167      5.7566      5.7000      5.6482      5.6039      5.5692      5.5469      5.5392      5.5469    
  5.5692      5.6039      5.6482      5.7000      5.7566      5.8167      5.8830      5.9564      6.0358      6.1194    
  6.2067      6.2892      6.3612      6.4207      6.4655      6.4934      5.9853      5.9825      5.9735      5.9580    
  5.9358      5.9083      5.8785      5.8474      5.8128      5.7790      5.7445      5.7104      5.6753      5.6385    
  5.6039      5.5730      5.5481      5.5315      5.5258      5.5315      5.5481      5.5730      5.6039      5.6385    
  5.6753      5.7104      5.7445      5.7790      5.8128      5.8474      5.8785      5.9083      5.9358      5.9580    
  5.9735      5.9825      5.6673      5.6681      5.6705      5.6742      5.6788      5.6825      5.6829      5.6797    
  5.6752      5.6662      5.6528      5.6369      5.6157      5.5921      5.5692      5.5481      5.5303      5.5184    
  5.5142      5.5184      5.5303      5.5481      5.5692      5.5921      5.6157      5.6369      5.6528      5.6662    
  5.6752      5.6797      5.6829      5.6825      5.6788      5.6742      5.6705      5.6681      5.5063      5.5095    
  5.5184      5.5315      5.5469      5.5630      5.5792      5.5931      5.6008      5.6036      5.6008      5.5931    
  5.5792      5.5630      5.5469      5.5315      5.5184      5.5095      5.5063      5.5095      5.5184      5.5315    
  5.5469      5.5630      5.5792      5.5931      5.6008      5.6036      5.6008      5.5931      5.5792      5.5630    
  5.5469      5.5315      5.5184      5.5095      5.4543      5.4578      5.4684      5.4850      5.5061      5.5285    
  5.5487      5.5647      5.5778      5.5839      5.5837      5.5787      5.5668      5.5530      5.5392      5.5258    
  5.5142      5.5063      5.5035      5.5063      5.5142      5.5258      5.5392      5.5530      5.5668      5.5787    
  5.5837      5.5839      5.5778      5.5647      5.5487      5.5285      5.5061      5.4850      5.4684      5.4578    
  5.5063      5.5095      5.5184      5.5315      5.5469      5.5630      5.5792      5.5931      5.6008      5.6036    
  5.6008      5.5931      5.5792      5.5630      5.5469      5.5315      5.5184      5.5095      5.5063      5.5095    
  5.5184      5.5315      5.5469      5.5630      5.5792      5.5931      5.6008      5.6036      5.6008      5.5931    
  5.5792      5.5630      5.5469      5.5315      5.5184      5.5095      5.6673      5.6681      5.6705      5.6742    
  5.6788      5.6825      5.6829      5.6797      5.6752      5.6662      5.6528      5.6369      5.6157      5.5921    
  5.5692      5.5481      5.5303      5.5184      5.5142      5.5184      5.5303      5.5481      5.5692      5.5921    
  5.6157      5.6369      5.6528      5.6662      5.6752      5.6797      5.6829      5.6825      5.6788      5.6742    
  5.6705      5.6681      5.9853      5.9825      5.9735      5.9580      5.9358      5.9083      5.8785      5.8474    
  5.8128      5.7790      5.7445      5.7104      5.6753      5.6385      5.6039      5.5730      5.5481      5.5315    
  5.5258      5.5315      5.5481      5.5730      5.6039      5.6385      5.6753      5.7104      5.7445      5.7790    
  5.8128      5.8474      5.8785      5.9083      5.9358      5.9580      5.9735      5.9825      6.5028      6.4934    
  6.4655      6.4207      6.3612      6.2892      6.2067      6.1194      6.0358      5.9564      5.8830      5.8167    
  5.7566      5.7000      5.6482      5.6039      5.5692      5.5469      5.5392      5.5469      5.5692      5.6039    
  5.6482      5.7000      5.7566      5.8167      5.8830      5.9564      6.0358      6.1194      6.2067      6.2892    
  6.3612      6.4207      6.4655      6.4934      7.2697      7.2538      7.2054      7.1230      7.0066      6.8619    
  6.7015      6.5355      6.3694      6.2159      6.0799      5.9611      5.8604      5.7743      5.7000      5.6385    
  5.5921      5.5630      5.5530      5.5630      5.5921      5.6385      5.7000      5.7743      5.8604      5.9611    
  6.0799      6.2159      6.3694      6.5355      6.7015      6.8619      7.0066      7.1230      7.2054      7.2538    
  8.3378      8.3034      8.2064      8.0608      7.8791      7.6608      7.4025      7.1190      6.8402      6.5788    
  6.3473      6.1519      5.9902      5.8604      5.7566      5.6753      5.6157      5.5792      5.5668      5.5792    
  5.6157      5.6753      5.7566      5.8604      5.9902      6.1519      6.3473      6.5788      6.8402      7.1190    
  7.4025      7.6608      7.8791      8.0608      8.2064      8.3034      10.486      10.379      10.079      9.6470    
  9.1668      8.7092      8.2944      7.8872      7.4631      7.0584      6.6988      6.3955      6.1519      5.9611    
  5.8167      5.7104      5.6369      5.5931      5.5787      5.5931      5.6369      5.7104      5.8167      5.9611    
  6.1519      6.3955      6.6988      7.0584      7.4631      7.8872      8.2944      8.7092      9.1668      9.6470    
  10.079      10.379      15.081      14.827      14.106      13.036      11.798      10.594      9.5866      8.8286    
  8.2255      7.6579      7.1379      6.6988      6.3473      6.0799      5.8830      5.7445      5.6528      5.6008    
  5.5837      5.6008      5.6528      5.7445      5.8830      6.0799      6.3473      6.6988      7.1379      7.6579    
  8.2255      8.8286      9.5866      10.594      11.798      13.036      14.106      14.827      23.380      22.894    
  21.500      19.393      16.873      14.307      12.042      10.310      9.1481      8.3478      7.6579      7.0584    
  6.5788      6.2159      5.9564      5.7790      5.6662      5.6036      5.5839      5.6036      5.6662      5.7790    
  5.9564      6.2159      6.5788      7.0584      7.6579      8.3478      9.1481      10.310      12.042      14.307    
  16.873      19.393      21.500      22.894      36.313      35.499      33.154      29.565      25.188      20.596    
  16.371      12.971      10.595      9.1481      8.2255      7.4631      6.8402      6.3694      6.0358      5.8128    
  5.6752      5.6008      5.5778      5.6008      5.6752      5.8128      6.0358      6.3694      6.8402      7.4631    
  8.2255      9.1481      10.595      12.971      16.371      20.596      25.188      29.565      33.154      35.499    
  54.206      52.960      49.368      43.840      37.037      29.776      22.917      17.175      12.971      10.310    
  8.8286      7.8872      7.1190      6.5355      6.1194      5.8474      5.6797      5.5931      5.5647      5.5931    
  5.6797      5.8474      6.1194      6.5355      7.1190      7.8872      8.8286      10.310      12.971      17.175    
  22.917      29.776      37.037      43.840      49.368      52.960      76.628      74.850      69.715      61.813    
  52.057      41.575      31.530      22.917      16.371      12.042      9.5866      8.2944      7.4025      6.7015    
  6.2067      5.8785      5.6829      5.5792      5.5487      5.5792      5.6829      5.8785      6.2067      6.7015    
  7.4025      8.2944      9.5866      12.042      16.371      22.917      31.530      41.575      52.057      61.813    
  69.715      74.850      102.30      99.894      92.971      82.344      69.246      55.158      41.575      29.776    
  20.596      14.307      10.594      8.7092      7.6608      6.8619      6.2892      5.9083      5.6825      5.5630    
  5.5285      5.5630      5.6825      5.9083      6.2892      6.8619      7.6608      8.7092      10.594      14.307    
  20.596      29.776      41.575      55.158      69.246      82.344      92.971      99.894      129.13      126.06    