unknown system                          
   1.00000000000000     
     2.827893   -0.000000    0.000000
     0.000000    2.827893    0.000000
     0.000000   -0.000000    2.827893
   Fe
     2
Direct
 -0.000000  0.000000  0.000000
  0.500000  0.500000  0.500000
 
   36   36   36
 0.19145256779E+03 0.18678801103E+03 0.17344363035E+03 0.15321034781E+03 0.12863256721E+03
 0.10249722794E+03 0.77373315333E+02 0.55262922785E+02 0.37425350328E+02 0.24331941001E+02
 0.15742298387E+02 0.10841614669E+02 0.84834253104E+01 0.73747893883E+01 0.66204478958E+01
 0.60966323184E+01 0.57751065970E+01 0.56082248598E+01 0.55564050956E+01 0.56082248598E+01
 0.57751065970E+01 0.60966323184E+01 0.66204478958E+01 0.73747893883E+01 0.84834253104E+01
 0.10841614669E+02 0.15742298387E+02 0.24331941001E+02 0.37425350328E+02 0.55262922785E+02
 0.77373315333E+02 0.10249722794E+03 0.12863256721E+03 0.15321034781E+03 0.17344363035E+03
 0.18678801103E+03 0.18678801103E+03 0.18225234565E+03 0.16927240442E+03 0.14957764114E+03
 0.12563240559E+03 0.10014386492E+03 0.75619484634E+02 0.54023656541E+02 0.36605133389E+02
 0.23832431864E+02 0.15472970346E+02 0.10722099189E+02 0.84437245695E+01 0.73592285126E+01
 0.66107298062E+01 0.60936029580E+01 0.57756421366E+01 0.56114270350E+01 0.55598919992E+01
 0.56114270350E+01 0.57756421366E+01 0.60936029580E+01 0.66107298062E+01 0.73592285126E+01
 0.84437245695E+01 0.10722099189E+02 0.15472970346E+02 0.23832431864E+02 0.36605133389E+02
 0.54023656541E+02 0.75619484634E+02 0.10014386492E+03 0.12563240559E+03 0.14957764114E+03
 0.16927240442E+03 0.18225234565E+03 0.17344363035E+03 0.16927240442E+03 0.15732268535E+03
 0.13915355574E+03 0.11700367786E+03 0.93358121581E+02 0.70552759779E+02 0.50445963239E+02
 0.34238809763E+02 0.22397836117E+02 0.14707114154E+02 0.10386546149E+02 0.83332225816E+01
 0.73121854784E+01 0.65821002768E+01 0.60842181885E+01 0.57771372797E+01 0.56202182792E+01
 0.55699466591E+01 0.56202182792E+01 0.57771372797E+01 0.60842181885E+01 0.65821002768E+01
 0.73121854784E+01 0.83332225816E+01 0.10386546149E+02 0.14707114154E+02 0.22397836117E+02
 0.34238809763E+02 0.50445963239E+02 0.70552759779E+02 0.93358121581E+02 0.11700367786E+03
 0.13915355574E+03 0.15732268535E+03 0.16927240442E+03 0.15321034781E+03 0.14957764114E+03
 0.13915355574E+03 0.12325369991E+03 0.10379265222E+03 0.82931647571E+02 0.62747559668E+02
 0.44931140558E+02 0.30607324805E+02 0.20218938207E+02 0.13564451473E+02 0.99011266813E+01
 0.81716780743E+01 0.72330644509E+01 0.65352516517E+01 0.60683090363E+01 0.57792826269E+01
 0.56335268224E+01 0.55856333047E+01 0.56335268224E+01 0.57792826269E+01 0.60683090363E+01
 0.65352516517E+01 0.72330644509E+01 0.81716780743E+01 0.99011266813E+01 0.13564451473E+02
 0.20218938207E+02 0.30607324805E+02 0.44931140558E+02 0.62747559668E+02 0.82931647571E+02
 0.10379265222E+03 0.12325369991E+03 0.13915355574E+03 0.14957764114E+03 0.12863256721E+03
 0.12563240559E+03 0.11700367786E+03 0.10379265222E+03 0.87545480270E+02 0.70053879024E+02
 0.53084876062E+02 0.38119449578E+02 0.26156503785E+02 0.17594733816E+02 0.12228454793E+02
 0.93570250873E+01 0.79792950594E+01 0.71199667221E+01 0.64733638273E+01 0.60450508187E+01
 0.57819683969E+01 0.56486061378E+01 0.56055979616E+01 0.56486061378E+01 0.57819683969E+01
 0.60450508187E+01 0.64733638273E+01 0.71199667221E+01 0.79792950594E+01 0.93570250873E+01
 0.12228454793E+02 0.17594733816E+02 0.26156503785E+02 0.38119449578E+02 0.53084876062E+02
 0.70053879024E+02 0.87545480270E+02 0.10379265222E+03 0.11700367786E+03 0.12563240559E+03
 0.10249722794E+03 0.10014386492E+03 0.93358121581E+02 0.82931647571E+02 0.70053879024E+02
 0.56148226167E+02 0.42651844235E+02 0.30805330381E+02 0.21446874181E+02 0.14891549389E+02
 0.10908506074E+02 0.88413215079E+01 0.77616777750E+01 0.69761606976E+01 0.63992344174E+01
 0.60152796047E+01 0.57842645291E+01 0.56637678500E+01 0.56275679271E+01 0.56637678500E+01
 0.57842645291E+01 0.60152796047E+01 0.63992344174E+01 0.69761606976E+01 0.77616777750E+01
 0.88413215079E+01 0.10908506074E+02 0.14891549389E+02 0.21446874181E+02 0.30805330381E+02
 0.42651844235E+02 0.56148226167E+02 0.70053879024E+02 0.82931647571E+02 0.93358121581E+02
 0.10014386492E+03 0.77373315333E+02 0.75619484634E+02 0.70552759779E+02 0.62747559668E+02
 0.53084876062E+02 0.42651844235E+02 0.32572031348E+02 0.23826755072E+02 0.17055906480E+02
 0.12465423865E+02 0.97865811716E+01 0.83940113218E+01 0.75111336739E+01 0.68127988446E+01
 0.63152736332E+01 0.59817615952E+01 0.57836846723E+01 0.56778224031E+01 0.56475506447E+01
 0.56778224031E+01 0.57836846723E+01 0.59817615952E+01 0.63152736332E+01 0.68127988446E+01
 0.75111336739E+01 0.83940113218E+01 0.97865811716E+01 0.12465423865E+02 0.17055906480E+02
 0.23826755072E+02 0.32572031348E+02 0.42651844235E+02 0.53084876062E+02 0.62747559668E+02
 0.70552759779E+02 0.75619484634E+02 0.55262922785E+02 0.54023656541E+02 0.50445963239E+02
 0.44931140558E+02 0.38119449578E+02 0.30805330381E+02 0.23826755072E+02 0.17893622808E+02
 0.13454948458E+02 0.10571518153E+02 0.89459866164E+01 0.79872342054E+01 0.72305817622E+01
 0.66439774374E+01 0.62241903817E+01 0.59475823394E+01 0.57782942678E+01 0.56904029880E+01
 0.56623685683E+01 0.56904029880E+01 0.57782942678E+01 0.59475823394E+01 0.62241903817E+01
 0.66439774374E+01 0.72305817622E+01 0.79872342054E+01 0.89459866164E+01 0.10571518153E+02
 0.13454948458E+02 0.17893622808E+02 0.23826755072E+02 0.30805330381E+02 0.38119449578E+02
 0.44931140558E+02 0.50445963239E+02 0.54023656541E+02 0.37425350328E+02 0.36605133389E+02
 0.34238809763E+02 0.30607324805E+02 0.26156503785E+02 0.21446874181E+02 0.17055906480E+02
 0.13454948458E+02 0.10880538383E+02 0.92835068138E+01 0.83215268663E+01 0.75725654528E+01
 0.69488173005E+01 0.64748032282E+01 0.61357788480E+01 0.59102550050E+01 0.57704240572E+01
 0.56962414617E+01 0.56726983128E+01 0.56962414617E+01 0.57704240572E+01 0.59102550050E+01
 0.61357788480E+01 0.64748032282E+01 0.69488173005E+01 0.75725654528E+01 0.83215268663E+01
 0.92835068138E+01 0.10880538383E+02 0.13454948458E+02 0.17055906480E+02 0.21446874181E+02
 0.26156503785E+02 0.30607324805E+02 0.34238809763E+02 0.36605133389E+02 0.24331941001E+02
 0.23832431864E+02 0.22397836117E+02 0.20218938207E+02 0.17594733816E+02 0.14891549389E+02
 0.12465423865E+02 0.10571518153E+02 0.92835068138E+01 0.84432239558E+01 0.77651412018E+01
 0.71670835145E+01 0.66843309006E+01 0.63156791000E+01 0.60518934684E+01 0.58718810550E+01
 0.57587831604E+01 0.56962594730E+01 0.56769098465E+01 0.56962594730E+01 0.57587831604E+01
 0.58718810550E+01 0.60518934684E+01 0.63156791000E+01 0.66843309006E+01 0.71670835145E+01
 0.77651412018E+01 0.84432239558E+01 0.92835068138E+01 0.10571518153E+02 0.12465423865E+02
 0.14891549389E+02 0.17594733816E+02 0.20218938207E+02 0.22397836117E+02 0.23832431864E+02
 0.15742298387E+02 0.15472970346E+02 0.14707114154E+02 0.13564451473E+02 0.12228454793E+02
 0.10908506074E+02 0.97865811716E+01 0.89459866164E+01 0.83215268663E+01 0.77651412018E+01
 0.72465718244E+01 0.68044094577E+01 0.64467994972E+01 0.61741509632E+01 0.59740796825E+01
 0.58341813642E+01 0.57417811236E+01 0.56898184217E+01 0.56726983128E+01 0.56898184217E+01
 0.57417811236E+01 0.58341813642E+01 0.59740796825E+01 0.61741509632E+01 0.64467994972E+01
 0.68044094577E+01 0.72465718244E+01 0.77651412018E+01 0.83215268663E+01 0.89459866164E+01
 0.97865811716E+01 0.10908506074E+02 0.12228454793E+02 0.13564451473E+02 0.14707114154E+02
 0.15472970346E+02 0.10841614669E+02 0.10722099189E+02 0.10386546149E+02 0.99011266813E+01
 0.93570250873E+01 0.88413215079E+01 0.83940113218E+01 0.79872342054E+01 0.75725654528E+01
 0.71670835145E+01 0.68044094577E+01 0.64949803319E+01 0.62456427703E+01 0.60507966051E+01
 0.59029151509E+01 0.57942709830E+01 0.57201738913E+01 0.56765838362E+01 0.56623685683E+01
 0.56765838362E+01 0.57201738913E+01 0.57942709830E+01 0.59029151509E+01 0.60507966051E+01
 0.62456427703E+01 0.64949803319E+01 0.68044094577E+01 0.71670835145E+01 0.75725654528E+01
 0.79872342054E+01 0.83940113218E+01 0.88413215079E+01 0.93570250873E+01 0.99011266813E+01
 0.10386546149E+02 0.10722099189E+02 0.84834253104E+01 0.84437245695E+01 0.83332225816E+01
 0.81716780743E+01 0.79792950594E+01 0.77616777750E+01 0.75111336739E+01 0.72305817622E+01
 0.69488173005E+01 0.66843309006E+01 0.64467994972E+01 0.62456427703E+01 0.60793768416E+01
 0.59443838437E+01 0.58371877977E+01 0.57551889324E+01 0.56959473568E+01 0.56598556620E+01
 0.56475506447E+01 0.56598556620E+01 0.56959473568E+01 0.57551889324E+01 0.58371877977E+01
 0.59443838437E+01 0.60793768416E+01 0.62456427703E+01 0.64467994972E+01 0.66843309006E+01
 0.69488173005E+01 0.72305817622E+01 0.75111336739E+01 0.77616777750E+01 0.79792950594E+01
 0.81716780743E+01 0.83332225816E+01 0.84437245695E+01 0.73747893883E+01 0.73592285126E+01
 0.73121854784E+01 0.72330644509E+01 0.71199667221E+01 0.69761606976E+01 0.68127988446E+01
 0.66439774374E+01 0.64748032282E+01 0.63156791000E+01 0.61741509632E+01 0.60507966051E+01
 0.59443838437E+01 0.58538754030E+01 0.57783467418E+01 0.57158529342E+01 0.56682082715E+01
 0.56378715615E+01 0.56275679271E+01 0.56378715615E+01 0.56682082715E+01 0.57158529342E+01
 0.57783467418E+01 0.58538754030E+01 0.59443838437E+01 0.60507966051E+01 0.61741509632E+01
 0.63156791000E+01 0.64748032282E+01 0.66439774374E+01 0.68127988446E+01 0.69761606976E+01
 0.71199667221E+01 0.72330644509E+01 0.73121854784E+01 0.73592285126E+01 0.66204478958E+01
 0.66107298062E+01 0.65821002768E+01 0.65352516517E+01 0.64733638273E+01 0.63992344174E+01
 0.63152736332E+01 0.62241903817E+01 0.61357788480E+01 0.60518934684E+01 0.59740796825E+01
 0.59029151509E+01 0.58371877977E+01 0.57783467418E+01 0.57241036682E+01 0.56764581899E+01
 0.56384637174E+01 0.56141509531E+01 0.56055979616E+01 0.56141509531E+01 0.56384637174E+01
 0.56764581899E+01 0.57241036682E+01 0.57783467418E+01 0.58371877977E+01 0.59029151509E+01
 0.59740796825E+01 0.60518934684E+01 0.61357788480E+01 0.62241903817E+01 0.63152736332E+01
 0.63992344174E+01 0.64733638273E+01 0.65352516517E+01 0.65821002768E+01 0.66107298062E+01
 0.60966323184E+01 0.60936029580E+01 0.60842181885E+01 0.60683090363E+01 0.60450508187E+01
 0.60152796047E+01 0.59817615952E+01 0.59475823394E+01 0.59102550050E+01 0.58718810550E+01
 0.58341813642E+01 0.57942709830E+01 0.57551889324E+01 0.57158529342E+01 0.56764581899E+01
 0.56401336977E+01 0.56110439734E+01 0.55921202211E+01 0.55856333047E+01 0.55921202211E+01
 0.56110439734E+01 0.56401336977E+01 0.56764581899E+01 0.57158529342E+01 0.57551889324E+01
 0.57942709830E+01 0.58341813642E+01 0.58718810550E+01 0.59102550050E+01 0.59475823394E+01
 0.59817615952E+01 0.60152796047E+01 0.60450508187E+01 0.60683090363E+01 0.60842181885E+01
 0.60936029580E+01 0.57751065970E+01 0.57756421366E+01 0.57771372797E+01 0.57792826269E+01
 0.57819683969E+01 0.57842645291E+01 0.57836846723E+01 0.57782942678E+01 0.57704240572E+01
 0.57587831604E+01 0.57417811236E+01 0.57201738913E+01 0.56959473568E+01 0.56682082715E+01
 0.56384637174E+01 0.56110439734E+01 0.55890334186E+01 0.55748917419E+01 0.55699466591E+01
 0.55748917419E+01 0.55890334186E+01 0.56110439734E+01 0.56384637174E+01 0.56682082715E+01
 0.56959473568E+01 0.57201738913E+01 0.57417811236E+01 0.57587831604E+01 0.57704240572E+01
 0.57782942678E+01 0.57836846723E+01 0.57842645291E+01 0.57819683969E+01 0.57792826269E+01
 0.57771372797E+01 0.57756421366E+01 0.56082248598E+01 0.56114270350E+01 0.56202182792E+01
 0.56335268224E+01 0.56486061378E+01 0.56637678500E+01 0.56778224031E+01 0.56904029880E+01
 0.56962414617E+01 0.56962594730E+01 0.56898184217E+01 0.56765838362E+01 0.56598556620E+01
 0.56378715615E+01 0.56141509531E+01 0.55921202211E+01 0.55748917419E+01 0.55636621313E+01
 0.55598919992E+01 0.55636621313E+01 0.55748917419E+01 0.55921202211E+01 0.56141509531E+01
 0.56378715615E+01 0.56598556620E+01 0.56765838362E+01 0.56898184217E+01 0.56962594730E+01
 0.56962414617E+01 0.56904029880E+01 0.56778224031E+01 0.56637678500E+01 0.56486061378E+01
 0.56335268224E+01 0.56202182792E+01 0.56114270350E+01 0.55564050956E+01 0.55598919992E+01
 0.55699466591E+01 0.55856333047E+01 0.56055979616E+01 0.56275679271E+01 0.56475506447E+01
 0.56623685683E+01 0.56726983128E+01 0.56769098465E+01 0.56726983128E+01 0.56623685683E+01
 0.56475506447E+01 0.56275679271E+01 0.56055979616E+01 0.55856333047E+01 0.55699466591E+01
 0.55598919992E+01 0.55564050956E+01 0.55598919992E+01 0.55699466591E+01 0.55856333047E+01
 0.56055979616E+01 0.56275679271E+01 0.56475506447E+01 0.56623685683E+01 0.56726983128E+01
 0.56769098465E+01 0.56726983128E+01 0.56623685683E+01 0.56475506447E+01 0.56275679271E+01
 0.56055979616E+01 0.55856333047E+01 0.55699466591E+01 0.55598919992E+01 0.56082248598E+01
 0.56114270350E+01 0.56202182792E+01 0.56335268224E+01 0.56486061378E+01 0.56637678500E+01
 0.56778224031E+01 0.56904029880E+01 0.56962414617E+01 0.56962594730E+01 0.56898184217E+01
 0.56765838362E+01 0.56598556620E+01 0.56378715615E+01 0.56141509531E+01 0.55921202211E+01
 0.55748917419E+01 0.55636621313E+01 0.55598919992E+01 0.55636621313E+01 0.55748917419E+01
 0.55921202211E+01 0.56141509531E+01 0.56378715615E+01 0.56598556620E+01 0.56765838362E+01
 0.56898184217E+01 0.56962594730E+01 0.56962414617E+01 0.56904029880E+01 0.56778224031E+01
 0.56637678500E+01 0.56486061378E+01 0.56335268224E+01 0.56202182792E+01 0.56114270350E+01
 0.57751065970E+01 0.57756421366E+01 0.57771372797E+01 0.57792826269E+01 0.57819683969E+01
 0.57842645291E+01 0.57836846723E+01 0.57782942678E+01 0.57704240572E+01 0.57587831604E+01
 0.57417811236E+01 0.57201738913E+01 0.56959473568E+01 0.56682082715E+01 0.56384637174E+01
 0.56110439734E+01 0.55890334186E+01 0.55748917419E+01 0.55699466591E+01 0.55748917419E+01
 0.55890334186E+01 0.56110439734E+01 0.56384637174E+01 0.56682082715E+01 0.56959473568E+01
 0.57201738913E+01 0.57417811236E+01 0.57587831604E+01 0.57704240572E+01 0.57782942678E+01
 0.57836846723E+01 0.57842645291E+01 0.57819683969E+01 0.57792826269E+01 0.57771372797E+01
 0.57756421366E+01 0.60966323184E+01 0.60936029580E+01 0.60842181885E+01 0.60683090363E+01
 0.60450508187E+01 0.60152796047E+01 0.59817615952E+01 0.59475823394E+01 0.59102550050E+01
 0.58718810550E+01 0.58341813642E+01 0.57942709830E+01 0.57551889324E+01 0.57158529342E+01
 0.56764581899E+01 0.56401336977E+01 0.56110439734E+01 0.55921202211E+01 0.55856333047E+01
 0.55921202211E+01 0.56110439734E+01 0.56401336977E+01 0.56764581899E+01 0.57158529342E+01
 0.57551889324E+01 0.57942709830E+01 0.58341813642E+01 0.58718810550E+01 0.59102550050E+01
 0.59475823394E+01 0.59817615952E+01 0.60152796047E+01 0.60450508187E+01 0.60683090363E+01
 0.60842181885E+01 0.60936029580E+01 0.66204478958E+01 0.66107298062E+01 0.65821002768E+01
 0.65352516517E+01 0.64733638273E+01 0.63992344174E+01 0.63152736332E+01 0.62241903817E+01
 0.61357788480E+01 0.60518934684E+01 0.59740796825E+01 0.59029151509E+01 0.58371877977E+01
 0.57783467418E+01 0.57241036682E+01 0.56764581899E+01 0.56384637174E+01 0.56141509531E+01
 0.56055979616E+01 0.56141509531E+01 0.56384637174E+01 0.56764581899E+01 0.57241036682E+01
 0.57783467418E+01 0.58371877977E+01 0.59029151509E+01 0.59740796825E+01 0.60518934684E+01
 0.61357788480E+01 0.62241903817E+01 0.63152736332E+01 0.63992344174E+01 0.64733638273E+01
 0.65352516517E+01 0.65821002768E+01 0.66107298062E+01 0.73747893883E+01 0.73592285126E+01
 0.73121854784E+01 0.72330644509E+01 0.71199667221E+01 0.69761606976E+01 0.68127988446E+01
 0.66439774374E+01 0.64748032282E+01 0.63156791000E+01 0.61741509632E+01 0.60507966051E+01
 0.59443838437E+01 0.58538754030E+01 0.57783467418E+01 0.57158529342E+01 0.56682082715E+01
 0.56378715615E+01 0.56275679271E+01 0.56378715615E+01 0.56682082715E+01 0.57158529342E+01
 0.57783467418E+01 0.58538754030E+01 0.59443838437E+01 0.60507966051E+01 0.61741509632E+01
 0.63156791000E+01 0.64748032282E+01 0.66439774374E+01 0.68127988446E+01 0.69761606976E+01
 0.71199667221E+01 0.72330644509E+01 0.73121854784E+01 0.73592285126E+01 0.84834253104E+01
 0.84437245695E+01 0.83332225816E+01 0.81716780743E+01 0.79792950594E+01 0.77616777750E+01
 0.75111336739E+01 0.72305817622E+01 0.69488173005E+01 0.66843309006E+01 0.64467994972E+01
 0.62456427703E+01 0.60793768416E+01 0.59443838437E+01 0.58371877977E+01 0.57551889324E+01
 0.56959473568E+01 0.56598556620E+01 0.56475506447E+01 0.56598556620E+01 0.56959473568E+01
 0.57551889324E+01 0.58371877977E+01 0.59443838437E+01 0.60793768416E+01 0.62456427703E+01
 0.64467994972E+01 0.66843309006E+01 0.69488173005E+01 0.72305817622E+01 0.75111336739E+01
 0.77616777750E+01 0.79792950594E+01 0.81716780743E+01 0.83332225816E+01 0.84437245695E+01
 0.10841614669E+02 0.10722099189E+02 0.10386546149E+02 0.99011266813E+01 0.93570250873E+01
 0.88413215079E+01 0.83940113218E+01 0.79872342054E+01 0.75725654528E+01 0.71670835145E+01
 0.68044094577E+01 0.64949803319E+01 0.62456427703E+01 0.60507966051E+01 0.59029151509E+01
 0.57942709830E+01 0.57201738913E+01 0.56765838362E+01 0.56623685683E+01 0.56765838362E+01
 0.57201738913E+01 0.57942709830E+01 0.59029151509E+01 0.60507966051E+01 0.62456427703E+01
 0.64949803319E+01 0.68044094577E+01 0.71670835145E+01 0.75725654528E+01 0.79872342054E+01
 0.83940113218E+01 0.88413215079E+01 0.93570250873E+01 0.99011266813E+01 0.10386546149E+02
 0.10722099189E+02 0.15742298387E+02 0.15472970346E+02 0.14707114154E+02 0.13564451473E+02
 0.12228454793E+02 0.10908506074E+02 0.97865811716E+01 0.89459866164E+01 0.83215268663E+01
 0.77651412018E+01 0.72465718244E+01 0.68044094577E+01 0.64467994972E+01 0.61741509632E+01
 0.59740796825E+01 0.58341813642E+01 0.57417811236E+01 0.56898184217E+01 0.56726983128E+01
 0.56898184217E+01 0.57417811236E+01 0.58341813642E+01 0.59740796825E+01 0.61741509632E+01
 0.64467994972E+01 0.68044094577E+01 0.72465718244E+01 0.77651412018E+01 0.83215268663E+01
 0.89459866164E+01 0.97865811716E+01 0.10908506074E+02 0.12228454793E+02 0.13564451473E+02
 0.14707114154E+02 0.15472970346E+02 0.24331941001E+02 0.23832431864E+02 0.22397836117E+02
 0.20218938207E+02 0.17594733816E+02 0.14891549389E+02 0.12465423865E+02 0.10571518153E+02
 0.92835068138E+01 0.84432239558E+01 0.77651412018E+01 0.71670835145E+01 0.66843309006E+01
 0.63156791000E+01 0.60518934684E+01 0.58718810550E+01 0.57587831604E+01 0.56962594730E+01
 0.56769098465E+01 0.56962594730E+01 0.57587831604E+01 0.58718810550E+01 0.60518934684E+01
 0.63156791000E+01 0.66843309006E+01 0.71670835145E+01 0.77651412018E+01 0.84432239558E+01
 0.92835068138E+01 0.10571518153E+02 0.12465423865E+02 0.14891549389E+02 0.17594733816E+02
 0.20218938207E+02 0.22397836117E+02 0.23832431864E+02 0.37425350328E+02 0.36605133389E+02
 0.34238809763E+02 0.30607324805E+02 0.26156503785E+02 0.21446874181E+02 0.17055906480E+02
 0.13454948458E+02 0.10880538383E+02 0.92835068138E+01 0.83215268663E+01 0.75725654528E+01
 0.69488173005E+01 0.64748032282E+01 0.61357788480E+01 0.59102550050E+01 0.57704240572E+01
 0.56962414617E+01 0.56726983128E+01 0.56962414617E+01 0.57704240572E+01 0.59102550050E+01
 0.61357788480E+01 0.64748032282E+01 0.69488173005E+01 0.75725654528E+01 0.83215268663E+01
 0.92835068138E+01 0.10880538383E+02 0.13454948458E+02 0.17055906480E+02 0.21446874181E+02
 0.26156503785E+02 0.30607324805E+02 0.34238809763E+02 0.36605133389E+02 0.55262922785E+02
 0.54023656541E+02 0.50445963239E+02 0.44931140558E+02 0.38119449578E+02 0.30805330381E+02
 0.23826755072E+02 0.17893622808E+02 0.13454948458E+02 0.10571518153E+02 0.89459866164E+01
 0.79872342054E+01 0.72305817622E+01 0.66439774374E+01 0.62241903817E+01 0.59475823394E+01
 0.57782942678E+01 0.56904029880E+01 0.56623685683E+01 0.56904029880E+01 0.57782942678E+01
 0.59475823394E+01 0.62241903817E+01 0.66439774374E+01 0.72305817622E+01 0.79872342054E+01
 0.89459866164E+01 0.10571518153E+02 0.13454948458E+02 0.17893622808E+02 0.23826755072E+02
 0.30805330381E+02 0.38119449578E+02 0.44931140558E+02 0.50445963239E+02 0.54023656541E+02
 0.77373315333E+02 0.75619484634E+02 0.70552759779E+02 0.62747559668E+02 0.53084876062E+02
 0.42651844235E+02 0.32572031348E+02 0.23826755072E+02 0.17055906480E+02 0.12465423865E+02
 0.97865811716E+01 0.83940113218E+01 0.75111336739E+01 0.68127988446E+01 0.63152736332E+01
 0.59817615952E+01 0.57836846723E+01 0.56778224031E+01 0.56475506447E+01 0.56778224031E+01
 0.57836846723E+01 0.59817615952E+01 0.63152736332E+01 0.68127988446E+01 0.75111336739E+01
 0.83940113218E+01 0.97865811716E+01 0.12465423865E+02 0.17055906480E+02 0.23826755072E+02
 0.32572031348E+02 0.42651844235E+02 0.53084876062E+02 0.62747559668E+02 0.70552759779E+02
 0.75619484634E+02 0.10249722794E+03 0.10014386492E+03 0.93358121581E+02 0.82931647571E+02
 0.70053879024E+02 0.56148226167E+02 0.42651844235E+02 0.30805330381E+02 0.21446874181E+02
 0.14891549389E+02 0.10908506074E+02 0.88413215079E+01 0.77616777750E+01 0.69761606976E+01
 0.63992344174E+01 0.60152796047E+01 0.57842645291E+01 0.56637678500E+01 0.56275679271E+01
 0.56637678500E+01 0.57842645291E+01 0.60152796047E+01 0.63992344174E+01 0.69761606976E+01
 0.77616777750E+01 0.88413215079E+01 0.10908506074E+02 0.14891549389E+02 0.21446874181E+02
 0.30805330381E+02 0.42651844235E+02 0.56148226167E+02 0.70053879024E+02 0.82931647571E+02
 0.93358121581E+02 0.10014386492E+03 0.12863256721E+03 0.12563240559E+03 0.11700367786E+03
 0.10379265222E+03 0.87545480270E+02 0.70053879024E+02 0.53084876062E+02 0.38119449578E+02
 0.26156503785E+02 0.17594733816E+02 0.12228454793E+02 0.93570250873E+01 0.79792950594E+01
 0.71199667221E+01 0.64733638273E+01 0.60450508187E+01 0.57819683969E+01 0.56486061378E+01
 0.56055979616E+01 0.56486061378E+01 0.57819683969E+01 0.60450508187E+01 0.64733638273E+01
 0.71199667221E+01 0.79792950594E+01 0.93570250873E+01 0.12228454793E+02 0.17594733816E+02
 0.26156503785E+02 0.38119449578E+02 0.53084876062E+02 0.70053879024E+02 0.87545480270E+02
 0.10379265222E+03 0.11700367786E+03 0.12563240559E+03 0.15321034781E+03 0.14957764114E+03
 0.13915355574E+03 0.12325369991E+03 0.10379265222E+03 0.82931647571E+02 0.62747559668E+02
 0.44931140558E+02 0.30607324805E+02 0.20218938207E+02 0.13564451473E+02 0.99011266813E+01
 0.81716780743E+01 0.72330644509E+01 0.65352516517E+01 0.60683090363E+01 0.57792826269E+01
 0.56335268224E+01 0.55856333047E+01 0.56335268224E+01 0.57792826269E+01 0.60683090363E+01
 0.65352516517E+01 0.72330644509E+01 0.81716780743E+01 0.99011266813E+01 0.13564451473E+02
 0.20218938207E+02 0.30607324805E+02 0.44931140558E+02 0.62747559668E+02 0.82931647571E+02
 0.10379265222E+03 0.12325369991E+03 0.13915355574E+03 0.14957764114E+03 0.17344363035E+03
 0.16927240442E+03 0.15732268535E+03 0.13915355574E+03 0.11700367786E+03 0.93358121581E+02
 0.70552759779E+02 0.50445963239E+02 0.34238809763E+02 0.22397836117E+02 0.14707114154E+02
 0.10386546149E+02 0.83332225816E+01 0.73121854784E+01 0.65821002768E+01 0.60842181885E+01
 0.57771372797E+01 0.56202182792E+01 0.55699466591E+01 0.56202182792E+01 0.57771372797E+01
 0.60842181885E+01 0.65821002768E+01 0.73121854784E+01 0.83332225816E+01 0.10386546149E+02
 0.14707114154E+02 0.22397836117E+02 0.34238809763E+02 0.50445963239E+02 0.70552759779E+02
 0.93358121581E+02 0.11700367786E+03 0.13915355574E+03 0.15732268535E+03 0.16927240442E+03
 0.18678801103E+03 0.18225234565E+03 0.16927240442E+03 0.14957764114E+03 0.12563240559E+03
 0.10014386492E+03 0.75619484634E+02 0.54023656541E+02 0.36605133389E+02 0.23832431864E+02
 0.15472970346E+02 0.10722099189E+02 0.84437245695E+01 0.73592285126E+01 0.66107298062E+01
 0.60936029580E+01 0.57756421366E+01 0.56114270350E+01 0.55598919992E+01 0.56114270350E+01
 0.57756421366E+01 0.60936029580E+01 0.66107298062E+01 0.73592285126E+01 0.84437245695E+01
 0.10722099189E+02 0.15472970346E+02 0.23832431864E+02 0.36605133389E+02 0.54023656541E+02
 0.75619484634E+02 0.10014386492E+03 0.12563240559E+03 0.14957764114E+03 0.16927240442E+03
 0.18225234565E+03 0.18678801103E+03 0.18225234565E+03 0.16927240442E+03 0.14957764114E+03
 0.12563240559E+03 0.10014386492E+03 0.75619484634E+02 0.54023656541E+02 0.36605133389E+02
 0.23832431864E+02 0.15472970346E+02 0.10722099189E+02 0.84437245695E+01 0.73592285126E+01
 0.66107298062E+01 0.60936029580E+01 0.57756421366E+01 0.56114270350E+01 0.55598919992E+01
 0.56114270350E+01 0.57756421366E+01 0.60936029580E+01 0.66107298062E+01 0.73592285126E+01
 0.84437245695E+01 0.10722099189E+02 0.15472970346E+02 0.23832431864E+02 0.36605133389E+02
 0.54023656541E+02 0.75619484634E+02 0.10014386492E+03 0.12563240559E+03 0.14957764114E+03
 0.16927240442E+03 0.18225234565E+03 0.18225234565E+03 0.17784111521E+03 0.16521317587E+03
 0.14603918556E+03 0.12270661893E+03 0.97845701924E+02 0.73904591395E+02 0.52811375170E+02
 0.35803410173E+02 0.23345256885E+02 0.15211733443E+02 0.10607400554E+02 0.84060950323E+01
 0.73442468534E+01 0.66016667800E+01 0.60910383327E+01 0.57765550512E+01 0.56148918280E+01
 0.55636621313E+01 0.56148918280E+01 0.57765550512E+01 0.60910383327E+01 0.66016667800E+01
 0.73442468534E+01 0.84060950323E+01 0.10607400554E+02 0.15211733443E+02 0.23345256885E+02
 0.35803410173E+02 0.52811375170E+02 0.73904591395E+02 0.97845701924E+02 0.12270661893E+03
 0.14603918556E+03 0.16521317587E+03 0.17784111521E+03 0.16927240442E+03 0.16521317587E+03
 0.15358058805E+03 0.13588236948E+03 0.11428919540E+03 0.91218111412E+02 0.68950797352E+02
 0.49312342848E+02 0.33491106178E+02 0.21946959506E+02 0.14469518699E+02 0.10285538003E+02
 0.83015381833E+01 0.72988261725E+01 0.65746519627E+01 0.60829978319E+01 0.57793829509E+01
 0.56247904563E+01 0.55748917419E+01 0.56247904563E+01 0.57793829509E+01 0.60829978319E+01
 0.65746519627E+01 0.72988261725E+01 0.83015381833E+01 0.10285538003E+02 0.14469518699E+02
 0.21946959506E+02 0.33491106178E+02 0.49312342848E+02 0.68950797352E+02 0.91218111412E+02
 0.11428919540E+03 0.13588236948E+03 0.15358058805E+03 0.16521317587E+03 0.14957764114E+03
 0.14603918556E+03 0.13588236948E+03 0.12038200446E+03 0.10139699703E+03 0.81032697955E+02
 0.61319918989E+02 0.43921367726E+02 0.29945209741E+02 0.19825619853E+02 0.13363757890E+02
 0.98207649922E+01 0.81477626921E+01 0.72219315794E+01 0.65305722983E+01 0.60690237510E+01
 0.57834000853E+01 0.56394413464E+01 0.55921202211E+01 0.56394413464E+01 0.57834000853E+01
 0.60690237510E+01 0.65305722983E+01 0.72219315794E+01 0.81477626921E+01 0.98207649922E+01
 0.13363757890E+02 0.19825619853E+02 0.29945209741E+02 0.43921367726E+02 0.61319918989E+02
 0.81032697955E+02 0.10139699703E+03 0.12038200446E+03 0.13588236948E+03 0.14603918556E+03
 0.12563240559E+03 0.12270661893E+03 0.11428919540E+03 0.10139699703E+03 0.85534153949E+02
 0.68450492796E+02 0.51876121648E+02 0.37267877829E+02 0.25604137047E+02 0.17275524216E+02
 0.12073700943E+02 0.93007546411E+01 0.79629410514E+01 0.71115705854E+01 0.64719284914E+01
 0.60481476661E+01 0.57884861523E+01 0.56563819225E+01 0.56141509531E+01 0.56563819225E+01
 0.57884861523E+01 0.60481476661E+01 0.64719284914E+01 0.71115705854E+01 0.79629410514E+01
 0.93007546411E+01 0.12073700943E+02 0.17275524216E+02 0.25604137047E+02 0.37267877829E+02
 0.51876121648E+02 0.68450492796E+02 0.85534153949E+02 0.10139699703E+03 0.11428919540E+03
 0.12270661893E+03 0.10014386492E+03 0.97845701924E+02 0.91218111412E+02 0.81032697955E+02
 0.68450492796E+02 0.54864827845E+02 0.41686161914E+02 0.30131454410E+02 0.21018760964E+02
 0.14655167536E+02 0.10802698582E+02 0.88078539032E+01 0.77506684297E+01 0.69715126290E+01
 0.64012506858E+01 0.60211840881E+01 0.57929556704E+01 0.56734756317E+01 0.56378715615E+01
 0.56734756317E+01 0.57929556704E+01 0.60211840881E+01 0.64012506858E+01 0.69715126290E+01
 0.77506684297E+01 0.88078539032E+01 0.10802698582E+02 0.14655167536E+02 0.21018760964E+02
 0.30131454410E+02 0.41686161914E+02 0.54864827845E+02 0.68450492796E+02 0.81032697955E+02
 0.91218111412E+02 0.97845701924E+02 0.75619484634E+02 0.73904591395E+02 0.68950797352E+02
 0.61319918989E+02 0.51876121648E+02 0.41686161914E+02 0.31852272275E+02 0.23332879903E+02
 0.16754705796E+02 0.12310244921E+02 0.97257756757E+01 0.83767430055E+01 0.75039921516E+01
 0.68126313693E+01 0.63204023582E+01 0.59907433040E+01 0.57946677812E+01 0.56899764911E+01
 0.56598556620E+01 0.56899764911E+01 0.57946677812E+01 0.59907433040E+01 0.63204023582E+01
 0.68126313693E+01 0.75039921516E+01 0.83767430055E+01 0.97257756757E+01 0.12310244921E+02
 0.16754705796E+02 0.23332879903E+02 0.31852272275E+02 0.41686161914E+02 0.51876121648E+02
 0.61319918989E+02 0.68950797352E+02 0.73904591395E+02 0.54023656541E+02 0.52811375170E+02
 0.49312342848E+02 0.43921367726E+02 0.37267877829E+02 0.30131454410E+02 0.23332879903E+02
 0.17567574511E+02 0.13268885298E+02 0.10485872798E+02 0.89182880627E+01 0.79779439593E+01
 0.72279825859E+01 0.66481870040E+01 0.62329848627E+01 0.59594100760E+01 0.57915649684E+01
 0.57044984605E+01 0.56765838362E+01 0.57044984605E+01 0.57915649684E+01 0.59594100760E+01
 0.62329848627E+01 0.66481870040E+01 0.72279825859E+01 0.79779439593E+01 0.89182880627E+01
 0.10485872798E+02 0.13268885298E+02 0.17567574511E+02 0.23332879903E+02 0.30131454410E+02
 0.37267877829E+02 0.43921367726E+02 0.49312342848E+02 0.52811375170E+02 0.36605133389E+02
 0.35803410173E+02 0.33491106178E+02 0.29945209741E+02 0.25604137047E+02 0.21018760964E+02
 0.16754705796E+02 0.13268885298E+02 0.10784977445E+02 0.92476145825E+01 0.83098827168E+01
 0.75681824266E+01 0.69517670024E+01 0.64830795293E+01 0.61480171718E+01 0.59249318720E+01
 0.57866924510E+01 0.57130884160E+01 0.56898184217E+01 0.57130884160E+01 0.57866924510E+01
 0.59249318720E+01 0.61480171718E+01 0.64830795293E+01 0.69517670024E+01 0.75681824266E+01
 0.83098827168E+01 0.92476145825E+01 0.10784977445E+02 0.13268885298E+02 0.16754705796E+02
 0.21018760964E+02 0.25604137047E+02 0.29945209741E+02 0.33491106178E+02 0.35803410173E+02
 0.23832431864E+02 0.23345256885E+02 0.21946959506E+02 0.19825619853E+02 0.17275524216E+02
 0.14655167536E+02 0.12310244921E+02 0.10485872798E+02 0.92476145825E+01 0.84304537179E+01