    2    2  100    2
  0.1173411E+02  0.2863035E-09  0.2863035E-09  0.2863035E-09  0.5000000E-15
  1.000000000000000E-004
  CAR 
 unknown system                          
     16     35     20
 
  0.0000000E+00  0.0000000E+00  0.0000000E+00  0.1371742E-02
    1       -2.592371     -2.420013   1.000000   1.000000
    2        0.989933      2.815983   1.000000   1.000000
    3        0.989933      2.816129   1.000000   1.000000
    4        3.565787      5.441289   1.000000   1.006721
    5        3.565789      5.441427   1.000000   1.006736
    6        3.565789      5.441438   1.000000   1.006738
    7        4.769307      7.526584   1.000000  -0.000000
    8        4.769309      7.526753   1.000000  -0.000000
    9        6.001956      8.147456   0.023642  -0.000000
   10        6.001959      8.147583   0.023638  -0.000000
   11        6.001959      8.147596   0.023638  -0.000000
   12       15.837459     16.108849   0.000000   0.000000
   13       15.837459     16.108850   0.000000   0.000000
   14       15.837459     16.108852   0.000000   0.000000
   15       21.561467     22.630565   0.000000   0.000000
   16       21.561470     22.630578   0.000000   0.000000
   17       26.736570     27.841167   0.000000   0.000000
   18       30.936972     30.694915   0.000000   0.000000
   19       30.936972     30.694915   0.000000   0.000000
   20       30.936972     30.694915   0.000000   0.000000
 
  0.1111111E+00  0.3081488E-32  0.0000000E+00  0.8230453E-02
    1       -2.336290     -2.162596   1.000000   1.000000
    2        1.099559      2.904461   1.000000   1.000000
    3        1.101974      2.946326   1.000000   1.000000
    4        3.564664      5.431042   1.000000   1.005635
    5        3.564666      5.431189   1.000000   1.005650
    6        3.636126      5.518793   1.000000   1.020094
    7        4.654711      7.377375   1.000000  -0.000000
    8        4.814429      7.583185   1.000000  -0.000000
    9        5.791696      7.874386   0.742047  -0.000000
   10        5.791699      7.874523   0.742038  -0.000000
   11        5.925767      8.062137   0.209499  -0.000000
   12       14.225866     14.749486   0.000000   0.000000
   13       16.318024     16.654215   0.000000   0.000000
   14       16.318025     16.654217   0.000000   0.000000
   15       21.636296     22.682591   0.000000   0.000000
   16       22.671030     23.545938   0.000000   0.000000
   17       27.620051     28.678072   0.000000   0.000000
   18       29.482353     29.409155   0.000000   0.000000
   19       30.665668     30.542951   0.000000   0.000000
   20       30.665668     30.542953   0.000000   0.000000
 
  0.2222222E+00  0.6162976E-32  0.0000000E+00  0.8230453E-02
    1       -1.598116     -1.414883   1.000000   1.000000
    2        1.378131      3.074775   1.000000   1.000000
    3        1.417158      3.325653   1.000000   1.000000
    4        3.580634      5.424607   1.000000   1.005028
    5        3.580636      5.424752   1.000000   1.005041
    6        3.839771      5.743055   1.000000   0.893169
    7        4.323243      6.947412   1.000000  -0.000000
    8        4.943868      7.250014   1.000000  -0.000000
    9        5.284856      7.250149   1.000228  -0.000000
   10        5.284858      7.734083   1.000228  -0.000000
   11        5.706543      7.816545   0.968720  -0.000000
   12       11.432080     12.313862   0.000000   0.000000
   13       17.627246     18.086063   0.000000   0.000000
   14       17.627247     18.086068   0.000000   0.000000
   15       21.872052     22.850424   0.000000   0.000000
   16       23.752636     24.485528   0.000000   0.000000
   17       27.290641     27.418885   0.000000   0.000000
   18       29.281247     29.533011   0.000000   0.000000
   19       29.281248     29.533017   0.000000   0.000000
   20       30.548422     31.462651   0.000000   0.000000
 
  0.3333333E+00  0.1232595E-31  0.0000000E+00  0.8230453E-02
    1       -0.488560     -0.259984   1.000000   1.000000
    2        1.628783      3.029148   1.000000   1.000000
    3        1.910178      3.920496   1.000000   1.000000
    4        3.660836      5.481066   1.000000   1.012455
    5        3.660838      5.481208   1.000000   1.012480
    6        3.812504      6.090861   1.000000  -0.035319
    7        4.154943      6.290733   1.000000  -0.004056
    8        4.705587      6.578435   1.000000  -0.000002
    9        4.705589      6.578570   1.000000  -0.000002
   10        5.168534      7.444337   1.000008  -0.000000
   11        5.373565      7.940624   1.001857  -0.000000
   12        8.787962     10.160313  -0.000000  -0.000000
   13       19.517615     20.074901   0.000000   0.000000
   14       19.517615     20.074904   0.000000   0.000000
   15       22.305149     23.171220   0.000000   0.000000
   16       24.399172     25.013576   0.000000   0.000000
   17       25.429197     25.757652   0.000000   0.000000
   18       26.905382     27.419673   0.000000   0.000000
   19       26.905384     27.419679   0.000000   0.000000
   20       28.703333     29.126268   0.000000   0.000000
 
  0.4444444E+00  0.1232595E-31  0.0000000E+00  0.8230453E-02
    1        0.718371      1.122737   1.000000   1.000000
    2        1.511982      2.372692   1.000000   1.000000
    3        2.524279      4.672336   1.000000   1.000000
    4        3.186429      5.497159   1.000000   1.015482
    5        3.858634      5.667828   1.000000   1.014690
    6        3.858636      5.667967   1.000000   1.014580
    7        4.208055      6.031073   1.000000  -0.010760
    8        4.208057      6.031210   1.000000  -0.010880
    9        4.546935      6.524822   1.000000  -0.000010
   10        4.969982      6.994589   1.000000  -0.000000
   11        5.636201      8.222547   1.031444  -0.000000
   12        6.761155      8.815742  -0.000000  -0.000000
   13       21.790450     22.398842   0.000000   0.000000
   14       21.790451     22.398843   0.000000   0.000000
   15       22.993795     23.706771   0.000000   0.000000
   16       24.011450     24.539731   0.000000   0.000000
   17       24.303365     24.907132   0.000000   0.000000
   18       24.303366     24.907135   0.000000   0.000000
   19       25.259384     25.759685   0.000000   0.000000
   20       26.661090     27.093416   0.000000   0.000000
 
  0.1111111E+00  0.1111111E+00  0.0000000E+00  0.1646091E-01
    1       -2.085902     -1.909953   1.000000   1.000000
    2        1.197005      3.025605   1.000000   1.000000
    3        1.220252      3.036951   1.000000   1.000000
    4        3.429800      5.278410   1.000000   1.000193
    5        3.545012      5.402638   1.000000   1.003340
    6        3.838204      5.737687   1.000000   0.906375
    7        4.652081      7.363557   1.000000  -0.000000
    8        4.781374      7.452901   1.000000  -0.000000
    9        5.434588      7.540463   1.005994  -0.000000
   10        5.583488      7.608241   1.033673  -0.000000
   11        6.033704      8.182899  -0.013009  -0.000000
   12       14.291716     14.891582   0.000000   0.000000
   13       15.013499     15.579762   0.000000   0.000000
   14       16.761753     17.142497   0.000000   0.000000
   15       22.194569     23.130559   0.000000   0.000000
   16       23.579173     24.325770   0.000000   0.000000
   17       28.101324     28.243841   0.000000   0.000000
   18       28.317839     29.356792   0.000000   0.000000
   19       30.091146     30.009059   0.000000   0.000000
   20       30.616488     30.538437   0.000000   0.000000
 
  0.2222222E+00  0.1111111E+00  0.0000000E+00  0.3292181E-01
    1       -1.368304     -1.178472   1.000000   1.000000
    2        1.454297      3.196337   1.000000   1.000000
    3        1.535095      3.387707   1.000000   1.000000
    4        3.340483      5.162634   1.000000   1.000006
    5        3.507025      5.345166   1.000000   1.000997
    6        4.139769      6.066166   1.000000  -0.031064
    7        4.435809      6.789385   1.000000  -0.000000
    8        4.869591      7.036053   1.000000  -0.000000
    9        4.893747      7.053110   1.000000  -0.000000
   10        5.101061      7.671652   1.000001  -0.000000
   11        5.953817      8.088796   0.124423  -0.000000
   12       11.720368     12.634323   0.000000   0.000000
   13       15.878061     16.573722   0.000000   0.000000
   14       17.992794     18.465820   0.000000   0.000000
   15       22.560963     23.407346   0.000000   0.000000
   16       25.043452     25.651601   0.000000   0.000000
   17       25.690424     26.051544   0.000000   0.000000
   18       28.683627     28.811021   0.000000   0.000000
   19       29.534406     29.783165   0.000000   0.000000
   20       30.904474     31.830386   0.000000   0.000000
 
  0.3333333E+00  0.1111111E+00  0.0000000E+00  0.3292181E-01
    1       -0.304768     -0.055773   1.000000   1.000000
    2        1.694854      3.130676   1.000000   1.000000
    3        1.985714      3.928444   1.000000   1.000000
    4        3.354026      5.152875   1.000000   1.000005
    5        3.421352      5.289021   1.000000   1.000254
    6        4.160818      6.138411   1.000000  -0.030504
    7        4.294974      6.467308   1.000000  -0.000060
    8        4.506133      6.524754   1.000000  -0.000011
    9        4.606802      6.567085   1.000000  -0.000003
   10        5.124392      7.794078   1.000002  -0.000000
   11        5.696431      7.891905   0.983888  -0.000000
   12        9.041444     10.394145  -0.000000  -0.000000
   13       17.432378     18.199723   0.000000   0.000000
   14       19.808492     20.363696   0.000000   0.000000
   15       23.061648     23.784052   0.000000   0.000000
   16       23.371191     23.922523   0.000000   0.000000
   17       26.047530     26.574029   0.000000   0.000000
   18       26.760362     27.048545   0.000000   0.000000
   19       27.134286     27.657395   0.000000   0.000000
   20       31.038544     31.461508   0.000000   0.000000
 
  0.4444444E+00  0.1111111E+00  0.0000000E+00  0.3292181E-01
    1        0.822228      1.274121   1.000000   1.000000
    2        1.563063      2.472003   1.000000   1.000000
    3        2.531790      4.564313   1.000000   1.000000
    4        3.074450      5.096407   1.000000   1.000001
    5        3.506827      5.295350   1.000000   1.000299
    6        3.822816      5.623621   1.000000   1.034247
    7        4.132842      6.207055   1.000000  -0.015361
    8        4.288402      6.243944   1.000000  -0.009058
    9        4.915586      6.919401   1.000000  -0.000000
   10        5.329605      7.380751   1.000695  -0.000000
   11        5.642992      8.202211   1.029116  -0.000000
   12        6.911008      8.896996  -0.000000  -0.000000
   13       19.246591     20.014561   0.000000   0.000000
   14       21.230015     21.924478   0.000000   0.000000
   15       22.028794     22.631030   0.000000   0.000000
   16       23.856927     24.425321   0.000000   0.000000
   17       24.517187     25.119413   0.000000   0.000000
   18       25.073156     25.489543   0.000000   0.000000
   19       27.245817     27.707446   0.000000   0.000000
   20       28.914577     29.346375   0.000000   0.000000
 
  0.2222222E+00  0.2222222E+00  0.0000000E+00  0.1646091E-01
    1       -0.727170     -0.502466   1.000000   1.000000
    2        1.579755      3.351827   1.000000   1.000000
    3        1.907878      3.654886   1.000000   1.000000
    4        3.096243      4.881757   1.000000   1.000000
    5        3.422244      5.200987   1.000000   1.000021
    6        4.254309      6.096113   1.000000  -0.035456
    7        4.571251      6.540378   1.000000  -0.000006
    8        4.587026      6.660507   1.000000  -0.000000
    9        4.725168      7.178393   1.000000  -0.000000
   10        4.823707      7.593654   1.000000  -0.000000
   11        6.113828      8.272135  -0.034460  -0.000000
   12       11.688056     12.641183   0.000000   0.000000
   13       13.968395     14.951015   0.000000   0.000000
   14       19.043140     19.552942   0.000000   0.000000
   15       22.935563     23.602735   0.000000   0.000000
   16       23.046579     23.672140   0.000000   0.000000
   17       27.643562     27.858740   0.000000   0.000000
   18       27.763653     28.058246   0.000000   0.000000
   19       30.064853     30.254163   0.000000   0.000000
   20       30.940196     31.711809   0.000000   0.000000
 
  0.3333333E+00  0.2222222E+00  0.0000000E+00  0.3292181E-01
    1        0.154010      0.502962   1.000000   1.000000
    2        1.641771      3.181981   1.000000   1.000000
    3        2.400572      4.141218   1.000000   1.000000
    4        2.978397      4.734524   1.000000   1.000000
    5        3.416206      5.097875   1.000000   1.000001
    6        3.690335      5.472551   1.000000   1.011015
    7        4.464325      6.519065   1.000000  -0.000013
    8        4.540874      7.001827   1.000000  -0.000000
    9        5.000947      7.034677   1.000000  -0.000000
   10        5.018724      7.765264   1.000000  -0.000000
   11        6.052228      8.198968  -0.025346  -0.000000
   12        9.506233     10.772645  -0.000000  -0.000000
   13       14.755489     15.768458   0.000000   0.000000
   14       20.531392     21.218548   0.000000   0.000000
   15       20.665008     21.240883   0.000000   0.000000
   16       23.331949     23.929608   0.000000   0.000000
   17       26.364475     26.528103   0.000000   0.000000
   18       27.768412     28.326007   0.000000   0.000000
   19       29.483808     29.843946   0.000000   0.000000
   20       31.584250     32.049524   0.000000   0.000000
 
  0.4444444E+00  0.2222222E+00  0.0000000E+00  0.3292181E-01
    1        0.965304      1.627333   1.000000   1.000000
    2        1.467007      2.588758   1.000000   1.000000
    3        2.888376      4.636080   1.000000   1.000000
    4        3.028290      4.770364   1.000000   1.000000
    5        3.267439      4.969910   1.000000   1.000000
    6        3.273451      5.016730   1.000000   1.000000
    7        4.458983      6.643452   1.000000  -0.000000
    8        4.538091      6.795572   1.000000  -0.000000
    9        5.446200      7.510873   1.007295  -0.000000
   10        5.658195      7.920384   1.021485  -0.000000
   11        5.809312      8.127101   0.675375  -0.000000
   12        7.246573      9.047564  -0.000000  -0.000000
   13       16.355280     17.303848   0.000000   0.000000
   14       18.292057     19.133755   0.000000   0.000000
   15       22.730113     23.317608   0.000000   0.000000
   16       23.981187     24.416461   0.000000   0.000000
   17       24.999405     25.281338   0.000000   0.000000
   18       25.129256     25.727326   0.000000   0.000000
   19       30.932587     31.297967   0.000000   0.000000
   20       32.406232     32.816535   0.000000   0.000000
 
  0.3333333E+00  0.3333333E+00  0.0000000E+00  0.1646091E-01
    1        0.630532      1.246729   1.000000   1.000000
    2        1.448900      2.912697   1.000000   1.000000
    3        2.733715      4.455416   1.000000   1.000000
    4        3.036486      4.697712   1.000000   1.000000
    5        3.171335      4.905120   1.000000   1.000000
    6        3.898532      5.175456   1.000000   1.000009
    7        4.474305      6.711182   1.000000  -0.000000
    8        4.767516      7.250340   1.000000  -0.000000
    9        4.893144      7.570968   1.000000  -0.000000
   10        5.498550      7.688357   1.015761  -0.000000
   11        6.205791      8.374664  -0.015613  -0.000000
   12        9.140015     10.339179  -0.000000  -0.000000
   13       13.451783     14.690200   0.000000   0.000000
   14       17.958727     18.821192   0.000000   0.000000
   15       22.037738     22.596662   0.000000   0.000000
   16       23.588333     24.027532   0.000000   0.000000
   17       25.622020     25.719591   0.000000   0.000000
   18       28.053668     28.725928   0.000000   0.000000
   19       29.656332     30.037016   0.000000   0.000000
   20       32.746491     32.954722   0.000000   0.000000
 
  0.4444444E+00  0.3333333E+00  0.0000000E+00  0.3292181E-01
    1        0.955120      1.941093   1.000000   1.000000
    2        1.206433      2.483308   1.000000   1.000000
    3        2.672955      4.377033   1.000000   1.000000
    4        2.820035      4.527477   1.000000   1.000000
    5        3.663771      5.246542   1.000000   1.000081
    6        4.100499      5.407229   1.000000   1.003647
    7        4.637239      7.013158   1.000000  -0.000000
    8        4.799388      7.211406   1.000000  -0.000000
    9        5.655168      7.957558   1.023292  -0.000000
   10        5.889324      8.011744   0.344292  -0.000000
   11        6.140796      8.298707  -0.030020  -0.000000
   12        7.431451      8.961589  -0.000000  -0.000000
   13       14.152624     15.336877   0.000000   0.000000
   14       15.793605     16.819432   0.000000   0.000000
   15       23.849667     24.304316   0.000000   0.000000
   16       24.036461     24.421548   0.000000   0.000000
   17       24.747407     24.884556   0.000000   0.000000
   18       25.997580     26.591790   0.000000   0.000000
   19       30.686631     31.151780   0.000000   0.000000
   20       32.439317     32.912097   0.000000   0.000000
 
  0.4444444E+00  0.4444444E+00  0.0000000E+00  0.1646091E-01
    1        0.922400      2.123263   1.000000   1.000000
    2        0.999210      2.288078   1.000000   1.000000
    3        2.506068      4.190080   1.000000   1.000000
    4        2.555507      4.240421   1.000000   1.000000
    5        4.492434      6.056313   1.000000  -0.027312
    6        4.781457      6.180041   1.000000  -0.021173
    7        4.807093      7.275702   1.000000  -0.000000
    8        4.951738      7.365579   1.000000  -0.000000
    9        5.910914      7.772164   0.261580  -0.000000
   10        6.175966      8.314062  -0.022106  -0.000000
   11        6.266128      8.338292  -0.006300  -0.000000
   12        6.948187      8.441898  -0.000000  -0.000000
   13       13.284929     14.627588   0.000000   0.000000
   14       13.989106     15.225411   0.000000   0.000000
   15       24.170917     24.289500   0.000000   0.000000
   16       24.428881     24.493425   0.000000   0.000000
   17       25.261009     25.826544   0.000000   0.000000
   18       26.388029     26.973150   0.000000   0.000000
   19       29.457532     29.930890   0.000000   0.000000
   20       30.445903     30.932533   0.000000   0.000000
 
  0.1111111E+00  0.1111111E+00  0.1111111E+00  0.1097394E-01
    1       -1.840175     -1.661491   1.000000   1.000000
    2        1.314735      3.135805   1.000000   1.000000
    3        1.314736      3.135945   1.000000   1.000000
    4        3.402267      5.243366   1.000000   1.000074
    5        3.402268      5.243461   1.000000   1.000074
    6        4.047317      5.958932   1.000000   0.110956
    7        4.708330      6.889649   1.000000  -0.000000
    8        4.708332      7.435631   1.000000  -0.000000
    9        4.978558      7.435798   1.000000  -0.000000
   10        5.823938      7.918733   0.616649  -0.000000
   11        5.823939      7.918822   0.616642  -0.000000
   12       14.714953     15.375437   0.000000   0.000000
   13       14.714954     15.375453   0.000000   0.000000
   14       15.707513     16.253811   0.000000   0.000000
   15       23.720765     24.444108   0.000000   0.000000
   16       23.720767     24.444114   0.000000   0.000000
   17       27.898855     28.065240   0.000000   0.000000
   18       27.898855     28.065243   0.000000   0.000000
   19       28.900118     29.926903   0.000000   0.000000
   20       31.630651     31.389491   0.000000   0.000000
 
  0.2222222E+00  0.1111111E+00  0.1111111E+00  0.3292181E-01
    1       -1.139204     -0.943811   1.000000   1.000000
    2        1.585671      3.324016   1.000000   1.000000
    3        1.600322      3.451377   1.000000   1.000000
    4        3.270060      5.074169   1.000000   1.000000
    5        3.326342      5.155986   1.000000   1.000005
    6        4.380564      6.199434   1.000000  -0.016917
    7        4.407133      6.341495   1.000000  -0.001453
    8        4.511249      7.141596   1.000000  -0.000000
    9        4.855273      7.337252   1.000000  -0.000000
   10        5.331382      7.618449   1.000725  -0.000000
   11        5.868993      7.985154   0.427558  -0.000000
   12       12.033117     12.981449   0.000000   0.000000
   13       15.833835     16.600307   0.000000   0.000000
   14       16.516381     17.142177   0.000000   0.000000
   15       24.166013     24.823639   0.000000   0.000000
   16       25.372031     25.733544   0.000000   0.000000
   17       25.540350     26.103259   0.000000   0.000000
   18       26.591352     26.941741   0.000000   0.000000
   19       30.835462     31.272807   0.000000   0.000000
   20       31.180348     31.551926   0.000000   0.000000
 
  0.3333333E+00  0.1111111E+00  0.1111111E+00  0.3292181E-01
    1       -0.113920      0.150805   1.000000   1.000000
    2        1.830895      3.256610   1.000000   1.000000
    3        1.994197      3.920772   1.000000   1.000000
    4        3.188836      5.037758   1.000000   1.000000
    5        3.284608      5.039102   1.000000   1.000000
    6        3.887937      5.690740   1.000000   0.991395
    7        4.279047      6.734812   1.000000  -0.000000
    8        4.794946      6.761840   1.000000  -0.000000
    9        4.809053      6.787153   1.000000  -0.000000
   10        5.108967      7.816189   1.000001  -0.000000
   11        5.699524      7.853939   0.979502  -0.000000
   12        9.336761     10.683549  -0.000000  -0.000000
   13       17.373289     18.202442   0.000000   0.000000
   14       17.963575     18.629023   0.000000   0.000000
   15       23.080832     23.627471   0.000000   0.000000
   16       24.249051     24.771952   0.000000   0.000000
   17       24.968367     25.531917   0.000000   0.000000
   18       26.625066     27.114421   0.000000   0.000000
   19       29.732303     29.947370   0.000000   0.000000
   20       30.368949     30.917342   0.000000   0.000000
 
  0.4444444E+00  0.1111111E+00  0.1111111E+00  0.3292181E-01
    1        0.948496      1.434482   1.000000   1.000000
    2        1.661445      2.589882   1.000000   1.000000
    3        2.471189      4.439141   1.000000   1.000000
    4        2.908747      4.836761   1.000000   1.000000
    5        3.451659      5.173692   1.000000   1.000009
    6        3.632285      5.410434   1.000000   1.003875
    7        4.196588      6.403219   1.000000  -0.000340
    8        4.383009      6.404146   1.000000  -0.000332
    9        5.101929      7.227723   1.000001  -0.000000
   10        5.403189      7.549995   1.003375  -0.000000
   11        5.780568      8.214214   0.781272  -0.000000
   12        7.164600      9.060965  -0.000000  -0.000000
   13       19.131073     19.943779   0.000000   0.000000
   14       19.767955     20.424952   0.000000   0.000000
   15       21.024771     21.734791   0.000000   0.000000
   16       21.877294     22.484669   0.000000   0.000000
   17       26.187864     26.650644   0.000000   0.000000
   18       27.727156     28.166004   0.000000   0.000000
   19       27.828248     28.190876   0.000000   0.000000
   20       29.113274     29.559122   0.000000   0.000000
 
  0.2222222E+00  0.2222222E+00  0.1111111E+00  0.3292181E-01
    1       -0.502069     -0.274417   1.000000   1.000000
    2        1.726764      3.501678   1.000000   1.000000
    3        1.957701      3.705728   1.000000   1.000000
    4        3.046314      4.820425   1.000000   1.000000
    5        3.209348      4.986133   1.000000   1.000000
    6        3.784594      5.528486   1.000000   1.022300
    7        4.627111      6.831613   1.000000  -0.000000
    8        4.806697      7.113966   1.000000  -0.000000
    9        4.877199      7.254112   1.000000  -0.000000
   10        5.091579      7.558379   1.000001  -0.000000
   11        5.893092      8.022676   0.329354  -0.000000
   12       12.121473     13.111604   0.000000   0.000000
   13       14.037351     15.017037   0.000000   0.000000
   14       17.106191     17.793840   0.000000   0.000000
   15       23.139662     23.672508   0.000000   0.000000
   16       25.138381     25.688295   0.000000   0.000000
   17       25.777450     26.075539   0.000000   0.000000
   18       27.820437     28.222412   0.000000   0.000000
   19       28.517457     29.274389   0.000000   0.000000
   20       31.945238     31.876743   0.000000   0.000000
 
  0.3333333E+00  0.2222222E+00  0.1111111E+00  0.6584362E-01
    1        0.364030      0.715626   1.000000   1.000000
    2        1.810997      3.352444   1.000000   1.000000
    3        2.377094      4.098867   1.000000   1.000000
    4        2.911348      4.658902   1.000000   1.000000
    5        3.196253      4.873718   1.000000   1.000000
    6        3.380067      5.130013   1.000000   1.000002
    7        4.553994      6.816872   1.000000  -0.000000
    8        4.724760      7.075180   1.000000  -0.000000
    9        4.958802      7.357139   1.000000  -0.000000
   10        5.425133      7.757968   1.005075  -0.000000
   11        5.835307      7.989754   0.569541  -0.000000
   12        9.913264     11.193298  -0.000000  -0.000000
   13       14.874961     15.870589   0.000000   0.000000
   14       18.381777     19.075716   0.000000   0.000000
   15       20.653922     21.340042   0.000000   0.000000
   16       24.057469     24.494181   0.000000   0.000000
   17       25.864288     26.321844   0.000000   0.000000
   18       27.968332     28.547712   0.000000   0.000000
   19       29.564769     29.923071   0.000000   0.000000
   20       31.227668     31.392923   0.000000   0.000000
 
  0.4444444E+00  0.2222222E+00  0.1111111E+00  0.6584362E-01
    1        1.141816      1.812029   1.000000   1.000000
    2        1.630870      2.750530   1.000000   1.000000
    3        2.671820      4.415948   1.000000   1.000000
    4        2.824006      4.578127   1.000000   1.000000
    5        3.279106      4.878107   1.000000   1.000000
    6        3.290153      4.980234   1.000000   1.000000
    7        4.517203      6.760006   1.000000  -0.000000
    8        4.545369      6.861652   1.000000  -0.000000
    9        5.222828      7.673229   1.000041  -0.000000
   10        5.584118      7.827830   1.033760  -0.000000
   11        6.226920      8.308311  -0.011700  -0.000000
   12        7.709975      9.423757  -0.000000  -0.000000
   13       16.483540     17.408844   0.000000   0.000000
   14       18.419803     19.237334   0.000000   0.000000
   15       20.011760     20.668271   0.000000   0.000000
   16       21.930163     22.499284   0.000000   0.000000
   17       26.806336     27.182981   0.000000   0.000000
   18       27.716706     28.104836   0.000000   0.000000
   19       30.365849     30.758783   0.000000   0.000000
   20       30.524902     30.907990   0.000000   0.000000
 
  0.3333333E+00  0.3333333E+00  0.1111111E+00  0.3292181E-01
    1        0.846884      1.462373   1.000000   1.000000
    2        1.611809      3.080825   1.000000   1.000000
    3        2.693434      4.397222   1.000000   1.000000
    4        2.980834      4.632448   1.000000   1.000000
    5        3.006426      4.692156   1.000000   1.000000
    6        3.532755      4.902155   1.000000   1.000000
    7        4.639046      6.903293   1.000000  -0.000000
    8        4.747414      7.298045   1.000000  -0.000000
    9        4.897232      7.687217   1.000000  -0.000000
   10        5.901296      7.959110   0.297518  -0.000000
   11        6.014879      8.096300   0.006121  -0.000000
   12        9.716526     10.926931  -0.000000  -0.000000
   13       13.497284     14.708671   0.000000   0.000000
   14       18.095133     18.929386   0.000000   0.000000
   15       19.435825     20.081259   0.000000   0.000000
   16       24.019187     24.317212   0.000000   0.000000
   17       26.071870     26.613463   0.000000   0.000000
   18       26.247261     26.749365   0.000000   0.000000
   19       31.478287     31.647437   0.000000   0.000000
   20       31.780105     32.294578   0.000000   0.000000
 
  0.4444444E+00  0.3333333E+00  0.1111111E+00  0.6584362E-01
    1        1.144904      2.141990   1.000000   1.000000
    2        1.373094      2.660296   1.000000   1.000000
    3        2.624125      4.308110   1.000000   1.000000
    4        2.723446      4.408012   1.000000   1.000000
    5        3.592570      5.093218   1.000000   1.000001
    6        3.882179      5.125742   1.000000   1.000002
    7        4.697546      7.099905   1.000000  -0.000000
    8        4.776687      7.247322   1.000000  -0.000000
    9        5.175964      7.804258   1.000010  -0.000000
   10        5.700577      7.991503   0.977957  -0.000000
   11        6.793506      8.618561  -0.000000  -0.000000
   12        8.164863      9.647859  -0.000000  -0.000000
   13       14.237209     15.386212   0.000000   0.000000
   14       15.913659     16.905336   0.000000   0.000000
   15       20.859242     21.422800   0.000000   0.000000
   16       22.567663     23.003279   0.000000   0.000000
   17       26.029244     26.514151   0.000000   0.000000
   18       26.368548     26.712367   0.000000   0.000000
   19       30.825484     31.284430   0.000000   0.000000
   20       30.965526     31.290093   0.000000   0.000000
 
  0.4444444E+00  0.4444444E+00  0.1111111E+00  0.3292181E-01
    1        1.102561      2.316411   1.000000   1.000000
    2        1.169739      2.469797   1.000000   1.000000
    3        2.481001      4.143190   1.000000   1.000000
    4        2.520912      4.183104   1.000000   1.000000
    5        4.351830      5.708113   1.000000   0.966149
    6        4.761388      5.716359   1.000000   0.951669