PROCAR lm decomposed
# of k-points:   35         # of bands:   20         # of ions:    2

 k-point     1 :    0.00000000 0.00000000 0.00000000     weight = 0.00137174

band     1 # energy   -2.59237100 # occ.  1.00000000
 
ion      s     py     pz     px    dxy    dyz    dz2    dxz  x2-y2    tot
    1  0.368  0.000  0.000  0.000  0.000  0.000  0.000  0.000  0.000  0.368
    2  0.368  0.000  0.000  0.000  0.000  0.000  0.000  0.000  0.000  0.368
tot    0.735  0.000  0.000  0.000  0.000  0.000  0.000  0.000  0.000  0.735
 
band     2 # energy    0.98993288 # occ.  1.00000000
 
ion      s     py     pz     px    dxy    dyz    dz2    dxz  x2-y2    tot
    1  0.000  0.000  0.000  0.000  0.000  0.000  0.426  0.000  0.013  0.438
    2  0.000  0.000  0.000  0.000  0.000  0.000  0.426  0.000  0.013  0.438
tot    0.000  0.000  0.000  0.000  0.000  0.000  0.851  0.000  0.025  0.877
 
band     3 # energy    0.98993338 # occ.  1.00000000
 
ion      s     py     pz     px    dxy    dyz    dz2    dxz  x2-y2    tot
    1  0.000  0.000  0.000  0.000  0.000  0.000  0.013  0.000  0.426  0.438
    2  0.000  0.000  0.000  0.000  0.000  0.000  0.013  0.000  0.426  0.438
tot    0.000  0.000  0.000  0.000  0.000  0.000  0.025  0.000  0.851  0.877
 
band     4 # energy    3.56578733 # occ.  1.00000000
 
ion      s     py     pz     px    dxy    dyz    dz2    dxz  x2-y2    tot
    1  0.000  0.000  0.000  0.000  0.489  0.000  0.000  0.000  0.000  0.489
    2  0.000  0.000  0.000  0.000  0.489  0.000  0.000  0.000  0.000  0.489
tot    0.000  0.000  0.000  0.000  0.979  0.000  0.000  0.000  0.000  0.979
 
band     5 # energy    3.56578913 # occ.  1.00000000
 
ion      s     py     pz     px    dxy    dyz    dz2    dxz  x2-y2    tot
    1  0.000  0.000  0.000  0.000  0.000  0.000  0.000  0.489  0.000  0.489
    2  0.000  0.000  0.000  0.000  0.000  0.000  0.000  0.489  0.000  0.489
tot    0.000  0.000  0.000  0.000  0.000  0.001  0.000  0.978  0.000  0.979
 
band     6 # energy    3.56578915 # occ.  1.00000000
 
ion      s     py     pz     px    dxy    dyz    dz2    dxz  x2-y2    tot
    1  0.000  0.000  0.000  0.000  0.000  0.489  0.000  0.000  0.000  0.489
    2  0.000  0.000  0.000  0.000  0.000  0.489  0.000  0.000  0.000  0.489
tot    0.000  0.000  0.000  0.000  0.000  0.978  0.000  0.001  0.000  0.979
 
band     7 # energy    4.76930678 # occ.  1.00000000
 
ion      s     py     pz     px    dxy    dyz    dz2    dxz  x2-y2    tot
    1  0.000  0.000  0.000  0.000  0.000  0.000  0.484  0.000  0.001  0.485
    2  0.000  0.000  0.000  0.000  0.000  0.000  0.484  0.000  0.001  0.485
tot    0.000  0.000  0.000  0.000  0.000  0.000  0.968  0.000  0.002  0.970
 
band     8 # energy    4.76930882 # occ.  1.00000000
 
ion      s     py     pz     px    dxy    dyz    dz2    dxz  x2-y2    tot
    1  0.000  0.000  0.000  0.000  0.000  0.000  0.001  0.000  0.484  0.485
    2  0.000  0.000  0.000  0.000  0.000  0.000  0.001  0.000  0.484  0.485
tot    0.000  0.000  0.000  0.000  0.000  0.000  0.002  0.000  0.968  0.970
 
band     9 # energy    6.00195612 # occ.  0.02364232
 
ion      s     py     pz     px    dxy    dyz    dz2    dxz  x2-y2    tot
    1  0.000  0.000  0.000  0.000  0.494  0.000  0.000  0.000  0.000  0.494
    2  0.000  0.000  0.000  0.000  0.494  0.000  0.000  0.000  0.000  0.494
tot    0.000  0.000  0.000  0.000  0.988  0.000  0.000  0.000  0.000  0.988
 
band    10 # energy    6.00195899 # occ.  0.02363800
 
ion      s     py     pz     px    dxy    dyz    dz2    dxz  x2-y2    tot
    1  0.000  0.000  0.000  0.000  0.000  0.000  0.000  0.494  0.000  0.494
    2  0.000  0.000  0.000  0.000  0.000  0.000  0.000  0.494  0.000  0.494
tot    0.000  0.000  0.000  0.000  0.000  0.000  0.000  0.988  0.000  0.988
 
band    11 # energy    6.00195902 # occ.  0.02363796
 
ion      s     py     pz     px    dxy    dyz    dz2    dxz  x2-y2    tot
    1  0.000  0.000  0.000  0.000  0.000  0.494  0.000  0.000  0.000  0.494
    2  0.000  0.000  0.000  0.000  0.000  0.494  0.000  0.000  0.000  0.494
tot    0.000  0.000  0.000  0.000  0.000  0.988  0.000  0.000  0.000  0.988
 
band    12 # energy   15.83745880 # occ.  0.00000000
 
ion      s     py     pz     px    dxy    dyz    dz2    dxz  x2-y2    tot
    1  0.000  0.005  0.000  0.371  0.000  0.000  0.000  0.000  0.000  0.377
    2  0.000  0.005  0.000  0.371  0.000  0.000  0.000  0.000  0.000  0.377
tot    0.000  0.011  0.000  0.743  0.000  0.000  0.000  0.000  0.000  0.754
 
band    13 # energy   15.83745891 # occ.  0.00000000
 
ion      s     py     pz     px    dxy    dyz    dz2    dxz  x2-y2    tot
    1  0.000  0.371  0.000  0.005  0.000  0.000  0.000  0.000  0.000  0.377
    2  0.000  0.371  0.000  0.005  0.000  0.000  0.000  0.000  0.000  0.377
tot    0.000  0.743  0.000  0.011  0.000  0.000  0.000  0.000  0.000  0.754
 
band    14 # energy   15.83745901 # occ.  0.00000000
 
ion      s     py     pz     px    dxy    dyz    dz2    dxz  x2-y2    tot
    1  0.000  0.000  0.377  0.000  0.000  0.000  0.000  0.000  0.000  0.377
    2  0.000  0.000  0.377  0.000  0.000  0.000  0.000  0.000  0.000  0.377
tot    0.000  0.000  0.754  0.000  0.000  0.000  0.000  0.000  0.000  0.754
 
band    15 # energy   21.56146733 # occ.  0.00000000
 
ion      s     py     pz     px    dxy    dyz    dz2    dxz  x2-y2    tot
    1  0.000  0.000  0.000  0.000  0.000  0.000  0.477  0.000  0.000  0.477
    2  0.000  0.000  0.000  0.000  0.000  0.000  0.477  0.000  0.000  0.477
tot    0.000  0.000  0.000  0.000  0.000  0.000  0.953  0.000  0.000  0.954
 
band    16 # energy   21.56146996 # occ.  0.00000000
 
ion      s     py     pz     px    dxy    dyz    dz2    dxz  x2-y2    tot
    1  0.000  0.000  0.000  0.000  0.000  0.000  0.000  0.000  0.477  0.477
    2  0.000  0.000  0.000  0.000  0.000  0.000  0.000  0.000  0.477  0.477
tot    0.000  0.000  0.000  0.000  0.000  0.000  0.000  0.000  0.953  0.954
 
band    17 # energy   26.73656974 # occ.  0.00000000
 
ion      s     py     pz     px    dxy    dyz    dz2    dxz  x2-y2    tot
    1  0.391  0.000  0.000  0.000  0.000  0.000  0.000  0.000  0.000  0.391
    2  0.391  0.000  0.000  0.000  0.000  0.000  0.000  0.000  0.000  0.391
tot    0.782  0.000  0.000  0.000  0.000  0.000  0.000  0.000  0.000  0.782
 
band    18 # energy   30.93697237 # occ.  0.00000000
 
ion      s     py     pz     px    dxy    dyz    dz2    dxz  x2-y2    tot
    1  0.000  0.000  0.000  0.000  0.000  0.000  0.000  0.000  0.000  0.000
    2  0.000  0.000  0.000  0.000  0.000  0.000  0.000  0.000  0.000  0.000
tot    0.000  0.000  0.000  0.000  0.000  0.000  0.000  0.000  0.000  0.000
 
band    19 # energy   30.93697237 # occ.  0.00000000
 
ion      s     py     pz     px    dxy    dyz    dz2    dxz  x2-y2    tot
    1  0.000  0.000  0.000  0.000  0.000  0.000  0.000  0.000  0.000  0.000
    2  0.000  0.000  0.000  0.000  0.000  0.000  0.000  0.000  0.000  0.000
tot    0.000  0.000  0.000  0.000  0.000  0.000  0.000  0.000  0.000  0.000
 
band    20 # energy   30.93697241 # occ.  0.00000000
 
ion      s     py     pz     px    dxy    dyz    dz2    dxz  x2-y2    tot
    1  0.000  0.000  0.000  0.000  0.000  0.000  0.000  0.000  0.000  0.000
    2  0.000  0.000  0.000  0.000  0.000  0.000  0.000  0.000  0.000  0.000
tot    0.000  0.000  0.000  0.000  0.000  0.000  0.000  0.000  0.000  0.000
 

 k-point     2 :    0.11111111 0.00000000 0.00000000     weight = 0.00823045

band     1 # energy   -2.33628973 # occ.  1.00000000
 
ion      s     py     pz     px    dxy    dyz    dz2    dxz  x2-y2    tot
    1  0.359  0.000  0.000  0.009  0.000  0.000  0.000  0.000  0.000  0.368
    2  0.359  0.000  0.000  0.009  0.000  0.000  0.000  0.000  0.000  0.368
tot    0.717  0.000  0.000  0.018  0.000  0.000  0.000  0.000  0.000  0.736
 
band     2 # energy    1.09955895 # occ.  1.00000000
 
ion      s     py     pz     px    dxy    dyz    dz2    dxz  x2-y2    tot
    1  0.000  0.000  0.000  0.000  0.000  0.000  0.329  0.000  0.110  0.439
    2  0.000  0.000  0.000  0.000  0.000  0.000  0.329  0.000  0.110  0.439
tot    0.000  0.000  0.000  0.000  0.000  0.000  0.658  0.000  0.219  0.878
 
band     3 # energy    1.10197434 # occ.  1.00000000
 
ion      s     py     pz     px    dxy    dyz    dz2    dxz  x2-y2    tot
    1  0.000  0.000  0.000  0.007  0.000  0.000  0.108  0.000  0.323  0.438
    2  0.000  0.000  0.000  0.007  0.000  0.000  0.108  0.000  0.323  0.438
tot    0.001  0.000  0.000  0.014  0.000  0.000  0.215  0.000  0.646  0.876
 
band     4 # energy    3.56466408 # occ.  1.00000000
 
ion      s     py     pz     px    dxy    dyz    dz2    dxz  x2-y2    tot
    1  0.000  0.001  0.000  0.000  0.487  0.000  0.000  0.000  0.000  0.488
    2  0.000  0.001  0.000  0.000  0.487  0.000  0.000  0.000  0.000  0.488
tot    0.000  0.002  0.000  0.000  0.975  0.000  0.000  0.000  0.000  0.977
 
band     5 # energy    3.56466587 # occ.  1.00000000
 
ion      s     py     pz     px    dxy    dyz    dz2    dxz  x2-y2    tot
    1  0.000  0.000  0.001  0.000  0.000  0.000  0.000  0.487  0.000  0.488
    2  0.000  0.000  0.001  0.000  0.000  0.000  0.000  0.487  0.000  0.488
tot    0.000  0.000  0.002  0.000  0.000  0.000  0.000  0.975  0.000  0.977
 
band     6 # energy    3.63612595 # occ.  1.00000000
 
ion      s     py     pz     px    dxy    dyz    dz2    dxz  x2-y2    tot
    1  0.000  0.000  0.000  0.000  0.000  0.489  0.000  0.000  0.000  0.489
    2  0.000  0.000  0.000  0.000  0.000  0.489  0.000  0.000  0.000  0.489
tot    0.000  0.000  0.000  0.000  0.000  0.978  0.000  0.000  0.000  0.978
 
band     7 # energy    4.65471092 # occ.  1.00000000
 
ion      s     py     pz     px    dxy    dyz    dz2    dxz  x2-y2    tot
    1  0.000  0.000  0.000  0.000  0.000  0.000  0.362  0.000  0.121  0.483
    2  0.000  0.000  0.000  0.000  0.000  0.000  0.362  0.000  0.121  0.483
tot    0.000  0.000  0.000  0.000  0.000  0.000  0.724  0.000  0.241  0.966
 
band     8 # energy    4.81442949 # occ.  1.00000000
 
ion      s     py     pz     px    dxy    dyz    dz2    dxz  x2-y2    tot
    1  0.000  0.000  0.000  0.000  0.000  0.000  0.121  0.000  0.364  0.486
    2  0.000  0.000  0.000  0.000  0.000  0.000  0.121  0.000  0.364  0.486
tot    0.000  0.000  0.000  0.000  0.000  0.000  0.243  0.000  0.729  0.972
 
band     9 # energy    5.79169593 # occ.  0.74204747
 
ion      s     py     pz     px    dxy    dyz    dz2    dxz  x2-y2    tot
    1  0.000  0.005  0.000  0.000  0.485  0.000  0.000  0.000  0.000  0.491
    2  0.000  0.005  0.000  0.000  0.485  0.000  0.000  0.000  0.000  0.491
tot    0.000  0.011  0.000  0.000  0.970  0.000  0.000  0.000  0.000  0.981
 
band    10 # energy    5.79169867 # occ.  0.74203753
 
ion      s     py     pz     px    dxy    dyz    dz2    dxz  x2-y2    tot
    1  0.000  0.000  0.005  0.000  0.000  0.000  0.000  0.485  0.000  0.491
    2  0.000  0.000  0.005  0.000  0.000  0.000  0.000  0.485  0.000  0.491
tot    0.000  0.000  0.011  0.000  0.000  0.000  0.000  0.970  0.000  0.981
 
band    11 # energy    5.92576651 # occ.  0.20949871
 
ion      s     py     pz     px    dxy    dyz    dz2    dxz  x2-y2    tot
    1  0.000  0.000  0.000  0.000  0.000  0.493  0.000  0.000  0.000  0.493
    2  0.000  0.000  0.000  0.000  0.000  0.493  0.000  0.000  0.000  0.493
tot    0.000  0.000  0.000  0.000  0.000  0.986  0.000  0.000  0.000  0.986
 
band    12 # energy   14.22586616 # occ.  0.00000000
 
ion      s     py     pz     px    dxy    dyz    dz2    dxz  x2-y2    tot
    1  0.035  0.000  0.000  0.304  0.000  0.000  0.014  0.000  0.042  0.396
    2  0.035  0.000  0.000  0.304  0.000  0.000  0.014  0.000  0.042  0.396
tot    0.071  0.000  0.000  0.608  0.000  0.000  0.028  0.000  0.084  0.791
 
band    13 # energy   16.31802447 # occ.  0.00000000
 
ion      s     py     pz     px    dxy    dyz    dz2    dxz  x2-y2    tot
    1  0.000  0.366  0.000  0.000  0.019  0.000  0.000  0.000  0.000  0.384
    2  0.000  0.366  0.000  0.000  0.019  0.000  0.000  0.000  0.000  0.384
tot    0.000  0.732  0.000  0.000  0.037  0.000  0.000  0.000  0.000  0.769
 
band    14 # energy   16.31802472 # occ.  0.00000000
 
ion      s     py     pz     px    dxy    dyz    dz2    dxz  x2-y2    tot
    1  0.000  0.000  0.366  0.000  0.000  0.000  0.000  0.019  0.000  0.384
    2  0.000  0.000  0.366  0.000  0.000  0.000  0.000  0.019  0.000  0.384
tot    0.000  0.000  0.732  0.000  0.000  0.000  0.000  0.037  0.000  0.769
 
band    15 # energy   21.63629633 # occ.  0.00000000
 
ion      s     py     pz     px    dxy    dyz    dz2    dxz  x2-y2    tot
    1  0.000  0.000  0.000  0.000  0.000  0.000  0.353  0.000  0.118  0.471
    2  0.000  0.000  0.000  0.000  0.000  0.000  0.353  0.000  0.118  0.471
tot    0.000  0.000  0.000  0.000  0.000  0.000  0.707  0.000  0.236  0.942
 
band    16 # energy   22.67103013 # occ.  0.00000000
 
ion      s     py     pz     px    dxy    dyz    dz2    dxz  x2-y2    tot
    1  0.027  0.000  0.000  0.015  0.000  0.000  0.100  0.000  0.300  0.442
    2  0.027  0.000  0.000  0.015  0.000  0.000  0.100  0.000  0.300  0.442
tot    0.054  0.000  0.000  0.030  0.000  0.000  0.200  0.000  0.600  0.884
 
band    17 # energy   27.62005113 # occ.  0.00000000
 
ion      s     py     pz     px    dxy    dyz    dz2    dxz  x2-y2    tot
    1  0.326  0.000  0.000  0.053  0.000  0.000  0.004  0.000  0.012  0.395
    2  0.326  0.000  0.000  0.053  0.000  0.000  0.004  0.000  0.012  0.395
tot    0.652  0.000  0.000  0.106  0.000  0.000  0.008  0.000  0.024  0.790
 
band    18 # energy   29.48235275 # occ.  0.00000000
 
ion      s     py     pz     px    dxy    dyz    dz2    dxz  x2-y2    tot
    1  0.000  0.000  0.000  0.000  0.000  0.000  0.087  0.000  0.029  0.117
    2  0.000  0.000  0.000  0.000  0.000  0.000  0.087  0.000  0.029  0.117
tot    0.000  0.000  0.000  0.000  0.000  0.000  0.175  0.000  0.058  0.233
 
band    19 # energy   30.66566796 # occ.  0.00000000
 
ion      s     py     pz     px    dxy    dyz    dz2    dxz  x2-y2    tot
    1  0.000  0.008  0.000  0.000  0.101  0.000  0.000  0.000  0.000  0.109
    2  0.000  0.008  0.000  0.000  0.101  0.000  0.000  0.000  0.000  0.109
tot    0.000  0.015  0.000  0.000  0.202  0.000  0.000  0.000  0.000  0.217
 
band    20 # energy   30.66566828 # occ.  0.00000000
 
ion      s     py     pz     px    dxy    dyz    dz2    dxz  x2-y2    tot
    1  0.000  0.000  0.008  0.000  0.000  0.000  0.000  0.101  0.000  0.109
    2  0.000  0.000  0.008  0.000  0.000  0.000  0.000  0.101  0.000  0.109
tot    0.000  0.000  0.015  0.000  0.000  0.000  0.000  0.202  0.000  0.217
 

 k-point     3 :    0.22222222 0.00000000 0.00000000     weight = 0.00823045

band     1 # energy   -1.59811621 # occ.  1.00000000
 
ion      s     py     pz     px    dxy    dyz    dz2    dxz  x2-y2    tot
    1  0.330  0.000  0.000  0.035  0.000  0.000  0.001  0.000  0.003  0.369
    2  0.330  0.000  0.000  0.035  0.000  0.000  0.001  0.000  0.003  0.369
tot    0.661  0.000  0.000  0.070  0.000  0.000  0.002  0.000  0.005  0.738
 
band     2 # energy    1.37813099 # occ.  1.00000000
 
ion      s     py     pz     px    dxy    dyz    dz2    dxz  x2-y2    tot
    1  0.004  0.000  0.000  0.026  0.000  0.000  0.101  0.000  0.304  0.435
    2  0.004  0.000  0.000  0.026  0.000  0.000  0.101  0.000  0.304  0.435
tot    0.009  0.000  0.000  0.053  0.000  0.000  0.202  0.000  0.607  0.871
 
band     3 # energy    1.41715820 # occ.  1.00000000
 
ion      s     py     pz     px    dxy    dyz    dz2    dxz  x2-y2    tot
    1  0.000  0.000  0.000  0.000  0.000  0.000  0.330  0.000  0.110  0.441
    2  0.000  0.000  0.000  0.000  0.000  0.000  0.330  0.000  0.110  0.441
tot    0.000  0.000  0.000  0.000  0.000  0.000  0.661  0.000  0.220  0.881
 
band     4 # energy    3.58063429 # occ.  1.00000000
 
ion      s     py     pz     px    dxy    dyz    dz2    dxz  x2-y2    tot
    1  0.000  0.004  0.000  0.000  0.482  0.000  0.000  0.000  0.000  0.486
    2  0.000  0.004  0.000  0.000  0.482  0.000  0.000  0.000  0.000  0.486
tot    0.000  0.007  0.000  0.000  0.964  0.000  0.000  0.000  0.000  0.972
 
band     5 # energy    3.58063606 # occ.  1.00000000
 
ion      s     py     pz     px    dxy    dyz    dz2    dxz  x2-y2    tot
    1  0.000  0.000  0.004  0.000  0.000  0.000  0.000  0.482  0.000  0.486
    2  0.000  0.000  0.004  0.000  0.000  0.000  0.000  0.482  0.000  0.486
tot    0.000  0.000  0.007  0.000  0.000  0.000  0.000  0.964  0.000  0.972
 
band     6 # energy    3.83977094 # occ.  1.00000000
 
ion      s     py     pz     px    dxy    dyz    dz2    dxz  x2-y2    tot
    1  0.000  0.000  0.000  0.000  0.000  0.488  0.000  0.000  0.000  0.488
    2  0.000  0.000  0.000  0.000  0.000  0.488  0.000  0.000  0.000  0.488
tot    0.000  0.000  0.000  0.000  0.000  0.976  0.000  0.000  0.000  0.976
 
band     7 # energy    4.32324311 # occ.  1.00000000
 
ion      s     py     pz     px    dxy    dyz    dz2    dxz  x2-y2    tot
    1  0.000  0.000  0.000  0.000  0.000  0.000  0.357  0.000  0.119  0.476
    2  0.000  0.000  0.000  0.000  0.000  0.000  0.357  0.000  0.119  0.476
tot    0.000  0.000  0.000  0.000  0.000  0.000  0.714  0.000  0.238  0.952
 
band     8 # energy    4.94386788 # occ.  1.00000000
 
ion      s     py     pz     px    dxy    dyz    dz2    dxz  x2-y2    tot
    1  0.002  0.000  0.000  0.000  0.000  0.000  0.121  0.000  0.364  0.488
    2  0.002  0.000  0.000  0.000  0.000  0.000  0.121  0.000  0.364  0.488
tot    0.005  0.000  0.000  0.001  0.000  0.000  0.243  0.000  0.728  0.976
 
band     9 # energy    5.28485556 # occ.  1.00022834
 
ion      s     py     pz     px    dxy    dyz    dz2    dxz  x2-y2    tot
    1  0.000  0.014  0.000  0.000  0.470  0.000  0.000  0.000  0.000  0.485
    2  0.000  0.014  0.000  0.000  0.470  0.000  0.000  0.000  0.000  0.485
tot    0.000  0.029  0.000  0.000  0.941  0.000  0.000  0.000  0.000  0.969
 
band    10 # energy    5.28485800 # occ.  1.00022836
 
ion      s     py     pz     px    dxy    dyz    dz2    dxz  x2-y2    tot
    1  0.000  0.000  0.014  0.000  0.000  0.000  0.000  0.470  0.000  0.485
    2  0.000  0.000  0.014  0.000  0.000  0.000  0.000  0.470  0.000  0.485
tot    0.000  0.000  0.029  0.000  0.000  0.000  0.000  0.941  0.000  0.969
 
band    11 # energy    5.70654332 # occ.  0.96872022
 
ion      s     py     pz     px    dxy    dyz    dz2    dxz  x2-y2    tot
    1  0.000  0.000  0.000  0.000  0.000  0.491  0.000  0.000  0.000  0.491
    2  0.000  0.000  0.000  0.000  0.000  0.491  0.000  0.000  0.000  0.491
tot    0.000  0.000  0.000  0.000  0.000  0.983  0.000  0.000  0.000  0.983
 
band    12 # energy   11.43207980 # occ.  0.00000000
 
ion      s     py     pz     px    dxy    dyz    dz2    dxz  x2-y2    tot
    1  0.083  0.000  0.000  0.227  0.000  0.000  0.026  0.000  0.077  0.412
    2  0.083  0.000  0.000  0.227  0.000  0.000  0.026  0.000  0.077  0.412
tot    0.167  0.000  0.000  0.454  0.000  0.000  0.051  0.000  0.153  0.825
 
band    13 # energy   17.62724631 # occ.  0.00000000
 
ion      s     py     pz     px    dxy    dyz    dz2    dxz  x2-y2    tot
    1  0.000  0.340  0.000  0.000  0.063  0.000  0.000  0.000  0.000  0.403
    2  0.000  0.340  0.000  0.000  0.063  0.000  0.000  0.000  0.000  0.403
tot    0.000  0.681  0.000  0.000  0.125  0.000  0.000  0.000  0.000  0.806
 
band    14 # energy   17.62724688 # occ.  0.00000000
 
ion      s     py     pz     px    dxy    dyz    dz2    dxz  x2-y2    tot
    1  0.000  0.000  0.340  0.000  0.000  0.000  0.000  0.063  0.000  0.403
    2  0.000  0.000  0.340  0.000  0.000  0.000  0.000  0.063  0.000  0.403
tot    0.000  0.000  0.681  0.000  0.000  0.000  0.000  0.125  0.000  0.806
 
band    15 # energy   21.87205160 # occ.  0.00000000
 
ion      s     py     pz     px    dxy    dyz    dz2    dxz  x2-y2    tot
    1  0.000  0.000  0.000  0.000  0.000  0.000  0.341  0.000  0.114  0.455
    2  0.000  0.000  0.000  0.000  0.000  0.000  0.341  0.000  0.114  0.455
tot    0.000  0.000  0.000  0.000  0.000  0.000  0.682  0.000  0.227  0.909
 
band    16 # energy   23.75263563 # occ.  0.00000000
 
ion      s     py     pz     px    dxy    dyz    dz2    dxz  x2-y2    tot
    1  0.119  0.000  0.000  0.000  0.000  0.000  0.065  0.000  0.195  0.380
    2  0.119  0.000  0.000  0.000  0.000  0.000  0.065  0.000  0.195  0.380
tot    0.239  0.000  0.000  0.000  0.000  0.000  0.130  0.000  0.391  0.760
 
band    17 # energy   27.29064119 # occ.  0.00000000
 
ion      s     py     pz     px    dxy    dyz    dz2    dxz  x2-y2    tot
    1  0.000  0.000  0.000  0.000  0.000  0.000  0.161  0.000  0.054  0.215
    2  0.000  0.000  0.000  0.000  0.000  0.000  0.161  0.000  0.054  0.215
tot    0.000  0.000  0.000  0.000  0.000  0.000  0.323  0.000  0.108  0.430
 
band    18 # energy   29.28124689 # occ.  0.00000000
 
ion      s     py     pz     px    dxy    dyz    dz2    dxz  x2-y2    tot
    1  0.000  0.079  0.000  0.000  0.279  0.000  0.000  0.000  0.000  0.357
    2  0.000  0.079  0.000  0.000  0.279  0.000  0.000  0.000  0.000  0.357
tot    0.000  0.157  0.000  0.000  0.558  0.000  0.000  0.000  0.000  0.715
 
band    19 # energy   29.28124789 # occ.  0.00000000
 
ion      s     py     pz     px    dxy    dyz    dz2    dxz  x2-y2    tot
    1  0.000  0.000  0.079  0.000  0.000  0.000  0.000  0.279  0.000  0.357
    2  0.000  0.000  0.079  0.000  0.000  0.000  0.000  0.279  0.000  0.357
tot    0.000  0.000  0.157  0.000  0.000  0.000  0.000  0.558  0.000  0.715
 
band    20 # energy   30.54842172 # occ.  0.00000000
 
ion      s     py     pz     px    dxy    dyz    dz2    dxz  x2-y2    tot
    1  0.176  0.000  0.000  0.131  0.000  0.000  0.027  0.000  0.080  0.413
    2  0.176  0.000  0.000  0.131  0.000  0.000  0.027  0.000  0.080  0.413
tot    0.352  0.000  0.000  0.261  0.000  0.000  0.053  0.000  0.160  0.826
 

 k-point     4 :    0.33333333 0.00000000 0.00000000     weight = 0.00823045

band     1 # energy   -0.48856021 # occ.  1.00000000
 
ion      s     py     pz     px    dxy    dyz    dz2    dxz  x2-y2    tot
    1  0.279  0.000  0.000  0.071  0.000  0.000  0.005  0.000  0.016  0.372
    2  0.279  0.000  0.000  0.071  0.000  0.000  0.005  0.000  0.016  0.372
tot    0.557  0.000  0.000  0.143  0.000  0.000  0.011  0.000  0.032  0.743
 
band     2 # energy    1.62878320 # occ.  1.00000000
 
ion      s     py     pz     px    dxy    dyz    dz2    dxz  x2-y2    tot
    1  0.025  0.000  0.000  0.057  0.000  0.000  0.086  0.000  0.259  0.427
    2  0.025  0.000  0.000  0.057  0.000  0.000  0.086  0.000  0.259  0.427
tot    0.050  0.000  0.000  0.114  0.000  0.000  0.172  0.000  0.517  0.854
 
band     3 # energy    1.91017821 # occ.  1.00000000
 
ion      s     py     pz     px    dxy    dyz    dz2    dxz  x2-y2    tot
    1  0.000  0.000  0.000  0.000  0.000  0.000  0.333  0.000  0.111  0.444
    2  0.000  0.000  0.000  0.000  0.000  0.000  0.333  0.000  0.111  0.444
tot    0.000  0.000  0.000  0.000  0.000  0.000  0.666  0.000  0.222  0.888
 
band     4 # energy    3.66083585 # occ.  1.00000000
 
ion      s     py     pz     px    dxy    dyz    dz2    dxz  x2-y2    tot
    1  0.000  0.008  0.000  0.000  0.475  0.000  0.000  0.000  0.000  0.483
    2  0.000  0.008  0.000  0.000  0.475  0.000  0.000  0.000  0.000  0.483
tot    0.000  0.016  0.000  0.000  0.950  0.000  0.000  0.000  0.000  0.966
 
band     5 # energy    3.66083763 # occ.  1.00000000
 
ion      s     py     pz     px    dxy    dyz    dz2    dxz  x2-y2    tot
    1  0.000  0.000  0.008  0.000  0.000  0.000  0.000  0.475  0.000  0.483
    2  0.000  0.000  0.008  0.000  0.000  0.000  0.000  0.475  0.000  0.483
tot    0.000  0.000  0.016  0.000  0.000  0.000  0.000  0.950  0.000  0.966
 
band     6 # energy    3.81250389 # occ.  1.00000000
 
ion      s     py     pz     px    dxy    dyz    dz2    dxz  x2-y2    tot
    1  0.000  0.000  0.000  0.000  0.000  0.000  0.350  0.000  0.117  0.467
    2  0.000  0.000  0.000  0.000  0.000  0.000  0.350  0.000  0.117  0.467
tot    0.000  0.000  0.000  0.000  0.000  0.000  0.701  0.000  0.234  0.934
 
band     7 # energy    4.15494329 # occ.  1.00000000
 
ion      s     py     pz     px    dxy    dyz    dz2    dxz  x2-y2    tot
    1  0.000  0.000  0.000  0.000  0.000  0.487  0.000  0.000  0.000  0.487
    2  0.000  0.000  0.000  0.000  0.000  0.487  0.000  0.000  0.000  0.487
tot    0.000  0.000  0.000  0.000  0.000  0.974  0.000  0.000  0.000  0.974
 
band     8 # energy    4.70558657 # occ.  1.00000000
 
ion      s     py     pz     px    dxy    dyz    dz2    dxz  x2-y2    tot
    1  0.000  0.018  0.000  0.000  0.462  0.000  0.000  0.000  0.000  0.481
    2  0.000  0.018  0.000  0.000  0.462  0.000  0.000  0.000  0.000  0.481
tot    0.000  0.037  0.000  0.000  0.925  0.000  0.000  0.000  0.000  0.961
 
band     9 # energy    4.70558873 # occ.  1.00000000
 
ion      s     py     pz     px    dxy    dyz    dz2    dxz  x2-y2    tot
    1  0.000  0.000  0.018  0.000  0.000  0.000  0.000  0.462  0.000  0.481
    2  0.000  0.000  0.018  0.000  0.000  0.000  0.000  0.462  0.000  0.481
tot    0.000  0.000  0.037  0.000  0.000  0.000  0.000  0.925  0.000  0.961
 
band    10 # energy    5.16853432 # occ.  1.00000755
 
ion      s     py     pz     px    dxy    dyz    dz2    dxz  x2-y2    tot
    1  0.014  0.000  0.000  0.003  0.000  0.000  0.118  0.000  0.354  0.489
    2  0.014  0.000  0.000  0.003  0.000  0.000  0.118  0.000  0.354  0.489
tot    0.028  0.000  0.000  0.006  0.000  0.000  0.236  0.000  0.708  0.978
 
band    11 # energy    5.37356466 # occ.  1.00185693
 
ion      s     py     pz     px    dxy    dyz    dz2    dxz  x2-y2    tot
    1  0.000  0.000  0.000  0.000  0.000  0.489  0.000  0.000  0.000  0.489
    2  0.000  0.000  0.000  0.000  0.000  0.489  0.000  0.000  0.000  0.489
tot    0.000  0.000  0.000  0.000  0.000  0.978  0.000  0.000  0.000  0.978
 
band    12 # energy    8.78796186 # occ. -0.00000000
 
ion      s     py     pz     px    dxy    dyz    dz2    dxz  x2-y2    tot
    1  0.114  0.000  0.000  0.153  0.000  0.000  0.040  0.000  0.121  0.429
    2  0.114  0.000  0.000  0.153  0.000  0.000  0.040  0.000  0.121  0.429
tot    0.227  0.000  0.000  0.307  0.000  0.000  0.081  0.000  0.243  0.858
 
band    13 # energy   19.51761455 # occ.  0.00000000
 
ion      s     py     pz     px    dxy    dyz    dz2    dxz  x2-y2    tot
    1  0.000  0.309  0.000  0.000  0.118  0.000  0.000  0.000  0.000  0.427
    2  0.000  0.309  0.000  0.000  0.118  0.000  0.000  0.000  0.000  0.427
tot    0.000  0.617  0.000  0.000  0.236  0.000  0.000  0.000  0.000  0.854
 
band    14 # energy   19.51761544 # occ.  0.00000000
 
ion      s     py     pz     px    dxy    dyz    dz2    dxz  x2-y2    tot
    1  0.000  0.000  0.309  0.000  0.000  0.000  0.000  0.118  0.000  0.427
    2  0.000  0.000  0.309  0.000  0.000  0.000  0.000  0.118  0.000  0.427
tot    0.000  0.000  0.617  0.000  0.000  0.000  0.000  0.236  0.000  0.854
 
band    15 # energy   22.30514898 # occ.  0.00000000
 
ion      s     py     pz     px    dxy    dyz    dz2    dxz  x2-y2    tot
    1  0.000  0.000  0.000  0.000  0.000  0.000  0.321  0.000  0.107  0.428
    2  0.000  0.000  0.000  0.000  0.000  0.000  0.321  0.000  0.107  0.428
tot    0.000  0.000  0.000  0.000  0.000  0.000  0.641  0.000  0.214  0.855
 
band    16 # energy   24.39917160 # occ.  0.00000000
 
ion      s     py     pz     px    dxy    dyz    dz2    dxz  x2-y2    tot
    1  0.152  0.000  0.000  0.025  0.000  0.000  0.036  0.000  0.107  0.320
    2  0.152  0.000  0.000  0.025  0.000  0.000  0.036  0.000  0.107  0.320
tot    0.304  0.000  0.000  0.049  0.000  0.000  0.072  0.000  0.215  0.639
 
band    17 # energy   25.42919732 # occ.  0.00000000
 
ion      s     py     pz     px    dxy    dyz    dz2    dxz  x2-y2    tot
    1  0.000  0.000  0.000  0.000  0.000  0.000  0.214  0.000  0.071  0.286
    2  0.000  0.000  0.000  0.000  0.000  0.000  0.214  0.000  0.071  0.286
tot    0.000  0.000  0.000  0.000  0.000  0.000  0.428  0.000  0.143  0.571
 
band    18 # energy   26.90538233 # occ.  0.00000000
 
ion      s     py     pz     px    dxy    dyz    dz2    dxz  x2-y2    tot
    1  0.000  0.164  0.000  0.000  0.298  0.000  0.000  0.000  0.000  0.461
    2  0.000  0.164  0.000  0.000  0.298  0.000  0.000  0.000  0.000  0.461
tot    0.000  0.328  0.000  0.000  0.595  0.000  0.000  0.000  0.000  0.923
 
band    19 # energy   26.90538360 # occ.  0.00000000
 
ion      s     py     pz     px    dxy    dyz    dz2    dxz  x2-y2    tot
    1  0.000  0.000  0.164  0.000  0.000  0.000  0.000  0.298  0.000  0.461
    2  0.000  0.000  0.164  0.000  0.000  0.000  0.000  0.298  0.000  0.461
tot    0.000  0.000  0.328  0.000  0.000  0.000  0.000  0.595  0.000  0.923
 
band    20 # energy   28.70333320 # occ.  0.00000000
 
ion      s     py     pz     px    dxy    dyz    dz2    dxz  x2-y2    tot
    1  0.068  0.000  0.000  0.162  0.000  0.000  0.001  0.000  0.003  0.234
    2  0.068  0.000  0.000  0.162  0.000  0.000  0.001  0.000  0.003  0.234
tot    0.137  0.000  0.000  0.324  0.000  0.000  0.002  0.000  0.005  0.468
 

 k-point     5 :    0.44444444 0.00000000 0.00000000     weight = 0.00823045

band     1 # energy    0.71837132 # occ.  1.00000000
 
ion      s     py     pz     px    dxy    dyz    dz2    dxz  x2-y2    tot
    1  0.194  0.000  0.000  0.101  0.000  0.000  0.022  0.000  0.066  0.382
    2  0.194  0.000  0.000  0.101  0.000  0.000  0.022  0.000  0.066  0.382
tot    0.387  0.000  0.000  0.202  0.000  0.000  0.044  0.000  0.131  0.764
 
band     2 # energy    1.51198246 # occ.  1.00000000
 
ion      s     py     pz     px    dxy    dyz    dz2    dxz  x2-y2    tot
    1  0.089  0.000  0.000  0.092  0.000  0.000  0.056  0.000  0.169  0.406
    2  0.089  0.000  0.000  0.092  0.000  0.000  0.056  0.000  0.169  0.406
tot    0.177  0.000  0.000  0.185  0.000  0.000  0.113  0.000  0.338  0.812
 
band     3 # energy    2.52427854 # occ.  1.00000000
 