   1   1   0   0
  0.1386300E+02  0.2621157E-09  0.2621157E-09  0.2621157E-09  0.5000000E-15
  1.000000000000000E-004
  CAR 
 unknown system                          
     36.28127664     -6.24852089  301      9.85464767      1.00000000
     -6.249  0.0000E+00  0.0000E+00
     -6.107  0.0000E+00  0.0000E+00
     -5.965  0.0000E+00  0.0000E+00
     -5.823  0.0000E+00  0.0000E+00
     -5.681  0.0000E+00  0.0000E+00
     -5.540  0.0000E+00  0.0000E+00
     -5.398  0.0000E+00  0.0000E+00
     -5.256  0.0000E+00  0.0000E+00
     -5.114  0.0000E+00  0.0000E+00
     -4.973  0.0000E+00  0.0000E+00
     -4.831  0.0000E+00  0.0000E+00
     -4.689  0.0000E+00  0.0000E+00
     -4.547  0.7653E-15  0.1085E-15
     -4.406  0.1539E-06  0.2182E-07
     -4.264  0.4782E-04  0.6801E-05
     -4.122  0.3748E-03  0.5994E-04
     -3.980  0.5993E-03  0.1449E-03
     -3.838  0.5821E-03  0.2274E-03
     -3.697  0.7346E-03  0.3316E-03
     -3.555  0.1142E-02  0.4935E-03
     -3.413  0.6412E-03  0.5844E-03
     -3.271  0.1200E-02  0.7544E-03
     -3.130  0.9689E-03  0.8918E-03
     -2.988  0.1028E-02  0.1038E-02
     -2.846  0.1892E-02  0.1306E-02
     -2.704  0.1084E-02  0.1460E-02
     -2.563  0.8001E-03  0.1573E-02
     -2.421  0.1608E-02  0.1801E-02
     -2.279  0.2182E-02  0.2110E-02
     -2.137  0.1248E-02  0.2287E-02
     -1.996  0.1534E-02  0.2505E-02
     -1.854  0.1527E-02  0.2721E-02
     -1.712  0.8991E-03  0.2849E-02
     -1.570  0.2341E-02  0.3180E-02
     -1.428  0.2815E-02  0.3580E-02
     -1.287  0.1766E-02  0.3830E-02
     -1.145  0.5377E-03  0.3906E-02
     -1.003  0.2563E-02  0.4270E-02
     -0.861  0.1292E-02  0.4453E-02
     -0.720  0.2854E-02  0.4857E-02
     -0.578  0.1774E-02  0.5109E-02
     -0.436  0.2490E-02  0.5462E-02
     -0.294  0.2530E-02  0.5820E-02
     -0.153  0.1558E-02  0.6041E-02
     -0.011  0.1358E-02  0.6234E-02
      0.131  0.1988E-02  0.6516E-02
      0.273  0.3596E-02  0.7026E-02
      0.414  0.2853E-02  0.7430E-02
      0.556  0.1362E-02  0.7623E-02
      0.698  0.2783E-02  0.8018E-02
      0.840  0.2880E-02  0.8426E-02
      0.982  0.1703E-02  0.8667E-02
      1.123  0.2277E-02  0.8990E-02
      1.265  0.2828E-02  0.9391E-02
      1.407  0.2151E-02  0.9696E-02
      1.549  0.3154E-02  0.1014E-01
      1.690  0.2745E-02  0.1053E-01
      1.832  0.2903E-02  0.1094E-01
      1.974  0.2392E-02  0.1128E-01
      2.116  0.3569E-02  0.1179E-01
      2.257  0.2463E-02  0.1214E-01
      2.399  0.2193E-02  0.1245E-01
      2.541  0.1792E-02  0.1270E-01
      2.683  0.4555E-02  0.1335E-01
      2.825  0.2834E-02  0.1375E-01
      2.966  0.3280E-02  0.1422E-01
      3.108  0.2296E-02  0.1454E-01
      3.250  0.2521E-02  0.1490E-01
      3.392  0.3989E-02  0.1546E-01
      3.533  0.3667E-02  0.1598E-01
      3.675  0.3222E-02  0.1644E-01
      3.817  0.2265E-02  0.1676E-01
      3.959  0.8891E-03  0.1689E-01
      4.100  0.3735E-02  0.1742E-01
      4.242  0.4596E-02  0.1807E-01
      4.384  0.3582E-02  0.1858E-01
      4.526  0.3305E-02  0.1904E-01
      4.667  0.2404E-02  0.1939E-01
      4.809  0.4450E-02  0.2002E-01
      4.951  0.2516E-02  0.2037E-01
      5.093  0.3983E-02  0.2094E-01
      5.235  0.3427E-02  0.2142E-01
      5.376  0.3795E-02  0.2196E-01
      5.518  0.2215E-02  0.2228E-01
      5.660  0.2205E-02  0.2259E-01
      5.802  0.3811E-02  0.2313E-01
      5.943  0.5040E-02  0.2384E-01
      6.085  0.3392E-02  0.2432E-01
      6.227  0.4382E-02  0.2495E-01
      6.369  0.4464E-02  0.2558E-01
      6.510  0.3435E-02  0.2606E-01
      6.652  0.3169E-02  0.2651E-01
      6.794  0.3386E-02  0.2699E-01
      6.936  0.3916E-02  0.2755E-01
      7.077  0.1958E-02  0.2783E-01
      7.219  0.4868E-02  0.2852E-01
      7.361  0.3576E-02  0.2902E-01
      7.503  0.3059E-02  0.2946E-01
      7.645  0.5356E-02  0.3022E-01
      7.786  0.7069E-02  0.3122E-01
      7.928  0.2576E-02  0.3158E-01
      8.070  0.2142E-02  0.3189E-01
      8.212  0.3451E-02  0.3238E-01
      8.353  0.5733E-02  0.3319E-01
      8.495  0.5843E-02  0.3402E-01
      8.637  0.2169E-02  0.3433E-01
      8.779  0.4591E-02  0.3498E-01
      8.920  0.2422E-02  0.3532E-01
      9.062  0.5542E-02  0.3611E-01
      9.204  0.4157E-02  0.3669E-01
      9.346  0.3896E-02  0.3725E-01
      9.488  0.5899E-02  0.3808E-01
      9.629  0.5294E-02  0.3883E-01
      9.771  0.5707E-02  0.3964E-01
      9.913  0.4590E-02  0.4029E-01
     10.055  0.3211E-02  0.4075E-01
     10.196  0.4098E-02  0.4133E-01
     10.338  0.5186E-02  0.4207E-01
     10.480  0.4474E-02  0.4270E-01
     10.622  0.3311E-02  0.4317E-01
     10.763  0.5790E-02  0.4399E-01
     10.905  0.3096E-02  0.4443E-01
     11.047  0.3347E-02  0.4490E-01
     11.189  0.6248E-02  0.4579E-01
     11.330  0.2367E-02  0.4612E-01
     11.472  0.6119E-02  0.4699E-01
     11.614  0.4941E-02  0.4769E-01
     11.756  0.3870E-02  0.4824E-01
     11.898  0.3395E-02  0.4872E-01
     12.039  0.5654E-02  0.4952E-01
     12.181  0.5596E-02  0.5032E-01
     12.323  0.2369E-02  0.5065E-01
     12.465  0.4177E-02  0.5125E-01
     12.606  0.5360E-02  0.5201E-01
     12.748  0.2600E-02  0.5237E-01
     12.890  0.3268E-02  0.5284E-01
     13.032  0.6124E-02  0.5371E-01
     13.173  0.5228E-02  0.5445E-01
     13.315  0.4819E-02  0.5513E-01
     13.457  0.5000E-02  0.5584E-01
     13.599  0.5055E-02  0.5655E-01
     13.740  0.7213E-02  0.5758E-01
     13.882  0.3930E-02  0.5813E-01
     14.024  0.4038E-02  0.5871E-01
     14.166  0.5178E-02  0.5944E-01
     14.308  0.3924E-02  0.6000E-01
     14.449  0.2996E-02  0.6042E-01
     14.591  0.6332E-02  0.6132E-01
     14.733  0.7112E-02  0.6233E-01
     14.875  0.5334E-02  0.6308E-01
     15.016  0.3255E-02  0.6355E-01
     15.158  0.2896E-02  0.6396E-01
     15.300  0.7334E-02  0.6500E-01
     15.442  0.8436E-02  0.6619E-01
     15.583  0.4841E-02  0.6688E-01
     15.725  0.4296E-02  0.6749E-01
     15.867  0.3682E-02  0.6801E-01
     16.009  0.5509E-02  0.6879E-01
     16.151  0.3498E-02  0.6929E-01
     16.292  0.7069E-02  0.7029E-01
     16.434  0.6877E-02  0.7126E-01
     16.576  0.8436E-02  0.7246E-01
     16.718  0.2200E-02  0.7277E-01
     16.859  0.3471E-02  0.7326E-01
     17.001  0.4909E-02  0.7396E-01
     17.143  0.6341E-02  0.7486E-01
     17.285  0.9067E-02  0.7614E-01
     17.426  0.8014E-02  0.7728E-01
     17.568  0.7394E-02  0.7833E-01
     17.710  0.4178E-02  0.7892E-01
     17.852  0.7159E-02  0.7993E-01
     17.993  0.5460E-02  0.8071E-01
     18.135  0.1764E-02  0.8096E-01
     18.277  0.5303E-02  0.8171E-01
     18.419  0.4060E-02  0.8229E-01
     18.561  0.4145E-02  0.8287E-01
     18.702  0.4301E-02  0.8348E-01
     18.844  0.2231E-02  0.8380E-01
     18.986  0.4175E-02  0.8439E-01
     19.128  0.3941E-02  0.8495E-01
     19.269  0.4599E-02  0.8560E-01
     19.411  0.4537E-02  0.8625E-01
     19.553  0.9698E-02  0.8762E-01
     19.695  0.2196E-02  0.8793E-01
     19.836  0.2692E-02  0.8831E-01
     19.978  0.5818E-02  0.8914E-01
     20.120  0.5026E-02  0.8985E-01
     20.262  0.5358E-02  0.9061E-01
     20.403  0.9564E-02  0.9197E-01
     20.545  0.7157E-02  0.9298E-01
     20.687  0.4878E-02  0.9367E-01
     20.829  0.4128E-02  0.9426E-01
     20.971  0.1788E-02  0.9451E-01
     21.112  0.8872E-02  0.9577E-01
     21.254  0.8851E-02  0.9702E-01
     21.396  0.6729E-02  0.9798E-01
     21.538  0.6647E-02  0.9892E-01
     21.679  0.7469E-02  0.9998E-01
     21.821  0.6702E-02  0.1009E+00
     21.963  0.6662E-02  0.1019E+00
     22.105  0.7554E-02  0.1029E+00
     22.246  0.7793E-02  0.1040E+00
     22.388  0.7759E-02  0.1051E+00
     22.530  0.6037E-02  0.1060E+00
     22.672  0.5495E-02  0.1068E+00
     22.814  0.3245E-02  0.1072E+00
     22.955  0.8555E-02  0.1085E+00
     23.097  0.8110E-02  0.1096E+00
     23.239  0.7507E-02  0.1107E+00
     23.381  0.4622E-02  0.1113E+00
     23.522  0.7132E-02  0.1123E+00
     23.664  0.4078E-02  0.1129E+00
     23.806  0.7049E-02  0.1139E+00
     23.948  0.4151E-02  0.1145E+00
     24.089  0.3532E-02  0.1150E+00
     24.231  0.3376E-02  0.1155E+00
     24.373  0.4427E-02  0.1161E+00
     24.515  0.4068E-02  0.1167E+00
     24.656  0.5796E-02  0.1175E+00
     24.798  0.8761E-02  0.1187E+00
     24.940  0.8839E-02  0.1200E+00
     25.082  0.6937E-02  0.1210E+00
     25.224  0.6963E-02  0.1220E+00
     25.365  0.5756E-02  0.1228E+00
     25.507  0.7188E-02  0.1238E+00
     25.649  0.4884E-02  0.1245E+00
     25.791  0.6779E-02  0.1255E+00
     25.932  0.1036E-01  0.1269E+00
     26.074  0.6007E-02  0.1278E+00
     26.216  0.5274E-02  0.1285E+00
     26.358  0.4007E-02  0.1291E+00
     26.499  0.5005E-02  0.1298E+00
     26.641  0.3514E-02  0.1303E+00
     26.783  0.6999E-02  0.1313E+00
     26.925  0.8238E-02  0.1325E+00
     27.066  0.2773E-02  0.1329E+00
     27.208  0.6292E-02  0.1338E+00
     27.350  0.8904E-02  0.1350E+00
     27.492  0.1867E-02  0.1353E+00
     27.634  0.6352E-02  0.1362E+00
     27.775  0.8971E-02  0.1375E+00
     27.917  0.8234E-02  0.1386E+00
     28.059  0.7396E-02  0.1397E+00
     28.201  0.8200E-02  0.1408E+00
     28.342  0.8859E-02  0.1421E+00
     28.484  0.2655E-02  0.1425E+00
     28.626  0.2870E-02  0.1429E+00
     28.768  0.6489E-02  0.1438E+00
     28.909  0.7945E-02  0.1449E+00
     29.051  0.8668E-02  0.1461E+00
     29.193  0.7608E-02  0.1472E+00
     29.335  0.3270E-02  0.1477E+00
     29.477  0.6847E-02  0.1487E+00
     29.618  0.5318E-02  0.1494E+00
     29.760  0.8338E-02  0.1506E+00
     29.902  0.7299E-02  0.1516E+00
     30.044  0.3746E-02  0.1522E+00
     30.185  0.1133E-01  0.1538E+00
     30.327  0.6183E-02  0.1546E+00
     30.469  0.6590E-02  0.1556E+00
     30.611  0.2611E-02  0.1559E+00
     30.752  0.3767E-02  0.1565E+00
     30.894  0.5634E-02  0.1573E+00
     31.036  0.1922E-02  0.1575E+00
     31.178  0.1988E-02  0.1578E+00
     31.319  0.2351E-02  0.1582E+00
     31.461  0.2200E-02  0.1585E+00
     31.603  0.2440E-02  0.1588E+00
     31.745  0.1629E-02  0.1591E+00
     31.887  0.5507E-04  0.1591E+00
     32.028  0.1306E-02  0.1592E+00
     32.170  0.4759E-03  0.1593E+00
     32.312  0.4170E-03  0.1594E+00
     32.454  0.2098E-03  0.1594E+00
     32.595  0.2534E-03  0.1594E+00
     32.737  0.9181E-03  0.1596E+00
     32.879  0.1813E-03  0.1596E+00
     33.021  0.6578E-03  0.1597E+00
     33.162  0.3755E-03  0.1597E+00
     33.304  0.8998E-03  0.1599E+00
     33.446  0.3501E-03  0.1599E+00
     33.588  0.1317E-05  0.1599E+00
     33.729  0.7154E-14  0.1599E+00
     33.871  0.3252E-18  0.1599E+00
     34.013  0.1012E-07  0.1599E+00
     34.155  0.9716E-04  0.1599E+00
     34.297  0.2347E-03  0.1600E+00
     34.438  0.2412E-03  0.1600E+00
     34.580  0.1232E-05  0.1600E+00
     34.722  0.6122E-14  0.1600E+00
     34.864  0.0000E+00  0.1600E+00
     35.005  0.0000E+00  0.1600E+00
     35.147  0.0000E+00  0.1600E+00
     35.289  0.0000E+00  0.1600E+00
     35.431  0.0000E+00  0.1600E+00
     35.572  0.0000E+00  0.1600E+00
     35.714  0.0000E+00  0.1600E+00
     35.856  0.0000E+00  0.1600E+00
     35.998  0.0000E+00  0.1600E+00
     36.140  0.0000E+00  0.1600E+00
     36.281  0.0000E+00  0.1600E+00
