    1    1  100    1
  0.1386300E+02  0.2621157E-09  0.2621157E-09  0.2621157E-09  0.5000000E-15
  1.000000000000000E-004
  CAR 
 unknown system                          
      4    165      8
 
  0.0000000E+00  0.0000000E+00  0.0000000E+00  0.2035416E-03
    1       -4.315348   1.000000
    2       21.295087   0.000000
    3       21.295087   0.000000
    4       21.295088   0.000000
    5       22.471864   0.000000
    6       22.471864   0.000000
    7       22.471864   0.000000
    8       26.150102   0.000000
 
  0.5882353E-01  0.0000000E+00  0.0000000E+00  0.2442499E-02
    1       -4.209393   1.000000
    2       19.962853   0.000000
    3       20.334872   0.000000
    4       21.145106   0.000000
    5       22.115328   0.000000
    6       23.146920   0.000000
    7       23.608416   0.000000
    8       25.363038   0.000000
 
  0.1176471E+00  0.0000000E+00  0.0000000E+00  0.2442499E-02
    1       -3.891825   1.000000
    2       17.726821   0.000000
    3       19.127380   0.000000
    4       20.728804   0.000000
    5       21.292914   0.000000
    6       23.173767   0.000000
    7       25.039612   0.000000
    8       25.339879   0.000000
 
  0.1764706E+00  0.0000000E+00  0.0000000E+00  0.2442499E-02
    1       -3.363632   1.000000
    2       15.256290   0.000000
    3       18.068611   0.000000
    4       20.148551   0.000000
    5       20.353048   0.000000
    6       22.375402   0.000000
    7       25.698492   0.000000
    8       26.072193   0.000000
 
  0.2352941E+00  0.0000000E+00  0.0000000E+00  0.2442499E-02
    1       -2.626464   1.000000
    2       12.773143   0.000000
    3       17.180686   0.000000
    4       19.470549   0.000000
    5       19.529358   0.000000
    6       21.562165   0.000000
    7       26.506803   0.000000
    8       26.588509   0.000000
 
  0.2941176E+00  0.0000000E+00  0.0000000E+00  0.2442499E-02
    1       -1.682611   1.000000
    2       10.380575   0.000000
    3       16.469893   0.000000
    4       18.725558   0.000000
    5       18.965146   0.000000
    6       20.876926   0.000000
    7       27.186003   0.000000
    8       27.607289   0.000000
 
  0.3529412E+00  0.0000000E+00  0.0000000E+00  0.2442499E-02
    1       -0.535205   1.000000
    2        8.123623   1.000000
    3       15.936641   0.000000
    4       18.148760   0.000000
    5       18.510752   0.000000
    6       20.343354   0.000000
    7       28.062050   0.000000
    8       28.708408   0.000000
 
  0.4117647E+00  0.0000000E+00  0.0000000E+00  0.2442499E-02
    1        0.810983   1.000000
    2        6.030414   1.000000
    3       15.581121   0.000000
    4       17.757818   0.000000
    5       18.195635   0.000000
    6       19.979588   0.000000
    7       29.070443   0.000000
    8       29.819378   0.000000
 
  0.4705882E+00  0.0000000E+00  0.0000000E+00  0.2442499E-02
    1        2.341344   1.000000
    2        4.124385   1.000000
    3       15.403496   0.000000
    4       17.560810   0.000000
    5       18.034910   0.000000
    6       19.795192   0.000000
    7       29.996448   0.000000
    8       30.668770   0.000000
 
  0.5882353E-01  0.5882353E-01  0.3469447E-17  0.4884999E-02
    1       -3.997635   1.000000
    2       18.638726   0.000000
    3       19.170701   0.000000
    4       20.321140   0.000000
    5       22.219261   0.000000
    6       23.442040   0.000000
    7       24.603581   0.000000
    8       24.716439   0.000000
 
  0.1176471E+00  0.5882353E-01  0.0000000E+00  0.9769998E-02
    1       -3.574743   1.000000
    2       16.523633   0.000000
    3       17.845119   0.000000
    4       19.496087   0.000000
    5       21.793652   0.000000
    6       23.208656   0.000000
    7       24.688290   0.000000
    8       26.028860   0.000000
 
  0.1764706E+00  0.5882353E-01 -0.2428613E-16  0.9769998E-02
    1       -2.942045   1.000000
    2       14.067600   0.000000
    3       16.834055   0.000000
    4       18.671625   0.000000
    5       21.148363   0.000000
    6       22.548761   0.000000
    7       25.181657   0.000000
    8       27.151523   0.000000
 
  0.2352941E+00  0.5882353E-01  0.6938894E-17  0.9769998E-02
    1       -2.101504   1.000000
    2       11.631213   0.000000
    3       16.012738   0.000000
    4       17.925868   0.000000
    5       20.484698   0.000000
    6       21.943270   0.000000
    7       25.808841   0.000000
    8       28.111593   0.000000
 
  0.2941176E+00  0.5882353E-01 -0.6938894E-17  0.9769998E-02
    1       -1.055808   1.000000
    2        9.306243   1.000000
    3       15.372667   0.000000
    4       17.315286   0.000000
    5       19.911825   0.000000
    6       21.430395   0.000000
    7       26.634979   0.000000
    8       29.111713   0.000000
 
  0.3529412E+00  0.5882353E-01  0.0000000E+00  0.9769998E-02
    1        0.191257   1.000000
    2        7.129887   1.000000
    3       14.914415   0.000000
    4       16.867179   0.000000
    5       19.481895   0.000000
    6       21.039229   0.000000
    7       27.646747   0.000000
    8       30.075663   0.000000
 
  0.4117647E+00  0.5882353E-01  0.0000000E+00  0.9769998E-02
    1        1.633025   1.000000
    2        5.126590   1.000000
    3       14.639088   0.000000
    4       16.594692   0.000000
    5       19.217569   0.000000
    6       20.797148   0.000000
    7       28.784213   0.000000
    8       30.577800   0.000000
 
  0.4705882E+00  0.5882353E-01  0.2775558E-16  0.4884999E-02
    1        3.085487   1.000000
    2        3.486243   1.000000
    3       14.547153   0.000000
    4       16.503331   0.000000
    5       19.128536   0.000000
    6       20.714679   0.000000
    7       29.758332   0.000000
    8       30.128585   0.000000
 
  0.1176471E+00  0.1176471E+00  0.0000000E+00  0.4884999E-02
    1       -3.047343   1.000000
    2       15.252862   0.000000
    3       15.753722   0.000000
    4       18.522956   0.000000
    5       21.933836   0.000000
    6       23.122982   0.000000
    7       25.112921   0.000000
    8       26.428699   0.000000
 
  0.1764706E+00  0.1176471E+00  0.6938894E-17  0.9769998E-02
    1       -2.311302   1.000000
    2       13.025585   0.000000
    3       14.612210   0.000000
    4       17.702896   0.000000
    5       21.618109   0.000000
    6       22.996340   0.000000
    7       25.445717   0.000000
    8       27.588582   0.000000
 
  0.2352941E+00  0.1176471E+00 -0.6938894E-17  0.9769998E-02
    1       -1.368853   1.000000
    2       10.663374   0.000000
    3       13.845363   0.000000
    4       17.016393   0.000000
    5       21.079864   0.000000
    6       23.031978   0.000000
    7       25.674784   0.000000
    8       29.064372   0.000000
 
  0.2941176E+00  0.1176471E+00 -0.2775558E-16  0.9769998E-02
    1       -0.223168   1.000000
    2        8.417977   1.000000
    3       13.274374   0.000000
    4       16.486142   0.000000
    5       20.596174   0.000000
    6       22.963797   0.000000
    7       26.269063   0.000000
    8       30.189289   0.000000
 
  0.3529412E+00  0.1176471E+00  0.0000000E+00  0.9769998E-02
    1        1.121083   1.000000
    2        6.330089   1.000000
    3       12.892911   0.000000
    4       16.126718   0.000000
    5       20.253527   0.000000
    6       22.834351   0.000000
    7       27.205431   0.000000
    8       30.441818   0.000000
 
  0.4117647E+00  0.1176471E+00  0.0000000E+00  0.9769998E-02
    1        2.649645   1.000000
    2        4.427508   1.000000
    3       12.702056   0.000000
    4       15.945753   0.000000
    5       20.078385   0.000000
    6       22.746669   0.000000
    7       28.349315   0.000000
    8       29.618961   0.000000
 
  0.1764706E+00  0.1764706E+00  0.0000000E+00  0.4884999E-02
    1       -1.473281   1.000000
    2       12.006094   0.000000
    3       12.391606   0.000000
    4       16.943043   0.000000
    5       21.946543   0.000000
    6       22.873585   0.000000
    7       26.634684   0.000000
    8       27.794973   0.000000
 
  0.2352941E+00  0.1764706E+00 -0.2775558E-16  0.9769998E-02
    1       -0.430739   1.000000
    2        9.876161   0.271436
    3       11.543442   0.000000
    4       16.334400   0.000000
    5       21.762592   0.000000
    6       23.254751   0.000000
    7       26.872899   0.000000
    8       29.057187   0.000000
 
  0.2941176E+00  0.1764706E+00 -0.1387779E-16  0.9769998E-02
    1        0.812610   1.000000
    2        7.721849   1.000000
    3       11.049126   0.000000
    4       15.889551   0.000000
    5       21.419552   0.000000
    6       23.898599   0.000000
    7       26.892885   0.000000
    8       29.909304   0.000000
 
  0.3529412E+00  0.1764706E+00  0.5551115E-16  0.9769998E-02
    1        2.250189   1.000000
    2        5.728768   1.000000
    3       10.755209   0.000000
    4       15.619458   0.000000
    5       21.183445   0.000000
    6       24.386126   0.000000
    7       27.250102   0.000000
    8       29.415914   0.000000
 
  0.4117647E+00  0.1764706E+00 -0.1387779E-16  0.4884999E-02
    1        3.704682   1.000000
    2        4.088061   1.000000
    3       10.657265   0.000000
    4       15.528813   0.000000
    5       21.101599   0.000000
    6       24.547760   0.000000
    7       27.725617   0.000000
    8       28.759432   0.000000
 
  0.2352941E+00  0.2352941E+00  0.0000000E+00  0.4884999E-02
    1        0.709620   1.000000
    2        9.144438   1.000000
    3        9.466214   1.000000
    4       15.810835   0.000000
    5       22.380970   0.000000
    6       23.245294   0.000000
    7       28.555536   0.000000
    8       28.567227   0.000000
 
  0.2941176E+00  0.2352941E+00  0.4163336E-16  0.9769998E-02
    1        2.047549   1.000000
    2        7.218366   1.000000
    3        8.925851   1.000000
    4       15.455058   0.000000
    5       22.395190   0.000000
    6       23.991468   0.000000
    7       27.792108   0.000000
    8       29.558684   0.000000
 
  0.3529412E+00  0.2352941E+00  0.0000000E+00  0.9769998E-02
    1        3.569342   1.000000
    2        5.332199   1.000000
    3        8.721777   1.000000
    4       15.274890   0.000000
    5       22.287412   0.000000
    6       24.940500   0.000000
    7       26.892886   0.000000
    8       29.692444   0.000000
 
  0.2941176E+00  0.2941176E+00  0.2775558E-16  0.4884999E-02
    1        3.474327   1.000000
    2        6.783160   1.000000
    3        7.086680   1.000000
    4       15.189044   0.000000
    5       23.227332   0.000000
    6       24.209805   0.000000
    7       26.767497   0.000000
    8       30.862843   0.000000
 
  0.3529412E+00  0.2941176E+00  0.5551115E-16  0.4884999E-02
    1        4.916156   1.000000
    2        5.289972   1.000000
    3        6.854504   1.000000
    4       15.099835   0.000000
    5       23.403744   0.000000
    6       24.955007   0.000000
    7       25.731783   0.000000
    8       31.502500   0.000000
 
  0.5882353E-01  0.5882353E-01  0.5882353E-01  0.1628333E-02
    1       -3.680374   1.000000
    2       17.317672   0.000000
    3       18.327135   0.000000
    4       18.327135   0.000000
    5       23.227626   0.000000
    6       23.227626   0.000000
    7       25.444120   0.000000
    8       25.444120   0.000000
 
  0.1176471E+00  0.5882353E-01  0.5882353E-01  0.4884999E-02
    1       -3.152738   1.000000
    2       15.363919   0.000000
    3       16.716718   0.000000
    4       17.390635   0.000000
    5       22.917773   0.000000
    6       23.644927   0.000000
    7       25.528508   0.000000
    8       26.095981   0.000000
 
  0.1764706E+00  0.5882353E-01  0.5882353E-01  0.4884999E-02
    1       -2.416324   1.000000
    2       12.951548   0.000000
    3       15.728246   0.000000
    4       16.527122   0.000000
    5       22.491389   0.000000
    6       23.153351   0.000000
    7       26.502710   0.000000
    8       26.673916   0.000000
 
  0.2352941E+00  0.5882353E-01  0.5882353E-01  0.4884999E-02
    1       -1.473381   1.000000
    2       10.573080   0.000000
    3       14.978345   0.000000
    4       15.802477   0.000000
    5       22.031289   0.000000
    6       22.579301   0.000000
    7       27.375704   0.000000
    8       27.622544   0.000000
 
  0.2941176E+00  0.5882353E-01  0.5882353E-01  0.4884999E-02
    1       -0.327121   1.000000
    2        8.322149   1.000000
    3       14.421086   0.000000
    4       15.244594   0.000000
    5       21.627130   0.000000
    6       22.104501   0.000000
    7       28.243725   0.000000
    8       28.779236   0.000000
 
  0.3529412E+00  0.5882353E-01  0.5882353E-01  0.4884999E-02
    1        1.017841   1.000000
    2        6.231312   1.000000
    3       14.049870   0.000000
    4       14.867564   0.000000
    5       21.335165   0.000000
    6       21.773549   0.000000
    7       29.232797   0.000000
    8       29.913731   0.000000
 
  0.4117647E+00  0.5882353E-01  0.5882353E-01  0.4884999E-02
    1        2.547085   1.000000
    2        4.327108   1.000000
    3       13.864292   0.000000
    4       14.677484   0.000000
    5       21.182920   0.000000
    6       21.605266   0.000000
    7       30.123736   0.000000
    8       30.769958   0.000000
 
 -0.5882353E-01  0.5882353E-01  0.5882353E-01  0.1221250E-02
    1       -4.103482   1.000000
    2       19.550644   0.000000
    3       19.550644   0.000000
    4       20.461101   0.000000
    5       22.675706   0.000000
    6       23.641145   0.000000
    7       23.641145   0.000000
    8       24.044775   0.000000
 
  0.1176471E+00  0.1176471E+00  0.5882353E-01  0.4884999E-02
    1       -2.521363   1.000000
    2       14.155923   0.000000
    3       14.730123   0.000000
    4       16.145885   0.000000
    5       23.393441   0.000000
    6       24.263846   0.000000
    7       25.739995   0.000000
    8       26.701362   0.000000
 
  0.1764706E+00  0.1176471E+00  0.5882353E-01  0.9769998E-02
    1       -1.682498   1.000000
    2       11.993428   0.000000
    3       13.633216   0.000000
    4       15.312118   0.000000
    5       23.295687   0.000000
    6       24.263085   0.000000
    7       26.426276   0.000000
    8       27.685506   0.000000
 
  0.2352941E+00  0.1176471E+00  0.5882353E-01  0.9769998E-02
    1       -0.638865   1.000000
    2        9.694853   0.999997
    3       12.949619   0.000000
    4       14.661211   0.000000
    5       22.962560   0.000000
    6       24.080834   0.000000
    7       27.172669   0.000000
    8       28.934534   0.000000
 
  0.2941176E+00  0.1176471E+00  0.5882353E-01  0.9769998E-02
    1        0.605836   1.000000
    2        7.528413   1.000000
    3       12.467994   0.000000
    4       14.191964   0.000000
    5       22.636153   0.000000
    6       23.877831   0.000000
    7       28.095721   0.000000
    8       30.076647   0.000000
 
  0.3529412E+00  0.1176471E+00  0.5882353E-01  0.9769998E-02
    1        2.044994   1.000000
    2        5.530014   1.000000
    3       12.179609   0.000000
    4       13.908406   0.000000
    5       22.417999   0.000000
    6       23.726212   0.000000
    7       29.152234   0.000000
    8       30.710329   0.000000
 
  0.4117647E+00  0.1176471E+00  0.5882353E-01  0.4884999E-02
    1        3.498623   1.000000
    2        3.889195   1.000000
    3       12.083204   0.000000
    4       13.813407   0.000000
    5       22.341776   0.000000
    6       23.670974   0.000000
    7       29.989787   0.000000
    8       30.457941   0.000000
 
 -0.1176471E+00  0.1176471E+00  0.5882353E-01  0.4884999E-02
    1       -3.786054   1.000000
    2       17.699664   0.000000
    3       18.391210   0.000000
    4       20.001679   0.000000
    5       22.153519   0.000000
    6       22.830129   0.000000
    7       24.155776   0.000000
    8       25.033033   0.000000
 
  0.1764706E+00  0.1764706E+00  0.5882353E-01  0.4884999E-02
    1       -0.742906   1.000000
    2       11.059099   0.000000
    3       11.454988   0.000000
    4       14.552957   0.000000
    5       23.747764   0.000000
    6       24.740783   0.000000
    7       27.247828   0.000000
    8       28.303076   0.000000
 
  0.2352941E+00  0.1764706E+00  0.5882353E-01  0.9769998E-02
    1        0.399375   1.000000
    2        9.000729   1.000000
    3       10.693511   0.000000
    4       13.989980   0.000000
    5       23.764023   0.000000
    6       25.107565   0.000000
    7       27.801462   0.000000
    8       29.478485   0.000000
 
  0.2941176E+00  0.1764706E+00  0.5882353E-01  0.9769998E-02
    1        1.739684   1.000000
    2        6.928999   1.000000
    3       10.293384   0.000000
    4       13.612654   0.000000
    5       23.586141   0.000000
    6       25.492756   0.000000
    7       28.268602   0.000000
    8       30.390296   0.000000
 
  0.3529412E+00  0.1764706E+00  0.5882353E-01  0.9769998E-02
    1        3.264279   1.000000
    2        5.033718   1.000000
    3       10.095957   0.000000
    4       13.423376   0.000000
    5       23.466239   0.000000
    6       25.672445   0.000000
    7       28.986425   0.000000
    8       30.173698   0.000000
 
 -0.1764706E+00  0.1764706E+00  0.5882353E-01  0.4884999E-02
    1       -3.258131   1.000000
    2       15.310841   0.000000
    3       17.331916   0.000000
    4       19.492919   0.000000
    5       21.257015   0.000000
    6       22.166716   0.000000
    7       24.313477   0.000000
    8       26.937565   0.000000
 
 -0.1176471E+00  0.1764706E+00  0.5882353E-01  0.4884999E-02
    1       -3.363596   1.000000
    2       16.429568   0.000000
    3       16.743091   0.000000
    4       19.431413   0.000000
    5       21.847005   0.000000
    6       21.944342   0.000000
    7       24.847221   0.000000
    8       25.693084   0.000000
 
  0.2352941E+00  0.2352941E+00  0.5882353E-01  0.4884999E-02
    1        1.637551   1.000000
    2        8.362265   1.000000
    3        8.690657   1.000000
    4       13.518929   0.000000
    5       24.424808   0.000000
    6       25.472465   0.000000
    7       29.284521   0.000000
    8       29.291407   0.000000
 
  0.2941176E+00  0.2352941E+00  0.5882353E-01  0.9769998E-02
    1        3.069043   1.000000
    2        6.524658   1.000000
    3        8.244849   1.000000
    4       13.235151   0.000000
    5       24.593690   0.000000
    6       26.172698   0.000000
    7       28.741846   0.000000
    8       30.342868   0.000000
 
  0.3529412E+00  0.2352941E+00  0.5882353E-01  0.4884999E-02
    1        4.519781   1.000000
    2        4.893442   1.000000
    3        8.140510   1.000000
    4       13.140538   0.000000
    5       24.590995   0.000000
    6       26.700078   0.000000
    7       28.303420   0.000000
    8       30.573604   0.000000
 
 -0.2352941E+00  0.2352941E+00  0.5882353E-01  0.4884999E-02
    1       -2.521326   1.000000
    2       12.854327   0.000000
    3       16.431607   0.000000
    4       18.853714   0.000000
    5       20.401157   0.000000
    6       21.757466   0.000000
    7       24.519603   0.000000
    8       28.711982   0.000000
 
 -0.1764706E+00  0.2352941E+00  0.5882353E-01  0.9769998E-02
    1       -2.731532   1.000000
    2       14.198086   0.000000
    3       15.616461   0.000000
    4       18.945750   0.000000
    5       21.119666   0.000000
    6       21.631455   0.000000
    7       24.940257   0.000000
    8       27.208011   0.000000
 
  0.2941176E+00  0.2941176E+00  0.5882353E-01  0.4884999E-02
    1        4.575560   1.000000
    2        6.199267   1.000000
    3        6.496196   1.000000
    4       13.046450   0.000000
    5       25.323643   0.000000
    6       26.669409   0.000000
    7       27.822794   0.000000
    8       31.669295   0.000000
 
 -0.2941176E+00  0.2941176E+00  0.5882353E-01  0.4884999E-02
    1       -1.577910   1.000000
    2       10.471780   0.000000
    3       15.705799   0.000000
    4       18.240461   0.000000
    5       19.674994   0.000000
    6       21.379377   0.000000
    7       25.035809   0.000000
    8       29.635676   0.000000
 
 -0.2352941E+00  0.2941176E+00  0.5882353E-01  0.9769998E-02
    1       -1.891798   1.000000
    2       11.802627   0.000000
    3       14.776563   0.000000
    4       18.360924   0.000000
    5       20.379574   0.000000
    6       21.762210   0.000000
    7       24.768235   0.000000
    8       29.025126   0.000000
 
 -0.1764706E+00  0.2941176E+00  0.5882353E-01  0.4884999E-02
    1       -1.996543   1.000000
    2       13.106726   0.000000
    3       13.458303   0.000000
    4       18.614488   0.000000
    5       21.021902   0.000000
    6       21.026473   0.000000
    7       26.213580   0.000000
    8       27.296471   0.000000
 
 -0.3529412E+00  0.3529412E+00  0.5882353E-01  0.4884999E-02
    1       -0.431123   1.000000
    2        8.220470   1.000000
    3       15.158730   0.000000
    4       17.743144   0.000000
    5       19.115203   0.000000
    6       21.029401   0.000000
    7       25.855450   0.000000
    8       30.403068   0.000000
 
 -0.2941176E+00  0.3529412E+00  0.5882353E-01  0.9769998E-02
    1       -0.847184   1.000000
    2        9.493537   1.000000
    3       14.121517   0.000000
    4       17.820884   0.000000
    5       19.754939   0.000000
    6       21.958312   0.000000
    7       24.871186   0.000000
    8       30.205780   0.000000
 
 -0.2352941E+00  0.3529412E+00  0.5882353E-01  0.9769998E-02
    1       -1.055510   1.000000
    2       10.926427   0.000000
    3       12.539048   0.000000
    4       18.168183   0.000000
    5       20.384048   0.000000
    6       21.439609   0.000000
    7       26.245791   0.000000
    8       28.652099   0.000000
 
 -0.4117647E+00  0.4117647E+00  0.5882353E-01  0.4884999E-02
    1        0.914384   1.000000
    2        6.129390   1.000000
    3       14.793060   0.000000
    4       17.398088   0.000000
    5       18.735807   0.000000
    6       20.762863   0.000000
    7       26.913482   0.000000
    8       30.414565   0.000000
 
 -0.3529412E+00  0.4117647E+00  0.5882353E-01  0.9769998E-02
    1        0.398629   1.000000
    2        7.325062   1.000000
    3       13.652009   0.000000
    4       17.407544   0.000000
    5       19.292456   0.000000
    6       22.016522   0.000000
    7       25.440297   0.000000
    8       30.093777   0.000000
 
 -0.2941176E+00  0.4117647E+00  0.5882353E-01  0.9769998E-02
    1        0.088355   1.000000
    2        8.703559   1.000000
    3       11.955047   0.000000
    4       17.741538   0.000000
    5       19.857829   0.000000
    6       22.140348   0.000000
    7       25.978041   0.000000
    8       29.463388   0.000000
 
 -0.2352941E+00  0.4117647E+00  0.5882353E-01  0.4884999E-02
    1       -0.015208   1.000000
    2       10.106417   0.000000
    3       10.417456   0.000000
    4       17.839461   0.000000
    5       20.803364   0.000000
    6       21.074297   0.000000
    7       27.968609   0.000000
    8       27.975658   0.000000
 
 -0.4705882E+00  0.4705882E+00  0.5882353E-01  0.4884999E-02
    1        2.444104   1.000000
    2        4.224909   1.000000
    3       14.610072   0.000000
    4       17.222629   0.000000
    5       18.545191   0.000000
    6       20.621737   0.000000
    7       28.135996   0.000000
    8       29.439067   0.000000
 
 -0.4117647E+00  0.4705882E+00  0.5882353E-01  0.9769998E-02
    1        1.838876   1.000000
    2        5.326218   1.000000
    3       13.369380   0.000000
    4       17.152046   0.000000
    5       19.009628   0.000000
    6       21.982491   0.000000
    7       26.406517   0.000000
    8       29.014825   0.000000
 
 -0.3529412E+00  0.4705882E+00  0.5882353E-01  0.9769998E-02
    1        1.430404   1.000000
    2        6.625490   1.000000
    3       11.567428   0.000000
    4       17.429985   0.000000
    5       19.492118   0.000000
    6       22.888675   0.000000
    7       25.893047   0.000000
    8       28.774241   0.000000
 
 -0.2941176E+00  0.4705882E+00  0.5882353E-01  0.9769998E-02
    1        1.225367   1.000000
    2        8.103234   1.000000
    3        9.786194   0.973576
    4       17.509373   0.000000
    5       20.500533   0.000000
    6       21.868917   0.000000
    7       27.030753   0.000000
    8       28.892348   0.000000
 
 -0.4705882E+00 -0.4705882E+00  0.5882353E-01  0.4884999E-02
    1        3.292791   1.000000
    2        3.685227   1.000000
    3       13.274969   0.000000
    4       17.065689   0.000000
    5       18.915040   0.000000
    6       21.958432   0.000000
    7       27.413598   0.000000
    8       27.919791   0.000000
 
 -0.4117647E+00 -0.4705882E+00  0.5882353E-01  0.9769998E-02
    1        2.956740   1.000000
    2        4.728166   1.000000
    3       11.373369   0.000000
    4       17.268411   0.000000
    5       19.305797   0.000000
    6       23.390107   0.000000
    7       26.100913   0.000000
    8       27.820167   0.000000
 
 -0.3529412E+00 -0.4705882E+00  0.5882353E-01  0.9769998E-02
    1        2.659590   1.000000
    2        6.124257   1.000000
    3        9.485181   1.000000
    4       17.286838   0.000000
    5       20.246612   0.000000
    6       22.944927   0.000000
    7       25.873258   0.000000
    8       28.907730   0.000000
 
 -0.2941176E+00 -0.4705882E+00  0.5882353E-01  0.4884999E-02
    1        2.558993   1.000000
    2        7.572533   1.000000
    3        7.867753   1.000000
    4       17.266068   0.000000
    5       21.320150   0.000000
    6       21.799944   0.000000
    7       25.918851   0.000000
    8       30.142291   0.000000
 
 -0.4117647E+00 -0.4117647E+00  0.5882353E-01  0.4884999E-02
    1        4.115118   1.000000
    2        4.485158   1.000000
    3        9.385799   1.000000
    4       17.209749   0.000000
    5       20.159538   0.000000
    6       23.732074   0.000000
    7       25.046255   0.000000
    8       28.845178   0.000000
 
 -0.3529412E+00 -0.4117647E+00  0.5882353E-01  0.9769998E-02
    1        4.075216   1.000000
    2        5.824723   1.000000
    3        7.535887   1.000000
    4       17.126543   0.000000
    5       21.341345   0.000000
    6       22.842646   0.000000
    7       24.470731   0.000000
    8       30.821464   0.000000
 
 -0.3529412E+00 -0.3529412E+00  0.5882353E-01  0.1628333E-02
    1        5.390897   1.000000
    2        5.882268   1.000000
    3        5.882268   1.000000
    4       17.064071   0.000000
    5       22.177436   0.000000
    6       23.139565   0.000000
    7       23.139565   0.000000
    8       32.659098   0.000000
 
  0.1176471E+00  0.1176471E+00  0.1176471E+00  0.1628333E-02
    1       -1.787193   1.000000
    2       13.078691   0.000000
    3       13.818211   0.000000
    4       13.818211   0.000000
    5       24.772923   0.000000
    6       24.772923   0.000000
    7       26.794096   0.000000
    8       26.794096   0.000000
 
  0.1764706E+00  0.1176471E+00  0.1176471E+00  0.4884999E-02
    1       -0.847046   1.000000
    2       11.123905   0.000000
    3       12.632666   0.000000
    4       13.066516   0.000000
    5       24.896482   0.000000
    6       25.272441   0.000000
    7       27.569457   0.000000
    8       27.810094   0.000000
 
  0.2352941E+00  0.1176471E+00  0.1176471E+00  0.4884999E-02
    1        0.295837   1.000000
    2        8.910130   1.000000
    3       12.026509   0.000000
    4       12.492886   0.000000
    5       24.837428   0.000000
    6       25.126017   0.000000
    7       28.739303   0.000000
    8       28.863260   0.000000
 
  0.2941176E+00  0.1176471E+00  0.1176471E+00  0.4884999E-02
    1        1.636927   1.000000
    2        6.831544   1.000000
    3       11.635886   0.000000
    4       12.105997   0.000000
    5       24.726221   0.000000
    6       24.919424   0.000000
    7       29.680373   0.000000
    8       30.119947   0.000000
 
  0.3529412E+00  0.1176471E+00  0.1176471E+00  0.4884999E-02
    1        3.162378   1.000000
    2        4.933873   1.000000
    3       11.441970   0.000000
    4       11.911962   0.000000
    5       24.651083   0.000000
    6       24.798555   0.000000
    7       30.447086   0.000000
    8       31.017287   0.000000
 
 -0.1176471E+00  0.1176471E+00  0.1176471E+00  0.1221250E-02
    1       -3.469117   1.000000
    2       17.238082   0.000000
    3       17.238083   0.000000
    4       18.758961   0.000000
    5       21.232082   0.000000
    6       23.290980   0.000000
    7       24.767375   0.000000
    8       24.767375   0.000000
 
  0.1764706E+00  0.1764706E+00  0.1176471E+00  0.4884999E-02
    1        0.192341   1.000000
    2       10.278650   0.000000
    3       10.687125   0.000000
    4       12.203777   0.000000
    5       25.621107   0.000000
    6       26.288649   0.000000
    7       28.133159   0.000000
    8       28.761981   0.000000
 
  0.2352941E+00  0.1764706E+00  0.1176471E+00  0.9769998E-02
    1        1.432071   1.000000
    2        8.311781   1.000000
    3       10.014563   0.000003
    4       11.712926   0.000000
    5       25.843492   0.000000
    6       26.684791   0.000000
    7       29.043460   0.000000
    8       29.861731   0.000000
 
  0.2941176E+00  0.1764706E+00  0.1176471E+00  0.9769998E-02
    1        2.865571   1.000000
    2        6.331896   1.000000
    3        9.710329   0.999978
    4       11.421037   0.000000
    5       25.836521   0.000000
    6       26.836248   0.000000
    7       29.870816   0.000000
    8       30.822653   0.000000
 
  0.3529412E+00  0.1764706E+00  0.1176471E+00  0.4884999E-02
    1        4.318068   1.000000
    2        4.694838   1.000000
    3        9.610761   1.000000
    4       11.323843   0.000000
    5       25.815032   0.000000
    6       26.875506   0.000000
    7       30.379438   0.000000
    8       31.025115   0.000000
 