Automatically generated mesh
     165
Reciprocal lattice
    0.00000000000000    0.00000000000000    0.00000000000000             1
    0.05882352941177    0.00000000000000    0.00000000000000            12
    0.11764705882353    0.00000000000000    0.00000000000000            12
    0.17647058823530    0.00000000000000    0.00000000000000            12
    0.23529411764706    0.00000000000000    0.00000000000000            12
    0.29411764705883    0.00000000000000    0.00000000000000            12
    0.35294117647059    0.00000000000000    0.00000000000000            12
    0.41176470588236    0.00000000000000    0.00000000000000            12
    0.47058823529412    0.00000000000000    0.00000000000000            12
    0.05882352941177    0.05882352941177    0.00000000000000            24
    0.11764705882353    0.05882352941177    0.00000000000000            48
    0.17647058823530    0.05882352941177   -0.00000000000000            48
    0.23529411764706    0.05882352941177    0.00000000000000            48
    0.29411764705883    0.05882352941177   -0.00000000000000            48
    0.35294117647059    0.05882352941177    0.00000000000000            48
    0.41176470588235    0.05882352941177    0.00000000000000            48
    0.47058823529412    0.05882352941177    0.00000000000000            24
    0.11764705882353    0.11764705882353    0.00000000000000            24
    0.17647058823530    0.11764705882353    0.00000000000000            48
    0.23529411764706    0.11764705882353   -0.00000000000000            48
    0.29411764705883    0.11764705882353   -0.00000000000000            48
    0.35294117647059    0.11764705882353    0.00000000000000            48
    0.41176470588235    0.11764705882353    0.00000000000000            48
    0.17647058823530    0.17647058823530    0.00000000000000            24
    0.23529411764706    0.17647058823530   -0.00000000000000            48
    0.29411764705883    0.17647058823530   -0.00000000000000            48
    0.35294117647059    0.17647058823530    0.00000000000000            48
    0.41176470588235    0.17647058823530   -0.00000000000000            24
    0.23529411764706    0.23529411764706    0.00000000000000            24
    0.29411764705883    0.23529411764706    0.00000000000000            48
    0.35294117647059    0.23529411764706    0.00000000000000            48
    0.29411764705883    0.29411764705883    0.00000000000000            24
    0.35294117647059    0.29411764705883    0.00000000000000            24
    0.05882352941177    0.05882352941177    0.05882352941177             8
    0.11764705882353    0.05882352941177    0.05882352941177            24
    0.17647058823530    0.05882352941177    0.05882352941177            24
    0.23529411764706    0.05882352941177    0.05882352941177            24
    0.29411764705883    0.05882352941177    0.05882352941177            24
    0.35294117647059    0.05882352941177    0.05882352941177            24
    0.41176470588235    0.05882352941177    0.05882352941177            24
   -0.05882352941177    0.05882352941177    0.05882352941177             6
    0.11764705882353    0.11764705882353    0.05882352941177            24
    0.17647058823530    0.11764705882353    0.05882352941177            48
    0.23529411764706    0.11764705882353    0.05882352941177            48
    0.29411764705883    0.11764705882353    0.05882352941177            48
    0.35294117647059    0.11764705882353    0.05882352941177            48
    0.41176470588235    0.11764705882353    0.05882352941177            24
   -0.11764705882353    0.11764705882353    0.05882352941177            24
    0.17647058823530    0.17647058823530    0.05882352941177            24
    0.23529411764706    0.17647058823530    0.05882352941177            48
    0.29411764705883    0.17647058823530    0.05882352941177            48
    0.35294117647059    0.17647058823530    0.05882352941177            48
   -0.17647058823530    0.17647058823530    0.05882352941177            24
   -0.11764705882353    0.17647058823530    0.05882352941177            24
    0.23529411764706    0.23529411764706    0.05882352941177            24
    0.29411764705883    0.23529411764706    0.05882352941177            48
    0.35294117647059    0.23529411764706    0.05882352941177            24
   -0.23529411764706    0.23529411764706    0.05882352941177            24
   -0.17647058823530    0.23529411764706    0.05882352941177            48
    0.29411764705883    0.29411764705883    0.05882352941177            24
   -0.29411764705883    0.29411764705883    0.05882352941177            24
   -0.23529411764706    0.29411764705883    0.05882352941177            48
   -0.17647058823530    0.29411764705883    0.05882352941177            24
   -0.35294117647059    0.35294117647059    0.05882352941177            24
   -0.29411764705883    0.35294117647059    0.05882352941177            48
   -0.23529411764706    0.35294117647059    0.05882352941177            48
   -0.41176470588236    0.41176470588236    0.05882352941177            24
   -0.35294117647059    0.41176470588236    0.05882352941177            48
   -0.29411764705883    0.41176470588235    0.05882352941177            48
   -0.23529411764706    0.41176470588236    0.05882352941177            24
   -0.47058823529412    0.47058823529412    0.05882352941177            24
   -0.41176470588236    0.47058823529412    0.05882352941177            48
   -0.35294117647059    0.47058823529412    0.05882352941177            48
   -0.29411764705883    0.47058823529412    0.05882352941177            48
   -0.47058823529412   -0.47058823529412    0.05882352941177            24
   -0.41176470588236   -0.47058823529412    0.05882352941177            48
   -0.35294117647059   -0.47058823529412    0.05882352941177            48
   -0.29411764705883   -0.47058823529412    0.05882352941177            24
   -0.41176470588236   -0.41176470588236    0.05882352941177            24
   -0.35294117647059   -0.41176470588236    0.05882352941177            48
   -0.35294117647059   -0.35294117647059    0.05882352941177             8
    0.11764705882353    0.11764705882353    0.11764705882353             8
    0.17647058823530    0.11764705882353    0.11764705882353            24
    0.23529411764706    0.11764705882353    0.11764705882353            24
    0.29411764705883    0.11764705882353    0.11764705882353            24
    0.35294117647059    0.11764705882353    0.11764705882353            24
   -0.11764705882353    0.11764705882353    0.11764705882353             6
    0.17647058823530    0.17647058823530    0.11764705882353            24
    0.23529411764706    0.17647058823530    0.11764705882353            48
    0.29411764705883    0.17647058823530    0.11764705882353            48
    0.35294117647059    0.17647058823530    0.11764705882353            24
   -0.17647058823530    0.17647058823530    0.11764705882353            24
    0.23529411764706    0.23529411764706    0.11764705882353            24
    0.29411764705883    0.23529411764706    0.11764705882353            48
   -0.23529411764706    0.23529411764706    0.11764705882353            24
   -0.17647058823530    0.23529411764706    0.11764705882353            24
    0.29411764705883    0.29411764705883    0.11764705882353             8
   -0.29411764705883    0.29411764705883    0.11764705882353            24
   -0.23529411764706    0.29411764705883    0.11764705882353            48
   -0.35294117647059    0.35294117647059    0.11764705882353            24
   -0.29411764705883    0.35294117647059    0.11764705882353            48
   -0.23529411764706    0.35294117647059    0.11764705882353            24
   -0.41176470588235    0.41176470588235    0.11764705882353            24
   -0.35294117647059    0.41176470588235    0.11764705882353            48
   -0.29411764705883    0.41176470588235    0.11764705882353            48
   -0.47058823529412    0.47058823529412    0.11764705882353            24
   -0.41176470588236    0.47058823529412    0.11764705882353            48
   -0.35294117647059    0.47058823529412    0.11764705882353            48
   -0.29411764705883    0.47058823529412    0.11764705882353            24
   -0.47058823529412   -0.47058823529412    0.11764705882353            24
   -0.41176470588235   -0.47058823529412    0.11764705882353            48
   -0.35294117647059   -0.47058823529412    0.11764705882353            48
   -0.41176470588236   -0.41176470588236    0.11764705882353            24
   -0.35294117647059   -0.41176470588235    0.11764705882353            24
    0.17647058823530    0.17647058823530    0.17647058823530             8
    0.23529411764706    0.17647058823530    0.17647058823530            24
    0.29411764705883    0.17647058823530    0.17647058823530            24
   -0.17647058823530    0.17647058823530    0.17647058823530             6
    0.23529411764706    0.23529411764706    0.17647058823530            24
    0.29411764705883    0.23529411764706    0.17647058823530            24
   -0.23529411764706    0.23529411764706    0.17647058823530            24
   -0.29411764705883    0.29411764705883    0.17647058823530            24
   -0.23529411764706    0.29411764705883    0.17647058823530            24
   -0.35294117647059    0.35294117647059    0.17647058823530            24
   -0.29411764705883    0.35294117647059    0.17647058823530            48
   -0.41176470588236    0.41176470588236    0.17647058823530            24
   -0.35294117647059    0.41176470588236    0.17647058823530            48
   -0.29411764705883    0.41176470588235    0.17647058823530            24
   -0.47058823529412    0.47058823529412    0.17647058823530            24
   -0.41176470588235    0.47058823529412    0.17647058823530            48
   -0.35294117647059    0.47058823529412    0.17647058823530            48
   -0.47058823529412   -0.47058823529412    0.17647058823530            24
   -0.41176470588235   -0.47058823529412    0.17647058823530            48
   -0.35294117647059   -0.47058823529412    0.17647058823530            24
   -0.41176470588236   -0.41176470588236    0.17647058823530            24
    0.23529411764706    0.23529411764706    0.23529411764706             8
   -0.23529411764706    0.23529411764706    0.23529411764706             6
   -0.29411764705883    0.29411764705883    0.23529411764706            24
   -0.35294117647059    0.35294117647059    0.23529411764706            24
   -0.29411764705883    0.35294117647059    0.23529411764706            24
   -0.41176470588236    0.41176470588236    0.23529411764706            24
   -0.35294117647059    0.41176470588235    0.23529411764706            48
   -0.47058823529412    0.47058823529412    0.23529411764706            24
   -0.41176470588236    0.47058823529412    0.23529411764706            48
   -0.35294117647059    0.47058823529412    0.23529411764706            24
   -0.47058823529412   -0.47058823529412    0.23529411764706            24
   -0.41176470588235   -0.47058823529412    0.23529411764706            48
   -0.41176470588236   -0.41176470588236    0.23529411764706             8
   -0.29411764705883    0.29411764705883    0.29411764705883             6
   -0.35294117647059    0.35294117647059    0.29411764705883            24
   -0.41176470588236    0.41176470588236    0.29411764705883            24
   -0.35294117647059    0.41176470588236    0.29411764705883            24
   -0.47058823529412    0.47058823529412    0.29411764705883            24
   -0.41176470588236    0.47058823529412    0.29411764705883            48
   -0.47058823529412   -0.47058823529412    0.29411764705883            24
   -0.41176470588235   -0.47058823529412    0.29411764705883            24
   -0.35294117647059    0.35294117647059    0.35294117647059             6
   -0.41176470588236    0.41176470588236    0.35294117647059            24
   -0.47058823529412    0.47058823529412    0.35294117647059            24
   -0.41176470588236    0.47058823529412    0.35294117647059            24
   -0.47058823529412   -0.47058823529412    0.35294117647059            24
   -0.41176470588236    0.41176470588236    0.41176470588236             6
   -0.47058823529412    0.47058823529412    0.41176470588236            24
   -0.47058823529412   -0.47058823529412    0.41176470588236             8
   -0.47058823529412    0.47058823529412    0.47058823529412             6
