       N       E                     dE             d eps       ncg     rms          rms(c)
DAV:   1    -0.338348183506E+01   -0.33835E+01   -0.14390E+03  2976   0.276E+02
DAV:   2    -0.489929496543E+01   -0.15158E+01   -0.14557E+01  4088   0.236E+01
DAV:   3    -0.490448572557E+01   -0.51908E-02   -0.51866E-02  2904   0.144E+00
DAV:   4    -0.490448924256E+01   -0.35170E-05   -0.35165E-05  4232   0.382E-02
DAV:   5    -0.490448924203E+01    0.53107E-09   -0.68011E-09  2920   0.344E-04    0.286E+00
DAV:   6    -0.489301466811E+01    0.11475E-01   -0.35892E-03  2744   0.266E-01    0.159E+00
DAV:   7    -0.488646377614E+01    0.65509E-02   -0.71624E-03  2896   0.376E-01    0.135E-01
DAV:   8    -0.488644252864E+01    0.21248E-04   -0.31994E-05  3832   0.425E-02    0.101E-02
DAV:   9    -0.488644306198E+01   -0.53334E-06   -0.36433E-07  2968   0.345E-03
   1 F= -.48864431E+01 E0= -.48860343E+01  d E =-.488644E+01
       N       E                     dE             d eps       ncg     rms          rms(c)
DAV:   1    -0.490704315814E+01   -0.20601E-01   -0.51451E-01  2672   0.285E+00    0.671E-01
DAV:   2    -0.490150940903E+01    0.55337E-02   -0.27658E-03  3000   0.383E-01    0.384E-01
DAV:   3    -0.489824586963E+01    0.32635E-02   -0.36069E-03  2864   0.254E-01    0.116E-01
DAV:   4    -0.489824264941E+01    0.32202E-05   -0.64280E-06  3312   0.222E-02    0.970E-02
DAV:   5    -0.489823043332E+01    0.12216E-04   -0.12243E-06  3336   0.744E-03    0.159E-02
DAV:   6    -0.489823083724E+01   -0.40392E-06   -0.22616E-08  1384   0.121E-03
   2 F= -.48982308E+01 E0= -.48978960E+01  d E =-.117878E-01
       N       E                     dE             d eps       ncg     rms          rms(c)
DAV:   1    -0.490008255095E+01   -0.18521E-02   -0.32417E-02  2672   0.728E-01    0.165E-01
DAV:   2    -0.489973727000E+01    0.34528E-03   -0.16821E-04  3016   0.952E-02    0.939E-02
DAV:   3    -0.489953668824E+01    0.20058E-03   -0.22326E-04  2872   0.634E-02    0.312E-02
DAV:   4    -0.489953675194E+01   -0.63703E-07   -0.38538E-07  3192   0.545E-03    0.267E-02
DAV:   5    -0.489953749532E+01   -0.74338E-06   -0.81311E-08  1552   0.200E-03    0.489E-03
DAV:   6    -0.489953733784E+01    0.15748E-06   -0.30497E-09  1328   0.462E-04
   3 F= -.48995373E+01 E0= -.48992145E+01  d E =-.130943E-01
