<?xml version="1.0" encoding="ISO-8859-1"?>
<modeling>
 <generator>
  <i name="program" type="string">vasp </i>
  <i name="version" type="string">6.2.0  </i>
  <i name="subversion" type="string">18Jan21 (build Aug 12 2022 13:00:08) complex                          parallel </i>
  <i name="platform" type="string">LinuxIFC </i>
  <i name="date" type="string">2024 11 03 </i>
  <i name="time" type="string">21:53:11 </i>
 </generator>
 <incar>
  <i type="int" name="ISTART">     0</i>
  <i type="string" name="PREC">Accurate      (Accurate strictly avoids</i>
  <i type="logical" name="ADDGRID"> T  </i>
  <i type="int" name="ISPIN">     1</i>
  <i type="int" name="NELM">    90</i>
  <i type="int" name="NELMIN">     6</i>
  <i type="int" name="IBRION">     2</i>
  <i name="EDIFF">      0.00000100</i>
  <i name="EDIFFG">     -0.00200000</i>
  <i type="int" name="NSW">   100</i>
  <i type="int" name="ISIF">     3</i>
  <i type="int" name="ISYM">     2</i>
  <i name="ENCUT">    350.00000000</i>
  <i type="logical" name="LREAL"> F  </i>
  <i type="int" name="ISMEAR">     0</i>
  <i name="SIGMA">      0.05000000</i>
  <i type="logical" name="LWAVE"> F  </i>
  <i type="logical" name="LCHARG"> F  </i>
  <i type="logical" name="LASPH"> T  </i>
 </incar>
 <primitive_cell>
  <structure name="primitive_cell" >
   <crystal>
    <varray name="basis" >
     <v>       1.51332563       1.51332563       1.51332563 </v>
     <v>       1.51332563      -1.51332563      -1.51332563 </v>
     <v>      -1.51332563       1.51332563      -1.51332563 </v>
    </varray>
    <i name="volume">     13.86299778 </i>
    <varray name="rec_basis" >
     <v>       0.33039816       0.33039816       0.00000000 </v>
     <v>       0.33039816       0.00000000      -0.33039816 </v>
     <v>       0.00000000       0.33039816      -0.33039816 </v>
    </varray>
   </crystal>
   <varray name="positions" >
    <v>       0.00000000       0.00000000       0.00000000 </v>
   </varray>
  </structure>
  <varray name="primitive_index" >
   <v type="int" >        1 </v>
  </varray>
 </primitive_cell>
 <kpoints>
  <generation param="Monkhorst-Pack">
   <v type="int" name="divisions">      17       17       17 </v>
   <v name="usershift">      0.00000000       0.00000000       0.00000000 </v>
   <v name="genvec1">      0.05882353       0.00000000       0.00000000 </v>
   <v name="genvec2">      0.00000000       0.05882353       0.00000000 </v>
   <v name="genvec3">      0.00000000       0.00000000       0.05882353 </v>
   <v name="shift">      0.00000000       0.00000000       0.00000000 </v>
  </generation>
  <varray name="kpointlist" >
   <v>       0.00000000       0.00000000       0.00000000 </v>
   <v>       0.05882353       0.00000000       0.00000000 </v>
   <v>       0.11764706       0.00000000       0.00000000 </v>
   <v>       0.17647059       0.00000000       0.00000000 </v>
   <v>       0.23529412       0.00000000       0.00000000 </v>
   <v>       0.29411765       0.00000000       0.00000000 </v>
   <v>       0.35294118       0.00000000       0.00000000 </v>
   <v>       0.41176471       0.00000000       0.00000000 </v>
   <v>       0.47058824       0.00000000       0.00000000 </v>
   <v>       0.05882353       0.05882353       0.00000000 </v>
   <v>       0.11764706       0.05882353       0.00000000 </v>
   <v>       0.17647059       0.05882353      -0.00000000 </v>
   <v>       0.23529412       0.05882353       0.00000000 </v>
   <v>       0.29411765       0.05882353      -0.00000000 </v>
   <v>       0.35294118       0.05882353       0.00000000 </v>
   <v>       0.41176471       0.05882353       0.00000000 </v>
   <v>       0.47058824       0.05882353       0.00000000 </v>
   <v>       0.11764706       0.11764706       0.00000000 </v>
   <v>       0.17647059       0.11764706       0.00000000 </v>
   <v>       0.23529412       0.11764706      -0.00000000 </v>
   <v>       0.29411765       0.11764706      -0.00000000 </v>
   <v>       0.35294118       0.11764706       0.00000000 </v>
   <v>       0.41176471       0.11764706       0.00000000 </v>
   <v>       0.17647059       0.17647059       0.00000000 </v>
   <v>       0.23529412       0.17647059      -0.00000000 </v>
   <v>       0.29411765       0.17647059      -0.00000000 </v>
   <v>       0.35294118       0.17647059       0.00000000 </v>
   <v>       0.41176471       0.17647059      -0.00000000 </v>
   <v>       0.23529412       0.23529412       0.00000000 </v>
   <v>       0.29411765       0.23529412       0.00000000 </v>
   <v>       0.35294118       0.23529412       0.00000000 </v>
   <v>       0.29411765       0.29411765       0.00000000 </v>
   <v>       0.35294118       0.29411765       0.00000000 </v>
   <v>       0.05882353       0.05882353       0.05882353 </v>
   <v>       0.11764706       0.05882353       0.05882353 </v>
   <v>       0.17647059       0.05882353       0.05882353 </v>
   <v>       0.23529412       0.05882353       0.05882353 </v>
   <v>       0.29411765       0.05882353       0.05882353 </v>
   <v>       0.35294118       0.05882353       0.05882353 </v>
   <v>       0.41176471       0.05882353       0.05882353 </v>
   <v>      -0.05882353       0.05882353       0.05882353 </v>
   <v>       0.11764706       0.11764706       0.05882353 </v>
   <v>       0.17647059       0.11764706       0.05882353 </v>
   <v>       0.23529412       0.11764706       0.05882353 </v>
   <v>       0.29411765       0.11764706       0.05882353 </v>
   <v>       0.35294118       0.11764706       0.05882353 </v>
   <v>       0.41176471       0.11764706       0.05882353 </v>
   <v>      -0.11764706       0.11764706       0.05882353 </v>
   <v>       0.17647059       0.17647059       0.05882353 </v>
   <v>       0.23529412       0.17647059       0.05882353 </v>
   <v>       0.29411765       0.17647059       0.05882353 </v>
   <v>       0.35294118       0.17647059       0.05882353 </v>
   <v>      -0.17647059       0.17647059       0.05882353 </v>
   <v>      -0.11764706       0.17647059       0.05882353 </v>
   <v>       0.23529412       0.23529412       0.05882353 </v>
   <v>       0.29411765       0.23529412       0.05882353 </v>
   <v>       0.35294118       0.23529412       0.05882353 </v>
   <v>      -0.23529412       0.23529412       0.05882353 </v>
   <v>      -0.17647059       0.23529412       0.05882353 </v>
   <v>       0.29411765       0.29411765       0.05882353 </v>
   <v>      -0.29411765       0.29411765       0.05882353 </v>
   <v>      -0.23529412       0.29411765       0.05882353 </v>
   <v>      -0.17647059       0.29411765       0.05882353 </v>
   <v>      -0.35294118       0.35294118       0.05882353 </v>
   <v>      -0.29411765       0.35294118       0.05882353 </v>
   <v>      -0.23529412       0.35294118       0.05882353 </v>
   <v>      -0.41176471       0.41176471       0.05882353 </v>
   <v>      -0.35294118       0.41176471       0.05882353 </v>
   <v>      -0.29411765       0.41176471       0.05882353 </v>
   <v>      -0.23529412       0.41176471       0.05882353 </v>
   <v>      -0.47058824       0.47058824       0.05882353 </v>
   <v>      -0.41176471       0.47058824       0.05882353 </v>
   <v>      -0.35294118       0.47058824       0.05882353 </v>
   <v>      -0.29411765       0.47058824       0.05882353 </v>
   <v>      -0.47058824      -0.47058824       0.05882353 </v>
   <v>      -0.41176471      -0.47058824       0.05882353 </v>
   <v>      -0.35294118      -0.47058824       0.05882353 </v>
   <v>      -0.29411765      -0.47058824       0.05882353 </v>
   <v>      -0.41176471      -0.41176471       0.05882353 </v>
   <v>      -0.35294118      -0.41176471       0.05882353 </v>
   <v>      -0.35294118      -0.35294118       0.05882353 </v>
   <v>       0.11764706       0.11764706       0.11764706 </v>
   <v>       0.17647059       0.11764706       0.11764706 </v>
   <v>       0.23529412       0.11764706       0.11764706 </v>
   <v>       0.29411765       0.11764706       0.11764706 </v>
   <v>       0.35294118       0.11764706       0.11764706 </v>
   <v>      -0.11764706       0.11764706       0.11764706 </v>
   <v>       0.17647059       0.17647059       0.11764706 </v>
   <v>       0.23529412       0.17647059       0.11764706 </v>
   <v>       0.29411765       0.17647059       0.11764706 </v>
   <v>       0.35294118       0.17647059       0.11764706 </v>
   <v>      -0.17647059       0.17647059       0.11764706 </v>
   <v>       0.23529412       0.23529412       0.11764706 </v>
   <v>       0.29411765       0.23529412       0.11764706 </v>
   <v>      -0.23529412       0.23529412       0.11764706 </v>
   <v>      -0.17647059       0.23529412       0.11764706 </v>
   <v>       0.29411765       0.29411765       0.11764706 </v>
   <v>      -0.29411765       0.29411765       0.11764706 </v>
   <v>      -0.23529412       0.29411765       0.11764706 </v>
   <v>      -0.35294118       0.35294118       0.11764706 </v>
   <v>      -0.29411765       0.35294118       0.11764706 </v>
   <v>      -0.23529412       0.35294118       0.11764706 </v>
   <v>      -0.41176471       0.41176471       0.11764706 </v>
   <v>      -0.35294118       0.41176471       0.11764706 </v>
   <v>      -0.29411765       0.41176471       0.11764706 </v>
   <v>      -0.47058824       0.47058824       0.11764706 </v>
   <v>      -0.41176471       0.47058824       0.11764706 </v>
   <v>      -0.35294118       0.47058824       0.11764706 </v>
   <v>      -0.29411765       0.47058824       0.11764706 </v>
   <v>      -0.47058824      -0.47058824       0.11764706 </v>
   <v>      -0.41176471      -0.47058824       0.11764706 </v>
   <v>      -0.35294118      -0.47058824       0.11764706 </v>
   <v>      -0.41176471      -0.41176471       0.11764706 </v>
   <v>      -0.35294118      -0.41176471       0.11764706 </v>
   <v>       0.17647059       0.17647059       0.17647059 </v>
   <v>       0.23529412       0.17647059       0.17647059 </v>
   <v>       0.29411765       0.17647059       0.17647059 </v>
   <v>      -0.17647059       0.17647059       0.17647059 </v>
   <v>       0.23529412       0.23529412       0.17647059 </v>
   <v>       0.29411765       0.23529412       0.17647059 </v>
   <v>      -0.23529412       0.23529412       0.17647059 </v>
   <v>      -0.29411765       0.29411765       0.17647059 </v>
   <v>      -0.23529412       0.29411765       0.17647059 </v>
   <v>      -0.35294118       0.35294118       0.17647059 </v>
   <v>      -0.29411765       0.35294118       0.17647059 </v>
   <v>      -0.41176471       0.41176471       0.17647059 </v>
   <v>      -0.35294118       0.41176471       0.17647059 </v>
   <v>      -0.29411765       0.41176471       0.17647059 </v>
   <v>      -0.47058824       0.47058824       0.17647059 </v>
   <v>      -0.41176471       0.47058824       0.17647059 </v>
   <v>      -0.35294118       0.47058824       0.17647059 </v>
   <v>      -0.47058824      -0.47058824       0.17647059 </v>
   <v>      -0.41176471      -0.47058824       0.17647059 </v>
   <v>      -0.35294118      -0.47058824       0.17647059 </v>
   <v>      -0.41176471      -0.41176471       0.17647059 </v>
   <v>       0.23529412       0.23529412       0.23529412 </v>
   <v>      -0.23529412       0.23529412       0.23529412 </v>
   <v>      -0.29411765       0.29411765       0.23529412 </v>
   <v>      -0.35294118       0.35294118       0.23529412 </v>
   <v>      -0.29411765       0.35294118       0.23529412 </v>
   <v>      -0.41176471       0.41176471       0.23529412 </v>
   <v>      -0.35294118       0.41176471       0.23529412 </v>
   <v>      -0.47058824       0.47058824       0.23529412 </v>
   <v>      -0.41176471       0.47058824       0.23529412 </v>
   <v>      -0.35294118       0.47058824       0.23529412 </v>
   <v>      -0.47058824      -0.47058824       0.23529412 </v>
   <v>      -0.41176471      -0.47058824       0.23529412 </v>
   <v>      -0.41176471      -0.41176471       0.23529412 </v>
   <v>      -0.29411765       0.29411765       0.29411765 </v>
   <v>      -0.35294118       0.35294118       0.29411765 </v>
   <v>      -0.41176471       0.41176471       0.29411765 </v>
   <v>      -0.35294118       0.41176471       0.29411765 </v>
   <v>      -0.47058824       0.47058824       0.29411765 </v>
   <v>      -0.41176471       0.47058824       0.29411765 </v>
   <v>      -0.47058824      -0.47058824       0.29411765 </v>
   <v>      -0.41176471      -0.47058824       0.29411765 </v>
   <v>      -0.35294118       0.35294118       0.35294118 </v>
   <v>      -0.41176471       0.41176471       0.35294118 </v>
   <v>      -0.47058824       0.47058824       0.35294118 </v>
   <v>      -0.41176471       0.47058824       0.35294118 </v>
   <v>      -0.47058824      -0.47058824       0.35294118 </v>
   <v>      -0.41176471       0.41176471       0.41176471 </v>
   <v>      -0.47058824       0.47058824       0.41176471 </v>
   <v>      -0.47058824      -0.47058824       0.41176471 </v>
   <v>      -0.47058824       0.47058824       0.47058824 </v>
  </varray>
  <varray name="weights" >
   <v>       0.00020354 </v>
   <v>       0.00244250 </v>
   <v>       0.00244250 </v>
   <v>       0.00244250 </v>
   <v>       0.00244250 </v>
   <v>       0.00244250 </v>
   <v>       0.00244250 </v>
   <v>       0.00244250 </v>
   <v>       0.00244250 </v>
   <v>       0.00488500 </v>
   <v>       0.00977000 </v>
   <v>       0.00977000 </v>
   <v>       0.00977000 </v>
   <v>       0.00977000 </v>
   <v>       0.00977000 </v>
   <v>       0.00977000 </v>
   <v>       0.00488500 </v>
   <v>       0.00488500 </v>
   <v>       0.00977000 </v>
   <v>       0.00977000 </v>
   <v>       0.00977000 </v>
   <v>       0.00977000 </v>
   <v>       0.00977000 </v>
   <v>       0.00488500 </v>
   <v>       0.00977000 </v>
   <v>       0.00977000 </v>
   <v>       0.00977000 </v>
   <v>       0.00488500 </v>
   <v>       0.00488500 </v>
   <v>       0.00977000 </v>
   <v>       0.00977000 </v>
   <v>       0.00488500 </v>
   <v>       0.00488500 </v>
   <v>       0.00162833 </v>
   <v>       0.00488500 </v>
   <v>       0.00488500 </v>
   <v>       0.00488500 </v>
   <v>       0.00488500 </v>
   <v>       0.00488500 </v>
   <v>       0.00488500 </v>
   <v>       0.00122125 </v>
   <v>       0.00488500 </v>
   <v>       0.00977000 </v>
   <v>       0.00977000 </v>
   <v>       0.00977000 </v>
   <v>       0.00977000 </v>
   <v>       0.00488500 </v>
   <v>       0.00488500 </v>
   <v>       0.00488500 </v>
   <v>       0.00977000 </v>
   <v>       0.00977000 </v>
   <v>       0.00977000 </v>
   <v>       0.00488500 </v>
   <v>       0.00488500 </v>
   <v>       0.00488500 </v>
   <v>       0.00977000 </v>
   <v>       0.00488500 </v>
   <v>       0.00488500 </v>
   <v>       0.00977000 </v>
   <v>       0.00488500 </v>
   <v>       0.00488500 </v>
   <v>       0.00977000 </v>
   <v>       0.00488500 </v>
   <v>       0.00488500 </v>
   <v>       0.00977000 </v>
   <v>       0.00977000 </v>
   <v>       0.00488500 </v>
   <v>       0.00977000 </v>
   <v>       0.00977000 </v>
   <v>       0.00488500 </v>
   <v>       0.00488500 </v>
   <v>       0.00977000 </v>
   <v>       0.00977000 </v>
   <v>       0.00977000 </v>
   <v>       0.00488500 </v>
   <v>       0.00977000 </v>
   <v>       0.00977000 </v>
   <v>       0.00488500 </v>
   <v>       0.00488500 </v>
   <v>       0.00977000 </v>
   <v>       0.00162833 </v>
   <v>       0.00162833 </v>
   <v>       0.00488500 </v>
   <v>       0.00488500 </v>
   <v>       0.00488500 </v>
   <v>       0.00488500 </v>
   <v>       0.00122125 </v>
   <v>       0.00488500 </v>
   <v>       0.00977000 </v>
   <v>       0.00977000 </v>
   <v>       0.00488500 </v>
   <v>       0.00488500 </v>
   <v>       0.00488500 </v>
   <v>       0.00977000 </v>
   <v>       0.00488500 </v>
   <v>       0.00488500 </v>
   <v>       0.00162833 </v>
   <v>       0.00488500 </v>
   <v>       0.00977000 </v>
   <v>       0.00488500 </v>
   <v>       0.00977000 </v>
   <v>       0.00488500 </v>
   <v>       0.00488500 </v>
   <v>       0.00977000 </v>
   <v>       0.00977000 </v>
   <v>       0.00488500 </v>
   <v>       0.00977000 </v>
   <v>       0.00977000 </v>
   <v>       0.00488500 </v>
   <v>       0.00488500 </v>
   <v>       0.00977000 </v>
   <v>       0.00977000 </v>
   <v>       0.00488500 </v>
   <v>       0.00488500 </v>
   <v>       0.00162833 </v>
   <v>       0.00488500 </v>
   <v>       0.00488500 </v>
   <v>       0.00122125 </v>
   <v>       0.00488500 </v>
   <v>       0.00488500 </v>
   <v>       0.00488500 </v>
   <v>       0.00488500 </v>
   <v>       0.00488500 </v>
   <v>       0.00488500 </v>
   <v>       0.00977000 </v>
   <v>       0.00488500 </v>
   <v>       0.00977000 </v>
   <v>       0.00488500 </v>
   <v>       0.00488500 </v>
   <v>       0.00977000 </v>
   <v>       0.00977000 </v>
   <v>       0.00488500 </v>
   <v>       0.00977000 </v>
   <v>       0.00488500 </v>
   <v>       0.00488500 </v>
   <v>       0.00162833 </v>
   <v>       0.00122125 </v>
   <v>       0.00488500 </v>
   <v>       0.00488500 </v>
   <v>       0.00488500 </v>
   <v>       0.00488500 </v>
   <v>       0.00977000 </v>
   <v>       0.00488500 </v>
   <v>       0.00977000 </v>
   <v>       0.00488500 </v>
   <v>       0.00488500 </v>
   <v>       0.00977000 </v>
   <v>       0.00162833 </v>
   <v>       0.00122125 </v>
   <v>       0.00488500 </v>
   <v>       0.00488500 </v>
   <v>       0.00488500 </v>
   <v>       0.00488500 </v>
   <v>       0.00977000 </v>
   <v>       0.00488500 </v>
   <v>       0.00488500 </v>
   <v>       0.00122125 </v>
   <v>       0.00488500 </v>
   <v>       0.00488500 </v>
   <v>       0.00488500 </v>
   <v>       0.00488500 </v>
   <v>       0.00122125 </v>
   <v>       0.00488500 </v>
   <v>       0.00162833 </v>
   <v>       0.00122125 </v>
  </varray>
 </kpoints>
 <parameters>
  <separator name="general" >
   <i type="string" name="SYSTEM">unknown system</i>
   <i type="logical" name="LCOMPAT"> F  </i>
  </separator>
  <separator name="electronic" >
   <i type="string" name="PREC">accura</i>
   <i name="ENMAX">    350.00000000</i>
   <i name="ENAUG">    322.06900000</i>
   <i name="EDIFF">      0.00000100</i>
   <i type="int" name="IALGO">    38</i>
   <i type="int" name="IWAVPR">    11</i>
   <i type="int" name="NBANDS">     8</i>
   <i type="int" name="NBANDSLOW">    -1</i>
   <i type="int" name="NBANDSHIGH">    -1</i>
   <i name="NELECT">      4.00000000</i>
   <i type="int" name="TURBO">     0</i>
   <i type="int" name="IRESTART">     0</i>
   <i type="int" name="NREBOOT">     0</i>
   <i type="int" name="NMIN">     0</i>
   <i name="EREF">      0.00000000</i>
   <separator name="electronic smearing" >
    <i type="int" name="ISMEAR">     0</i>
    <i name="SIGMA">      0.05000000</i>
    <i name="KSPACING">      0.50000000</i>
    <i type="logical" name="KGAMMA"> T  </i>
    <i type="logical" name="KBLOWUP"> T  </i>
   </separator>
   <separator name="electronic projectors" >
    <i type="logical" name="LREAL"> F  </i>
    <v name="ROPT">      0.00000000</v>
    <i type="int" name="LMAXPAW">  -100</i>
    <i type="int" name="LMAXMIX">     2</i>
    <i type="logical" name="NLSPLINE"> F  </i>
   </separator>
   <separator name="electronic startup" >
    <i type="int" name="ISTART">     0</i>
    <i type="int" name="ICHARG">     2</i>
    <i type="int" name="INIWAV">     1</i>
   </separator>
   <separator name="electronic spin" >
    <i type="int" name="ISPIN">     1</i>
    <i type="logical" name="LNONCOLLINEAR"> F  </i>
    <v name="MAGMOM">      1.00000000</v>
    <i name="NUPDOWN">     -1.00000000</i>
    <i type="logical" name="LSORBIT"> F  </i>
    <v name="SAXIS">      0.00000000      0.00000000      1.00000000</v>
    <i type="logical" name="LSPIRAL"> F  </i>
    <v name="QSPIRAL">      0.00000000      0.00000000      0.00000000</v>
    <i type="logical" name="LZEROZ"> F  </i>
   </separator>
   <separator name="electronic exchange-correlation" >
    <i type="logical" name="LASPH"> T  </i>
    <i type="logical" name="LMETAGGA"> F  </i>
   </separator>
   <separator name="electronic convergence" >
    <i type="int" name="NELM">    90</i>
    <i type="int" name="NELMDL">    -5</i>
    <i type="int" name="NELMIN">     6</i>
    <i name="ENINI">    350.00000000</i>
    <separator name="electronic convergence detail" >
     <i type="logical" name="LDIAG"> T  </i>
     <i type="logical" name="LSUBROT"> F  </i>
     <i name="WEIMIN">      0.00100000</i>
     <i name="EBREAK">      0.00000003</i>
     <i name="DEPER">      0.30000000</i>
     <i type="int" name="NRMM">     4</i>
     <i name="TIME">      0.40000000</i>
    </separator>
   </separator>
   <separator name="electronic mixer" >
    <i name="AMIX">      0.40000000</i>
    <i name="BMIX">      1.00000000</i>
    <i name="AMIN">      0.10000000</i>
    <i name="AMIX_MAG">      1.60000000</i>
    <i name="BMIX_MAG">      1.00000000</i>
    <separator name="electronic mixer details" >
     <i type="int" name="IMIX">     4</i>
     <i type="logical" name="MIXFIRST"> F  </i>
     <i type="int" name="MAXMIX">   -45</i>
     <i name="WC">    100.00000000</i>
     <i type="int" name="INIMIX">     1</i>
     <i type="int" name="MIXPRE">     1</i>
     <i type="int" name="MREMOVE">     5</i>
    </separator>
   </separator>
   <separator name="electronic dipolcorrection" >
    <i type="logical" name="LDIPOL"> F  </i>
    <i type="logical" name="LMONO"> F  </i>
    <i type="int" name="IDIPOL">     0</i>
    <i name="EPSILON">      1.00000000</i>
    <v name="DIPOL">   -100.00000000   -100.00000000   -100.00000000</v>
    <i name="EFIELD">      0.00000000</i>
   </separator>
  </separator>
  <separator name="grids" >
   <i type="int" name="NGX">    16</i>
   <i type="int" name="NGY">    16</i>
   <i type="int" name="NGZ">    16</i>
   <i type="int" name="NGXF">    32</i>
   <i type="int" name="NGYF">    32</i>
   <i type="int" name="NGZF">    32</i>
   <i type="logical" name="ADDGRID"> T  </i>
  </separator>
  <separator name="ionic" >
   <i type="int" name="NSW">   100</i>
   <i type="int" name="IBRION">     2</i>
   <i type="int" name="MDALGO">     0</i>
   <i type="int" name="ISIF">     3</i>
   <i name="PSTRESS">      0.00000000</i>
   <i name="EDIFFG">     -0.00200000</i>
   <i type="int" name="NFREE">     1</i>
   <i name="POTIM">      0.50000000</i>
   <i name="SMASS">     -3.00000000</i>
   <i name="SCALEE">      1.00000000</i>
  </separator>
  <separator name="ionic md" >
   <i name="TEBEG">      0.00010000</i>
   <i name="TEEND">      0.00010000</i>
   <i type="int" name="NBLOCK">     1</i>
   <i type="int" name="KBLOCK">   100</i>
   <i type="int" name="NPACO">   256</i>
   <i name="APACO">     16.00000000</i>
  </separator>
  <separator name="symmetry" >
   <i type="int" name="ISYM">     2</i>
   <i name="SYMPREC">      0.00001000</i>
  </separator>
  <separator name="dos" >
   <i type="int" name="LORBIT">     0</i>
   <v name="RWIGS">     -1.00000000</v>
   <i type="int" name="NEDOS">   301</i>
   <i name="EMIN">     10.00000000</i>
   <i name="EMAX">    -10.00000000</i>
   <i name="EFERMI">      0.00000000</i>
  </separator>
  <separator name="writing" >
   <i type="int" name="NWRITE">     2</i>
   <i type="logical" name="LWAVE"> F  </i>
   <i type="logical" name="LDOWNSAMPLE"> F  </i>
   <i type="logical" name="LCHARG"> F  </i>
   <i type="logical" name="LPARD"> F  </i>
   <i type="logical" name="LVTOT"> F  </i>
   <i type="logical" name="LVHAR"> F  </i>
   <i type="logical" name="LELF"> F  </i>
   <i type="logical" name="LOPTICS"> F  </i>
   <v name="STM">      0.00000000      0.00000000      0.00000000      0.00000000      0.00000000      0.00000000      0.00000000</v>
  </separator>
  <separator name="performance" >
   <i type="int" name="NPAR">     4</i>
   <i type="int" name="NSIM">     4</i>
   <i type="int" name="NBLK">    -1</i>
   <i type="logical" name="LPLANE"> T  </i>
   <i type="logical" name="LSCALAPACK"> T  </i>
   <i type="logical" name="LSCAAWARE"> F  </i>
   <i type="logical" name="LSCALU"> F  </i>
   <i type="logical" name="LASYNC"> F  </i>
   <i type="logical" name="LORBITALREAL"> F  </i>
  </separator>
  <separator name="miscellaneous" >
   <i type="int" name="IDIOT">     3</i>
   <i type="int" name="PHON_NSTRUCT">    -1</i>
   <i type="logical" name="LMUSIC"> F  </i>
   <v name="POMASS">     28.08500000</v>
   <v name="DARWINR">      0.00000000</v>
   <v name="DARWINV">      1.00000000</v>
   <i type="logical" name="LCORR"> T  </i>
  </separator>
  <i type="logical" name="GGA_COMPAT"> T  </i>
  <i type="logical" name="LBERRY"> F  </i>
  <i type="int" name="ICORELEVEL">     0</i>
  <i type="logical" name="LDAU"> F  </i>
  <i type="int" name="I_CONSTRAINED_M">     0</i>
  <separator name="electronic exchange-correlation" >
   <i type="string" name="GGA">--</i>
   <i type="int" name="VOSKOWN">     0</i>
   <i type="logical" name="LHFCALC"> F  </i>
   <i type="string" name="PRECFOCK"></i>
   <i type="logical" name="LSYMGRAD"> F  </i>
   <i type="logical" name="LHFONE"> F  </i>
   <i type="logical" name="LRHFCALC"> F  </i>
   <i type="logical" name="LTHOMAS"> F  </i>
   <i type="logical" name="LMODELHF"> F  </i>
   <i type="logical" name="LFOCKACE"> F  </i>
   <i name="ENCUT4O">     -1.00000000</i>
   <i type="int" name="EXXOEP">     0</i>
   <i type="int" name="FOURORBIT">     0</i>
   <i name="AEXX">      0.00000000</i>
   <i name="HFALPHA">      0.00000000</i>
   <i name="MCALPHA">      0.00000000</i>
   <i name="ALDAX">      1.00000000</i>
   <i name="AGGAX">      1.00000000</i>
   <i name="ALDAC">      1.00000000</i>
   <i name="AGGAC">      1.00000000</i>
   <i type="int" name="NKREDX">     1</i>
   <i type="int" name="NKREDY">     1</i>
   <i type="int" name="NKREDZ">     1</i>
   <i type="logical" name="SHIFTRED"> F  </i>
   <i type="logical" name="ODDONLY"> F  </i>
   <i type="logical" name="EVENONLY"> F  </i>
   <i type="int" name="LMAXFOCK">     0</i>
   <i type="int" name="NMAXFOCKAE">     0</i>
   <i type="logical" name="LFOCKAEDFT"> F  </i>
   <i name="HFSCREEN">      0.00000000</i>
   <i name="HFSCREENC">      0.00000000</i>
   <i type="int" name="NBANDSGWLOW">     0</i>
  </separator>
  <separator name="vdW DFT" >
   <i type="logical" name="LUSE_VDW"> F  </i>
   <i name="Zab_VDW">     -0.84910000</i>
   <i name="PARAM1">      0.12340000</i>
   <i name="PARAM2">      1.00000000</i>
   <i name="PARAM3">      0.00000000</i>
  </separator>
  <separator name="model GW" >
   <i type="int" name="MODEL_GW">     0</i>
   <i name="MODEL_EPS0">      8.31779867</i>
   <i name="MODEL_ALPHA">      1.00000000</i>
  </separator>
  <separator name="linear response parameters" >
   <i type="logical" name="LEPSILON"> F  </i>
   <i type="logical" name="LRPA"> F  </i>
   <i type="logical" name="LNABLA"> F  </i>
   <i type="logical" name="LVEL"> F  </i>
   <i type="int" name="KINTER">     0</i>
   <i name="CSHIFT">      0.10000000</i>
   <i name="OMEGAMAX">     -1.00000000</i>
   <i name="DEG_THRESHOLD">      0.00200000</i>
   <i name="RTIME">     -0.10000000</i>
   <i name="WPLASMAI">      0.00000000</i>
   <v name="DFIELD">      0.00000000      0.00000000      0.00000000</v>
   <v name="WPLASMA">      0.00000000      0.00000000      0.00000000      0.00000000      0.00000000      0.00000000      0.00000000      0.00000000      0.00000000</v>
  </separator>
  <separator name="orbital magnetization" >
   <i type="logical" name="NUCIND"> F  </i>
   <v name="MAGPOS">      0.00000000      0.00000000      0.00000000</v>
   <i type="logical" name="LNICSALL"> T  </i>
   <i type="logical" name="ORBITALMAG"> F  </i>
   <i type="logical" name="LMAGBLOCH"> F  </i>
   <i type="logical" name="LCHIMAG"> F  </i>
   <i type="logical" name="LGAUGE"> T  </i>
   <i type="int" name="MAGATOM">     0</i>
   <v name="MAGDIPOL">      0.00000000      0.00000000      0.00000000</v>
   <v name="AVECCONST">      0.00000000      0.00000000      0.00000000</v>
  </separator>
  <separator name="response functions" >
   <i type="logical" name="LFINITE_TEMPERATURE"> F  </i>
   <i type="logical" name="LADDER"> F  </i>
   <i type="logical" name="LRPAFORCE"> F  </i>
   <i type="logical" name="LFXC"> F  </i>
   <i type="logical" name="LHARTREE"> T  </i>
   <i type="int" name="IBSE">     0</i>
   <v type="int" name="KPOINT">    -1     0     0     0</v>
   <i type="logical" name="LTCTC"> F  </i>
   <i type="logical" name="LTCTE"> F  </i>
   <i type="logical" name="LTETE"> F  </i>
   <i type="logical" name="LTRIPLET"> F  </i>
   <i type="logical" name="LFXCEPS"> F  </i>
   <i type="logical" name="LFXHEG"> F  </i>
   <i type="int" name="NATURALO">     2</i>
   <i type="logical" name="LHOLEGF"> F  </i>
   <i type="logical" name="L2ORDER"> F  </i>
   <i type="logical" name="LDMP1"> F  </i>
   <i type="logical" name="LMP2LT"> F  </i>
   <i type="logical" name="LSMP2LT"> F  </i>
   <i type="logical" name="LGWLF"> F  </i>
   <i name="ENCUTGW">     -2.00000000</i>
   <i name="ENCUTGWSOFT">     -2.00000000</i>
   <i name="ENCUTLF">     -1.00000000</i>
   <i type="logical" name="LESF_SPLINES"> F  </i>
   <i type="int" name="LMAXMP2">    -1</i>
   <i name="SCISSOR">      0.00000000</i>
   <i type="int" name="NOMEGA">     0</i>
   <i type="int" name="NOMEGAR">     0</i>
   <i type="int" name="NBANDSGW">    -1</i>
   <i type="int" name="NBANDSO">    -1</i>
   <i type="int" name="NBANDSV">    -1</i>
   <i type="int" name="NELM">    90</i>
   <i type="int" name="NELMHF">     1</i>
   <i type="int" name="DIM">     3</i>
   <i type="int" name="IESPILON">     4</i>
   <i type="int" name="ANTIRES">     0</i>
   <i name="OMEGAMAX">    -30.00000000</i>
   <i name="OMEGAMIN">    -30.00000000</i>
   <i name="OMEGATL">   -200.00000000</i>
   <i type="int" name="OMEGAGRID">     0</i>
   <i name="CSHIFT">     -0.10000000</i>
   <i type="logical" name="LSELFENERGY"> F  </i>
   <i type="logical" name="LSPECTRAL"> F  </i>
   <i type="logical" name="LSPECTRALGW"> F  </i>
   <i type="logical" name="LSINGLES"> F  </i>
   <i type="logical" name="LFERMIGW"> F  </i>
   <i type="logical" name="ODDONLYGW"> F  </i>
   <i type="logical" name="EVENONLYGW"> F  </i>
   <i type="int" name="NKREDLFX">     1</i>
   <i type="int" name="NKREDLFY">     1</i>
   <i type="int" name="NKREDLFZ">     1</i>
   <i type="int" name="MAXMEM">  2800</i>
   <i type="int" name="TELESCOPE">     0</i>
   <i type="int" name="NTAUPAR">    -1</i>
   <i type="int" name="NOMEGAPAR">    -1</i>
   <i name="DAMP_NEWTON">      0.80000001</i>
   <i name="LAMBDA">      1.00000000</i>
  </separator>
  <separator name="External order field" >
   <i name="OFIELD_KAPPA">      0.00000000</i>
   <v name="OFIELD_K">      0.00000000      0.00000000      0.00000000</v>
   <i name="OFIELD_Q6_NEAR">      0.00000000</i>
   <i name="OFIELD_Q6_FAR">      0.00000000</i>
   <i name="OFIELD_A">      0.00000000</i>
  </separator>
 </parameters>
 <atominfo>
  <atoms>       1 </atoms>
  <types>       1 </types>
  <array name="atoms" >
   <dimension dim="1">ion</dimension>
   <field type="string">element</field>
   <field type="int">atomtype</field>
   <set>
    <rc><c>Si</c><c>   1</c></rc>
   </set>
  </array>
  <array name="atomtypes" >
   <dimension dim="1">type</dimension>
   <field type="int">atomspertype</field>
   <field type="string">element</field>
   <field>mass</field>
   <field>valence</field>
   <field type="string">pseudopotential</field>
   <set>
    <rc><c>   1</c><c>Si</c><c>     28.08500000</c><c>      4.00000000</c><c>  PAW_PBE Si 05Jan2001                  </c></rc>
   </set>
  </array>
 </atominfo>
 <structure name="initialpos" >
  <crystal>
   <varray name="basis" >
    <v>       1.51332563       1.51332563       1.51332563 </v>
    <v>       1.51332563      -1.51332563      -1.51332563 </v>
    <v>      -1.51332563       1.51332563      -1.51332563 </v>
   </varray>
   <i name="volume">     13.86299778 </i>
   <varray name="rec_basis" >
    <v>       0.33039816       0.33039816       0.00000000 </v>
    <v>       0.33039816       0.00000000      -0.33039816 </v>
    <v>       0.00000000       0.33039816      -0.33039816 </v>
   </varray>
  </crystal>
  <varray name="positions" >
   <v>       0.00000000       0.00000000       0.00000000 </v>
  </varray>
 </structure>
 <calculation>
  <scstep>
   <time name="dav">    0.51    0.51</time>
   <time name="total">    0.68    0.69</time>
   <energy>
    <i name="alphaZ">      2.42827211 </i>
    <i name="ewald">   -138.51397499 </i>
    <i name="hartreedc">     -0.48179554 </i>
    <i name="XCdc">     -8.69332224 </i>
    <i name="pawpsdc">     88.12379961 </i>
    <i name="pawaedc">    -70.53051779 </i>
    <i name="eentropy">     -0.00104761 </i>
    <i name="bandstr">     21.21947754 </i>
    <i name="atom">    103.06562707 </i>
    <i name="e_fr_energy">     -3.38348184 </i>
    <i name="e_wo_entrp">     -3.38243423 </i>
    <i name="e_0_energy">     -3.38295803 </i>
   </energy>
  </scstep>
  <scstep>
   <time name="dav">    0.71    0.72</time>
   <time name="total">    0.71    0.73</time>
   <energy>
    <i name="e_fr_energy">     -4.89929497 </i>
    <i name="e_wo_entrp">     -4.89838501 </i>
    <i name="e_0_energy">     -4.89883999 </i>
   </energy>
  </scstep>
  <scstep>
   <time name="dav">    0.49    0.50</time>
   <time name="total">    0.49    0.50</time>
   <energy>
    <i name="e_fr_energy">     -4.90448573 </i>
    <i name="e_wo_entrp">     -4.90359968 </i>
    <i name="e_0_energy">     -4.90404270 </i>
   </energy>
  </scstep>
  <scstep>
   <time name="dav">    0.76    0.77</time>
   <time name="total">    0.76    0.77</time>
   <energy>
    <i name="e_fr_energy">     -4.90448924 </i>
    <i name="e_wo_entrp">     -4.90360322 </i>
    <i name="e_0_energy">     -4.90404623 </i>
   </energy>
  </scstep>
  <scstep>
   <time name="dav">    0.50    0.50</time>
   <time name="total">    0.52    0.53</time>
   <energy>
    <i name="e_fr_energy">     -4.90448924 </i>
    <i name="e_wo_entrp">     -4.90360322 </i>
    <i name="e_0_energy">     -4.90404623 </i>
   </energy>
  </scstep>
  <scstep>
   <time name="dav">    0.45    0.46</time>
   <time name="total">    0.65    0.67</time>
   <energy>
    <i name="e_fr_energy">     -4.89301467 </i>
    <i name="e_wo_entrp">     -4.89215723 </i>
    <i name="e_0_energy">     -4.89258595 </i>
   </energy>
  </scstep>
  <scstep>
   <time name="dav">    0.48    0.48</time>
   <time name="total">    0.68    0.69</time>
   <energy>
    <i name="e_fr_energy">     -4.88646378 </i>
    <i name="e_wo_entrp">     -4.88564500 </i>
    <i name="e_0_energy">     -4.88605439 </i>
   </energy>
  </scstep>
  <scstep>
   <time name="dav">    0.67    0.67</time>
   <time name="total">    0.86    0.88</time>
   <energy>
    <i name="e_fr_energy">     -4.88644253 </i>
    <i name="e_wo_entrp">     -4.88562475 </i>
    <i name="e_0_energy">     -4.88603364 </i>
   </energy>
  </scstep>
  <scstep>
   <time name="dav">    0.50    0.50</time>
   <time name="total">    0.68    0.69</time>
   <energy>
    <i name="alphaZ">      2.42827211 </i>
    <i name="ewald">   -138.51397499 </i>
    <i name="hartreedc">     -0.35575418 </i>
    <i name="XCdc">     -8.62326053 </i>
    <i name="pawpsdc">    335.27991420 </i>
    <i name="pawaedc">   -317.71425776 </i>
    <i name="eentropy">     -0.00081753 </i>
    <i name="bandstr">     19.54780856 </i>
    <i name="atom">    103.06562707 </i>
    <i name="e_fr_energy">     -4.88644306 </i>
    <i name="e_wo_entrp">     -4.88562553 </i>
    <i name="e_0_energy">     -4.88603430 </i>
   </energy>
  </scstep>
  <structure>
   <crystal>
    <varray name="basis" >
     <v>       1.51332563       1.51332563       1.51332563 </v>
     <v>       1.51332563      -1.51332563      -1.51332563 </v>
     <v>      -1.51332563       1.51332563      -1.51332563 </v>
    </varray>
    <i name="volume">     13.86299778 </i>
    <varray name="rec_basis" >
     <v>       0.33039816       0.33039816       0.00000000 </v>
     <v>       0.33039816       0.00000000      -0.33039816 </v>
     <v>       0.00000000       0.33039816      -0.33039816 </v>
    </varray>
   </crystal>
   <varray name="positions" >
    <v>       0.00000000       0.00000000       0.00000000 </v>
   </varray>
  </structure>
  <varray name="forces" >
   <v>      -0.00000000       0.00000000      -0.00000000 </v>
  </varray>
  <varray name="stress" >
   <v>      57.33079537      -0.00000000       0.00000000 </v>
   <v>       0.00000000      57.33079537       0.00000000 </v>
   <v>      -0.00000000       0.00000000      57.33079537 </v>
  </varray>
  <energy>
   <i name="e_fr_energy">     -4.88644306 </i>
   <i name="e_wo_entrp">     -4.88562553 </i>
   <i name="e_0_energy">     -4.88603430 </i>
  </energy>
  <time name="totalsc">    6.99    7.26</time>
 </calculation>
 <calculation>
  <scstep>
   <time name="dav">    0.45    0.45</time>
   <time name="total">    0.65    0.65</time>
   <energy>
    <i name="alphaZ">      2.26196007 </i>
    <i name="ewald">   -135.27663347 </i>
    <i name="hartreedc">     -0.34742167 </i>
    <i name="XCdc">     -8.80901317 </i>
    <i name="pawpsdc">    335.34238103 </i>
    <i name="pawaedc">   -317.77637550 </i>
    <i name="eentropy">     -0.00069431 </i>
    <i name="bandstr">     16.63312678 </i>
    <i name="atom">    103.06562707 </i>
    <i name="e_fr_energy">     -4.90704316 </i>
    <i name="e_wo_entrp">     -4.90634885 </i>
    <i name="e_0_energy">     -4.90669601 </i>
   </energy>
  </scstep>
  <scstep>
   <time name="dav">    0.50    0.51</time>
   <time name="total">    0.70    0.71</time>
   <energy>
    <i name="e_fr_energy">     -4.90150941 </i>
    <i name="e_wo_entrp">     -4.90082682 </i>
    <i name="e_0_energy">     -4.90116811 </i>
   </energy>
  </scstep>
  <scstep>
   <time name="dav">    0.48    0.48</time>
   <time name="total">    0.68    0.69</time>
   <energy>
    <i name="e_fr_energy">     -4.89824587 </i>
    <i name="e_wo_entrp">     -4.89757615 </i>
    <i name="e_0_energy">     -4.89791101 </i>
   </energy>
  </scstep>
  <scstep>
   <time name="dav">    0.60    0.60</time>
   <time name="total">    0.80    0.81</time>
   <energy>
    <i name="e_fr_energy">     -4.89824265 </i>
    <i name="e_wo_entrp">     -4.89757289 </i>
    <i name="e_0_energy">     -4.89790777 </i>
   </energy>
  </scstep>
  <scstep>
   <time name="dav">    0.60    0.60</time>
   <time name="total">    0.79    0.80</time>
   <energy>
    <i name="e_fr_energy">     -4.89823043 </i>
    <i name="e_wo_entrp">     -4.89756073 </i>
    <i name="e_0_energy">     -4.89789558 </i>
   </energy>
  </scstep>
  <scstep>
   <time name="dav">    0.27    0.28</time>
   <time name="total">    0.45    0.46</time>
   <energy>
    <i name="alphaZ">      2.26196007 </i>
    <i name="ewald">   -135.27663347 </i>
    <i name="hartreedc">     -0.45838101 </i>
    <i name="XCdc">     -8.83123795 </i>
    <i name="pawpsdc">    287.79798920 </i>
    <i name="pawaedc">   -270.21624101 </i>
    <i name="eentropy">     -0.00066971 </i>
    <i name="bandstr">     16.75935596 </i>
    <i name="atom">    103.06562707 </i>
    <i name="e_fr_energy">     -4.89823084 </i>
    <i name="e_wo_entrp">     -4.89756113 </i>
    <i name="e_0_energy">     -4.89789598 </i>
   </energy>
  </scstep>
  <structure>
   <crystal>
    <varray name="basis" >
     <v>       1.54954143       1.54954143       1.54954143 </v>
     <v>       1.54954143      -1.54954143      -1.54954143 </v>
     <v>      -1.54954143       1.54954143      -1.54954143 </v>
    </varray>
    <i name="volume">     14.88228342 </i>
    <varray name="rec_basis" >
     <v>       0.32267611       0.32267611       0.00000000 </v>
     <v>       0.32267611       0.00000000      -0.32267611 </v>
     <v>       0.00000000       0.32267611      -0.32267611 </v>
    </varray>
   </crystal>
   <varray name="positions" >
    <v>      -0.00000000      -0.00000000       0.00000000 </v>
   </varray>
  </structure>
  <varray name="forces" >
   <v>       0.00000000       0.00000000       0.00000000 </v>
  </varray>
  <varray name="stress" >
   <v>     -16.09780953      -0.00000000       0.00000000 </v>
   <v>       0.00000000     -16.09780953       0.00000000 </v>
   <v>      -0.00000000       0.00000000     -16.09780953 </v>
  </varray>
  <energy>
   <i name="e_fr_energy">     -4.89823084 </i>
   <i name="e_wo_entrp">     -4.89756113 </i>
   <i name="e_0_energy">     -4.89789598 </i>
  </energy>
  <time name="totalsc">    4.99    5.22</time>
 </calculation>
 <calculation>
  <scstep>
   <time name="dav">    0.44    0.44</time>
   <time name="total">    0.64    0.65</time>
   <energy>
    <i name="alphaZ">      2.30164255 </i>
    <i name="ewald">   -136.06312303 </i>
    <i name="hartreedc">     -0.46103365 </i>
    <i name="XCdc">     -8.78691345 </i>
    <i name="pawpsdc">    287.55693949 </i>
    <i name="pawaedc">   -269.97520758 </i>
    <i name="eentropy">     -0.00064750 </i>
    <i name="bandstr">     17.46263355 </i>
    <i name="atom">    103.06562707 </i>
    <i name="e_fr_energy">     -4.90008255 </i>
    <i name="e_wo_entrp">     -4.89943505 </i>
    <i name="e_0_energy">     -4.89975880 </i>
   </energy>
  </scstep>
  <scstep>
   <time name="dav">    0.50    0.51</time>
   <time name="total">    0.70    0.71</time>
   <energy>
    <i name="e_fr_energy">     -4.89973727 </i>
    <i name="e_wo_entrp">     -4.89909063 </i>
    <i name="e_0_energy">     -4.89941395 </i>
   </energy>
  </scstep>
  <scstep>
   <time name="dav">    0.48    0.48</time>
   <time name="total">    0.68    0.69</time>
   <energy>
    <i name="e_fr_energy">     -4.89953669 </i>
    <i name="e_wo_entrp">     -4.89889104 </i>
    <i name="e_0_energy">     -4.89921386 </i>
   </energy>
  </scstep>
  <scstep>
   <time name="dav">    0.54    0.54</time>
   <time name="total">    0.73    0.74</time>
   <energy>
    <i name="e_fr_energy">     -4.89953675 </i>
    <i name="e_wo_entrp">     -4.89889109 </i>
    <i name="e_0_energy">     -4.89921392 </i>
   </energy>
  </scstep>
  <scstep>
   <time name="dav">    0.29    0.29</time>
   <time name="total">    0.49    0.50</time>
   <energy>
    <i name="e_fr_energy">     -4.89953750 </i>
    <i name="e_wo_entrp">     -4.89889180 </i>
    <i name="e_0_energy">     -4.89921465 </i>
   </energy>
  </scstep>
  <scstep>
   <time name="dav">    0.26    0.26</time>
   <time name="total">    0.43    0.44</time>
   <energy>
    <i name="alphaZ">      2.30164255 </i>
    <i name="ewald">   -136.06312303 </i>
    <i name="hartreedc">     -0.43048757 </i>
    <i name="XCdc">     -8.78113403 </i>
    <i name="pawpsdc">    298.09384065 </i>
    <i name="pawaedc">   -280.51576874 </i>
    <i name="eentropy">     -0.00064569 </i>
    <i name="bandstr">     17.43051145 </i>
    <i name="atom">    103.06562707 </i>
    <i name="e_fr_energy">     -4.89953734 </i>
    <i name="e_wo_entrp">     -4.89889165 </i>
    <i name="e_0_energy">     -4.89921449 </i>
   </energy>
  </scstep>
  <structure>
   <crystal>
    <varray name="basis" >
     <v>       1.54058457       1.54058457       1.54058457 </v>
     <v>       1.54058457      -1.54058457      -1.54058457 </v>
     <v>      -1.54058457       1.54058457      -1.54058457 </v>
    </varray>
    <i name="volume">     14.62569883 </i>
    <varray name="rec_basis" >
     <v>       0.32455213       0.32455213       0.00000000 </v>
     <v>       0.32455213       0.00000000      -0.32455213 </v>
     <v>       0.00000000       0.32455213      -0.32455213 </v>
    </varray>
   </crystal>
   <varray name="positions" >
    <v>      -0.00000000      -0.00000000       0.00000000 </v>
   </varray>
  </structure>
  <varray name="forces" >
   <v>      -0.00000000      -0.00000000       0.00000000 </v>
  </varray>
  <varray name="stress" >
   <v>       0.09430353       0.00000000      -0.00000000 </v>
   <v>      -0.00000000       0.09430353       0.00000000 </v>
   <v>      -0.00000000       0.00000000       0.09430353 </v>
  </varray>
  <energy>
   <i name="e_fr_energy">     -4.89953734 </i>
   <i name="e_wo_entrp">     -4.89889165 </i>
   <i name="e_0_energy">     -4.89921449 </i>
  </energy>
  <time name="totalsc">    4.53    4.75</time>
  <eigenvalues>
   <array>
    <dimension dim="1">band</dimension>
    <dimension dim="2">kpoint</dimension>
    <dimension dim="3">spin</dimension>
    <field>eigene</field>
    <field>occ</field>
    <set>
     <set comment="spin 1">
      <set comment="kpoint 1">
       <r>   -4.3153    1.0000 </r>
       <r>   21.2951    0.0000 </r>
       <r>   21.2951    0.0000 </r>
       <r>   21.2951    0.0000 </r>
       <r>   22.4719    0.0000 </r>
       <r>   22.4719    0.0000 </r>
       <r>   22.4719    0.0000 </r>
       <r>   26.1501    0.0000 </r>
      </set>
      <set comment="kpoint 2">
       <r>   -4.2094    1.0000 </r>
       <r>   19.9629    0.0000 </r>
       <r>   20.3349    0.0000 </r>
       <r>   21.1451    0.0000 </r>
       <r>   22.1153    0.0000 </r>
       <r>   23.1469    0.0000 </r>
       <r>   23.6084    0.0000 </r>
       <r>   25.3630    0.0000 </r>
      </set>
      <set comment="kpoint 3">
       <r>   -3.8918    1.0000 </r>
       <r>   17.7268    0.0000 </r>
       <r>   19.1274    0.0000 </r>
       <r>   20.7288    0.0000 </r>
       <r>   21.2929    0.0000 </r>
       <r>   23.1738    0.0000 </r>
       <r>   25.0396    0.0000 </r>
       <r>   25.3399    0.0000 </r>
      </set>
      <set comment="kpoint 4">
       <r>   -3.3636    1.0000 </r>
       <r>   15.2563    0.0000 </r>
       <r>   18.0686    0.0000 </r>
       <r>   20.1486    0.0000 </r>
       <r>   20.3530    0.0000 </r>
       <r>   22.3754    0.0000 </r>
       <r>   25.6985    0.0000 </r>
       <r>   26.0722    0.0000 </r>
      </set>
      <set comment="kpoint 5">
       <r>   -2.6265    1.0000 </r>
       <r>   12.7731    0.0000 </r>
       <r>   17.1807    0.0000 </r>
       <r>   19.4705    0.0000 </r>
       <r>   19.5294    0.0000 </r>
       <r>   21.5622    0.0000 </r>
       <r>   26.5068    0.0000 </r>
       <r>   26.5885    0.0000 </r>
      </set>
      <set comment="kpoint 6">
       <r>   -1.6826    1.0000 </r>
       <r>   10.3806    0.0000 </r>
       <r>   16.4699    0.0000 </r>
       <r>   18.7256    0.0000 </r>
       <r>   18.9651    0.0000 </r>
       <r>   20.8769    0.0000 </r>
       <r>   27.1860    0.0000 </r>
       <r>   27.6073    0.0000 </r>
      </set>
      <set comment="kpoint 7">
       <r>   -0.5352    1.0000 </r>
       <r>    8.1236    1.0000 </r>
       <r>   15.9366    0.0000 </r>
       <r>   18.1488    0.0000 </r>
       <r>   18.5108    0.0000 </r>
       <r>   20.3434    0.0000 </r>
       <r>   28.0620    0.0000 </r>
       <r>   28.7084    0.0000 </r>
      </set>
      <set comment="kpoint 8">
       <r>    0.8110    1.0000 </r>
       <r>    6.0304    1.0000 </r>
       <r>   15.5811    0.0000 </r>
       <r>   17.7578    0.0000 </r>
       <r>   18.1956    0.0000 </r>
       <r>   19.9796    0.0000 </r>
       <r>   29.0704    0.0000 </r>
       <r>   29.8194    0.0000 </r>
      </set>
      <set comment="kpoint 9">
       <r>    2.3413    1.0000 </r>
       <r>    4.1244    1.0000 </r>
       <r>   15.4035    0.0000 </r>
       <r>   17.5608    0.0000 </r>
       <r>   18.0349    0.0000 </r>
       <r>   19.7952    0.0000 </r>
       <r>   29.9964    0.0000 </r>
       <r>   30.6688    0.0000 </r>
      </set>
      <set comment="kpoint 10">
       <r>   -3.9976    1.0000 </r>
       <r>   18.6387    0.0000 </r>
       <r>   19.1707    0.0000 </r>
       <r>   20.3211    0.0000 </r>
       <r>   22.2193    0.0000 </r>
       <r>   23.4420    0.0000 </r>
       <r>   24.6036    0.0000 </r>
       <r>   24.7164    0.0000 </r>
      </set>
      <set comment="kpoint 11">
       <r>   -3.5747    1.0000 </r>
       <r>   16.5236    0.0000 </r>
       <r>   17.8451    0.0000 </r>
       <r>   19.4961    0.0000 </r>
       <r>   21.7937    0.0000 </r>
       <r>   23.2087    0.0000 </r>
       <r>   24.6883    0.0000 </r>
       <r>   26.0289    0.0000 </r>
      </set>
      <set comment="kpoint 12">
       <r>   -2.9420    1.0000 </r>
       <r>   14.0676    0.0000 </r>
       <r>   16.8341    0.0000 </r>
       <r>   18.6716    0.0000 </r>
       <r>   21.1484    0.0000 </r>
       <r>   22.5488    0.0000 </r>
       <r>   25.1817    0.0000 </r>
       <r>   27.1515    0.0000 </r>
      </set>
      <set comment="kpoint 13">
       <r>   -2.1015    1.0000 </r>
       <r>   11.6312    0.0000 </r>
       <r>   16.0127    0.0000 </r>
       <r>   17.9259    0.0000 </r>
       <r>   20.4847    0.0000 </r>
       <r>   21.9433    0.0000 </r>
       <r>   25.8088    0.0000 </r>
       <r>   28.1116    0.0000 </r>
      </set>
      <set comment="kpoint 14">
       <r>   -1.0558    1.0000 </r>
       <r>    9.3062    1.0000 </r>
       <r>   15.3727    0.0000 </r>
       <r>   17.3153    0.0000 </r>
       <r>   19.9118    0.0000 </r>
       <r>   21.4304    0.0000 </r>
       <r>   26.6350    0.0000 </r>
       <r>   29.1117    0.0000 </r>
      </set>
      <set comment="kpoint 15">
       <r>    0.1913    1.0000 </r>
       <r>    7.1299    1.0000 </r>
       <r>   14.9144    0.0000 </r>
       <r>   16.8672    0.0000 </r>
       <r>   19.4819    0.0000 </r>
       <r>   21.0392    0.0000 </r>
       <r>   27.6467    0.0000 </r>
       <r>   30.0757    0.0000 </r>
      </set>
      <set comment="kpoint 16">
       <r>    1.6330    1.0000 </r>
       <r>    5.1266    1.0000 </r>
       <r>   14.6391    0.0000 </r>
       <r>   16.5947    0.0000 </r>
       <r>   19.2176    0.0000 </r>
       <r>   20.7971    0.0000 </r>
       <r>   28.7842    0.0000 </r>
       <r>   30.5778    0.0000 </r>
      </set>
      <set comment="kpoint 17">
       <r>    3.0855    1.0000 </r>
       <r>    3.4862    1.0000 </r>
       <r>   14.5472    0.0000 </r>
       <r>   16.5033    0.0000 </r>
       <r>   19.1285    0.0000 </r>
       <r>   20.7147    0.0000 </r>
       <r>   29.7583    0.0000 </r>
       <r>   30.1286    0.0000 </r>
      </set>
      <set comment="kpoint 18">
       <r>   -3.0473    1.0000 </r>
       <r>   15.2529    0.0000 </r>
       <r>   15.7537    0.0000 </r>
       <r>   18.5230    0.0000 </r>
       <r>   21.9338    0.0000 </r>
       <r>   23.1230    0.0000 </r>
       <r>   25.1129    0.0000 </r>
       <r>   26.4287    0.0000 </r>
      </set>
      <set comment="kpoint 19">
       <r>   -2.3113    1.0000 </r>
       <r>   13.0256    0.0000 </r>
       <r>   14.6122    0.0000 </r>
       <r>   17.7029    0.0000 </r>
       <r>   21.6181    0.0000 </r>
       <r>   22.9963    0.0000 </r>
       <r>   25.4457    0.0000 </r>
       <r>   27.5886    0.0000 </r>
      </set>
      <set comment="kpoint 20">
       <r>   -1.3689    1.0000 </r>
       <r>   10.6634    0.0000 </r>
       <r>   13.8454    0.0000 </r>
       <r>   17.0164    0.0000 </r>
       <r>   21.0799    0.0000 </r>
       <r>   23.0320    0.0000 </r>
       <r>   25.6748    0.0000 </r>
       <r>   29.0644    0.0000 </r>
      </set>
      <set comment="kpoint 21">
       <r>   -0.2232    1.0000 </r>
       <r>    8.4180    1.0000 </r>
       <r>   13.2744    0.0000 </r>
       <r>   16.4861    0.0000 </r>
       <r>   20.5962    0.0000 </r>
       <r>   22.9638    0.0000 </r>
       <r>   26.2691    0.0000 </r>
       <r>   30.1893    0.0000 </r>
      </set>
      <set comment="kpoint 22">
       <r>    1.1211    1.0000 </r>
       <r>    6.3301    1.0000 </r>
       <r>   12.8929    0.0000 </r>
       <r>   16.1267    0.0000 </r>
       <r>   20.2535    0.0000 </r>
       <r>   22.8344    0.0000 </r>
       <r>   27.2054    0.0000 </r>
       <r>   30.4418    0.0000 </r>
      </set>
      <set comment="kpoint 23">
       <r>    2.6496    1.0000 </r>
       <r>    4.4275    1.0000 </r>
       <r>   12.7021    0.0000 </r>
       <r>   15.9458    0.0000 </r>
       <r>   20.0784    0.0000 </r>
       <r>   22.7467    0.0000 </r>
       <r>   28.3493    0.0000 </r>
       <r>   29.6190    0.0000 </r>
      </set>
      <set comment="kpoint 24">
       <r>   -1.4733    1.0000 </r>
       <r>   12.0061    0.0000 </r>
       <r>   12.3916    0.0000 </r>
       <r>   16.9430    0.0000 </r>
       <r>   21.9465    0.0000 </r>
       <r>   22.8736    0.0000 </r>
       <r>   26.6347    0.0000 </r>
       <r>   27.7950    0.0000 </r>
      </set>
      <set comment="kpoint 25">
       <r>   -0.4307    1.0000 </r>
       <r>    9.8762    0.2714 </r>
       <r>   11.5434    0.0000 </r>
       <r>   16.3344    0.0000 </r>
       <r>   21.7626    0.0000 </r>
       <r>   23.2548    0.0000 </r>
       <r>   26.8729    0.0000 </r>
       <r>   29.0572    0.0000 </r>
      </set>
      <set comment="kpoint 26">
       <r>    0.8126    1.0000 </r>
       <r>    7.7218    1.0000 </r>
       <r>   11.0491    0.0000 </r>
       <r>   15.8896    0.0000 </r>
       <r>   21.4196    0.0000 </r>
       <r>   23.8986    0.0000 </r>
       <r>   26.8929    0.0000 </r>
       <r>   29.9093    0.0000 </r>
      </set>
      <set comment="kpoint 27">
       <r>    2.2502    1.0000 </r>
       <r>    5.7288    1.0000 </r>
       <r>   10.7552    0.0000 </r>
       <r>   15.6195    0.0000 </r>
       <r>   21.1834    0.0000 </r>
       <r>   24.3861    0.0000 </r>
       <r>   27.2501    0.0000 </r>
       <r>   29.4159    0.0000 </r>
      </set>
      <set comment="kpoint 28">
       <r>    3.7047    1.0000 </r>
       <r>    4.0881    1.0000 </r>
       <r>   10.6573    0.0000 </r>
       <r>   15.5288    0.0000 </r>
       <r>   21.1016    0.0000 </r>
       <r>   24.5478    0.0000 </r>
       <r>   27.7256    0.0000 </r>
       <r>   28.7594    0.0000 </r>
      </set>
      <set comment="kpoint 29">
       <r>    0.7096    1.0000 </r>
       <r>    9.1444    1.0000 </r>
       <r>    9.4662    1.0000 </r>
       <r>   15.8108    0.0000 </r>
       <r>   22.3810    0.0000 </r>
       <r>   23.2453    0.0000 </r>
       <r>   28.5555    0.0000 </r>
       <r>   28.5672    0.0000 </r>
      </set>
      <set comment="kpoint 30">
       <r>    2.0475    1.0000 </r>
       <r>    7.2184    1.0000 </r>
       <r>    8.9259    1.0000 </r>
       <r>   15.4551    0.0000 </r>
       <r>   22.3952    0.0000 </r>
       <r>   23.9915    0.0000 </r>
       <r>   27.7921    0.0000 </r>
       <r>   29.5587    0.0000 </r>
      </set>
      <set comment="kpoint 31">
       <r>    3.5693    1.0000 </r>
       <r>    5.3322    1.0000 </r>
       <r>    8.7218    1.0000 </r>
       <r>   15.2749    0.0000 </r>
       <r>   22.2874    0.0000 </r>
       <r>   24.9405    0.0000 </r>
       <r>   26.8929    0.0000 </r>
       <r>   29.6924    0.0000 </r>
      </set>
      <set comment="kpoint 32">
       <r>    3.4743    1.0000 </r>
       <r>    6.7832    1.0000 </r>
       <r>    7.0867    1.0000 </r>
       <r>   15.1890    0.0000 </r>
       <r>   23.2273    0.0000 </r>
       <r>   24.2098    0.0000 </r>
       <r>   26.7675    0.0000 </r>
       <r>   30.8628    0.0000 </r>
      </set>
      <set comment="kpoint 33">
       <r>    4.9162    1.0000 </r>
       <r>    5.2900    1.0000 </r>
       <r>    6.8545    1.0000 </r>
       <r>   15.0998    0.0000 </r>
       <r>   23.4037    0.0000 </r>
       <r>   24.9550    0.0000 </r>
       <r>   25.7318    0.0000 </r>
       <r>   31.5025    0.0000 </r>
      </set>
      <set comment="kpoint 34">
       <r>   -3.6804    1.0000 </r>
       <r>   17.3177    0.0000 </r>
       <r>   18.3271    0.0000 </r>
       <r>   18.3271    0.0000 </r>
       <r>   23.2276    0.0000 </r>
       <r>   23.2276    0.0000 </r>
       <r>   25.4441    0.0000 </r>
       <r>   25.4441    0.0000 </r>
      </set>
      <set comment="kpoint 35">
       <r>   -3.1527    1.0000 </r>
       <r>   15.3639    0.0000 </r>
       <r>   16.7167    0.0000 </r>
       <r>   17.3906    0.0000 </r>
       <r>   22.9178    0.0000 </r>
       <r>   23.6449    0.0000 </r>
       <r>   25.5285    0.0000 </r>
       <r>   26.0960    0.0000 </r>
      </set>
      <set comment="kpoint 36">
       <r>   -2.4163    1.0000 </r>
       <r>   12.9515    0.0000 </r>
       <r>   15.7282    0.0000 </r>
       <r>   16.5271    0.0000 </r>
       <r>   22.4914    0.0000 </r>
       <r>   23.1534    0.0000 </r>
       <r>   26.5027    0.0000 </r>
       <r>   26.6739    0.0000 </r>
      </set>
      <set comment="kpoint 37">
       <r>   -1.4734    1.0000 </r>
       <r>   10.5731    0.0000 </r>
       <r>   14.9783    0.0000 </r>
       <r>   15.8025    0.0000 </r>
       <r>   22.0313    0.0000 </r>
       <r>   22.5793    0.0000 </r>
       <r>   27.3757    0.0000 </r>
       <r>   27.6225    0.0000 </r>
      </set>
      <set comment="kpoint 38">
       <r>   -0.3271    1.0000 </r>
       <r>    8.3221    1.0000 </r>
       <r>   14.4211    0.0000 </r>
       <r>   15.2446    0.0000 </r>
       <r>   21.6271    0.0000 </r>
       <r>   22.1045    0.0000 </r>
       <r>   28.2437    0.0000 </r>
       <r>   28.7792    0.0000 </r>
      </set>
      <set comment="kpoint 39">
       <r>    1.0178    1.0000 </r>
       <r>    6.2313    1.0000 </r>
       <r>   14.0499    0.0000 </r>
       <r>   14.8676    0.0000 </r>
       <r>   21.3352    0.0000 </r>
       <r>   21.7735    0.0000 </r>
       <r>   29.2328    0.0000 </r>
       <r>   29.9137    0.0000 </r>
      </set>
      <set comment="kpoint 40">
       <r>    2.5471    1.0000 </r>
       <r>    4.3271    1.0000 </r>
       <r>   13.8643    0.0000 </r>
       <r>   14.6775    0.0000 </r>
       <r>   21.1829    0.0000 </r>
       <r>   21.6053    0.0000 </r>
       <r>   30.1237    0.0000 </r>
       <r>   30.7700    0.0000 </r>
      </set>
      <set comment="kpoint 41">
       <r>   -4.1035    1.0000 </r>
       <r>   19.5506    0.0000 </r>
       <r>   19.5506    0.0000 </r>
       <r>   20.4611    0.0000 </r>
       <r>   22.6757    0.0000 </r>
       <r>   23.6411    0.0000 </r>
       <r>   23.6411    0.0000 </r>
       <r>   24.0448    0.0000 </r>
      </set>
      <set comment="kpoint 42">
       <r>   -2.5214    1.0000 </r>
       <r>   14.1559    0.0000 </r>
       <r>   14.7301    0.0000 </r>
       <r>   16.1459    0.0000 </r>
       <r>   23.3934    0.0000 </r>
       <r>   24.2638    0.0000 </r>
       <r>   25.7400    0.0000 </r>
       <r>   26.7014    0.0000 </r>
      </set>
      <set comment="kpoint 43">
       <r>   -1.6825    1.0000 </r>
       <r>   11.9934    0.0000 </r>
       <r>   13.6332    0.0000 </r>
       <r>   15.3121    0.0000 </r>
       <r>   23.2957    0.0000 </r>
       <r>   24.2631    0.0000 </r>
       <r>   26.4263    0.0000 </r>
       <r>   27.6855    0.0000 </r>
      </set>
      <set comment="kpoint 44">
       <r>   -0.6389    1.0000 </r>
       <r>    9.6949    1.0000 </r>
       <r>   12.9496    0.0000 </r>
       <r>   14.6612    0.0000 </r>
       <r>   22.9626    0.0000 </r>
       <r>   24.0808    0.0000 </r>
       <r>   27.1727    0.0000 </r>
       <r>   28.9345    0.0000 </r>
      </set>
      <set comment="kpoint 45">
       <r>    0.6058    1.0000 </r>
       <r>    7.5284    1.0000 </r>
       <r>   12.4680    0.0000 </r>
       <r>   14.1920    0.0000 </r>
       <r>   22.6362    0.0000 </r>
       <r>   23.8778    0.0000 </r>
       <r>   28.0957    0.0000 </r>
       <r>   30.0766    0.0000 </r>
      </set>
      <set comment="kpoint 46">
       <r>    2.0450    1.0000 </r>
       <r>    5.5300    1.0000 </r>
       <r>   12.1796    0.0000 </r>
       <r>   13.9084    0.0000 </r>
       <r>   22.4180    0.0000 </r>
       <r>   23.7262    0.0000 </r>
       <r>   29.1522    0.0000 </r>
       <r>   30.7103    0.0000 </r>
      </set>
      <set comment="kpoint 47">
       <r>    3.4986    1.0000 </r>
       <r>    3.8892    1.0000 </r>
       <r>   12.0832    0.0000 </r>
       <r>   13.8134    0.0000 </r>
       <r>   22.3418    0.0000 </r>
       <r>   23.6710    0.0000 </r>
       <r>   29.9898    0.0000 </r>
       <r>   30.4579    0.0000 </r>
      </set>
      <set comment="kpoint 48">
       <r>   -3.7861    1.0000 </r>
       <r>   17.6997    0.0000 </r>
       <r>   18.3912    0.0000 </r>
       <r>   20.0017    0.0000 </r>
       <r>   22.1535    0.0000 </r>
       <r>   22.8301    0.0000 </r>
       <r>   24.1558    0.0000 </r>
       <r>   25.0330    0.0000 </r>
      </set>
      <set comment="kpoint 49">
       <r>   -0.7429    1.0000 </r>
       <r>   11.0591    0.0000 </r>
       <r>   11.4550    0.0000 </r>
       <r>   14.5530    0.0000 </r>
       <r>   23.7478    0.0000 </r>
       <r>   24.7408    0.0000 </r>
       <r>   27.2478    0.0000 </r>
       <r>   28.3031    0.0000 </r>
      </set>
      <set comment="kpoint 50">
       <r>    0.3994    1.0000 </r>
       <r>    9.0007    1.0000 </r>
       <r>   10.6935    0.0000 </r>
       <r>   13.9900    0.0000 </r>
       <r>   23.7640    0.0000 </r>
       <r>   25.1076    0.0000 </r>
       <r>   27.8015    0.0000 </r>
       <r>   29.4785    0.0000 </r>
      </set>
      <set comment="kpoint 51">
       <r>    1.7397    1.0000 </r>
       <r>    6.9290    1.0000 </r>
       <r>   10.2934    0.0000 </r>
       <r>   13.6127    0.0000 </r>
       <r>   23.5861    0.0000 </r>
       <r>   25.4928    0.0000 </r>
       <r>   28.2686    0.0000 </r>
       <r>   30.3903    0.0000 </r>
      </set>
      <set comment="kpoint 52">
       <r>    3.2643    1.0000 </r>
       <r>    5.0337    1.0000 </r>
       <r>   10.0960    0.0000 </r>
       <r>   13.4234    0.0000 </r>
       <r>   23.4662    0.0000 </r>
       <r>   25.6724    0.0000 </r>
       <r>   28.9864    0.0000 </r>
       <r>   30.1737    0.0000 </r>
      </set>
      <set comment="kpoint 53">
       <r>   -3.2581    1.0000 </r>
       <r>   15.3108    0.0000 </r>
       <r>   17.3319    0.0000 </r>
       <r>   19.4929    0.0000 </r>
       <r>   21.2570    0.0000 </r>
       <r>   22.1667    0.0000 </r>
       <r>   24.3135    0.0000 </r>
       <r>   26.9376    0.0000 </r>
      </set>
      <set comment="kpoint 54">
       <r>   -3.3636    1.0000 </r>
       <r>   16.4296    0.0000 </r>
       <r>   16.7431    0.0000 </r>
       <r>   19.4314    0.0000 </r>
       <r>   21.8470    0.0000 </r>
       <r>   21.9443    0.0000 </r>
       <r>   24.8472    0.0000 </r>
       <r>   25.6931    0.0000 </r>
      </set>
      <set comment="kpoint 55">
       <r>    1.6376    1.0000 </r>
       <r>    8.3623    1.0000 </r>
       <r>    8.6907    1.0000 </r>
       <r>   13.5189    0.0000 </r>
       <r>   24.4248    0.0000 </r>
       <r>   25.4725    0.0000 </r>
       <r>   29.2845    0.0000 </r>
       <r>   29.2914    0.0000 </r>
      </set>
      <set comment="kpoint 56">
       <r>    3.0690    1.0000 </r>
       <r>    6.5247    1.0000 </r>
       <r>    8.2448    1.0000 </r>
       <r>   13.2352    0.0000 </r>
       <r>   24.5937    0.0000 </r>
       <r>   26.1727    0.0000 </r>
       <r>   28.7418    0.0000 </r>
       <r>   30.3429    0.0000 </r>
      </set>
      <set comment="kpoint 57">
       <r>    4.5198    1.0000 </r>
       <r>    4.8934    1.0000 </r>
       <r>    8.1405    1.0000 </r>
       <r>   13.1405    0.0000 </r>
       <r>   24.5910    0.0000 </r>
       <r>   26.7001    0.0000 </r>
       <r>   28.3034    0.0000 </r>
       <r>   30.5736    0.0000 </r>
      </set>
      <set comment="kpoint 58">
       <r>   -2.5213    1.0000 </r>
       <r>   12.8543    0.0000 </r>
       <r>   16.4316    0.0000 </r>
       <r>   18.8537    0.0000 </r>
       <r>   20.4012    0.0000 </r>
       <r>   21.7575    0.0000 </r>
       <r>   24.5196    0.0000 </r>
       <r>   28.7120    0.0000 </r>
      </set>
      <set comment="kpoint 59">
       <r>   -2.7315    1.0000 </r>
       <r>   14.1981    0.0000 </r>
       <r>   15.6165    0.0000 </r>
       <r>   18.9457    0.0000 </r>
       <r>   21.1197    0.0000 </r>
       <r>   21.6315    0.0000 </r>
       <r>   24.9403    0.0000 </r>
       <r>   27.2080    0.0000 </r>
      </set>
      <set comment="kpoint 60">
       <r>    4.5756    1.0000 </r>
       <r>    6.1993    1.0000 </r>
       <r>    6.4962    1.0000 </r>
       <r>   13.0464    0.0000 </r>
       <r>   25.3236    0.0000 </r>
       <r>   26.6694    0.0000 </r>
       <r>   27.8228    0.0000 </r>
       <r>   31.6693    0.0000 </r>
      </set>
      <set comment="kpoint 61">
       <r>   -1.5779    1.0000 </r>
       <r>   10.4718    0.0000 </r>
       <r>   15.7058    0.0000 </r>
       <r>   18.2405    0.0000 </r>
       <r>   19.6750    0.0000 </r>
       <r>   21.3794    0.0000 </r>
       <r>   25.0358    0.0000 </r>
       <r>   29.6357    0.0000 </r>
      </set>
      <set comment="kpoint 62">
       <r>   -1.8918    1.0000 </r>
       <r>   11.8026    0.0000 </r>
       <r>   14.7766    0.0000 </r>
       <r>   18.3609    0.0000 </r>
       <r>   20.3796    0.0000 </r>
       <r>   21.7622    0.0000 </r>
       <r>   24.7682    0.0000 </r>
       <r>   29.0251    0.0000 </r>
      </set>
      <set comment="kpoint 63">
       <r>   -1.9965    1.0000 </r>
       <r>   13.1067    0.0000 </r>
       <r>   13.4583    0.0000 </r>
       <r>   18.6145    0.0000 </r>
       <r>   21.0219    0.0000 </r>
       <r>   21.0265    0.0000 </r>
       <r>   26.2136    0.0000 </r>
       <r>   27.2965    0.0000 </r>
      </set>
      <set comment="kpoint 64">
       <r>   -0.4311    1.0000 </r>
       <r>    8.2205    1.0000 </r>
       <r>   15.1587    0.0000 </r>
       <r>   17.7431    0.0000 </r>
       <r>   19.1152    0.0000 </r>
       <r>   21.0294    0.0000 </r>
       <r>   25.8554    0.0000 </r>
       <r>   30.4031    0.0000 </r>
      </set>
      <set comment="kpoint 65">
       <r>   -0.8472    1.0000 </r>
       <r>    9.4935    1.0000 </r>
       <r>   14.1215    0.0000 </r>
       <r>   17.8209    0.0000 </r>
       <r>   19.7549    0.0000 </r>
       <r>   21.9583    0.0000 </r>
       <r>   24.8712    0.0000 </r>
       <r>   30.2058    0.0000 </r>
      </set>
      <set comment="kpoint 66">
       <r>   -1.0555    1.0000 </r>
       <r>   10.9264    0.0000 </r>
       <r>   12.5390    0.0000 </r>
       <r>   18.1682    0.0000 </r>
       <r>   20.3840    0.0000 </r>
       <r>   21.4396    0.0000 </r>
       <r>   26.2458    0.0000 </r>
       <r>   28.6521    0.0000 </r>
      </set>
      <set comment="kpoint 67">
       <r>    0.9144    1.0000 </r>
       <r>    6.1294    1.0000 </r>
       <r>   14.7931    0.0000 </r>
       <r>   17.3981    0.0000 </r>
       <r>   18.7358    0.0000 </r>
       <r>   20.7629    0.0000 </r>
       <r>   26.9135    0.0000 </r>
       <r>   30.4146    0.0000 </r>
      </set>
      <set comment="kpoint 68">
       <r>    0.3986    1.0000 </r>
       <r>    7.3251    1.0000 </r>
       <r>   13.6520    0.0000 </r>
       <r>   17.4075    0.0000 </r>
       <r>   19.2925    0.0000 </r>
       <r>   22.0165    0.0000 </r>
       <r>   25.4403    0.0000 </r>
       <r>   30.0938    0.0000 </r>
      </set>
      <set comment="kpoint 69">
       <r>    0.0884    1.0000 </r>
       <r>    8.7036    1.0000 </r>
       <r>   11.9550    0.0000 </r>
       <r>   17.7415    0.0000 </r>
       <r>   19.8578    0.0000 </r>
       <r>   22.1403    0.0000 </r>
       <r>   25.9780    0.0000 </r>
       <r>   29.4634    0.0000 </r>
      </set>
      <set comment="kpoint 70">
       <r>   -0.0152    1.0000 </r>
       <r>   10.1064    0.0000 </r>
       <r>   10.4175    0.0000 </r>
       <r>   17.8395    0.0000 </r>
       <r>   20.8034    0.0000 </r>
       <r>   21.0743    0.0000 </r>
       <r>   27.9686    0.0000 </r>
       <r>   27.9757    0.0000 </r>
      </set>
      <set comment="kpoint 71">
       <r>    2.4441    1.0000 </r>
       <r>    4.2249    1.0000 </r>
       <r>   14.6101    0.0000 </r>
       <r>   17.2226    0.0000 </r>
       <r>   18.5452    0.0000 </r>
       <r>   20.6217    0.0000 </r>
       <r>   28.1360    0.0000 </r>
       <r>   29.4391    0.0000 </r>
      </set>
      <set comment="kpoint 72">
       <r>    1.8389    1.0000 </r>
       <r>    5.3262    1.0000 </r>
       <r>   13.3694    0.0000 </r>
       <r>   17.1520    0.0000 </r>
       <r>   19.0096    0.0000 </r>
       <r>   21.9825    0.0000 </r>
       <r>   26.4065    0.0000 </r>
       <r>   29.0148    0.0000 </r>
      </set>
      <set comment="kpoint 73">
       <r>    1.4304    1.0000 </r>
       <r>    6.6255    1.0000 </r>
       <r>   11.5674    0.0000 </r>
       <r>   17.4300    0.0000 </r>
       <r>   19.4921    0.0000 </r>
       <r>   22.8887    0.0000 </r>
       <r>   25.8930    0.0000 </r>
       <r>   28.7742    0.0000 </r>
      </set>
      <set comment="kpoint 74">
       <r>    1.2254    1.0000 </r>
       <r>    8.1032    1.0000 </r>
       <r>    9.7862    0.9736 </r>
       <r>   17.5094    0.0000 </r>
       <r>   20.5005    0.0000 </r>
       <r>   21.8689    0.0000 </r>
       <r>   27.0308    0.0000 </r>
       <r>   28.8923    0.0000 </r>
      </set>
      <set comment="kpoint 75">
       <r>    3.2928    1.0000 </r>
       <r>    3.6852    1.0000 </r>
       <r>   13.2750    0.0000 </r>
       <r>   17.0657    0.0000 </r>
       <r>   18.9150    0.0000 </r>
       <r>   21.9584    0.0000 </r>
       <r>   27.4136    0.0000 </r>
       <r>   27.9198    0.0000 </r>
      </set>
      <set comment="kpoint 76">
       <r>    2.9567    1.0000 </r>
       <r>    4.7282    1.0000 </r>
       <r>   11.3734    0.0000 </r>
       <r>   17.2684    0.0000 </r>
       <r>   19.3058    0.0000 </r>
       <r>   23.3901    0.0000 </r>
       <r>   26.1009    0.0000 </r>
       <r>   27.8202    0.0000 </r>
      </set>
      <set comment="kpoint 77">
       <r>    2.6596    1.0000 </r>
       <r>    6.1243    1.0000 </r>
       <r>    9.4852    1.0000 </r>
       <r>   17.2868    0.0000 </r>
       <r>   20.2466    0.0000 </r>
       <r>   22.9449    0.0000 </r>
       <r>   25.8733    0.0000 </r>
       <r>   28.9077    0.0000 </r>
      </set>
      <set comment="kpoint 78">
       <r>    2.5590    1.0000 </r>
       <r>    7.5725    1.0000 </r>
       <r>    7.8678    1.0000 </r>
       <r>   17.2661    0.0000 </r>
       <r>   21.3202    0.0000 </r>
       <r>   21.7999    0.0000 </r>
       <r>   25.9189    0.0000 </r>
       <r>   30.1423    0.0000 </r>
      </set>
      <set comment="kpoint 79">
       <r>    4.1151    1.0000 </r>
       <r>    4.4852    1.0000 </r>
       <r>    9.3858    1.0000 </r>
       <r>   17.2097    0.0000 </r>
       <r>   20.1595    0.0000 </r>
       <r>   23.7321    0.0000 </r>
       <r>   25.0463    0.0000 </r>
       <r>   28.8452    0.0000 </r>
      </set>
      <set comment="kpoint 80">
       <r>    4.0752    1.0000 </r>
       <r>    5.8247    1.0000 </r>
       <r>    7.5359    1.0000 </r>
       <r>   17.1265    0.0000 </r>
       <r>   21.3413    0.0000 </r>
       <r>   22.8426    0.0000 </r>
       <r>   24.4707    0.0000 </r>
       <r>   30.8215    0.0000 </r>
      </set>
      <set comment="kpoint 81">
       <r>    5.3909    1.0000 </r>
       <r>    5.8823    1.0000 </r>
       <r>    5.8823    1.0000 </r>
       <r>   17.0641    0.0000 </r>
       <r>   22.1774    0.0000 </r>
       <r>   23.1396    0.0000 </r>
       <r>   23.1396    0.0000 </r>
       <r>   32.6591    0.0000 </r>
      </set>
      <set comment="kpoint 82">
       <r>   -1.7872    1.0000 </r>
       <r>   13.0787    0.0000 </r>
       <r>   13.8182    0.0000 </r>
       <r>   13.8182    0.0000 </r>
       <r>   24.7729    0.0000 </r>
       <r>   24.7729    0.0000 </r>
       <r>   26.7941    0.0000 </r>
       <r>   26.7941    0.0000 </r>
      </set>
      <set comment="kpoint 83">
       <r>   -0.8470    1.0000 </r>
       <r>   11.1239    0.0000 </r>
       <r>   12.6327    0.0000 </r>
       <r>   13.0665    0.0000 </r>
       <r>   24.8965    0.0000 </r>
       <r>   25.2724    0.0000 </r>
       <r>   27.5695    0.0000 </r>
       <r>   27.8101    0.0000 </r>
      </set>
      <set comment="kpoint 84">
       <r>    0.2958    1.0000 </r>
       <r>    8.9101    1.0000 </r>
       <r>   12.0265    0.0000 </r>
       <r>   12.4929    0.0000 </r>
       <r>   24.8374    0.0000 </r>
       <r>   25.1260    0.0000 </r>
       <r>   28.7393    0.0000 </r>
       <r>   28.8633    0.0000 </r>
      </set>
      <set comment="kpoint 85">
       <r>    1.6369    1.0000 </r>
       <r>    6.8315    1.0000 </r>
       <r>   11.6359    0.0000 </r>
       <r>   12.1060    0.0000 </r>
       <r>   24.7262    0.0000 </r>
       <r>   24.9194    0.0000 </r>
       <r>   29.6804    0.0000 </r>
       <r>   30.1199    0.0000 </r>
      </set>
      <set comment="kpoint 86">
       <r>    3.1624    1.0000 </r>
       <r>    4.9339    1.0000 </r>
       <r>   11.4420    0.0000 </r>
       <r>   11.9120    0.0000 </r>
       <r>   24.6511    0.0000 </r>
       <r>   24.7986    0.0000 </r>
       <r>   30.4471    0.0000 </r>
       <r>   31.0173    0.0000 </r>
      </set>
      <set comment="kpoint 87">
       <r>   -3.4691    1.0000 </r>
       <r>   17.2381    0.0000 </r>
       <r>   17.2381    0.0000 </r>
       <r>   18.7590    0.0000 </r>
       <r>   21.2321    0.0000 </r>
       <r>   23.2910    0.0000 </r>
       <r>   24.7674    0.0000 </r>
       <r>   24.7674    0.0000 </r>
      </set>
      <set comment="kpoint 88">
       <r>    0.1923    1.0000 </r>
       <r>   10.2787    0.0000 </r>
       <r>   10.6871    0.0000 </r>
       <r>   12.2038    0.0000 </r>
       <r>   25.6211    0.0000 </r>
       <r>   26.2886    0.0000 </r>
       <r>   28.1332    0.0000 </r>
       <r>   28.7620    0.0000 </r>
      </set>
      <set comment="kpoint 89">
       <r>    1.4321    1.0000 </r>
       <r>    8.3118    1.0000 </r>
       <r>   10.0146    0.0000 </r>
       <r>   11.7129    0.0000 </r>
       <r>   25.8435    0.0000 </r>
       <r>   26.6848    0.0000 </r>
       <r>   29.0435    0.0000 </r>
       <r>   29.8617    0.0000 </r>
      </set>
      <set comment="kpoint 90">
       <r>    2.8656    1.0000 </r>
       <r>    6.3319    1.0000 </r>
       <r>    9.7103    1.0000 </r>
       <r>   11.4210    0.0000 </r>
       <r>   25.8365    0.0000 </r>
       <r>   26.8362    0.0000 </r>
       <r>   29.8708    0.0000 </r>
       <r>   30.8227    0.0000 </r>
      </set>
      <set comment="kpoint 91">
       <r>    4.3181    1.0000 </r>
       <r>    4.6948    1.0000 </r>
       <r>    9.6108    1.0000 </r>
       <r>   11.3238    0.0000 </r>
       <r>   25.8150    0.0000 </r>
       <r>   26.8755    0.0000 </r>
       <r>   30.3794    0.0000 </r>
       <r>   31.0251    0.0000 </r>
      </set>
      <set comment="kpoint 92">
       <r>   -2.9419    1.0000 </r>
       <r>   15.4141    0.0000 </r>
       <r>   16.1691    0.0000 </r>
       <r>   18.2205    0.0000 </r>
       <r>   20.3192    0.0000 </r>
       <r>   22.8940    0.0000 </r>
       <r>   24.9936    0.0000 </r>
       <r>   26.2123    0.0000 </r>
      </set>
      <set comment="kpoint 93">
       <r>    2.7651    1.0000 </r>
       <r>    7.7683    1.0000 </r>
       <r>    8.1024    1.0000 </r>
       <r>   11.3168    0.0000 </r>
       <r>   26.5436    0.0000 </r>
       <r>   27.5789    0.0000 </r>
       <r>   30.0443    0.0000 </r>
       <r>   30.1248    0.0000 </r>
      </set>
      <set comment="kpoint 94">
       <r>    4.2805    1.0000 </r>
       <r>    6.0335    1.0000 </r>
       <r>    7.7541    1.0000 </r>
       <r>   11.1214    0.0000 </r>
       <r>   26.8119    0.0000 </r>
       <r>   28.1738    0.0000 </r>
       <r>   29.8217    0.0000 </r>
       <r>   31.1513    0.0000 </r>
      </set>
      <set comment="kpoint 95">
       <r>   -2.2062    1.0000 </r>
       <r>   13.0823    0.0000 </r>
       <r>   15.2566    0.0000 </r>
       <r>   17.6845    0.0000 </r>
       <r>   20.2506    0.0000 </r>
       <r>   22.1184    0.0000 </r>
       <r>   24.7756    0.0000 </r>
       <r>   28.2937    0.0000 </r>
      </set>
      <set comment="kpoint 96">
       <r>   -2.3111    1.0000 </r>
       <r>   14.2967    0.0000 </r>
       <r>   14.5237    0.0000 </r>
       <r>   17.7853    0.0000 </r>
       <r>   19.4591    0.0000 </r>
       <r>   22.7314    0.0000 </r>
       <r>   25.9617    0.0000 </r>
       <r>   26.6946    0.0000 </r>
      </set>
      <set comment="kpoint 97">
       <r>    5.5835    1.0000 </r>
       <r>    6.1007    1.0000 </r>
       <r>    6.1007    1.0000 </r>
       <r>   11.0233    0.0000 </r>
       <r>   27.2855    0.0000 </r>
       <r>   29.0088    0.0000 </r>
       <r>   29.0088    0.0000 </r>
       <r>   32.4051    0.0000 </r>
      </set>
      <set comment="kpoint 98">
       <r>   -1.2643    1.0000 </r>
       <r>   10.7409    0.0000 </r>
       <r>   14.5186    0.0000 </r>
       <r>   17.0687    0.0000 </r>
       <r>   20.6415    0.0000 </r>
       <r>   21.4239    0.0000 </r>
       <r>   24.5168    0.0000 </r>
       <r>   30.0765    0.0000 </r>
      </set>
      <set comment="kpoint 99">
       <r>   -1.4731    1.0000 </r>
       <r>   12.1252    0.0000 </r>
       <r>   13.5834    0.0000 </r>
       <r>   17.4386    0.0000 </r>
       <r>   19.4200    0.0000 </r>
       <r>   22.1350    0.0000 </r>
       <r>   25.8949    0.0000 </r>
       <r>   28.2837    0.0000 </r>
      </set>
      <set comment="kpoint 100">
       <r>   -0.1192    1.0000 </r>
       <r>    8.5073    1.0000 </r>
       <r>   13.9620    0.0000 </r>
       <r>   16.5486    0.0000 </r>
       <r>   20.8812    0.0000 </r>
       <r>   21.1222    0.0000 </r>
       <r>   24.4964    0.0000 </r>
       <r>   29.7022    0.0000 </r>
      </set>
      <set comment="kpoint 101">
       <r>   -0.4306    1.0000 </r>
       <r>    9.8613    0.4254 </r>
       <r>   12.9176    0.0000 </r>
       <r>   16.9388    0.0000 </r>
       <r>   19.9226    0.0000 </r>
       <r>   21.6513    0.0000 </r>
       <r>   25.4790    0.0000 </r>
       <r>   29.0921    0.0000 </r>
      </set>
      <set comment="kpoint 102">
       <r>   -0.5345    1.0000 </r>
       <r>   11.2282    0.0000 </r>
       <r>   11.5100    0.0000 </r>
       <r>   17.6220    0.0000 </r>
       <r>   19.0757    0.0000 </r>
       <r>   21.6892    0.0000 </r>
       <r>   27.5379    0.0000 </r>
       <r>   27.5442    0.0000 </r>
      </set>
      <set comment="kpoint 103">
       <r>    1.2241    1.0000 </r>
       <r>    6.4255    1.0000 </r>
       <r>   13.5895    0.0000 </r>
       <r>   16.1864    0.0000 </r>
       <r>   20.5123    0.0000 </r>
       <r>   21.4602    0.0000 </r>
       <r>   24.9158    0.0000 </r>
       <r>   28.5482    0.0000 </r>
      </set>
      <set comment="kpoint 104">
       <r>    0.8125    1.0000 </r>
       <r>    7.7129    1.0000 </r>
       <r>   12.4411    0.0000 </r>
       <r>   16.5179    0.0000 </r>
       <r>   20.3855    0.0000 </r>
       <r>   21.5856    0.0000 </r>
       <r>   25.0979    0.0000 </r>
       <r>   28.2813    0.0000 </r>
      </set>
      <set comment="kpoint 105">
       <r>    0.6063    1.0000 </r>
       <r>    9.1684    1.0000 </r>
       <r>   10.8006    0.0000 </r>
       <r>   17.4647    0.0000 </r>
       <r>   19.4602    0.0000 </r>
       <r>   21.3445    0.0000 </r>
       <r>   26.4580    0.0000 </r>
       <r>   28.3816    0.0000 </r>
      </set>
      <set comment="kpoint 106">
       <r>    2.7518    1.0000 </r>
       <r>    4.5260    1.0000 </r>
       <r>   13.4029    0.0000 </r>
       <r>   16.0019    0.0000 </r>
       <r>   20.3254    0.0000 </r>
       <r>   21.5964    0.0000 </r>
       <r>   25.7330    0.0000 </r>
       <r>   27.2816    0.0000 </r>
      </set>
      <set comment="kpoint 107">
       <r>    2.2497    1.0000 </r>
       <r>    5.7239    1.0000 </r>
       <r>   12.1552    0.0000 </r>
       <r>   16.2523    0.0000 </r>
[...]
      <set comment="kpoint 154">
       <r>    4.6847    1.0000 </r>
       <r>    8.0344    1.0000 </r>
       <r>    9.5608    1.0000 </r>
       <r>   13.6444    0.0000 </r>
       <r>   15.3182    0.0000 </r>
       <r>   18.4831    0.0000 </r>
       <r>   27.7350    0.0000 </r>
       <r>   31.2797    0.0000 </r>
      </set>
      <set comment="kpoint 155">
       <r>    6.1358    1.0000 </r>
       <r>    6.4333    1.0000 </r>
       <r>    9.4625    1.0000 </r>
       <r>   13.5802    0.0000 </r>
       <r>   16.4209    0.0000 </r>
       <r>   17.1396    0.0000 </r>
       <r>   27.6743    0.0000 </r>
       <r>   31.3844    0.0000 </r>
      </set>
      <set comment="kpoint 156">
       <r>    6.1658    1.0000 </r>
       <r>    7.7391    1.0000 </r>
       <r>    7.9585    1.0000 </r>
       <r>   14.5468    0.0000 </r>
       <r>   15.4309    0.0000 </r>
       <r>   16.7737    0.0000 </r>
       <r>   27.7347    0.0000 </r>
       <r>   32.9525    0.0000 </r>
      </set>
      <set comment="kpoint 157">
       <r>    3.1710    1.0000 </r>
       <r>   10.5996    0.0000 </r>
       <r>   10.5996    0.0000 </r>
       <r>   12.6378    0.0000 </r>
       <r>   13.6165    0.0000 </r>
       <r>   20.2096    0.0000 </r>
       <r>   29.7166    0.0000 </r>
       <r>   30.6442    0.0000 </r>
      </set>
      <set comment="kpoint 158">
       <r>    4.4845    1.0000 </r>
       <r>    9.3555    1.0000 </r>
       <r>   10.2197    0.0000 </r>
       <r>   12.5382    0.0000 </r>
       <r>   13.7411    0.0000 </r>
       <r>   18.2763    0.0000 </r>
       <r>   29.7812    0.0000 </r>
       <r>   31.3627    0.0000 </r>
      </set>
      <set comment="kpoint 159">
       <r>    5.9722    1.0000 </r>
       <r>    7.6456    1.0000 </r>
       <r>   10.0297    0.0000 </r>
       <r>   12.4376    0.0000 </r>
       <r>   14.8661    0.0000 </r>
       <r>   16.5468    0.0000 </r>
       <r>   29.6358    0.0000 </r>
       <r>   31.6488    0.0000 </r>
      </set>
      <set comment="kpoint 160">
       <r>    5.8764    1.0000 </r>
       <r>    8.9935    1.0000 </r>
       <r>    9.1414    1.0000 </r>
       <r>   12.8492    0.0000 </r>
       <r>   13.6547    0.0000 </r>
       <r>   16.4218    0.0000 </r>
       <r>   30.1871    0.0000 </r>
       <r>   32.7121    0.0000 </r>
      </set>
      <set comment="kpoint 161">
       <r>    7.3028    1.0000 </r>
       <r>    7.5620    1.0000 </r>
       <r>    8.9788    1.0000 </r>
       <r>   13.0020    0.0000 </r>
       <r>   14.5072    0.0000 </r>
       <r>   15.0221    0.0000 </r>
       <r>   30.1832    0.0000 </r>
       <r>   33.1609    0.0000 </r>
      </set>
      <set comment="kpoint 162">
       <r>    5.7781    1.0000 </r>
       <r>    9.8395    0.6655 </r>
       <r>    9.8395    0.6655 </r>
       <r>   11.8475    0.0000 </r>
       <r>   12.7596    0.0000 </r>
       <r>   16.3125    0.0000 </r>
       <r>   32.0902    0.0000 </r>
       <r>   32.6329    0.0000 </r>
      </set>
      <set comment="kpoint 163">
       <r>    7.2274    1.0000 </r>
       <r>    8.7740    1.0000 </r>
       <r>    9.6491    1.0000 </r>
       <r>   11.9096    0.0000 </r>
       <r>   13.1049    0.0000 </r>
       <r>   14.5809    0.0000 </r>
       <r>   32.1791    0.0000 </r>
       <r>   33.2744    0.0000 </r>
      </set>
      <set comment="kpoint 164">
       <r>    8.5101    1.0000 </r>
       <r>    8.7513    1.0000 </r>
       <r>    8.7513    1.0000 </r>
       <r>   12.1955    0.0000 </r>
       <r>   13.2359    0.0000 </r>
       <r>   13.2359    0.0000 </r>
       <r>   32.5547    0.0000 </r>
       <r>   34.3481    0.0000 </r>
      </set>
      <set comment="kpoint 165">
       <r>    8.5655    1.0000 </r>
       <r>    9.4584    1.0000 </r>
       <r>    9.4584    1.0000 </r>
       <r>   11.3268    0.0000 </r>
       <r>   12.3261    0.0000 </r>
       <r>   12.9734    0.0000 </r>
       <r>   34.1492    0.0000 </r>
       <r>   34.2628    0.0000 </r>
      </set>
     </set>
    </set>
   </array>
  </eigenvalues>
  <separator name="orbital magnetization" >
   <v name="MAGDIPOLOUT">      0.00000000      0.00000000      0.00000000</v>
  </separator>
  <dos>
   <i name="efermi">      9.85464767 </i>
   <total>
    <array>
     <dimension dim="1">gridpoints</dimension>
     <dimension dim="2">spin</dimension>
     <field>energy</field>
     <field>total</field>
     <field>integrated</field>
     <set>
      <set comment="spin 1">
       <r>    -6.2485     0.0000     0.0000 </r>
       <r>    -6.1068     0.0000     0.0000 </r>
       <r>    -5.9650     0.0000     0.0000 </r>
       <r>    -5.8232     0.0000     0.0000 </r>
       <r>    -5.6815     0.0000     0.0000 </r>
       <r>    -5.5397     0.0000     0.0000 </r>
       <r>    -5.3979     0.0000     0.0000 </r>
       <r>    -5.2562     0.0000     0.0000 </r>
       <r>    -5.1144     0.0000     0.0000 </r>
       <r>    -4.9726     0.0000     0.0000 </r>
       <r>    -4.8309     0.0000     0.0000 </r>
       <r>    -4.6891     0.0000     0.0000 </r>
       <r>    -4.5473     0.0000     0.0000 </r>
       <r>    -4.4056     0.0000     0.0000 </r>
       <r>    -4.2638     0.0048     0.0007 </r>
       <r>    -4.1220     0.0375     0.0060 </r>
       <r>    -3.9803     0.0599     0.0145 </r>
       <r>    -3.8385     0.0582     0.0227 </r>
       <r>    -3.6967     0.0735     0.0332 </r>
       <r>    -3.5550     0.1142     0.0493 </r>
       <r>    -3.4132     0.0641     0.0584 </r>
       <r>    -3.2714     0.1200     0.0754 </r>
       <r>    -3.1297     0.0969     0.0892 </r>
       <r>    -2.9879     0.1028     0.1038 </r>
       <r>    -2.8461     0.1892     0.1306 </r>
       <r>    -2.7044     0.1084     0.1460 </r>
       <r>    -2.5626     0.0800     0.1573 </r>
       <r>    -2.4208     0.1608     0.1801 </r>
       <r>    -2.2791     0.2182     0.2110 </r>
       <r>    -2.1373     0.1248     0.2287 </r>
       <r>    -1.9955     0.1534     0.2505 </r>
       <r>    -1.8538     0.1527     0.2721 </r>
       <r>    -1.7120     0.0899     0.2849 </r>
       <r>    -1.5702     0.2341     0.3180 </r>
       <r>    -1.4285     0.2815     0.3580 </r>
       <r>    -1.2867     0.1766     0.3830 </r>
       <r>    -1.1449     0.0538     0.3906 </r>
       <r>    -1.0032     0.2563     0.4270 </r>
       <r>    -0.8614     0.1292     0.4453 </r>
       <r>    -0.7196     0.2854     0.4857 </r>
       <r>    -0.5779     0.1774     0.5109 </r>
       <r>    -0.4361     0.2490     0.5462 </r>
       <r>    -0.2943     0.2530     0.5820 </r>
       <r>    -0.1526     0.1558     0.6041 </r>
       <r>    -0.0108     0.1358     0.6234 </r>
       <r>     0.1309     0.1988     0.6516 </r>
       <r>     0.2727     0.3596     0.7026 </r>
       <r>     0.4145     0.2853     0.7430 </r>
       <r>     0.5562     0.1362     0.7623 </r>
       <r>     0.6980     0.2783     0.8018 </r>
       <r>     0.8398     0.2880     0.8426 </r>
       <r>     0.9815     0.1703     0.8667 </r>
       <r>     1.1233     0.2277     0.8990 </r>
       <r>     1.2651     0.2828     0.9391 </r>
       <r>     1.4068     0.2151     0.9696 </r>
       <r>     1.5486     0.3154     1.0143 </r>
       <r>     1.6904     0.2745     1.0532 </r>
       <r>     1.8321     0.2903     1.0944 </r>
       <r>     1.9739     0.2392     1.1283 </r>
       <r>     2.1157     0.3569     1.1789 </r>
       <r>     2.2574     0.2463     1.2138 </r>
       <r>     2.3992     0.2193     1.2449 </r>
       <r>     2.5410     0.1792     1.2703 </r>
       <r>     2.6827     0.4555     1.3349 </r>
       <r>     2.8245     0.2834     1.3750 </r>
       <r>     2.9663     0.3280     1.4215 </r>
       <r>     3.1080     0.2296     1.4541 </r>
       <r>     3.2498     0.2521     1.4898 </r>
       <r>     3.3916     0.3989     1.5464 </r>
       <r>     3.5333     0.3667     1.5984 </r>
       <r>     3.6751     0.3222     1.6440 </r>
       <r>     3.8169     0.2265     1.6761 </r>
       <r>     3.9586     0.0889     1.6887 </r>
       <r>     4.1004     0.3735     1.7417 </r>
       <r>     4.2422     0.4596     1.8068 </r>
       <r>     4.3839     0.3582     1.8576 </r>
       <r>     4.5257     0.3305     1.9045 </r>
       <r>     4.6675     0.2404     1.9386 </r>
       <r>     4.8092     0.4450     2.0016 </r>
       <r>     4.9510     0.2516     2.0373 </r>
       <r>     5.0928     0.3983     2.0938 </r>
       <r>     5.2345     0.3427     2.1424 </r>
       <r>     5.3763     0.3795     2.1962 </r>
       <r>     5.5181     0.2215     2.2276 </r>
       <r>     5.6598     0.2205     2.2588 </r>
       <r>     5.8016     0.3811     2.3128 </r>
       <r>     5.9434     0.5040     2.3843 </r>
       <r>     6.0851     0.3392     2.4324 </r>
       <r>     6.2269     0.4382     2.4945 </r>
       <r>     6.3687     0.4464     2.5578 </r>
       <r>     6.5104     0.3435     2.6065 </r>
       <r>     6.6522     0.3169     2.6514 </r>
       <r>     6.7940     0.3386     2.6994 </r>
       <r>     6.9357     0.3916     2.7549 </r>
       <r>     7.0775     0.1958     2.7827 </r>
       <r>     7.2192     0.4868     2.8517 </r>
       <r>     7.3610     0.3576     2.9024 </r>
       <r>     7.5028     0.3059     2.9458 </r>
       <r>     7.6445     0.5356     3.0217 </r>
       <r>     7.7863     0.7069     3.1219 </r>
       <r>     7.9281     0.2576     3.1584 </r>
       <r>     8.0698     0.2142     3.1888 </r>
       <r>     8.2116     0.3451     3.2377 </r>
       <r>     8.3534     0.5733     3.3190 </r>
       <r>     8.4951     0.5843     3.4018 </r>
       <r>     8.6369     0.2169     3.4326 </r>
       <r>     8.7787     0.4591     3.4977 </r>
       <r>     8.9204     0.2422     3.5320 </r>
       <r>     9.0622     0.5542     3.6106 </r>
       <r>     9.2040     0.4157     3.6695 </r>
       <r>     9.3457     0.3896     3.7247 </r>
       <r>     9.4875     0.5899     3.8083 </r>
       <r>     9.6293     0.5294     3.8834 </r>
       <r>     9.7710     0.5707     3.9643 </r>
       <r>     9.9128     0.4590     4.0294 </r>
       <r>    10.0546     0.3211     4.0749 </r>
       <r>    10.1963     0.4098     4.1330 </r>
       <r>    10.3381     0.5186     4.2065 </r>
       <r>    10.4799     0.4474     4.2699 </r>
       <r>    10.6216     0.3311     4.3169 </r>
       <r>    10.7634     0.5790     4.3990 </r>
       <r>    10.9052     0.3096     4.4429 </r>
       <r>    11.0469     0.3347     4.4903 </r>
       <r>    11.1887     0.6248     4.5789 </r>
       <r>    11.3305     0.2367     4.6124 </r>
       <r>    11.4722     0.6119     4.6992 </r>
       <r>    11.6140     0.4941     4.7692 </r>
       <r>    11.7558     0.3870     4.8241 </r>
       <r>    11.8975     0.3395     4.8722 </r>
       <r>    12.0393     0.5654     4.9524 </r>
       <r>    12.1811     0.5596     5.0317 </r>
       <r>    12.3228     0.2369     5.0653 </r>
       <r>    12.4646     0.4177     5.1245 </r>
       <r>    12.6064     0.5360     5.2005 </r>
       <r>    12.7481     0.2600     5.2374 </r>
       <r>    12.8899     0.3268     5.2837 </r>
       <r>    13.0317     0.6124     5.3705 </r>
       <r>    13.1734     0.5228     5.4446 </r>
       <r>    13.3152     0.4819     5.5129 </r>
       <r>    13.4570     0.5000     5.5838 </r>
       <r>    13.5987     0.5055     5.6555 </r>
       <r>    13.7405     0.7213     5.7577 </r>
       <r>    13.8822     0.3930     5.8134 </r>
       <r>    14.0240     0.4038     5.8707 </r>
       <r>    14.1658     0.5178     5.9441 </r>
       <r>    14.3075     0.3924     5.9997 </r>
       <r>    14.4493     0.2996     6.0422 </r>
       <r>    14.5911     0.6332     6.1320 </r>
       <r>    14.7328     0.7112     6.2328 </r>
       <r>    14.8746     0.5334     6.3084 </r>
       <r>    15.0164     0.3255     6.3546 </r>
       <r>    15.1581     0.2896     6.3956 </r>
       <r>    15.2999     0.7334     6.4996 </r>
       <r>    15.4417     0.8436     6.6192 </r>
       <r>    15.5834     0.4841     6.6878 </r>
       <r>    15.7252     0.4296     6.7487 </r>
       <r>    15.8670     0.3682     6.8009 </r>
       <r>    16.0087     0.5509     6.8790 </r>
       <r>    16.1505     0.3498     6.9286 </r>
       <r>    16.2923     0.7069     7.0288 </r>
       <r>    16.4340     0.6877     7.1263 </r>
       <r>    16.5758     0.8436     7.2459 </r>
       <r>    16.7176     0.2200     7.2771 </r>
       <r>    16.8593     0.3471     7.3263 </r>
       <r>    17.0011     0.4909     7.3959 </r>
       <r>    17.1429     0.6341     7.4858 </r>
       <r>    17.2846     0.9067     7.6143 </r>
       <r>    17.4264     0.8014     7.7279 </r>
       <r>    17.5682     0.7394     7.8328 </r>
       <r>    17.7099     0.4178     7.8920 </r>
       <r>    17.8517     0.7159     7.9935 </r>
       <r>    17.9935     0.5460     8.0709 </r>
       <r>    18.1352     0.1764     8.0959 </r>
       <r>    18.2770     0.5303     8.1711 </r>
       <r>    18.4188     0.4060     8.2286 </r>
       <r>    18.5605     0.4145     8.2874 </r>
       <r>    18.7023     0.4301     8.3484 </r>
       <r>    18.8441     0.2231     8.3800 </r>
       <r>    18.9858     0.4175     8.4392 </r>
       <r>    19.1276     0.3941     8.4950 </r>
       <r>    19.2694     0.4599     8.5602 </r>
       <r>    19.4111     0.4537     8.6245 </r>
       <r>    19.5529     0.9698     8.7620 </r>
       <r>    19.6947     0.2196     8.7932 </r>
       <r>    19.8364     0.2692     8.8313 </r>
       <r>    19.9782     0.5818     8.9138 </r>
       <r>    20.1200     0.5026     8.9851 </r>
       <r>    20.2617     0.5358     9.0610 </r>
       <r>    20.4035     0.9564     9.1966 </r>
       <r>    20.5453     0.7157     9.2981 </r>
       <r>    20.6870     0.4878     9.3672 </r>
       <r>    20.8288     0.4128     9.4257 </r>
       <r>    20.9705     0.1788     9.4511 </r>
       <r>    21.1123     0.8872     9.5769 </r>
       <r>    21.2541     0.8851     9.7023 </r>
       <r>    21.3958     0.6729     9.7977 </r>
       <r>    21.5376     0.6647     9.8920 </r>
       <r>    21.6794     0.7469     9.9979 </r>
       <r>    21.8211     0.6702    10.0929 </r>
       <r>    21.9629     0.6662    10.1873 </r>
       <r>    22.1047     0.7554    10.2944 </r>
       <r>    22.2464     0.7793    10.4049 </r>
       <r>    22.3882     0.7759    10.5149 </r>
       <r>    22.5300     0.6037    10.6005 </r>
       <r>    22.6717     0.5495    10.6784 </r>
       <r>    22.8135     0.3245    10.7244 </r>
       <r>    22.9553     0.8555    10.8456 </r>
       <r>    23.0970     0.8110    10.9606 </r>
       <r>    23.2388     0.7507    11.0670 </r>
       <r>    23.3806     0.4622    11.1326 </r>
       <r>    23.5223     0.7132    11.2337 </r>
       <r>    23.6641     0.4078    11.2915 </r>
       <r>    23.8059     0.7049    11.3914 </r>
       <r>    23.9476     0.4151    11.4502 </r>
       <r>    24.0894     0.3532    11.5003 </r>
       <r>    24.2312     0.3376    11.5482 </r>
       <r>    24.3729     0.4427    11.6109 </r>
       <r>    24.5147     0.4068    11.6686 </r>
       <r>    24.6565     0.5796    11.7508 </r>
       <r>    24.7982     0.8761    11.8750 </r>
       <r>    24.9400     0.8839    12.0003 </r>
       <r>    25.0818     0.6937    12.0986 </r>
       <r>    25.2235     0.6963    12.1973 </r>
       <r>    25.3653     0.5756    12.2789 </r>
       <r>    25.5071     0.7188    12.3808 </r>
       <r>    25.6488     0.4884    12.4501 </r>
       <r>    25.7906     0.6779    12.5462 </r>
       <r>    25.9324     1.0362    12.6931 </r>
       <r>    26.0741     0.6007    12.7782 </r>
       <r>    26.2159     0.5274    12.8530 </r>
       <r>    26.3577     0.4007    12.9098 </r>
       <r>    26.4994     0.5005    12.9808 </r>
       <r>    26.6412     0.3514    13.0306 </r>
       <r>    26.7830     0.6999    13.1298 </r>
       <r>    26.9247     0.8238    13.2466 </r>
       <r>    27.0665     0.2773    13.2859 </r>
       <r>    27.2083     0.6292    13.3751 </r>
       <r>    27.3500     0.8904    13.5013 </r>
       <r>    27.4918     0.1867    13.5278 </r>
       <r>    27.6336     0.6352    13.6179 </r>
       <r>    27.7753     0.8971    13.7450 </r>
       <r>    27.9171     0.8234    13.8618 </r>
       <r>    28.0588     0.7396    13.9666 </r>
       <r>    28.2006     0.8200    14.0829 </r>
       <r>    28.3424     0.8859    14.2085 </r>
       <r>    28.4841     0.2655    14.2461 </r>
       <r>    28.6259     0.2870    14.2868 </r>
       <r>    28.7677     0.6489    14.3788 </r>
       <r>    28.9094     0.7945    14.4914 </r>
       <r>    29.0512     0.8668    14.6143 </r>
       <r>    29.1930     0.7608    14.7221 </r>
       <r>    29.3347     0.3270    14.7685 </r>
       <r>    29.4765     0.6847    14.8656 </r>
       <r>    29.6183     0.5318    14.9410 </r>
       <r>    29.7600     0.8338    15.0592 </r>
       <r>    29.9018     0.7299    15.1626 </r>
       <r>    30.0436     0.3746    15.2157 </r>
       <r>    30.1853     1.1331    15.3764 </r>
       <r>    30.3271     0.6183    15.4640 </r>
       <r>    30.4689     0.6590    15.5574 </r>
       <r>    30.6106     0.2611    15.5945 </r>
       <r>    30.7524     0.3767    15.6479 </r>
       <r>    30.8942     0.5634    15.7277 </r>
       <r>    31.0359     0.1922    15.7550 </r>
       <r>    31.1777     0.1988    15.7832 </r>
       <r>    31.3195     0.2351    15.8165 </r>
       <r>    31.4612     0.2200    15.8477 </r>
       <r>    31.6030     0.2440    15.8823 </r>
       <r>    31.7448     0.1629    15.9054 </r>
       <r>    31.8865     0.0055    15.9061 </r>
       <r>    32.0283     0.1306    15.9247 </r>
       <r>    32.1701     0.0476    15.9314 </r>
       <r>    32.3118     0.0417    15.9373 </r>
       <r>    32.4536     0.0210    15.9403 </r>
       <r>    32.5954     0.0253    15.9439 </r>
       <r>    32.7371     0.0918    15.9569 </r>
       <r>    32.8789     0.0181    15.9595 </r>
       <r>    33.0207     0.0658    15.9688 </r>
       <r>    33.1624     0.0375    15.9741 </r>
       <r>    33.3042     0.0900    15.9869 </r>
       <r>    33.4460     0.0350    15.9918 </r>
       <r>    33.5877     0.0001    15.9919 </r>
       <r>    33.7295     0.0000    15.9919 </r>
       <r>    33.8713     0.0000    15.9919 </r>
       <r>    34.0130     0.0000    15.9919 </r>
       <r>    34.1548     0.0097    15.9932 </r>
       <r>    34.2966     0.0235    15.9966 </r>
       <r>    34.4383     0.0241    16.0000 </r>
       <r>    34.5801     0.0001    16.0000 </r>
       <r>    34.7219     0.0000    16.0000 </r>
       <r>    34.8636     0.0000    16.0000 </r>
       <r>    35.0054     0.0000    16.0000 </r>
       <r>    35.1471     0.0000    16.0000 </r>
       <r>    35.2889     0.0000    16.0000 </r>
       <r>    35.4307     0.0000    16.0000 </r>
       <r>    35.5724     0.0000    16.0000 </r>
       <r>    35.7142     0.0000    16.0000 </r>
       <r>    35.8560     0.0000    16.0000 </r>
       <r>    35.9977     0.0000    16.0000 </r>
       <r>    36.1395     0.0000    16.0000 </r>
       <r>    36.2813     0.0000    16.0000 </r>
      </set>
     </set>
    </array>
   </total>
  </dos>
 </calculation>
 <structure name="finalpos" >
  <crystal>
   <varray name="basis" >
    <v>       1.54058457       1.54058457       1.54058457 </v>
    <v>       1.54058457      -1.54058457      -1.54058457 </v>
    <v>      -1.54058457       1.54058457      -1.54058457 </v>
   </varray>
   <i name="volume">     14.62569883 </i>
   <varray name="rec_basis" >
    <v>       0.32455213       0.32455213       0.00000000 </v>
    <v>       0.32455213       0.00000000      -0.32455213 </v>
    <v>       0.00000000       0.32455213      -0.32455213 </v>
   </varray>
  </crystal>
  <varray name="positions" >
   <v>      -0.00000000      -0.00000000       0.00000000 </v>
  </varray>
 </structure>
</modeling>
