unknown system                          
           1
     1.513326    1.513326    1.513326
     1.513326   -1.513326   -1.513326
    -1.513326    1.513326   -1.513326
   Si
     1
Direct configuration=     1
   0.00000000  0.00000000  0.00000000
unknown system                          
           1
     1.549541    1.549541    1.549541
     1.549541   -1.549541   -1.549541
    -1.549541    1.549541   -1.549541
   Si
     1
Direct configuration=     2
  -0.00000000 -0.00000000  0.00000000
unknown system                          
           1
     1.540585    1.540585    1.540585
     1.540585   -1.540585   -1.540585
    -1.540585    1.540585   -1.540585
   Si
     1
Direct configuration=     3
  -0.00000000 -0.00000000  0.00000000
