   1   1   0   0
  0.1325348E+02  0.2656327E-09  0.2656327E-09  0.2656327E-09  0.5000000E-15
  1.000000000000000E-004
  CAR 
 unknown system                          
     40.91146710     -6.05642869  301     11.33327551      1.00000000
     -6.056  0.0000E+00  0.0000E+00
     -5.900  0.0000E+00  0.0000E+00
     -5.743  0.0000E+00  0.0000E+00
     -5.587  0.0000E+00  0.0000E+00
     -5.430  0.0000E+00  0.0000E+00
     -5.274  0.0000E+00  0.0000E+00
     -5.117  0.0000E+00  0.0000E+00
     -4.961  0.0000E+00  0.0000E+00
     -4.804  0.0000E+00  0.0000E+00
     -4.647  0.0000E+00  0.0000E+00
     -4.491  0.0000E+00  0.0000E+00
     -4.334  0.0000E+00  0.0000E+00
     -4.178  0.8117E-17  0.1271E-17
     -4.021  0.9147E-07  0.1432E-07
     -3.865  0.3922E-04  0.6155E-05
     -3.708  0.4793E-03  0.8119E-04
     -3.551  0.2961E-03  0.1275E-03
     -3.395  0.9632E-03  0.2783E-03
     -3.238  0.4745E-03  0.3526E-03
     -3.082  0.4115E-03  0.4171E-03
     -2.925  0.1606E-02  0.6685E-03
     -2.769  0.8789E-03  0.8061E-03
     -2.612  0.1229E-02  0.9985E-03
     -2.456  0.2727E-03  0.1041E-02
     -2.299  0.1911E-02  0.1340E-02
     -2.142  0.1333E-02  0.1549E-02
     -1.986  0.1058E-02  0.1715E-02
     -1.829  0.1571E-02  0.1961E-02
     -1.673  0.3287E-03  0.2012E-02
     -1.516  0.2552E-02  0.2412E-02
     -1.360  0.1315E-02  0.2618E-02
     -1.203  0.2911E-02  0.3073E-02
     -1.047  0.5033E-03  0.3152E-02
     -0.890  0.5836E-03  0.3244E-02
     -0.733  0.2340E-02  0.3610E-02
     -0.577  0.1414E-02  0.3831E-02
     -0.420  0.2889E-02  0.4284E-02
     -0.264  0.7814E-03  0.4406E-02
     -0.107  0.3657E-02  0.4979E-02
      0.049  0.1354E-02  0.5191E-02
      0.206  0.1588E-02  0.5439E-02
      0.363  0.9051E-03  0.5581E-02
      0.519  0.1179E-02  0.5765E-02
      0.676  0.3531E-02  0.6318E-02
      0.832  0.2506E-02  0.6710E-02
      0.989  0.3812E-02  0.7307E-02
      1.145  0.3745E-03  0.7366E-02
      1.302  0.2151E-02  0.7703E-02
      1.458  0.2607E-02  0.8111E-02
      1.615  0.2166E-02  0.8450E-02
      1.772  0.1255E-02  0.8646E-02
      1.928  0.6357E-03  0.8746E-02
      2.085  0.6020E-02  0.9689E-02
      2.241  0.1628E-02  0.9943E-02
      2.398  0.3982E-02  0.1057E-01
      2.554  0.1357E-02  0.1078E-01
      2.711  0.2288E-02  0.1114E-01
      2.867  0.1650E-02  0.1140E-01
      3.024  0.3392E-02  0.1193E-01
      3.181  0.2745E-02  0.1236E-01
      3.337  0.9158E-03  0.1250E-01
      3.494  0.4268E-02  0.1317E-01
      3.650  0.1648E-02  0.1343E-01
      3.807  0.5448E-02  0.1428E-01
      3.963  0.8259E-03  0.1441E-01
      4.120  0.4299E-02  0.1508E-01
      4.277  0.3669E-02  0.1566E-01
      4.433  0.2053E-02  0.1598E-01
      4.590  0.1387E-02  0.1619E-01
      4.746  0.5505E-03  0.1628E-01
      4.903  0.5362E-02  0.1712E-01
      5.059  0.2452E-02  0.1750E-01
      5.216  0.5950E-02  0.1844E-01
      5.372  0.7637E-03  0.1856E-01
      5.529  0.3268E-02  0.1907E-01
      5.686  0.4635E-02  0.1979E-01
      5.842  0.3581E-02  0.2035E-01
      5.999  0.2537E-02  0.2075E-01
      6.155  0.2887E-02  0.2120E-01
      6.312  0.5038E-02  0.2199E-01
      6.468  0.1488E-02  0.2222E-01
      6.625  0.2132E-02  0.2256E-01
      6.781  0.1226E-02  0.2275E-01
      6.938  0.4233E-02  0.2341E-01
      7.095  0.4964E-02  0.2419E-01
      7.251  0.4428E-02  0.2488E-01
      7.408  0.2576E-02  0.2529E-01
      7.564  0.1459E-02  0.2551E-01
      7.721  0.5216E-02  0.2633E-01
      7.877  0.3613E-02  0.2690E-01
      8.034  0.4296E-02  0.2757E-01
      8.190  0.1944E-02  0.2787E-01
      8.347  0.4510E-02  0.2858E-01
      8.504  0.2554E-02  0.2898E-01
      8.660  0.2702E-02  0.2940E-01
      8.817  0.1239E-02  0.2960E-01
      8.973  0.1984E-02  0.2991E-01
      9.130  0.7470E-02  0.3108E-01
      9.286  0.5161E-02  0.3188E-01
      9.443  0.6069E-02  0.3283E-01
      9.600  0.3178E-02  0.3333E-01
      9.756  0.2235E-02  0.3368E-01
      9.913  0.3213E-02  0.3419E-01
     10.069  0.3983E-02  0.3481E-01
     10.226  0.2754E-02  0.3524E-01
     10.382  0.2402E-02  0.3562E-01
     10.539  0.3994E-02  0.3624E-01
     10.695  0.5443E-02  0.3709E-01
     10.852  0.3425E-02  0.3763E-01
     11.009  0.3096E-02  0.3811E-01
     11.165  0.6311E-02  0.3910E-01
     11.322  0.5516E-02  0.3997E-01
     11.478  0.3500E-02  0.4051E-01
     11.635  0.3360E-02  0.4104E-01
     11.791  0.1434E-02  0.4126E-01
     11.948  0.4102E-02  0.4191E-01
     12.104  0.4863E-02  0.4267E-01
     12.261  0.6187E-02  0.4364E-01
     12.418  0.3331E-02  0.4416E-01
     12.574  0.6932E-02  0.4524E-01
     12.731  0.2208E-02  0.4559E-01
     12.887  0.3869E-02  0.4620E-01
     13.044  0.3377E-02  0.4672E-01
     13.200  0.3699E-02  0.4730E-01
     13.357  0.4726E-02  0.4804E-01
     13.514  0.5836E-02  0.4896E-01
     13.670  0.3919E-02  0.4957E-01
     13.827  0.5289E-02  0.5040E-01
     13.983  0.4480E-02  0.5110E-01
     14.140  0.4821E-02  0.5185E-01
     14.296  0.4039E-02  0.5249E-01
     14.453  0.4656E-02  0.5322E-01
     14.609  0.8163E-02  0.5449E-01
     14.766  0.3833E-02  0.5509E-01
     14.923  0.3908E-02  0.5571E-01
     15.079  0.2527E-02  0.5610E-01
     15.236  0.8916E-02  0.5750E-01
     15.392  0.4671E-02  0.5823E-01
     15.549  0.4241E-02  0.5889E-01
     15.705  0.2733E-02  0.5932E-01
     15.862  0.7307E-02  0.6046E-01
     16.018  0.4671E-02  0.6120E-01
     16.175  0.6834E-02  0.6227E-01
     16.332  0.4651E-02  0.6299E-01
     16.488  0.5657E-02  0.6388E-01
     16.645  0.1961E-02  0.6419E-01
     16.801  0.1820E-02  0.6447E-01
     16.958  0.6221E-02  0.6544E-01
     17.114  0.3963E-02  0.6607E-01
     17.271  0.4191E-02  0.6672E-01
     17.428  0.8406E-02  0.6804E-01
     17.584  0.3006E-02  0.6851E-01
     17.741  0.5771E-02  0.6941E-01
     17.897  0.3142E-02  0.6990E-01
     18.054  0.5136E-02  0.7071E-01
     18.210  0.2595E-02  0.7111E-01
     18.367  0.4960E-02  0.7189E-01
     18.523  0.4302E-02  0.7256E-01
     18.680  0.6093E-02  0.7352E-01
     18.837  0.3196E-02  0.7402E-01
     18.993  0.4059E-02  0.7465E-01
     19.150  0.5554E-02  0.7552E-01
     19.306  0.3771E-02  0.7611E-01
     19.463  0.4634E-02  0.7684E-01
     19.619  0.7873E-02  0.7807E-01
     19.776  0.3824E-02  0.7867E-01
     19.932  0.5444E-02  0.7952E-01
     20.089  0.4751E-02  0.8027E-01
     20.246  0.4614E-02  0.8099E-01
     20.402  0.4855E-02  0.8175E-01
     20.559  0.3871E-02  0.8236E-01
     20.715  0.6288E-02  0.8334E-01
     20.872  0.7001E-02  0.8444E-01
     21.028  0.2643E-02  0.8485E-01
     21.185  0.6563E-02  0.8588E-01
     21.342  0.5203E-02  0.8669E-01
     21.498  0.3548E-02  0.8725E-01
     21.655  0.6800E-02  0.8831E-01
     21.811  0.1580E-02  0.8856E-01
     21.968  0.7632E-02  0.8975E-01
     22.124  0.8100E-02  0.9102E-01
     22.281  0.6086E-02  0.9198E-01
     22.437  0.3944E-02  0.9259E-01
     22.594  0.5261E-02  0.9342E-01
     22.751  0.8384E-02  0.9473E-01
     22.907  0.6389E-02  0.9573E-01
     23.064  0.7080E-02  0.9684E-01
     23.220  0.4879E-02  0.9760E-01
     23.377  0.4504E-02  0.9831E-01
     23.533  0.6709E-02  0.9936E-01
     23.690  0.5096E-02  0.1002E+00
     23.846  0.4442E-02  0.1009E+00
     24.003  0.4331E-02  0.1015E+00
     24.160  0.3905E-02  0.1021E+00
     24.316  0.6152E-02  0.1031E+00
     24.473  0.4527E-02  0.1038E+00
     24.629  0.4261E-02  0.1045E+00
     24.786  0.4248E-02  0.1051E+00
     24.942  0.1068E-01  0.1068E+00
     25.099  0.5349E-02  0.1077E+00
     25.256  0.6239E-02  0.1086E+00
     25.412  0.9461E-02  0.1101E+00
     25.569  0.7100E-02  0.1112E+00
     25.725  0.5862E-02  0.1121E+00
     25.882  0.1895E-02  0.1124E+00
     26.038  0.4181E-02  0.1131E+00
     26.195  0.6761E-02  0.1141E+00
     26.351  0.3823E-02  0.1147E+00
     26.508  0.6955E-02  0.1158E+00
     26.665  0.7276E-02  0.1170E+00
     26.821  0.4499E-02  0.1177E+00
     26.978  0.4214E-02  0.1183E+00
     27.134  0.7552E-02  0.1195E+00
     27.291  0.9943E-02  0.1211E+00
     27.447  0.8178E-02  0.1224E+00
     27.604  0.4028E-02  0.1230E+00
     27.760  0.4935E-02  0.1238E+00
     27.917  0.5463E-02  0.1246E+00
     28.074  0.7317E-02  0.1258E+00
     28.230  0.7261E-02  0.1269E+00
     28.387  0.6935E-02  0.1280E+00
     28.543  0.8135E-02  0.1293E+00
     28.700  0.3916E-02  0.1299E+00
     28.856  0.3106E-02  0.1304E+00
     29.013  0.5463E-02  0.1312E+00
     29.169  0.4573E-02  0.1319E+00
     29.326  0.9223E-02  0.1334E+00
     29.483  0.5778E-02  0.1343E+00
     29.639  0.5109E-02  0.1351E+00
     29.796  0.7275E-02  0.1362E+00
     29.952  0.5255E-02  0.1370E+00
     30.109  0.4065E-02  0.1377E+00
     30.265  0.1091E-01  0.1394E+00
     30.422  0.3957E-02  0.1400E+00
     30.579  0.2531E-02  0.1404E+00
     30.735  0.2056E-02  0.1407E+00
     30.892  0.9957E-03  0.1409E+00
     31.048  0.8921E-02  0.1423E+00
     31.205  0.4569E-02  0.1430E+00
     31.361  0.6327E-02  0.1440E+00
     31.518  0.2703E-02  0.1444E+00
     31.674  0.3160E-02  0.1449E+00
     31.831  0.9525E-02  0.1464E+00
     31.988  0.7226E-02  0.1475E+00
     32.144  0.7057E-02  0.1486E+00
     32.301  0.2596E-02  0.1490E+00
     32.457  0.2261E-02  0.1494E+00
     32.614  0.3636E-02  0.1500E+00
     32.770  0.2785E-02  0.1504E+00
     32.927  0.6527E-02  0.1514E+00
     33.083  0.2093E-02  0.1517E+00
     33.240  0.3083E-02  0.1522E+00
     33.397  0.3393E-02  0.1528E+00
     33.553  0.4260E-02  0.1534E+00
     33.710  0.5203E-02  0.1542E+00
     33.866  0.1991E-02  0.1545E+00
     34.023  0.7523E-03  0.1547E+00
     34.179  0.1276E-02  0.1549E+00
     34.336  0.5077E-02  0.1557E+00
     34.493  0.1365E-02  0.1559E+00
     34.649  0.9943E-03  0.1560E+00
     34.806  0.1777E-02  0.1563E+00
     34.962  0.2042E-03  0.1563E+00
     35.119  0.2874E-02  0.1568E+00
     35.275  0.3412E-02  0.1573E+00
     35.432  0.9615E-03  0.1575E+00
     35.588  0.1889E-02  0.1578E+00
     35.745  0.6219E-03  0.1579E+00
     35.902  0.2830E-02  0.1583E+00
     36.058  0.1376E-02  0.1585E+00
     36.215  0.8460E-03  0.1587E+00
     36.371  0.1515E-02  0.1589E+00
     36.528  0.8429E-05  0.1589E+00
     36.684  0.1614E-02  0.1592E+00
     36.841  0.6371E-03  0.1593E+00
     36.997  0.1903E-04  0.1593E+00
     37.154  0.3136E-03  0.1593E+00
     37.311  0.8206E-03  0.1594E+00
     37.467  0.6264E-03  0.1595E+00
     37.624  0.1393E-02  0.1597E+00
     37.780  0.7377E-04  0.1598E+00
     37.937  0.8579E-03  0.1599E+00
     38.093  0.2228E-05  0.1599E+00
     38.250  0.7624E-10  0.1599E+00
     38.407  0.1136E-03  0.1599E+00
     38.563  0.3406E-03  0.1600E+00
     38.720  0.1223E-04  0.1600E+00
     38.876  0.2144E-03  0.1600E+00
     39.033  0.5488E-06  0.1600E+00
     39.189  0.0000E+00  0.1600E+00
     39.346  0.0000E+00  0.1600E+00
     39.502  0.0000E+00  0.1600E+00
     39.659  0.0000E+00  0.1600E+00
     39.816  0.0000E+00  0.1600E+00
     39.972  0.0000E+00  0.1600E+00
     40.129  0.0000E+00  0.1600E+00
     40.285  0.0000E+00  0.1600E+00
     40.442  0.0000E+00  0.1600E+00
     40.598  0.0000E+00  0.1600E+00
     40.755  0.0000E+00  0.1600E+00
     40.911  0.0000E+00  0.1600E+00
