    1    1  100    1
  0.1325348E+02  0.2656327E-09  0.2656327E-09  0.2656327E-09  0.5000000E-15
  1.000000000000000E-004
  CAR 
 unknown system                          
      4    120      8
 
  0.0000000E+00  0.0000000E+00  0.0000000E+00  0.2962963E-03
    1       -3.921524   1.000000
    2       23.617991   0.000000
    3       23.617999   0.000000
    4       23.618009   0.000000
    5       23.646716   0.000000
    6       23.646724   0.000000
    7       23.646734   0.000000
    8       29.187026   0.000000
 
  0.6666667E-01 -0.3469447E-17  0.0000000E+00  0.2370370E-02
    1       -3.784116   1.000000
    2       20.931249   0.000000
    3       22.594590   0.000000
    4       22.594604   0.000000
    5       24.847520   0.000000
    6       24.847536   0.000000
    7       25.145089   0.000000
    8       30.299743   0.000000
 
  0.1333333E+00 -0.6938894E-17  0.0000000E+00  0.2370370E-02
    1       -3.372468   1.000000
    2       17.901837   0.000000
    3       21.771412   0.000000
    4       21.771424   0.000000
    5       25.448916   0.000000
    6       26.048893   0.000000
    7       26.048909   0.000000
    8       29.174340   0.000000
 
  0.2000000E+00  0.0000000E+00  0.0000000E+00  0.2370370E-02
    1       -2.688325   1.000000
    2       14.900669   0.000000
    3       21.171757   0.000000
    4       21.171768   0.000000
    5       25.378049   0.000000
    6       26.212050   0.000000
    7       26.212060   0.000000
    8       29.206819   0.000000
 
  0.2666667E+00 -0.1387779E-16  0.0000000E+00  0.2370370E-02
    1       -1.734563   1.000000
    2       12.042174   0.000000
    3       20.794735   0.000000
    4       20.794745   0.000000
    5       25.166006   0.000000
    6       25.166014   0.000000
    7       25.292014   0.000000
    8       30.678617   0.000000
 
  0.3333333E+00 -0.1387779E-16  0.0000000E+00  0.2370370E-02
    1       -0.515216   1.000000
    2        9.373850   1.000000
    3       20.629992   0.000000
    4       20.630001   0.000000
    5       24.040907   0.000000
    6       24.040917   0.000000
    7       25.311193   0.000000
    8       29.417460   0.000000
 
  0.4000000E+00 -0.2775558E-16  0.0000000E+00  0.2370370E-02
    1        0.964173   1.000000
    2        6.920960   1.000000
    3       20.645895   0.000000
    4       20.645902   0.000000
    5       23.124332   0.000000
    6       23.124343   0.000000
    7       25.459011   0.000000
    8       28.390229   0.000000
 
  0.4666667E+00 -0.2775558E-16  0.0000000E+00  0.2370370E-02
    1        2.691315   1.000000
    2        4.705154   1.000000
    3       20.747131   0.000000
    4       20.747136   0.000000
    5       22.565264   0.000000
    6       22.565277   0.000000
    7       25.648489   0.000000
    8       27.747579   0.000000
 
  0.6666667E-01  0.6666667E-01  0.0000000E+00  0.1777778E-02
    1       -3.738335   1.000000
    2       21.485285   0.000000
    3       21.485286   0.000000
    4       22.656615   0.000000
    5       23.213964   0.000000
    6       26.014219   0.000000
    7       26.014220   0.000000
    8       29.103784   0.000000
 
  0.1333333E+00  0.6666667E-01  0.0000000E+00  0.7111111E-02
    1       -3.418152   1.000000
    2       18.973718   0.000000
    3       20.589034   0.000000
    4       22.238238   0.000000
    5       23.710940   0.000000
    6       26.761351   0.000000
    7       27.252792   0.000000
    8       27.518862   0.000000
 
  0.2000000E+00  0.6666667E-01  0.0000000E+00  0.7111111E-02
    1       -2.824934   1.000000
    2       15.981363   0.000000
    3       19.920628   0.000000
    4       21.637824   0.000000
    5       24.354964   0.000000
    6       26.448240   0.000000
    7       27.134140   0.000000
    8       27.878597   0.000000
 
  0.2666667E+00  0.6666667E-01  0.0000000E+00  0.7111111E-02
    1       -1.961167   1.000000
    2       13.080146   0.000000
    3       19.484047   0.000000
    4       21.161741   0.000000
    5       23.527600   0.000000
    6       26.443784   0.000000
    7       27.084716   0.000000
    8       28.234058   0.000000
 
  0.3333333E+00  0.6666667E-01  0.0000000E+00  0.7111111E-02
    1       -0.830495   1.000000
    2       10.350681   1.000000
    3       19.279363   0.000000
    4       20.781354   0.000000
    5       22.480772   0.000000
    6       25.944158   0.000000
    7       26.460441   0.000000
    8       29.914095   0.000000
 
  0.4000000E+00  0.6666667E-01  0.0000000E+00  0.7111111E-02
    1        0.562143   1.000000
    2        7.827094   1.000000
    3       19.303824   0.000000
    4       20.296722   0.000000
    5       21.905139   0.000000
    6       24.904327   0.000000
    7       26.527263   0.000000
    8       29.677292   0.000000
 
  0.4666667E+00  0.6666667E-01  0.0000000E+00  0.7111111E-02
    1        2.208748   1.000000
    2        5.530662   1.000000
    3       19.550558   0.000000
    4       19.651308   0.000000
    5       21.936611   0.000000
    6       24.065168   0.000000
    7       26.605233   0.000000
    8       29.052700   0.000000
 
 -0.4666667E+00  0.6666667E-01  0.0000000E+00  0.7111111E-02
    1        3.418158   1.000000
    2        4.158359   1.000000
    3       19.069151   0.000000
    4       20.003489   0.000000
    5       22.371385   0.000000
    6       23.471018   0.000000
    7       26.539922   0.000000
    8       28.959059   0.000000
 
 -0.4000000E+00  0.6666667E-01  0.0000000E+00  0.7111111E-02
    1        1.632599   1.000000
    2        6.269202   1.000000
    3       18.668067   0.000000
    4       20.622047   0.000000
    5       23.094341   0.000000
    6       23.170216   0.000000
    7       26.326972   0.000000
    8       29.433106   0.000000
 
 -0.3333333E+00  0.6666667E-01  0.0000000E+00  0.7111111E-02
    1        0.069216   1.000000
    2        8.643268   1.000000
    3       18.484743   0.000000
    4       21.303463   0.000000
    5       23.259961   0.000000
    6       24.059507   0.000000
    7       26.135744   0.000000
    8       30.261873   0.000000
 
 -0.2666667E+00  0.6666667E-01  0.0000000E+00  0.7111111E-02
    1       -1.236772   1.000000
    2       11.237170   0.996719
    3       18.531875   0.000000
    4       21.895645   0.000000
    5       23.862240   0.000000
    6       25.224774   0.000000
    7       26.051144   0.000000
    8       30.006090   0.000000
 
 -0.2000000E+00  0.6666667E-01  0.0000000E+00  0.7111111E-02
    1       -2.278962   1.000000
    2       14.026267   0.000000
    3       18.814243   0.000000
    4       22.425203   0.000000
    5       24.808682   0.000000
    6       26.053336   0.000000
    7       26.485625   0.000000
    8       28.186564   0.000000
 
 -0.1333333E+00  0.6666667E-01  0.0000000E+00  0.7111111E-02
    1       -3.052897   1.000000
    2       16.962122   0.000000
    3       19.335848   0.000000
    4       23.044313   0.000000
    5       25.041573   0.000000
    6       26.014495   0.000000
    7       27.249259   0.000000
    8       27.621593   0.000000
 
 -0.6666667E-01  0.6666667E-01  0.0000000E+00  0.3555556E-02
    1       -3.555327   1.000000
    2       19.780254   0.000000
    3       20.244965   0.000000
    4       23.730313   0.000000
    5       24.001821   0.000000
    6       25.647205   0.000000
    7       26.486415   0.000000
    8       28.828129   0.000000
 
  0.1333333E+00  0.1333333E+00  0.0000000E+00  0.1777778E-02
    1       -3.189741   1.000000
    2       19.614210   0.000000
    3       19.614211   0.000000
    4       20.893574   0.000000
    5       22.143600   0.000000
    6       25.590307   0.000000
    7       28.554994   0.000000
    8       28.554995   0.000000
 
  0.2000000E+00  0.1333333E+00  0.0000000E+00  0.7111111E-02
    1       -2.688190   1.000000
    2       17.216425   0.000000
    3       18.867371   0.000000
    4       20.764997   0.000000
    5       22.037820   0.000000
    6       24.226222   0.000000
    7       29.297184   0.000000
    8       29.565077   0.000000
 
  0.2666667E+00  0.1333333E+00  0.0000000E+00  0.7111111E-02
    1       -1.915650   1.000000
    2       14.333651   0.000000
    3       18.354179   0.000000
    4       20.227689   0.000000
    5       21.493817   0.000000
    6       24.838955   0.000000
    7       29.183888   0.000000
    8       29.466647   0.000000
 
  0.3333333E+00  0.1333333E+00  0.0000000E+00  0.7111111E-02
    1       -0.875356   1.000000
    2       11.564830   0.000000
    3       18.076075   0.000000
    4       19.374573   0.000000
    5       20.789976   0.000000
    6       26.505006   0.000000
    7       28.122343   0.000000
    8       29.611938   0.000000
 
  0.4000000E+00  0.1333333E+00  0.0000000E+00  0.7111111E-02
    1        0.428206   1.000000
    2        8.981793   1.000000
    3       18.032740   0.000000
    4       18.324366   0.000000
    5       20.611986   0.000000
    6       27.060766   0.000000
    7       27.961537   0.000000
    8       30.262506   0.000000
 
  0.4666667E+00  0.1333333E+00  0.0000000E+00  0.7111111E-02
    1        1.988610   1.000000
    2        6.614481   1.000000
    3       17.372656   0.000000
    4       18.222511   0.000000
    5       20.785367   0.000000
    6       26.155404   0.000000
    7       28.419688   0.000000
    8       31.665379   0.000000
 
 -0.4666667E+00  0.1333333E+00  0.0000000E+00  0.7111111E-02
    1        3.773039   1.000000
    2        4.505499   1.000000
    3       16.621042   0.000000
    4       18.641831   0.000000
    5       21.237071   0.000000
    6       25.457965   0.000000
    7       28.302608   0.000000
    8       31.725012   0.000000
 
 -0.4000000E+00  0.1333333E+00  0.0000000E+00  0.7111111E-02
    1        2.564346   1.000000
    2        5.874844   1.000000
    3       16.099226   0.000000
    4       19.283638   0.000000
    5       21.944100   0.000000
    6       24.992899   0.000000
    7       28.012296   0.000000
    8       32.094525   0.000000
 
 -0.3333333E+00  0.1333333E+00  0.0000000E+00  0.7111111E-02
    1        0.920422   1.000000
    2        8.161904   1.000000
    3       15.819334   0.000000
    4       20.133410   0.000000
    5       22.890345   0.000000
    6       24.777250   0.000000
    7       27.731285   0.000000
    8       31.739158   0.000000
 
 -0.2666667E+00  0.1333333E+00  0.0000000E+00  0.7111111E-02
    1       -0.469804   1.000000
    2       10.666692   1.000000
    3       15.789884   0.000000
    4       21.159623   0.000000
    5       24.052985   0.000000
    6       24.827099   0.000000
    7       27.511566   0.000000
    8       29.459285   0.000000
 
 -0.2000000E+00  0.1333333E+00  0.0000000E+00  0.7111111E-02
    1       -1.598491   1.000000
    2       13.345070   0.000000
    3       16.031862   0.000000
    4       22.289182   0.000000
    5       25.127814   0.000000
    6       25.382878   0.000000
    7       27.284785   0.000000
    8       27.461289   0.000000
 
 -0.1333333E+00  0.1333333E+00  0.0000000E+00  0.3555556E-02
    1       -2.460738   1.000000
    2       15.870579   0.000000
    3       16.826695   0.000000
    4       23.308204   0.000000
    5       25.062769   0.000000
    6       26.601307   0.000000
    7       26.714706   0.000000
    8       26.831204   0.000000
 
  0.2000000E+00  0.2000000E+00  0.0000000E+00  0.1777778E-02
    1       -2.278732   1.000000
    2       18.040775   0.000000
    3       18.040776   0.000000
    4       19.214171   0.000000
    5       20.264777   0.000000
    6       22.461924   0.000000
    7       31.128170   0.000000
    8       31.128171   0.000000
 
  0.2666667E+00  0.2000000E+00  0.0000000E+00  0.7111111E-02
    1       -1.598253   1.000000
    2       15.744616   0.000000
    3       17.448200   0.000000
    4       18.828962   0.000000
    5       19.584252   0.000000
    6       22.220918   0.000000
    7       31.360949   0.000000
    8       31.903949   0.000000
 
  0.3333333E+00  0.2000000E+00  0.0000000E+00  0.7111111E-02
    1       -0.649727   1.000000
    2       12.995803   0.000000
    3       17.091817   0.000000
    4       17.436261   0.000000
    5       19.514278   0.000000
    6       23.637771   0.000000
    7       30.460914   0.000000
    8       32.079789   0.000000
 
  0.4000000E+00  0.2000000E+00  0.0000000E+00  0.7111111E-02
    1        0.562751   1.000000
    2       10.374476   1.000000
    3       16.137705   0.000000
    4       16.971948   0.000000
    5       19.458873   0.000000
    6       25.653383   0.000000
    7       29.427049   0.000000
    8       32.005015   0.000000
 
  0.4666667E+00  0.2000000E+00  0.0000000E+00  0.7111111E-02
    1        2.033416   1.000000
    2        7.947847   1.000000
    3       15.040637   0.000000
    4       17.088004   0.000000
    5       19.616563   0.000000
    6       27.802357   0.000000
    7       28.492467   0.000000
    8       31.842010   0.000000
 
 -0.4666667E+00  0.2000000E+00  0.0000000E+00  0.7111111E-02
    1        3.750708   1.000000
    2        5.747248   1.000000
    3       14.176253   0.000000
    4       17.438538   0.000000
    5       20.019573   0.000000
    6       27.736626   0.000000
    7       29.488842   0.000000
    8       32.065414   0.000000
 
 -0.4000000E+00  0.2000000E+00  0.0000000E+00  0.7111111E-02
    1        3.754170   1.000000
    2        5.738657   1.000000
    3       13.558825   0.000000
    4       18.020700   0.000000
    5       20.670973   0.000000
    6       27.193540   0.000000
    7       29.820398   0.000000
    8       33.308992   0.000000
 
 -0.3333333E+00  0.2000000E+00  0.0000000E+00  0.7111111E-02
    1        2.034746   1.000000
    2        7.925366   1.000000
    3       13.200672   0.000000
    4       18.828730   0.000000
    5       21.563887   0.000000
    6       26.880384   0.000000
    7       29.535205   0.000000
    8       31.542456   0.000000
 
 -0.2666667E+00  0.2000000E+00  0.0000000E+00  0.7111111E-02
    1        0.563098   1.000000
    2       10.300993   1.000000
    3       13.134751   0.000000
    4       19.850237   0.000000
    5       22.681768   0.000000
    6       26.806005   0.000000
    7       29.089326   0.000000
    8       29.151044   0.000000
 
 -0.2000000E+00  0.2000000E+00  0.0000000E+00  0.3555556E-02
    1       -0.649813   1.000000
    2       12.496233   0.000000
    3       13.704782   0.000000
    4       21.052461   0.000000
    5       23.988211   0.000000
    6       26.814427   0.000000
    7       27.139027   0.000000
    8       28.385285   0.000000
 
  0.2666667E+00  0.2666667E+00  0.0000000E+00  0.1777778E-02
    1       -1.010431   1.000000
    2       16.775938   0.000000
    3       16.775939   0.000000
    4       17.115649   0.000000
    5       17.811970   0.000000
    6       20.788594   0.000000
    7       33.494414   0.000000
    8       33.569526   0.000000
 
  0.3333333E+00  0.2666667E+00  0.0000000E+00  0.7111111E-02
    1       -0.154729   1.000000
    2       14.578335   0.000000
    3       15.506777   0.000000
    4       16.340232   0.000000
    5       18.278230   0.000000
    6       21.062137   0.000000
    7       32.858052   0.000000
    8       34.275736   0.000000
 
  0.4000000E+00  0.2666667E+00  0.0000000E+00  0.7111111E-02
    1        0.964878   1.000000
    2       11.981515   0.000000
    3       14.066285   0.000000
    4       16.141765   0.000000
    5       18.453720   0.000000
    6       22.740222   0.000000
    7       31.925312   0.000000
    8       34.291523   0.000000
 
  0.4666667E+00  0.2666667E+00  0.0000000E+00  0.7111111E-02
    1        2.342697   1.000000
    2        9.517991   1.000000
    3       12.856274   0.000000
    4       16.180391   0.000000
    5       18.606554   0.000000
    6       24.969282   0.000000
    7       31.002377   0.000000
    8       33.897914   0.000000
 
 -0.4666667E+00  0.2666667E+00  0.0000000E+00  0.7111111E-02
    1        3.969285   1.000000
    2        7.255546   1.000000
    3       11.893558   0.000000
    4       16.455421   0.000000
    5       18.955078   0.000000
    6       27.403301   0.000000
    7       30.213023   0.000000
    8       33.298984   0.000000
 
 -0.4000000E+00  0.2666667E+00  0.0000000E+00  0.7111111E-02
    1        5.186914   1.000000
    2        5.863447   1.000000
    3       11.192897   0.999964
    4       16.965431   0.000000
    5       19.540910   0.000000
    6       29.611024   0.000000
    7       29.793102   0.000000
    8       32.647993   0.000000
 
 -0.3333333E+00  0.2666667E+00  0.0000000E+00  0.7111111E-02
    1        3.407143   1.000000
    2        7.901204   1.000000
    3       10.792646   1.000000
    4       17.707488   0.000000
    5       20.368130   0.000000
    6       29.220252   0.000000
    7       31.216158   0.000000
    8       31.592058   0.000000
 
 -0.2666667E+00  0.2666667E+00  0.0000000E+00  0.3555556E-02
    1        1.857510   1.000000
    2        9.768687   1.000000
    3       11.064429   1.000000
    4       18.674983   0.000000
    5       21.425328   0.000000
    6       28.946656   0.000000
    7       29.222110   0.000000
    8       30.463555   0.000000
 
  0.3333333E+00  0.3333333E+00  0.0000000E+00  0.1777778E-02
    1        0.607206   1.000000
    2       13.723356   0.000000
    3       15.825083   0.000000
    4       15.825084   0.000000
    5       16.740745   0.000000
    6       19.783330   0.000000
    7       34.788731   0.000000
    8       35.748506   0.000000
 
  0.4000000E+00  0.3333333E+00  0.0000000E+00  0.7111111E-02
    1        1.632086   1.000000
    2       12.173539   0.000000
    3       13.765209   0.000000
    4       15.547436   0.000000
    5       17.406783   0.000000
    6       20.266531   0.000000
    7       34.400119   0.000000
    8       36.285920   0.000000
 
  0.4666667E+00  0.3333333E+00  0.0000000E+00  0.7111111E-02
    1        2.913323   1.000000
    2       10.846381   1.000000
    3       11.337875   0.448244
    4       15.507411   0.000000
    5       17.760425   0.000000
    6       22.131128   0.000000
    7       33.579583   0.000000
    8       36.045773   0.000000
 
 -0.4666667E+00  0.3333333E+00  0.0000000E+00  0.7111111E-02
    1        4.437904   1.000000
    2        8.989912   1.000000
    3        9.842623   1.000000
    4       15.704698   0.000000
    5       18.093509   0.000000
    6       24.541139   0.000000
    7       32.794644   0.000000
    8       35.333689   0.000000
 
 -0.4000000E+00  0.3333333E+00  0.0000000E+00  0.7111111E-02
    1        6.157401   1.000000
    2        6.909847   1.000000
    3        9.084423   1.000000
    4       16.138555   0.000000
    5       18.619801   0.000000
    6       27.169256   0.000000
    7       32.132625   0.000000
    8       34.322608   0.000000
 
 -0.3333333E+00  0.3333333E+00  0.0000000E+00  0.3555556E-02
    1        5.030090   1.000000
    2        7.716509   1.000000
    3        9.014232   1.000000
    4       16.807394   0.000000
    5       19.378441   0.000000
    6       29.814115   0.000000
    7       31.399588   0.000000
    8       32.205139   0.000000
 
  0.4000000E+00  0.4000000E+00  0.0000000E+00  0.1777778E-02
    1        2.559508   1.000000
    2       10.529471   1.000000
    3       15.190526   0.000000
    4       15.190527   0.000000
    5       16.020099   0.000000
    6       19.128002   0.000000
    7       36.125623   0.000000
    8       37.575409   0.000000
 
  0.4666667E+00  0.4000000E+00  0.0000000E+00  0.7111111E-02
    1        3.736513   1.000000
    2        9.132635   1.000000
    3       13.259421   0.000000
    4       15.071416   0.000000
    5       16.883408   0.000000
    6       19.786600   0.000000
    7       35.922456   0.000000
    8       37.837370   0.000000
 
 -0.4666667E+00  0.4000000E+00  0.0000000E+00  0.7111111E-02
    1        5.126110   1.000000
    2        8.027081   1.000000
    3       10.975772   1.000000
    4       15.190036   0.000000
    5       17.412534   0.000000
    6       21.822643   0.000000
    7       35.230983   0.000000
    8       37.197966   0.000000
 
 -0.4000000E+00  0.4000000E+00  0.0000000E+00  0.3555556E-02
    1        6.347432   1.000000
    2        7.584159   1.000000
    3        8.853102   1.000000
    4       15.546036   0.000000
    5       17.921541   0.000000
    6       24.395956   0.000000
    7       34.251324   0.000000
    8       35.542190   0.000000
 
  0.4666667E+00  0.4666667E+00  0.0000000E+00  0.1777778E-02
    1        4.778269   1.000000
    2        7.680168   1.000000
    3       14.873112   0.000000
    4       14.873113   0.000000
    5       15.658206   0.000000
    6       18.798623   0.000000
    7       37.093779   0.000000
    8       38.776563   0.000000
 
 -0.4666667E+00  0.4666667E+00  0.0000000E+00  0.3555556E-02
    1        5.662914   1.000000
    2        6.890546   1.000000
    3       13.091301   0.000000
    4       14.912690   0.000000
    5       16.708594   0.000000
    6       19.625621   0.000000
    7       36.779135   0.000000
    8       38.430343   0.000000
 
  0.2000000E+00  0.1333333E+00  0.6666667E-01  0.7111111E-02
    1       -3.007252   1.000000
    2       17.848505   0.000000
    3       18.516795   0.000000
    4       22.906225   0.000000
    5       22.984801   0.000000
    6       25.956415   0.000000
    7       27.729544   0.000000
    8       28.152560   0.000000
 
  0.2666667E+00  0.1333333E+00  0.6666667E-01  0.1422222E-01
    1       -2.324326   1.000000
    2       15.167070   0.000000
    3       17.681357   0.000000
    4       22.146427   0.000000
    5       23.375073   0.000000
    6       25.654554   0.000000
    7       27.910363   0.000000
    8       28.157870   0.000000
 
  0.3333333E+00  0.1333333E+00  0.6666667E-01  0.1422222E-01
    1       -1.372253   1.000000
    2       12.355088   0.000000
    3       17.301640   0.000000
    4       21.163628   0.000000
    5       22.864381   0.000000
    6       26.420471   0.000000
    7       27.304075   0.000000
    8       28.492856   0.000000
 
  0.4000000E+00  0.1333333E+00  0.6666667E-01  0.1422222E-01
    1       -0.155072   1.000000
    2        9.705613   1.000000
    3       17.173338   0.000000
    4       20.077658   0.000000
    5       22.595989   0.000000
    6       25.498747   0.000000
    7       27.753905   0.000000
    8       29.899382   0.000000
 
  0.4666667E+00  0.1333333E+00  0.6666667E-01  0.1422222E-01
    1        1.321686   1.000000
    2        7.262782   1.000000
    3       17.283324   0.000000
    4       19.090506   0.000000
    5       22.626727   0.000000
    6       24.530258   0.000000
    7       27.959318   0.000000
    8       31.263208   0.000000
 
 -0.4666667E+00  0.1333333E+00  0.6666667E-01  0.1422222E-01
    1        3.046196   1.000000
    2        5.052586   1.000000
    3       17.601312   0.000000
    4       18.320468   0.000000
    5       22.845635   0.000000
    6       23.835287   0.000000
    7       28.093380   0.000000
    8       30.920913   0.000000
 
  0.2666667E+00  0.2000000E+00  0.6666667E-01  0.7111111E-02
    1       -2.097102   1.000000
    2       16.196502   0.000000
    3       16.972682   0.000000
    4       20.704661   0.000000
    5       21.362698   0.000000
    6       23.409016   0.000000
    7       29.774395   0.000000
    8       30.479440   0.000000
 
  0.3333333E+00  0.2000000E+00  0.6666667E-01  0.1422222E-01
    1       -1.236444   1.000000
    2       13.668817   0.000000
    3       16.255321   0.000000
    4       19.305343   0.000000
    5       21.611504   0.000000
    6       24.290493   0.000000
    7       28.935304   0.000000
    8       30.946320   0.000000
 
  0.4000000E+00  0.2000000E+00  0.6666667E-01  0.1422222E-01
    1       -0.109891   1.000000
    2       11.000990   1.000000
    3       16.022933   0.000000
    4       17.967672   0.000000
    5       21.521156   0.000000
    6       26.058758   0.000000
    7       27.922502   0.000000
    8       31.102169   0.000000
 
  0.4666667E+00  0.2000000E+00  0.6666667E-01  0.1422222E-01
    1        1.277543   1.000000
    2        8.503708   1.000000
    3       16.029734   0.000000
    4       16.837533   0.000000
    5       21.586380   0.000000
    6       26.565977   0.000000
    7       28.404582   0.000000
    8       31.314461   0.000000
 
 -0.4666667E+00  0.2000000E+00  0.6666667E-01  0.1422222E-01
    1        2.917924   1.000000
    2        6.221740   1.000000
    3       15.789319   0.000000
    4       16.425105   0.000000
    5       21.875905   0.000000
    6       25.804978   0.000000
    7       29.749037   0.000000
    8       32.077431   0.000000
 
 -0.4000000E+00  0.2000000E+00  0.6666667E-01  0.1422222E-01
    1        4.128189   1.000000
    2        4.849339   1.000000
    3       15.134376   0.000000
    4       16.908537   0.000000
    5       22.391775   0.000000
    6       25.188270   0.000000
    7       29.979719   0.000000
    8       33.263950   0.000000
 
 -0.3333333E+00  0.2000000E+00  0.6666667E-01  0.1422222E-01
    1        2.344459   1.000000
    2        6.951662   1.000000
    3       14.692377   0.000000
    4       17.663620   0.000000
    5       23.107178   0.000000
    6       24.814831   0.000000
    7       29.679742   0.000000
    8       31.965496   0.000000
 
 -0.2666667E+00  0.2000000E+00  0.6666667E-01  0.1422222E-01
    1        0.786638   1.000000
    2        9.300374   1.000000
    3       14.501727   0.000000
    4       18.650837   0.000000
    5       23.890525   0.000000
    6       24.801102   0.000000
    7       28.760240   0.000000
    8       30.398444   0.000000
 
 -0.2000000E+00  0.2000000E+00  0.6666667E-01  0.1422222E-01
    1       -0.514682   1.000000
    2       11.828942   0.000000
    3       14.592020   0.000000
    4       19.845743   0.000000
    5       24.334566   0.000000
    6       25.388658   0.000000
    7       27.104356   0.000000
    8       29.772843   0.000000
 
 -0.1333333E+00  0.2000000E+00  0.6666667E-01  0.7111111E-02
    1       -1.553150   1.000000
    2       14.190560   0.000000
    3       15.276388   0.000000
    4       21.185946   0.000000
    5       24.245228   0.000000
    6       25.242181   0.000000
    7       27.026080   0.000000
    8       29.171581   0.000000
 
  0.3333333E+00  0.2666667E+00  0.6666667E-01  0.7111111E-02
    1       -0.829987   1.000000
    2       14.860196   0.000000
    3       15.692683   0.000000
    4       17.352369   0.000000
    5       20.048912   0.000000
    6       22.023145   0.000000
    7       31.159941   0.000000
    8       33.171464   0.000000
 
  0.4000000E+00  0.2666667E+00  0.6666667E-01  0.1422222E-01
    1        0.204395   1.000000
    2       12.490689   0.000000
    3       15.094275   0.000000
    4       15.892082   0.000000
    5       20.451975   0.000000
    6       23.277135   0.000000
    7       30.227038   0.000000
    8       33.631134   0.000000
 
  0.4666667E+00  0.2666667E+00  0.6666667E-01  0.1422222E-01
    1        1.500141   1.000000
    2        9.977320   1.000000
    3       14.513281   0.000000
    4       15.127759   0.000000
    5       20.564320   0.000000
    6       25.340379   0.000000
    7       29.250016   0.000000
    8       33.564175   0.000000
 
 -0.4666667E+00  0.2666667E+00  0.6666667E-01  0.1422222E-01
    1        3.050283   1.000000
    2        7.640430   1.000000
    3       13.511178   0.000000
    4       15.287261   0.000000
    5       20.820781   0.000000
    6       27.411805   0.000000
    7       28.634885   0.000000
    8       33.196526   0.000000
 
 -0.4000000E+00  0.2666667E+00  0.6666667E-01  0.1422222E-01
    1        4.826914   1.000000
    2        5.541801   1.000000
    3       12.726816   0.000000
    4       15.728266   0.000000
    5       21.295225   0.000000
    6       27.447950   0.000000
    7       30.206614   0.000000
    8       32.522476   0.000000
 
 -0.3333333E+00  0.2666667E+00  0.6666667E-01  0.1422222E-01
    1        3.625623   1.000000
    2        6.888497   1.000000
    3       12.200101   0.000000
    4       16.417382   0.000000
    5       21.996574   0.000000
    6       27.003241   0.000000
    7       31.021648   0.000000
    8       31.897380   0.000000
 
 -0.2666667E+00  0.2666667E+00  0.6666667E-01  0.1422222E-01
    1        1.990564   1.000000
    2        9.103620   1.000000
    3       11.969489   0.000000
    4       17.345080   0.000000
    5       22.912538   0.000000
    6       26.715447   0.000000
    7       28.987895   0.000000
    8       31.841186   0.000000
 
 -0.2000000E+00  0.2666667E+00  0.6666667E-01  0.7111111E-02
    1        0.607910   1.000000
    2       11.134542   1.000000
    3       12.394151   0.000000
    4       18.498718   0.000000
    5       23.997864   0.000000
    6       26.259519   0.000000
    7       27.217476   0.000000
    8       31.050060   0.000000
 
  0.4000000E+00  0.3333333E+00  0.6666667E-01  0.7111111E-02
    1        0.786138   1.000000
    2       13.851811   0.000000
    3       13.861755   0.000000
    4       14.801325   0.000000
    5       19.042509   0.000000
    6       21.086762   0.000000
    7       32.640747   0.000000
    8       35.568497   0.000000
 
  0.4666667E+00  0.3333333E+00  0.6666667E-01  0.1422222E-01
    1        1.987818   1.000000
    2       11.636477   0.000000
    3       12.521700   0.000000
    4       14.342071   0.000000
    5       19.623449   0.000000
    6       22.537054   0.000000
    7       31.779914   0.000000
    8       35.796156   0.000000
 
 -0.4666667E+00  0.3333333E+00  0.6666667E-01  0.1422222E-01
    1        3.442720   1.000000
    2        9.289061   1.000000
    3       11.387138   0.063823
    4       14.427655   0.000000
    5       19.914774   0.000000
    6       24.798421   0.000000
    7       30.916801   0.000000
    8       35.173386   0.000000
 