       N       E                     dE             d eps       ncg     rms          rms(c)
DAV:   1    -0.145775662299E+01   -0.14578E+01   -0.22679E+03  2000   0.506E+02
DAV:   2    -0.485955260520E+01   -0.34018E+01   -0.32098E+01  2752   0.363E+01
DAV:   3    -0.487974228122E+01   -0.20190E-01   -0.20185E-01  2392   0.306E+00
DAV:   4    -0.487976007129E+01   -0.17790E-04   -0.17788E-04  3008   0.995E-02
DAV:   5    -0.487976007342E+01   -0.21298E-08   -0.33923E-08  2352   0.879E-04    0.315E+00
DAV:   6    -0.486452519220E+01    0.15235E-01   -0.38308E-03  2296   0.278E-01    0.174E+00
DAV:   7    -0.485560410561E+01    0.89211E-02   -0.79234E-03  2352   0.400E-01    0.147E-01
DAV:   8    -0.485555594874E+01    0.48157E-04   -0.27458E-05  2984   0.426E-02    0.149E-02
DAV:   9    -0.485555600999E+01   -0.61246E-07   -0.46182E-07  2384   0.391E-03
   1 F= -.48555560E+01 E0= -.48553524E+01  d E =-.485556E+01
