<?xml version="1.0" encoding="ISO-8859-1"?>
<modeling>
 <generator>
  <i name="program" type="string">vasp </i>
  <i name="version" type="string">6.2.0  </i>
  <i name="subversion" type="string">18Jan21 (build Aug 12 2022 13:00:08) complex                          parallel </i>
  <i name="platform" type="string">LinuxIFC </i>
  <i name="date" type="string">2024 11 05 </i>
  <i name="time" type="string">05:18:45 </i>
 </generator>
 <incar>
  <i type="int" name="ISTART">     0</i>
  <i type="string" name="PREC">Accurate      (Accurate strictly avoids</i>
  <i type="logical" name="ADDGRID"> T  </i>
  <i type="int" name="ISPIN">     1</i>
  <i type="int" name="NELM">    90</i>
  <i type="int" name="NELMIN">     6</i>
  <i type="int" name="IBRION">     2</i>
  <i name="EDIFF">      0.00000100</i>
  <i name="EDIFFG">     -0.00200000</i>
  <i type="int" name="NSW">   100</i>
  <i type="int" name="ISIF">     2</i>
  <i type="int" name="ISYM">     2</i>
  <i name="ENCUT">    700.00000000</i>
  <i type="logical" name="LREAL"> F  </i>
  <i type="int" name="ISMEAR">     0</i>
  <i name="SIGMA">      0.05000000</i>
  <i type="logical" name="LWAVE"> F  </i>
  <i type="logical" name="LCHARG"> F  </i>
  <i type="logical" name="LASPH"> T  </i>
 </incar>
 <primitive_cell>
  <structure name="primitive_cell" >
   <crystal>
    <varray name="basis" >
     <v>       2.30044710       0.00000000       1.32816264 </v>
     <v>       0.76681570       2.16888210       1.32816264 </v>
     <v>       0.00000000       0.00000000       2.65632724 </v>
    </varray>
    <i name="volume">     13.25347525 </i>
    <varray name="rec_basis" >
     <v>       0.43469811      -0.15368901       0.00000000 </v>
     <v>       0.00000000       0.46106702       0.00000000 </v>
     <v>      -0.21734889      -0.15368889       0.37645964 </v>
    </varray>
   </crystal>
   <varray name="positions" >
    <v>       0.00000000       0.00000000       0.00000000 </v>
   </varray>
  </structure>
  <varray name="primitive_index" >
   <v type="int" >        1 </v>
  </varray>
 </primitive_cell>
 <kpoints>
  <generation param="Monkhorst-Pack">
   <v type="int" name="divisions">      15       15       15 </v>
   <v name="usershift">      0.00000000       0.00000000       0.00000000 </v>
   <v name="genvec1">      0.06666667       0.00000000       0.00000000 </v>
   <v name="genvec2">      0.00000000       0.06666667       0.00000000 </v>
   <v name="genvec3">     -0.00000000      -0.00000000       0.06666667 </v>
   <v name="shift">      0.00000000       0.00000000       0.00000000 </v>
  </generation>
  <varray name="kpointlist" >
   <v>       0.00000000       0.00000000       0.00000000 </v>
   <v>       0.06666667      -0.00000000       0.00000000 </v>
   <v>       0.13333333      -0.00000000       0.00000000 </v>
   <v>       0.20000000       0.00000000       0.00000000 </v>
   <v>       0.26666667      -0.00000000       0.00000000 </v>
   <v>       0.33333333      -0.00000000       0.00000000 </v>
   <v>       0.40000000      -0.00000000       0.00000000 </v>
   <v>       0.46666667      -0.00000000       0.00000000 </v>
   <v>       0.06666667       0.06666667       0.00000000 </v>
   <v>       0.13333333       0.06666667       0.00000000 </v>
   <v>       0.20000000       0.06666667       0.00000000 </v>
   <v>       0.26666667       0.06666667       0.00000000 </v>
   <v>       0.33333333       0.06666667       0.00000000 </v>
   <v>       0.40000000       0.06666667       0.00000000 </v>
   <v>       0.46666667       0.06666667       0.00000000 </v>
   <v>      -0.46666667       0.06666667       0.00000000 </v>
   <v>      -0.40000000       0.06666667       0.00000000 </v>
   <v>      -0.33333333       0.06666667       0.00000000 </v>
   <v>      -0.26666667       0.06666667       0.00000000 </v>
   <v>      -0.20000000       0.06666667       0.00000000 </v>
   <v>      -0.13333333       0.06666667       0.00000000 </v>
   <v>      -0.06666667       0.06666667       0.00000000 </v>
   <v>       0.13333333       0.13333333       0.00000000 </v>
   <v>       0.20000000       0.13333333       0.00000000 </v>
   <v>       0.26666667       0.13333333       0.00000000 </v>
   <v>       0.33333333       0.13333333       0.00000000 </v>
   <v>       0.40000000       0.13333333       0.00000000 </v>
   <v>       0.46666667       0.13333333       0.00000000 </v>
   <v>      -0.46666667       0.13333333       0.00000000 </v>
   <v>      -0.40000000       0.13333333       0.00000000 </v>
   <v>      -0.33333333       0.13333333       0.00000000 </v>
   <v>      -0.26666667       0.13333333       0.00000000 </v>
   <v>      -0.20000000       0.13333333       0.00000000 </v>
   <v>      -0.13333333       0.13333333       0.00000000 </v>
   <v>       0.20000000       0.20000000       0.00000000 </v>
   <v>       0.26666667       0.20000000       0.00000000 </v>
   <v>       0.33333333       0.20000000       0.00000000 </v>
   <v>       0.40000000       0.20000000       0.00000000 </v>
   <v>       0.46666667       0.20000000       0.00000000 </v>
   <v>      -0.46666667       0.20000000       0.00000000 </v>
   <v>      -0.40000000       0.20000000       0.00000000 </v>
   <v>      -0.33333333       0.20000000       0.00000000 </v>
   <v>      -0.26666667       0.20000000       0.00000000 </v>
   <v>      -0.20000000       0.20000000       0.00000000 </v>
   <v>       0.26666667       0.26666667       0.00000000 </v>
   <v>       0.33333333       0.26666667       0.00000000 </v>
   <v>       0.40000000       0.26666667       0.00000000 </v>
   <v>       0.46666667       0.26666667       0.00000000 </v>
   <v>      -0.46666667       0.26666667       0.00000000 </v>
   <v>      -0.40000000       0.26666667       0.00000000 </v>
   <v>      -0.33333333       0.26666667       0.00000000 </v>
   <v>      -0.26666667       0.26666667       0.00000000 </v>
   <v>       0.33333333       0.33333333       0.00000000 </v>
   <v>       0.40000000       0.33333333       0.00000000 </v>
   <v>       0.46666667       0.33333333       0.00000000 </v>
   <v>      -0.46666667       0.33333333       0.00000000 </v>
   <v>      -0.40000000       0.33333333       0.00000000 </v>
   <v>      -0.33333333       0.33333333       0.00000000 </v>
   <v>       0.40000000       0.40000000       0.00000000 </v>
   <v>       0.46666667       0.40000000       0.00000000 </v>
   <v>      -0.46666667       0.40000000       0.00000000 </v>
   <v>      -0.40000000       0.40000000       0.00000000 </v>
   <v>       0.46666667       0.46666667       0.00000000 </v>
   <v>      -0.46666667       0.46666667       0.00000000 </v>
   <v>       0.20000000       0.13333333       0.06666667 </v>
   <v>       0.26666667       0.13333333       0.06666667 </v>
   <v>       0.33333333       0.13333333       0.06666667 </v>
   <v>       0.40000000       0.13333333       0.06666667 </v>
   <v>       0.46666667       0.13333333       0.06666667 </v>
   <v>      -0.46666667       0.13333333       0.06666667 </v>
   <v>       0.26666667       0.20000000       0.06666667 </v>
   <v>       0.33333333       0.20000000       0.06666667 </v>
   <v>       0.40000000       0.20000000       0.06666667 </v>
   <v>       0.46666667       0.20000000       0.06666667 </v>
   <v>      -0.46666667       0.20000000       0.06666667 </v>
   <v>      -0.40000000       0.20000000       0.06666667 </v>
   <v>      -0.33333333       0.20000000       0.06666667 </v>
   <v>      -0.26666667       0.20000000       0.06666667 </v>
   <v>      -0.20000000       0.20000000       0.06666667 </v>
   <v>      -0.13333333       0.20000000       0.06666667 </v>
   <v>       0.33333333       0.26666667       0.06666667 </v>
   <v>       0.40000000       0.26666667       0.06666667 </v>
   <v>       0.46666667       0.26666667       0.06666667 </v>
   <v>      -0.46666667       0.26666667       0.06666667 </v>
   <v>      -0.40000000       0.26666667       0.06666667 </v>
   <v>      -0.33333333       0.26666667       0.06666667 </v>
   <v>      -0.26666667       0.26666667       0.06666667 </v>
   <v>      -0.20000000       0.26666667       0.06666667 </v>
   <v>       0.40000000       0.33333333       0.06666667 </v>
   <v>       0.46666667       0.33333333       0.06666667 </v>
   <v>      -0.46666667       0.33333333       0.06666667 </v>
   <v>      -0.40000000       0.33333333       0.06666667 </v>
   <v>      -0.33333333       0.33333333       0.06666667 </v>
   <v>      -0.26666667       0.33333333       0.06666667 </v>
   <v>       0.46666667       0.40000000       0.06666667 </v>
   <v>      -0.46666667       0.40000000       0.06666667 </v>
   <v>      -0.40000000       0.40000000       0.06666667 </v>
   <v>      -0.33333333       0.40000000       0.06666667 </v>
   <v>      -0.46666667       0.46666667       0.06666667 </v>
   <v>      -0.40000000       0.46666667       0.06666667 </v>
   <v>       0.40000000       0.26666667       0.13333333 </v>
   <v>       0.46666667       0.26666667       0.13333333 </v>
   <v>      -0.46666667       0.26666667       0.13333333 </v>
   <v>      -0.40000000       0.26666667       0.13333333 </v>
   <v>       0.46666667       0.33333333       0.13333333 </v>
   <v>      -0.46666667       0.33333333       0.13333333 </v>
   <v>      -0.40000000       0.33333333       0.13333333 </v>
   <v>      -0.33333333       0.33333333       0.13333333 </v>
   <v>      -0.26666667       0.33333333       0.13333333 </v>
   <v>      -0.20000000       0.33333333       0.13333333 </v>
   <v>      -0.46666667       0.40000000       0.13333333 </v>
   <v>      -0.40000000       0.40000000       0.13333333 </v>
   <v>      -0.33333333       0.40000000       0.13333333 </v>
   <v>      -0.26666667       0.40000000       0.13333333 </v>
   <v>      -0.40000000       0.46666667       0.13333333 </v>
   <v>      -0.33333333       0.46666667       0.13333333 </v>
   <v>      -0.40000000       0.40000000       0.20000000 </v>
   <v>      -0.33333333       0.40000000       0.20000000 </v>
   <v>      -0.33333333       0.46666667       0.20000000 </v>
   <v>      -0.26666667       0.46666667       0.20000000 </v>
  </varray>
  <varray name="weights" >
   <v>       0.00029630 </v>
   <v>       0.00237037 </v>
   <v>       0.00237037 </v>
   <v>       0.00237037 </v>
   <v>       0.00237037 </v>
   <v>       0.00237037 </v>
   <v>       0.00237037 </v>
   <v>       0.00237037 </v>
   <v>       0.00177778 </v>
   <v>       0.00711111 </v>
   <v>       0.00711111 </v>
   <v>       0.00711111 </v>
   <v>       0.00711111 </v>
   <v>       0.00711111 </v>
   <v>       0.00711111 </v>
   <v>       0.00711111 </v>
   <v>       0.00711111 </v>
   <v>       0.00711111 </v>
   <v>       0.00711111 </v>
   <v>       0.00711111 </v>
   <v>       0.00711111 </v>
   <v>       0.00355556 </v>
   <v>       0.00177778 </v>
   <v>       0.00711111 </v>
   <v>       0.00711111 </v>
   <v>       0.00711111 </v>
   <v>       0.00711111 </v>
   <v>       0.00711111 </v>
   <v>       0.00711111 </v>
   <v>       0.00711111 </v>
   <v>       0.00711111 </v>
   <v>       0.00711111 </v>
   <v>       0.00711111 </v>
   <v>       0.00355556 </v>
   <v>       0.00177778 </v>
   <v>       0.00711111 </v>
   <v>       0.00711111 </v>
   <v>       0.00711111 </v>
   <v>       0.00711111 </v>
   <v>       0.00711111 </v>
   <v>       0.00711111 </v>
   <v>       0.00711111 </v>
   <v>       0.00711111 </v>
   <v>       0.00355556 </v>
   <v>       0.00177778 </v>
   <v>       0.00711111 </v>
   <v>       0.00711111 </v>
   <v>       0.00711111 </v>
   <v>       0.00711111 </v>
   <v>       0.00711111 </v>
   <v>       0.00711111 </v>
   <v>       0.00355556 </v>
   <v>       0.00177778 </v>
   <v>       0.00711111 </v>
   <v>       0.00711111 </v>
   <v>       0.00711111 </v>
   <v>       0.00711111 </v>
   <v>       0.00355556 </v>
   <v>       0.00177778 </v>
   <v>       0.00711111 </v>
   <v>       0.00711111 </v>
   <v>       0.00355556 </v>
   <v>       0.00177778 </v>
   <v>       0.00355556 </v>
   <v>       0.00711111 </v>
   <v>       0.01422222 </v>
   <v>       0.01422222 </v>
   <v>       0.01422222 </v>
   <v>       0.01422222 </v>
   <v>       0.01422222 </v>
   <v>       0.00711111 </v>
   <v>       0.01422222 </v>
   <v>       0.01422222 </v>
   <v>       0.01422222 </v>
   <v>       0.01422222 </v>
   <v>       0.01422222 </v>
   <v>       0.01422222 </v>
   <v>       0.01422222 </v>
   <v>       0.01422222 </v>
   <v>       0.00711111 </v>
   <v>       0.00711111 </v>
   <v>       0.01422222 </v>
   <v>       0.01422222 </v>
   <v>       0.01422222 </v>
   <v>       0.01422222 </v>
   <v>       0.01422222 </v>
   <v>       0.01422222 </v>
   <v>       0.00711111 </v>
   <v>       0.00711111 </v>
   <v>       0.01422222 </v>
   <v>       0.01422222 </v>
   <v>       0.01422222 </v>
   <v>       0.01422222 </v>
   <v>       0.00711111 </v>
   <v>       0.00711111 </v>
   <v>       0.01422222 </v>
   <v>       0.01422222 </v>
   <v>       0.00711111 </v>
   <v>       0.00711111 </v>
   <v>       0.00711111 </v>
   <v>       0.00711111 </v>
   <v>       0.01422222 </v>
   <v>       0.01422222 </v>
   <v>       0.01422222 </v>
   <v>       0.00711111 </v>
   <v>       0.01422222 </v>
   <v>       0.01422222 </v>
   <v>       0.01422222 </v>
   <v>       0.01422222 </v>
   <v>       0.00711111 </v>
   <v>       0.00711111 </v>
   <v>       0.01422222 </v>
   <v>       0.01422222 </v>
   <v>       0.00711111 </v>
   <v>       0.00711111 </v>
   <v>       0.00711111 </v>
   <v>       0.00711111 </v>
   <v>       0.01422222 </v>
   <v>       0.00711111 </v>
   <v>       0.00711111 </v>
  </varray>
 </kpoints>
 <parameters>
  <separator name="general" >
   <i type="string" name="SYSTEM">unknown system</i>
   <i type="logical" name="LCOMPAT"> F  </i>
  </separator>
  <separator name="electronic" >
   <i type="string" name="PREC">accura</i>
   <i name="ENMAX">    700.00000000</i>
   <i name="ENAUG">    322.06900000</i>
   <i name="EDIFF">      0.00000100</i>
   <i type="int" name="IALGO">    38</i>
   <i type="int" name="IWAVPR">    11</i>
   <i type="int" name="NBANDS">     8</i>
   <i type="int" name="NBANDSLOW">    -1</i>
   <i type="int" name="NBANDSHIGH">    -1</i>
   <i name="NELECT">      4.00000000</i>
   <i type="int" name="TURBO">     0</i>
   <i type="int" name="IRESTART">     0</i>
   <i type="int" name="NREBOOT">     0</i>
   <i type="int" name="NMIN">     0</i>
   <i name="EREF">      0.00000000</i>
   <separator name="electronic smearing" >
    <i type="int" name="ISMEAR">     0</i>
    <i name="SIGMA">      0.05000000</i>
    <i name="KSPACING">      0.50000000</i>
    <i type="logical" name="KGAMMA"> T  </i>
    <i type="logical" name="KBLOWUP"> T  </i>
   </separator>
   <separator name="electronic projectors" >
    <i type="logical" name="LREAL"> F  </i>
    <v name="ROPT">      0.00000000</v>
    <i type="int" name="LMAXPAW">  -100</i>
    <i type="int" name="LMAXMIX">     2</i>
    <i type="logical" name="NLSPLINE"> F  </i>
   </separator>
   <separator name="electronic startup" >
    <i type="int" name="ISTART">     0</i>
    <i type="int" name="ICHARG">     2</i>
    <i type="int" name="INIWAV">     1</i>
   </separator>
   <separator name="electronic spin" >
    <i type="int" name="ISPIN">     1</i>
    <i type="logical" name="LNONCOLLINEAR"> F  </i>
    <v name="MAGMOM">      1.00000000</v>
    <i name="NUPDOWN">     -1.00000000</i>
    <i type="logical" name="LSORBIT"> F  </i>
    <v name="SAXIS">      0.00000000      0.00000000      1.00000000</v>
    <i type="logical" name="LSPIRAL"> F  </i>
    <v name="QSPIRAL">      0.00000000      0.00000000      0.00000000</v>
    <i type="logical" name="LZEROZ"> F  </i>
   </separator>
   <separator name="electronic exchange-correlation" >
    <i type="logical" name="LASPH"> T  </i>
    <i type="logical" name="LMETAGGA"> F  </i>
   </separator>
   <separator name="electronic convergence" >
    <i type="int" name="NELM">    90</i>
    <i type="int" name="NELMDL">    -5</i>
    <i type="int" name="NELMIN">     6</i>
    <i name="ENINI">    700.00000000</i>
    <separator name="electronic convergence detail" >
     <i type="logical" name="LDIAG"> T  </i>
     <i type="logical" name="LSUBROT"> F  </i>
     <i name="WEIMIN">      0.00100000</i>
     <i name="EBREAK">      0.00000003</i>
     <i name="DEPER">      0.30000000</i>
     <i type="int" name="NRMM">     4</i>
     <i name="TIME">      0.40000000</i>
    </separator>
   </separator>
   <separator name="electronic mixer" >
    <i name="AMIX">      0.40000000</i>
    <i name="BMIX">      1.00000000</i>
    <i name="AMIN">      0.10000000</i>
    <i name="AMIX_MAG">      1.60000000</i>
    <i name="BMIX_MAG">      1.00000000</i>
    <separator name="electronic mixer details" >
     <i type="int" name="IMIX">     4</i>
     <i type="logical" name="MIXFIRST"> F  </i>
     <i type="int" name="MAXMIX">   -45</i>
     <i name="WC">    100.00000000</i>
     <i type="int" name="INIMIX">     1</i>
     <i type="int" name="MIXPRE">     1</i>
     <i type="int" name="MREMOVE">     5</i>
    </separator>
   </separator>
   <separator name="electronic dipolcorrection" >
    <i type="logical" name="LDIPOL"> F  </i>
    <i type="logical" name="LMONO"> F  </i>
    <i type="int" name="IDIPOL">     0</i>
    <i name="EPSILON">      1.00000000</i>
    <v name="DIPOL">   -100.00000000   -100.00000000   -100.00000000</v>
    <i name="EFIELD">      0.00000000</i>
   </separator>
  </separator>
  <separator name="grids" >
   <i type="int" name="NGX">    24</i>
   <i type="int" name="NGY">    24</i>
   <i type="int" name="NGZ">    24</i>
   <i type="int" name="NGXF">    48</i>
   <i type="int" name="NGYF">    48</i>
   <i type="int" name="NGZF">    48</i>
   <i type="logical" name="ADDGRID"> T  </i>
  </separator>
  <separator name="ionic" >
   <i type="int" name="NSW">   100</i>
   <i type="int" name="IBRION">     2</i>
   <i type="int" name="MDALGO">     0</i>
   <i type="int" name="ISIF">     2</i>
   <i name="PSTRESS">      0.00000000</i>
   <i name="EDIFFG">     -0.00200000</i>
   <i type="int" name="NFREE">     1</i>
   <i name="POTIM">      0.50000000</i>
   <i name="SMASS">     -3.00000000</i>
   <i name="SCALEE">      1.00000000</i>
  </separator>
  <separator name="ionic md" >
   <i name="TEBEG">      0.00010000</i>
   <i name="TEEND">      0.00010000</i>
   <i type="int" name="NBLOCK">     1</i>
   <i type="int" name="KBLOCK">   100</i>
   <i type="int" name="NPACO">   256</i>
   <i name="APACO">     16.00000000</i>
  </separator>
  <separator name="symmetry" >
   <i type="int" name="ISYM">     2</i>
   <i name="SYMPREC">      0.00001000</i>
  </separator>
  <separator name="dos" >
   <i type="int" name="LORBIT">     0</i>
   <v name="RWIGS">     -1.00000000</v>
   <i type="int" name="NEDOS">   301</i>
   <i name="EMIN">     10.00000000</i>
   <i name="EMAX">    -10.00000000</i>
   <i name="EFERMI">      0.00000000</i>
  </separator>
  <separator name="writing" >
   <i type="int" name="NWRITE">     2</i>
   <i type="logical" name="LWAVE"> F  </i>
   <i type="logical" name="LDOWNSAMPLE"> F  </i>
   <i type="logical" name="LCHARG"> F  </i>
   <i type="logical" name="LPARD"> F  </i>
   <i type="logical" name="LVTOT"> F  </i>
   <i type="logical" name="LVHAR"> F  </i>
   <i type="logical" name="LELF"> F  </i>
   <i type="logical" name="LOPTICS"> F  </i>
   <v name="STM">      0.00000000      0.00000000      0.00000000      0.00000000      0.00000000      0.00000000      0.00000000</v>
  </separator>
  <separator name="performance" >
   <i type="int" name="NPAR">     4</i>
   <i type="int" name="NSIM">     4</i>
   <i type="int" name="NBLK">    -1</i>
   <i type="logical" name="LPLANE"> T  </i>
   <i type="logical" name="LSCALAPACK"> T  </i>
   <i type="logical" name="LSCAAWARE"> F  </i>
   <i type="logical" name="LSCALU"> F  </i>
   <i type="logical" name="LASYNC"> F  </i>
   <i type="logical" name="LORBITALREAL"> F  </i>
  </separator>
  <separator name="miscellaneous" >
   <i type="int" name="IDIOT">     3</i>
   <i type="int" name="PHON_NSTRUCT">    -1</i>
   <i type="logical" name="LMUSIC"> F  </i>
   <v name="POMASS">     28.08500000</v>
   <v name="DARWINR">      0.00000000</v>
   <v name="DARWINV">      1.00000000</v>
   <i type="logical" name="LCORR"> T  </i>
  </separator>
  <i type="logical" name="GGA_COMPAT"> T  </i>
  <i type="logical" name="LBERRY"> F  </i>
  <i type="int" name="ICORELEVEL">     0</i>
  <i type="logical" name="LDAU"> F  </i>
  <i type="int" name="I_CONSTRAINED_M">     0</i>
  <separator name="electronic exchange-correlation" >
   <i type="string" name="GGA">--</i>
   <i type="int" name="VOSKOWN">     0</i>
   <i type="logical" name="LHFCALC"> F  </i>
   <i type="string" name="PRECFOCK"></i>
   <i type="logical" name="LSYMGRAD"> F  </i>
   <i type="logical" name="LHFONE"> F  </i>
   <i type="logical" name="LRHFCALC"> F  </i>
   <i type="logical" name="LTHOMAS"> F  </i>
   <i type="logical" name="LMODELHF"> F  </i>
   <i type="logical" name="LFOCKACE"> F  </i>
   <i name="ENCUT4O">     -1.00000000</i>
   <i type="int" name="EXXOEP">     0</i>
   <i type="int" name="FOURORBIT">     0</i>
   <i name="AEXX">      0.00000000</i>
   <i name="HFALPHA">      0.00000000</i>
   <i name="MCALPHA">      0.00000000</i>
   <i name="ALDAX">      1.00000000</i>
   <i name="AGGAX">      1.00000000</i>
   <i name="ALDAC">      1.00000000</i>
   <i name="AGGAC">      1.00000000</i>
   <i type="int" name="NKREDX">     1</i>
   <i type="int" name="NKREDY">     1</i>
   <i type="int" name="NKREDZ">     1</i>
   <i type="logical" name="SHIFTRED"> F  </i>
   <i type="logical" name="ODDONLY"> F  </i>
   <i type="logical" name="EVENONLY"> F  </i>
   <i type="int" name="LMAXFOCK">     0</i>
   <i type="int" name="NMAXFOCKAE">     0</i>
   <i type="logical" name="LFOCKAEDFT"> F  </i>
   <i name="HFSCREEN">      0.00000000</i>
   <i name="HFSCREENC">      0.00000000</i>
   <i type="int" name="NBANDSGWLOW">     0</i>
  </separator>
  <separator name="vdW DFT" >
   <i type="logical" name="LUSE_VDW"> F  </i>
   <i name="Zab_VDW">     -0.84910000</i>
   <i name="PARAM1">      0.12340000</i>
   <i name="PARAM2">      1.00000000</i>
   <i name="PARAM3">      0.00000000</i>
  </separator>
  <separator name="model GW" >
   <i type="int" name="MODEL_GW">     0</i>
   <i name="MODEL_EPS0">      7.95208515</i>
   <i name="MODEL_ALPHA">      1.00000000</i>
  </separator>
  <separator name="linear response parameters" >
   <i type="logical" name="LEPSILON"> F  </i>
   <i type="logical" name="LRPA"> F  </i>
   <i type="logical" name="LNABLA"> F  </i>
   <i type="logical" name="LVEL"> F  </i>
   <i type="int" name="KINTER">     0</i>
   <i name="CSHIFT">      0.10000000</i>
   <i name="OMEGAMAX">     -1.00000000</i>
   <i name="DEG_THRESHOLD">      0.00200000</i>
   <i name="RTIME">     -0.10000000</i>
   <i name="WPLASMAI">      0.00000000</i>
   <v name="DFIELD">      0.00000000      0.00000000      0.00000000</v>
   <v name="WPLASMA">      0.00000000      0.00000000      0.00000000      0.00000000      0.00000000      0.00000000      0.00000000      0.00000000      0.00000000</v>
  </separator>
  <separator name="orbital magnetization" >
   <i type="logical" name="NUCIND"> F  </i>
   <v name="MAGPOS">      0.00000000      0.00000000      0.00000000</v>
   <i type="logical" name="LNICSALL"> T  </i>
   <i type="logical" name="ORBITALMAG"> F  </i>
   <i type="logical" name="LMAGBLOCH"> F  </i>
   <i type="logical" name="LCHIMAG"> F  </i>
   <i type="logical" name="LGAUGE"> T  </i>
   <i type="int" name="MAGATOM">     0</i>
   <v name="MAGDIPOL">      0.00000000      0.00000000      0.00000000</v>
   <v name="AVECCONST">      0.00000000      0.00000000      0.00000000</v>
  </separator>
  <separator name="response functions" >
   <i type="logical" name="LFINITE_TEMPERATURE"> F  </i>
   <i type="logical" name="LADDER"> F  </i>
   <i type="logical" name="LRPAFORCE"> F  </i>
   <i type="logical" name="LFXC"> F  </i>
   <i type="logical" name="LHARTREE"> T  </i>
   <i type="int" name="IBSE">     0</i>
   <v type="int" name="KPOINT">    -1     0     0     0</v>
   <i type="logical" name="LTCTC"> F  </i>
   <i type="logical" name="LTCTE"> F  </i>
   <i type="logical" name="LTETE"> F  </i>
   <i type="logical" name="LTRIPLET"> F  </i>
   <i type="logical" name="LFXCEPS"> F  </i>
   <i type="logical" name="LFXHEG"> F  </i>
   <i type="int" name="NATURALO">     2</i>
   <i type="logical" name="LHOLEGF"> F  </i>
   <i type="logical" name="L2ORDER"> F  </i>
   <i type="logical" name="LDMP1"> F  </i>
   <i type="logical" name="LMP2LT"> F  </i>
   <i type="logical" name="LSMP2LT"> F  </i>
   <i type="logical" name="LGWLF"> F  </i>
   <i name="ENCUTGW">     -2.00000000</i>
   <i name="ENCUTGWSOFT">     -2.00000000</i>
   <i name="ENCUTLF">     -1.00000000</i>
   <i type="logical" name="LESF_SPLINES"> F  </i>
   <i type="int" name="LMAXMP2">    -1</i>
   <i name="SCISSOR">      0.00000000</i>
   <i type="int" name="NOMEGA">     0</i>
   <i type="int" name="NOMEGAR">     0</i>
   <i type="int" name="NBANDSGW">    -1</i>
   <i type="int" name="NBANDSO">    -1</i>
   <i type="int" name="NBANDSV">    -1</i>
   <i type="int" name="NELM">    90</i>
   <i type="int" name="NELMHF">     1</i>
   <i type="int" name="DIM">     3</i>
   <i type="int" name="IESPILON">     4</i>
   <i type="int" name="ANTIRES">     0</i>
   <i name="OMEGAMAX">    -30.00000000</i>
   <i name="OMEGAMIN">    -30.00000000</i>
   <i name="OMEGATL">   -200.00000000</i>
   <i type="int" name="OMEGAGRID">     0</i>
   <i name="CSHIFT">     -0.10000000</i>
   <i type="logical" name="LSELFENERGY"> F  </i>
   <i type="logical" name="LSPECTRAL"> F  </i>
   <i type="logical" name="LSPECTRALGW"> F  </i>
   <i type="logical" name="LSINGLES"> F  </i>
   <i type="logical" name="LFERMIGW"> F  </i>
   <i type="logical" name="ODDONLYGW"> F  </i>
   <i type="logical" name="EVENONLYGW"> F  </i>
   <i type="int" name="NKREDLFX">     1</i>
   <i type="int" name="NKREDLFY">     1</i>
   <i type="int" name="NKREDLFZ">     1</i>
   <i type="int" name="MAXMEM">  2800</i>
   <i type="int" name="TELESCOPE">     0</i>
   <i type="int" name="NTAUPAR">    -1</i>
   <i type="int" name="NOMEGAPAR">    -1</i>
   <i name="DAMP_NEWTON">      0.80000001</i>
   <i name="LAMBDA">      1.00000000</i>
  </separator>
  <separator name="External order field" >
   <i name="OFIELD_KAPPA">      0.00000000</i>
   <v name="OFIELD_K">      0.00000000      0.00000000      0.00000000</v>
   <i name="OFIELD_Q6_NEAR">      0.00000000</i>
   <i name="OFIELD_Q6_FAR">      0.00000000</i>
   <i name="OFIELD_A">      0.00000000</i>
  </separator>
 </parameters>
 <atominfo>
  <atoms>       1 </atoms>
  <types>       1 </types>
  <array name="atoms" >
   <dimension dim="1">ion</dimension>
   <field type="string">element</field>
   <field type="int">atomtype</field>
   <set>
    <rc><c>Si</c><c>   1</c></rc>
   </set>
  </array>
  <array name="atomtypes" >
   <dimension dim="1">type</dimension>
   <field type="int">atomspertype</field>
   <field type="string">element</field>
   <field>mass</field>
   <field>valence</field>
   <field type="string">pseudopotential</field>
   <set>
    <rc><c>   1</c><c>Si</c><c>     28.08500000</c><c>      4.00000000</c><c>  PAW_PBE Si 05Jan2001                  </c></rc>
   </set>
  </array>
 </atominfo>
 <structure name="initialpos" >
  <crystal>
   <varray name="basis" >
    <v>       2.30044710       0.00000000       1.32816264 </v>
    <v>       0.76681570       2.16888210       1.32816264 </v>
    <v>       0.00000000       0.00000000       2.65632724 </v>
   </varray>
   <i name="volume">     13.25347525 </i>
   <varray name="rec_basis" >
    <v>       0.43469811      -0.15368901       0.00000000 </v>
    <v>       0.00000000       0.46106702       0.00000000 </v>
    <v>      -0.21734889      -0.15368889       0.37645964 </v>
   </varray>
  </crystal>
  <varray name="positions" >
   <v>       0.00000000       0.00000000       0.00000000 </v>
  </varray>
 </structure>
 <calculation>
  <scstep>
   <time name="dav">    0.98    0.98</time>
   <time name="total">    1.20    1.20</time>
   <energy>
    <i name="alphaZ">      2.53994746 </i>
    <i name="ewald">   -140.59690091 </i>
    <i name="hartreedc">     -0.43358757 </i>
    <i name="XCdc">     -8.56727333 </i>
    <i name="pawpsdc">     88.12379961 </i>
    <i name="pawaedc">    -70.53051779 </i>
    <i name="eentropy">     -0.00078464 </i>
    <i name="bandstr">     24.94093687 </i>
    <i name="atom">    103.06662367 </i>
    <i name="e_fr_energy">     -1.45775662 </i>
    <i name="e_wo_entrp">     -1.45697198 </i>
    <i name="e_0_energy">     -1.45736430 </i>
   </energy>
  </scstep>
  <scstep>
   <time name="dav">    1.29    1.30</time>
   <time name="total">    1.29    1.30</time>
   <energy>
    <i name="e_fr_energy">     -4.85955261 </i>
    <i name="e_wo_entrp">     -4.85920906 </i>
    <i name="e_0_energy">     -4.85938084 </i>
   </energy>
  </scstep>
  <scstep>
   <time name="dav">    1.21    1.23</time>
   <time name="total">    1.21    1.23</time>
   <energy>
    <i name="e_fr_energy">     -4.87974228 </i>
    <i name="e_wo_entrp">     -4.87942622 </i>
    <i name="e_0_energy">     -4.87958425 </i>
   </energy>
  </scstep>
  <scstep>
   <time name="dav">    1.52    1.53</time>
   <time name="total">    1.52    1.53</time>
   <energy>
    <i name="e_fr_energy">     -4.87976007 </i>
    <i name="e_wo_entrp">     -4.87944401 </i>
    <i name="e_0_energy">     -4.87960204 </i>
   </energy>
  </scstep>
  <scstep>
   <time name="dav">    1.11    1.12</time>
   <time name="total">    1.20    1.21</time>
   <energy>
    <i name="e_fr_energy">     -4.87976007 </i>
    <i name="e_wo_entrp">     -4.87944402 </i>
    <i name="e_0_energy">     -4.87960204 </i>
   </energy>
  </scstep>
  <scstep>
   <time name="dav">    1.09    1.10</time>
   <time name="total">    1.39    1.41</time>
   <energy>
    <i name="e_fr_energy">     -4.86452519 </i>
    <i name="e_wo_entrp">     -4.86417629 </i>
    <i name="e_0_energy">     -4.86435074 </i>
   </energy>
  </scstep>
  <scstep>
   <time name="dav">    1.11    1.12</time>
   <time name="total">    1.44    1.45</time>
   <energy>
    <i name="e_fr_energy">     -4.85560411 </i>
    <i name="e_wo_entrp">     -4.85519924 </i>
    <i name="e_0_energy">     -4.85540167 </i>
   </energy>
  </scstep>
  <scstep>
   <time name="dav">    1.38    1.38</time>
   <time name="total">    1.68    1.69</time>
   <energy>
    <i name="e_fr_energy">     -4.85555595 </i>
    <i name="e_wo_entrp">     -4.85514921 </i>
    <i name="e_0_energy">     -4.85535258 </i>
   </energy>
  </scstep>
  <scstep>
   <time name="dav">    1.14    1.14</time>
   <time name="total">    1.35    1.36</time>
   <energy>
    <i name="alphaZ">      2.53994746 </i>
    <i name="ewald">   -140.59690091 </i>
    <i name="hartreedc">     -0.33736329 </i>
    <i name="XCdc">     -8.48884267 </i>
    <i name="pawpsdc">    362.91790480 </i>
    <i name="pawaedc">   -345.34746951 </i>
    <i name="eentropy">     -0.00040719 </i>
    <i name="bandstr">     21.39095163 </i>
    <i name="atom">    103.06662367 </i>
    <i name="e_fr_energy">     -4.85555601 </i>
    <i name="e_wo_entrp">     -4.85514882 </i>
    <i name="e_0_energy">     -4.85535241 </i>
   </energy>
  </scstep>
  <structure>
   <crystal>
    <varray name="basis" >
     <v>       2.30044710       0.00000000       1.32816264 </v>
     <v>       0.76681570       2.16888210       1.32816264 </v>
     <v>       0.00000000       0.00000000       2.65632724 </v>
    </varray>
    <i name="volume">     13.25347525 </i>
    <varray name="rec_basis" >
     <v>       0.43469811      -0.15368901       0.00000000 </v>
     <v>       0.00000000       0.46106702       0.00000000 </v>
     <v>      -0.21734889      -0.15368889       0.37645964 </v>
    </varray>
   </crystal>
   <varray name="positions" >
    <v>       0.00000000       0.00000000       0.00000000 </v>
   </varray>
  </structure>
  <varray name="forces" >
   <v>       0.00000000       0.00000000       0.00000000 </v>
  </varray>
  <varray name="stress" >
   <v>      83.06640118      -0.00000000      -0.00003539 </v>
   <v>       0.00000000      83.06638390      -0.00002502 </v>
   <v>      -0.00003539      -0.00002502      83.06638461 </v>
  </varray>
  <energy>
   <i name="e_fr_energy">     -4.85555601 </i>
   <i name="e_wo_entrp">     -4.85514882 </i>
   <i name="e_0_energy">     -4.85535241 </i>
  </energy>
  <time name="totalsc">   13.95   14.18</time>
  <eigenvalues>
   <array>
    <dimension dim="1">band</dimension>
    <dimension dim="2">kpoint</dimension>
    <dimension dim="3">spin</dimension>
    <field>eigene</field>
    <field>occ</field>
    <set>
     <set comment="spin 1">
      <set comment="kpoint 1">
       <r>   -3.9215    1.0000 </r>
       <r>   23.6180    0.0000 </r>
       <r>   23.6180    0.0000 </r>
       <r>   23.6180    0.0000 </r>
       <r>   23.6467    0.0000 </r>
       <r>   23.6467    0.0000 </r>
       <r>   23.6467    0.0000 </r>
       <r>   29.1870    0.0000 </r>
      </set>
      <set comment="kpoint 2">
       <r>   -3.7841    1.0000 </r>
       <r>   20.9312    0.0000 </r>
       <r>   22.5946    0.0000 </r>
       <r>   22.5946    0.0000 </r>
       <r>   24.8475    0.0000 </r>
       <r>   24.8475    0.0000 </r>
       <r>   25.1451    0.0000 </r>
       <r>   30.2997    0.0000 </r>
      </set>
      <set comment="kpoint 3">
       <r>   -3.3725    1.0000 </r>
       <r>   17.9018    0.0000 </r>
       <r>   21.7714    0.0000 </r>
       <r>   21.7714    0.0000 </r>
       <r>   25.4489    0.0000 </r>
       <r>   26.0489    0.0000 </r>
       <r>   26.0489    0.0000 </r>
       <r>   29.1743    0.0000 </r>
      </set>
      <set comment="kpoint 4">
       <r>   -2.6883    1.0000 </r>
       <r>   14.9007    0.0000 </r>
       <r>   21.1718    0.0000 </r>
       <r>   21.1718    0.0000 </r>
       <r>   25.3780    0.0000 </r>
       <r>   26.2121    0.0000 </r>
       <r>   26.2121    0.0000 </r>
       <r>   29.2068    0.0000 </r>
      </set>
      <set comment="kpoint 5">
       <r>   -1.7346    1.0000 </r>
       <r>   12.0422    0.0000 </r>
       <r>   20.7947    0.0000 </r>
       <r>   20.7947    0.0000 </r>
       <r>   25.1660    0.0000 </r>
       <r>   25.1660    0.0000 </r>
       <r>   25.2920    0.0000 </r>
       <r>   30.6786    0.0000 </r>
      </set>
      <set comment="kpoint 6">
       <r>   -0.5152    1.0000 </r>
       <r>    9.3739    1.0000 </r>
       <r>   20.6300    0.0000 </r>
       <r>   20.6300    0.0000 </r>
       <r>   24.0409    0.0000 </r>
       <r>   24.0409    0.0000 </r>
       <r>   25.3112    0.0000 </r>
       <r>   29.4175    0.0000 </r>
      </set>
      <set comment="kpoint 7">
       <r>    0.9642    1.0000 </r>
       <r>    6.9210    1.0000 </r>
       <r>   20.6459    0.0000 </r>
       <r>   20.6459    0.0000 </r>
       <r>   23.1243    0.0000 </r>
       <r>   23.1243    0.0000 </r>
       <r>   25.4590    0.0000 </r>
       <r>   28.3902    0.0000 </r>
      </set>
      <set comment="kpoint 8">
       <r>    2.6913    1.0000 </r>
       <r>    4.7052    1.0000 </r>
       <r>   20.7471    0.0000 </r>
       <r>   20.7471    0.0000 </r>
       <r>   22.5653    0.0000 </r>
       <r>   22.5653    0.0000 </r>
       <r>   25.6485    0.0000 </r>
       <r>   27.7476    0.0000 </r>
      </set>
      <set comment="kpoint 9">
       <r>   -3.7383    1.0000 </r>
       <r>   21.4853    0.0000 </r>
       <r>   21.4853    0.0000 </r>
       <r>   22.6566    0.0000 </r>
       <r>   23.2140    0.0000 </r>
       <r>   26.0142    0.0000 </r>
       <r>   26.0142    0.0000 </r>
       <r>   29.1038    0.0000 </r>
      </set>
      <set comment="kpoint 10">
       <r>   -3.4182    1.0000 </r>
       <r>   18.9737    0.0000 </r>
       <r>   20.5890    0.0000 </r>
       <r>   22.2382    0.0000 </r>
       <r>   23.7109    0.0000 </r>
       <r>   26.7614    0.0000 </r>
       <r>   27.2528    0.0000 </r>
       <r>   27.5189    0.0000 </r>
      </set>
      <set comment="kpoint 11">
       <r>   -2.8249    1.0000 </r>
       <r>   15.9814    0.0000 </r>
       <r>   19.9206    0.0000 </r>
       <r>   21.6378    0.0000 </r>
       <r>   24.3550    0.0000 </r>
       <r>   26.4482    0.0000 </r>
       <r>   27.1341    0.0000 </r>
       <r>   27.8786    0.0000 </r>
      </set>
      <set comment="kpoint 12">
       <r>   -1.9612    1.0000 </r>
       <r>   13.0801    0.0000 </r>
       <r>   19.4840    0.0000 </r>
       <r>   21.1617    0.0000 </r>
       <r>   23.5276    0.0000 </r>
       <r>   26.4438    0.0000 </r>
       <r>   27.0847    0.0000 </r>
       <r>   28.2341    0.0000 </r>
      </set>
      <set comment="kpoint 13">
       <r>   -0.8305    1.0000 </r>
       <r>   10.3507    1.0000 </r>
       <r>   19.2794    0.0000 </r>
       <r>   20.7814    0.0000 </r>
       <r>   22.4808    0.0000 </r>
       <r>   25.9442    0.0000 </r>
       <r>   26.4604    0.0000 </r>
       <r>   29.9141    0.0000 </r>
      </set>
      <set comment="kpoint 14">
       <r>    0.5621    1.0000 </r>
       <r>    7.8271    1.0000 </r>
       <r>   19.3038    0.0000 </r>
       <r>   20.2967    0.0000 </r>
       <r>   21.9051    0.0000 </r>
       <r>   24.9043    0.0000 </r>
       <r>   26.5273    0.0000 </r>
       <r>   29.6773    0.0000 </r>
      </set>
      <set comment="kpoint 15">
       <r>    2.2087    1.0000 </r>
       <r>    5.5307    1.0000 </r>
       <r>   19.5506    0.0000 </r>
       <r>   19.6513    0.0000 </r>
       <r>   21.9366    0.0000 </r>
       <r>   24.0652    0.0000 </r>
       <r>   26.6052    0.0000 </r>
       <r>   29.0527    0.0000 </r>
      </set>
      <set comment="kpoint 16">
       <r>    3.4182    1.0000 </r>
       <r>    4.1584    1.0000 </r>
       <r>   19.0692    0.0000 </r>
       <r>   20.0035    0.0000 </r>
       <r>   22.3714    0.0000 </r>
       <r>   23.4710    0.0000 </r>
       <r>   26.5399    0.0000 </r>
       <r>   28.9591    0.0000 </r>
      </set>
      <set comment="kpoint 17">
       <r>    1.6326    1.0000 </r>
       <r>    6.2692    1.0000 </r>
       <r>   18.6681    0.0000 </r>
       <r>   20.6220    0.0000 </r>
       <r>   23.0943    0.0000 </r>
       <r>   23.1702    0.0000 </r>
       <r>   26.3270    0.0000 </r>
       <r>   29.4331    0.0000 </r>
      </set>
      <set comment="kpoint 18">
       <r>    0.0692    1.0000 </r>
       <r>    8.6433    1.0000 </r>
       <r>   18.4847    0.0000 </r>
       <r>   21.3035    0.0000 </r>
       <r>   23.2600    0.0000 </r>
       <r>   24.0595    0.0000 </r>
       <r>   26.1357    0.0000 </r>
       <r>   30.2619    0.0000 </r>
      </set>
      <set comment="kpoint 19">
       <r>   -1.2368    1.0000 </r>
       <r>   11.2372    0.9967 </r>
       <r>   18.5319    0.0000 </r>
       <r>   21.8956    0.0000 </r>
       <r>   23.8622    0.0000 </r>
       <r>   25.2248    0.0000 </r>
       <r>   26.0511    0.0000 </r>
       <r>   30.0061    0.0000 </r>
      </set>
      <set comment="kpoint 20">
       <r>   -2.2790    1.0000 </r>
       <r>   14.0263    0.0000 </r>
       <r>   18.8142    0.0000 </r>
       <r>   22.4252    0.0000 </r>
       <r>   24.8087    0.0000 </r>
       <r>   26.0533    0.0000 </r>
       <r>   26.4856    0.0000 </r>
       <r>   28.1866    0.0000 </r>
      </set>
      <set comment="kpoint 21">
       <r>   -3.0529    1.0000 </r>
       <r>   16.9621    0.0000 </r>
       <r>   19.3358    0.0000 </r>
       <r>   23.0443    0.0000 </r>
       <r>   25.0416    0.0000 </r>
       <r>   26.0145    0.0000 </r>
       <r>   27.2493    0.0000 </r>
       <r>   27.6216    0.0000 </r>
      </set>
      <set comment="kpoint 22">
       <r>   -3.5553    1.0000 </r>
       <r>   19.7803    0.0000 </r>
       <r>   20.2450    0.0000 </r>
       <r>   23.7303    0.0000 </r>
       <r>   24.0018    0.0000 </r>
       <r>   25.6472    0.0000 </r>
       <r>   26.4864    0.0000 </r>
       <r>   28.8281    0.0000 </r>
      </set>
      <set comment="kpoint 23">
       <r>   -3.1897    1.0000 </r>
       <r>   19.6142    0.0000 </r>
       <r>   19.6142    0.0000 </r>
       <r>   20.8936    0.0000 </r>
       <r>   22.1436    0.0000 </r>
       <r>   25.5903    0.0000 </r>
       <r>   28.5550    0.0000 </r>
       <r>   28.5550    0.0000 </r>
      </set>
      <set comment="kpoint 24">
       <r>   -2.6882    1.0000 </r>
       <r>   17.2164    0.0000 </r>
       <r>   18.8674    0.0000 </r>
       <r>   20.7650    0.0000 </r>
       <r>   22.0378    0.0000 </r>
       <r>   24.2262    0.0000 </r>
       <r>   29.2972    0.0000 </r>
       <r>   29.5651    0.0000 </r>
      </set>
      <set comment="kpoint 25">
       <r>   -1.9156    1.0000 </r>
       <r>   14.3337    0.0000 </r>
       <r>   18.3542    0.0000 </r>
       <r>   20.2277    0.0000 </r>
       <r>   21.4938    0.0000 </r>
       <r>   24.8390    0.0000 </r>
       <r>   29.1839    0.0000 </r>
       <r>   29.4666    0.0000 </r>
      </set>
      <set comment="kpoint 26">
       <r>   -0.8754    1.0000 </r>
       <r>   11.5648    0.0000 </r>
       <r>   18.0761    0.0000 </r>
       <r>   19.3746    0.0000 </r>
       <r>   20.7900    0.0000 </r>
       <r>   26.5050    0.0000 </r>
       <r>   28.1223    0.0000 </r>
       <r>   29.6119    0.0000 </r>
      </set>
      <set comment="kpoint 27">
       <r>    0.4282    1.0000 </r>
       <r>    8.9818    1.0000 </r>
       <r>   18.0327    0.0000 </r>
       <r>   18.3244    0.0000 </r>
       <r>   20.6120    0.0000 </r>
       <r>   27.0608    0.0000 </r>
       <r>   27.9615    0.0000 </r>
       <r>   30.2625    0.0000 </r>
      </set>
      <set comment="kpoint 28">
       <r>    1.9886    1.0000 </r>
       <r>    6.6145    1.0000 </r>
       <r>   17.3727    0.0000 </r>
       <r>   18.2225    0.0000 </r>
       <r>   20.7854    0.0000 </r>
       <r>   26.1554    0.0000 </r>
       <r>   28.4197    0.0000 </r>
       <r>   31.6654    0.0000 </r>
      </set>
      <set comment="kpoint 29">
       <r>    3.7730    1.0000 </r>
       <r>    4.5055    1.0000 </r>
       <r>   16.6210    0.0000 </r>
       <r>   18.6418    0.0000 </r>
       <r>   21.2371    0.0000 </r>
       <r>   25.4580    0.0000 </r>
       <r>   28.3026    0.0000 </r>
       <r>   31.7250    0.0000 </r>
      </set>
      <set comment="kpoint 30">
       <r>    2.5643    1.0000 </r>
       <r>    5.8748    1.0000 </r>
       <r>   16.0992    0.0000 </r>
       <r>   19.2836    0.0000 </r>
       <r>   21.9441    0.0000 </r>
       <r>   24.9929    0.0000 </r>
       <r>   28.0123    0.0000 </r>
       <r>   32.0945    0.0000 </r>
      </set>
      <set comment="kpoint 31">
       <r>    0.9204    1.0000 </r>
       <r>    8.1619    1.0000 </r>
       <r>   15.8193    0.0000 </r>
       <r>   20.1334    0.0000 </r>
       <r>   22.8903    0.0000 </r>
       <r>   24.7772    0.0000 </r>
       <r>   27.7313    0.0000 </r>
       <r>   31.7392    0.0000 </r>
      </set>
      <set comment="kpoint 32">
       <r>   -0.4698    1.0000 </r>
       <r>   10.6667    1.0000 </r>
       <r>   15.7899    0.0000 </r>
       <r>   21.1596    0.0000 </r>
       <r>   24.0530    0.0000 </r>
       <r>   24.8271    0.0000 </r>
       <r>   27.5116    0.0000 </r>
       <r>   29.4593    0.0000 </r>
      </set>
      <set comment="kpoint 33">
       <r>   -1.5985    1.0000 </r>
       <r>   13.3451    0.0000 </r>
       <r>   16.0319    0.0000 </r>
       <r>   22.2892    0.0000 </r>
       <r>   25.1278    0.0000 </r>
       <r>   25.3829    0.0000 </r>
       <r>   27.2848    0.0000 </r>
       <r>   27.4613    0.0000 </r>
      </set>
      <set comment="kpoint 34">
       <r>   -2.4607    1.0000 </r>
       <r>   15.8706    0.0000 </r>
       <r>   16.8267    0.0000 </r>
       <r>   23.3082    0.0000 </r>
       <r>   25.0628    0.0000 </r>
       <r>   26.6013    0.0000 </r>
       <r>   26.7147    0.0000 </r>
       <r>   26.8312    0.0000 </r>
      </set>
      <set comment="kpoint 35">
       <r>   -2.2787    1.0000 </r>
       <r>   18.0408    0.0000 </r>
       <r>   18.0408    0.0000 </r>
       <r>   19.2142    0.0000 </r>
       <r>   20.2648    0.0000 </r>
       <r>   22.4619    0.0000 </r>
       <r>   31.1282    0.0000 </r>
       <r>   31.1282    0.0000 </r>
      </set>
      <set comment="kpoint 36">
       <r>   -1.5983    1.0000 </r>
       <r>   15.7446    0.0000 </r>
       <r>   17.4482    0.0000 </r>
       <r>   18.8290    0.0000 </r>
       <r>   19.5843    0.0000 </r>
       <r>   22.2209    0.0000 </r>
       <r>   31.3609    0.0000 </r>
       <r>   31.9039    0.0000 </r>
      </set>
      <set comment="kpoint 37">
       <r>   -0.6497    1.0000 </r>
       <r>   12.9958    0.0000 </r>
       <r>   17.0918    0.0000 </r>
       <r>   17.4363    0.0000 </r>
       <r>   19.5143    0.0000 </r>
       <r>   23.6378    0.0000 </r>
       <r>   30.4609    0.0000 </r>
       <r>   32.0798    0.0000 </r>
      </set>
      <set comment="kpoint 38">
       <r>    0.5628    1.0000 </r>
       <r>   10.3745    1.0000 </r>
       <r>   16.1377    0.0000 </r>
       <r>   16.9719    0.0000 </r>
       <r>   19.4589    0.0000 </r>
       <r>   25.6534    0.0000 </r>
       <r>   29.4270    0.0000 </r>
       <r>   32.0050    0.0000 </r>
      </set>
      <set comment="kpoint 39">
       <r>    2.0334    1.0000 </r>
       <r>    7.9478    1.0000 </r>
       <r>   15.0406    0.0000 </r>
       <r>   17.0880    0.0000 </r>
       <r>   19.6166    0.0000 </r>
       <r>   27.8024    0.0000 </r>
       <r>   28.4925    0.0000 </r>
       <r>   31.8420    0.0000 </r>
      </set>
      <set comment="kpoint 40">
       <r>    3.7507    1.0000 </r>
       <r>    5.7472    1.0000 </r>
       <r>   14.1763    0.0000 </r>
       <r>   17.4385    0.0000 </r>
       <r>   20.0196    0.0000 </r>
       <r>   27.7366    0.0000 </r>
       <r>   29.4888    0.0000 </r>
       <r>   32.0654    0.0000 </r>
      </set>
      <set comment="kpoint 41">
       <r>    3.7542    1.0000 </r>
       <r>    5.7387    1.0000 </r>
       <r>   13.5588    0.0000 </r>
       <r>   18.0207    0.0000 </r>
       <r>   20.6710    0.0000 </r>
       <r>   27.1935    0.0000 </r>
       <r>   29.8204    0.0000 </r>
       <r>   33.3090    0.0000 </r>
      </set>
      <set comment="kpoint 42">
       <r>    2.0347    1.0000 </r>
       <r>    7.9254    1.0000 </r>
       <r>   13.2007    0.0000 </r>
       <r>   18.8287    0.0000 </r>
       <r>   21.5639    0.0000 </r>
       <r>   26.8804    0.0000 </r>
       <r>   29.5352    0.0000 </r>
       <r>   31.5425    0.0000 </r>
      </set>
      <set comment="kpoint 43">
       <r>    0.5631    1.0000 </r>
       <r>   10.3010    1.0000 </r>
       <r>   13.1348    0.0000 </r>
       <r>   19.8502    0.0000 </r>
       <r>   22.6818    0.0000 </r>
       <r>   26.8060    0.0000 </r>
       <r>   29.0893    0.0000 </r>
       <r>   29.1510    0.0000 </r>
      </set>
      <set comment="kpoint 44">
       <r>   -0.6498    1.0000 </r>
       <r>   12.4962    0.0000 </r>
       <r>   13.7048    0.0000 </r>
       <r>   21.0525    0.0000 </r>
       <r>   23.9882    0.0000 </r>
       <r>   26.8144    0.0000 </r>
       <r>   27.1390    0.0000 </r>
       <r>   28.3853    0.0000 </r>
      </set>
      <set comment="kpoint 45">
       <r>   -1.0104    1.0000 </r>
       <r>   16.7759    0.0000 </r>
       <r>   16.7759    0.0000 </r>
       <r>   17.1156    0.0000 </r>
       <r>   17.8120    0.0000 </r>
       <r>   20.7886    0.0000 </r>
       <r>   33.4944    0.0000 </r>
       <r>   33.5695    0.0000 </r>
      </set>
      <set comment="kpoint 46">
       <r>   -0.1547    1.0000 </r>
       <r>   14.5783    0.0000 </r>
       <r>   15.5068    0.0000 </r>
       <r>   16.3402    0.0000 </r>
       <r>   18.2782    0.0000 </r>
       <r>   21.0621    0.0000 </r>
       <r>   32.8581    0.0000 </r>
       <r>   34.2757    0.0000 </r>
      </set>
      <set comment="kpoint 47">
       <r>    0.9649    1.0000 </r>
       <r>   11.9815    0.0000 </r>
       <r>   14.0663    0.0000 </r>
       <r>   16.1418    0.0000 </r>
       <r>   18.4537    0.0000 </r>
       <r>   22.7402    0.0000 </r>
       <r>   31.9253    0.0000 </r>
       <r>   34.2915    0.0000 </r>
      </set>
      <set comment="kpoint 48">
       <r>    2.3427    1.0000 </r>
       <r>    9.5180    1.0000 </r>
       <r>   12.8563    0.0000 </r>
       <r>   16.1804    0.0000 </r>
       <r>   18.6066    0.0000 </r>
       <r>   24.9693    0.0000 </r>
       <r>   31.0024    0.0000 </r>
       <r>   33.8979    0.0000 </r>
      </set>
      <set comment="kpoint 49">
       <r>    3.9693    1.0000 </r>
       <r>    7.2555    1.0000 </r>
       <r>   11.8936    0.0000 </r>
       <r>   16.4554    0.0000 </r>
       <r>   18.9551    0.0000 </r>
       <r>   27.4033    0.0000 </r>
       <r>   30.2130    0.0000 </r>
       <r>   33.2990    0.0000 </r>
      </set>
      <set comment="kpoint 50">
       <r>    5.1869    1.0000 </r>
       <r>    5.8634    1.0000 </r>
       <r>   11.1929    1.0000 </r>
       <r>   16.9654    0.0000 </r>
       <r>   19.5409    0.0000 </r>
       <r>   29.6110    0.0000 </r>
       <r>   29.7931    0.0000 </r>
       <r>   32.6480    0.0000 </r>
      </set>
      <set comment="kpoint 51">
       <r>    3.4071    1.0000 </r>
       <r>    7.9012    1.0000 </r>
       <r>   10.7926    1.0000 </r>
       <r>   17.7075    0.0000 </r>
       <r>   20.3681    0.0000 </r>
       <r>   29.2203    0.0000 </r>
       <r>   31.2162    0.0000 </r>
       <r>   31.5921    0.0000 </r>
      </set>
      <set comment="kpoint 52">
       <r>    1.8575    1.0000 </r>
       <r>    9.7687    1.0000 </r>
       <r>   11.0644    1.0000 </r>
       <r>   18.6750    0.0000 </r>
       <r>   21.4253    0.0000 </r>
       <r>   28.9467    0.0000 </r>
       <r>   29.2221    0.0000 </r>
       <r>   30.4636    0.0000 </r>
      </set>
      <set comment="kpoint 53">
       <r>    0.6072    1.0000 </r>
       <r>   13.7234    0.0000 </r>
       <r>   15.8251    0.0000 </r>
       <r>   15.8251    0.0000 </r>
       <r>   16.7407    0.0000 </r>
       <r>   19.7833    0.0000 </r>
       <r>   34.7887    0.0000 </r>
       <r>   35.7485    0.0000 </r>
      </set>
      <set comment="kpoint 54">
       <r>    1.6321    1.0000 </r>
       <r>   12.1735    0.0000 </r>
       <r>   13.7652    0.0000 </r>
       <r>   15.5474    0.0000 </r>
       <r>   17.4068    0.0000 </r>
       <r>   20.2665    0.0000 </r>
       <r>   34.4001    0.0000 </r>
       <r>   36.2859    0.0000 </r>
      </set>
      <set comment="kpoint 55">
       <r>    2.9133    1.0000 </r>
       <r>   10.8464    1.0000 </r>
       <r>   11.3379    0.4482 </r>
       <r>   15.5074    0.0000 </r>
       <r>   17.7604    0.0000 </r>
       <r>   22.1311    0.0000 </r>
       <r>   33.5796    0.0000 </r>
       <r>   36.0458    0.0000 </r>
      </set>
      <set comment="kpoint 56">
       <r>    4.4379    1.0000 </r>
       <r>    8.9899    1.0000 </r>
       <r>    9.8426    1.0000 </r>
       <r>   15.7047    0.0000 </r>
       <r>   18.0935    0.0000 </r>
       <r>   24.5411    0.0000 </r>
       <r>   32.7946    0.0000 </r>
       <r>   35.3337    0.0000 </r>
      </set>
      <set comment="kpoint 57">
       <r>    6.1574    1.0000 </r>
       <r>    6.9098    1.0000 </r>
       <r>    9.0844    1.0000 </r>
       <r>   16.1386    0.0000 </r>
       <r>   18.6198    0.0000 </r>
       <r>   27.1693    0.0000 </r>
       <r>   32.1326    0.0000 </r>
       <r>   34.3226    0.0000 </r>
      </set>
      <set comment="kpoint 58">
       <r>    5.0301    1.0000 </r>
       <r>    7.7165    1.0000 </r>
       <r>    9.0142    1.0000 </r>
       <r>   16.8074    0.0000 </r>
       <r>   19.3784    0.0000 </r>
       <r>   29.8141    0.0000 </r>
       <r>   31.3996    0.0000 </r>
       <r>   32.2051    0.0000 </r>
      </set>
      <set comment="kpoint 59">
       <r>    2.5595    1.0000 </r>
       <r>   10.5295    1.0000 </r>
       <r>   15.1905    0.0000 </r>
       <r>   15.1905    0.0000 </r>
       <r>   16.0201    0.0000 </r>
       <r>   19.1280    0.0000 </r>
       <r>   36.1256    0.0000 </r>
       <r>   37.5754    0.0000 </r>
      </set>
      <set comment="kpoint 60">
       <r>    3.7365    1.0000 </r>
       <r>    9.1326    1.0000 </r>
       <r>   13.2594    0.0000 </r>
       <r>   15.0714    0.0000 </r>
       <r>   16.8834    0.0000 </r>
       <r>   19.7866    0.0000 </r>
       <r>   35.9225    0.0000 </r>
       <r>   37.8374    0.0000 </r>
      </set>
      <set comment="kpoint 61">
       <r>    5.1261    1.0000 </r>
       <r>    8.0271    1.0000 </r>
       <r>   10.9758    1.0000 </r>
       <r>   15.1900    0.0000 </r>
       <r>   17.4125    0.0000 </r>
       <r>   21.8226    0.0000 </r>
       <r>   35.2310    0.0000 </r>
       <r>   37.1980    0.0000 </r>
      </set>
      <set comment="kpoint 62">
       <r>    6.3474    1.0000 </r>
       <r>    7.5842    1.0000 </r>
       <r>    8.8531    1.0000 </r>
       <r>   15.5460    0.0000 </r>
       <r>   17.9215    0.0000 </r>
       <r>   24.3960    0.0000 </r>
       <r>   34.2513    0.0000 </r>
       <r>   35.5422    0.0000 </r>
      </set>
      <set comment="kpoint 63">
       <r>    4.7783    1.0000 </r>
       <r>    7.6802    1.0000 </r>
       <r>   14.8731    0.0000 </r>
       <r>   14.8731    0.0000 </r>
       <r>   15.6582    0.0000 </r>
       <r>   18.7986    0.0000 </r>
       <r>   37.0938    0.0000 </r>
       <r>   38.7766    0.0000 </r>
      </set>
      <set comment="kpoint 64">
       <r>    5.6629    1.0000 </r>
       <r>    6.8905    1.0000 </r>
       <r>   13.0913    0.0000 </r>
       <r>   14.9127    0.0000 </r>
       <r>   16.7086    0.0000 </r>
       <r>   19.6256    0.0000 </r>
       <r>   36.7791    0.0000 </r>
       <r>   38.4303    0.0000 </r>
      </set>
      <set comment="kpoint 65">
       <r>   -3.0073    1.0000 </r>
       <r>   17.8485    0.0000 </r>
       <r>   18.5168    0.0000 </r>
       <r>   22.9062    0.0000 </r>
       <r>   22.9848    0.0000 </r>
       <r>   25.9564    0.0000 </r>
       <r>   27.7295    0.0000 </r>
       <r>   28.1526    0.0000 </r>
      </set>
      <set comment="kpoint 66">
       <r>   -2.3243    1.0000 </r>
       <r>   15.1671    0.0000 </r>
       <r>   17.6814    0.0000 </r>
       <r>   22.1464    0.0000 </r>
       <r>   23.3751    0.0000 </r>
       <r>   25.6546    0.0000 </r>
       <r>   27.9104    0.0000 </r>
       <r>   28.1579    0.0000 </r>
      </set>
      <set comment="kpoint 67">
       <r>   -1.3723    1.0000 </r>
       <r>   12.3551    0.0000 </r>
       <r>   17.3016    0.0000 </r>
       <r>   21.1636    0.0000 </r>
       <r>   22.8644    0.0000 </r>
       <r>   26.4205    0.0000 </r>
       <r>   27.3041    0.0000 </r>
       <r>   28.4929    0.0000 </r>
      </set>
      <set comment="kpoint 68">
       <r>   -0.1551    1.0000 </r>
       <r>    9.7056    1.0000 </r>
       <r>   17.1733    0.0000 </r>
       <r>   20.0777    0.0000 </r>
       <r>   22.5960    0.0000 </r>
       <r>   25.4987    0.0000 </r>
       <r>   27.7539    0.0000 </r>
       <r>   29.8994    0.0000 </r>
      </set>
      <set comment="kpoint 69">
       <r>    1.3217    1.0000 </r>
       <r>    7.2628    1.0000 </r>
       <r>   17.2833    0.0000 </r>
       <r>   19.0905    0.0000 </r>
       <r>   22.6267    0.0000 </r>
       <r>   24.5303    0.0000 </r>
       <r>   27.9593    0.0000 </r>
       <r>   31.2632    0.0000 </r>
      </set>
      <set comment="kpoint 70">
       <r>    3.0462    1.0000 </r>
       <r>    5.0526    1.0000 </r>
       <r>   17.6013    0.0000 </r>
       <r>   18.3205    0.0000 </r>
       <r>   22.8456    0.0000 </r>
       <r>   23.8353    0.0000 </r>
       <r>   28.0934    0.0000 </r>
       <r>   30.9209    0.0000 </r>
      </set>
      <set comment="kpoint 71">
       <r>   -2.0971    1.0000 </r>
       <r>   16.1965    0.0000 </r>
       <r>   16.9727    0.0000 </r>
       <r>   20.7047    0.0000 </r>
       <r>   21.3627    0.0000 </r>
       <r>   23.4090    0.0000 </r>
       <r>   29.7744    0.0000 </r>
       <r>   30.4794    0.0000 </r>
      </set>
      <set comment="kpoint 72">
       <r>   -1.2364    1.0000 </r>
       <r>   13.6688    0.0000 </r>
       <r>   16.2553    0.0000 </r>
       <r>   19.3053    0.0000 </r>
       <r>   21.6115    0.0000 </r>
       <r>   24.2905    0.0000 </r>
       <r>   28.9353    0.0000 </r>
       <r>   30.9463    0.0000 </r>
      </set>
      <set comment="kpoint 73">
       <r>   -0.1099    1.0000 </r>
       <r>   11.0010    1.0000 </r>
       <r>   16.0229    0.0000 </r>
       <r>   17.9677    0.0000 </r>
       <r>   21.5212    0.0000 </r>
       <r>   26.0588    0.0000 </r>
       <r>   27.9225    0.0000 </r>
       <r>   31.1022    0.0000 </r>
      </set>
      <set comment="kpoint 74">
       <r>    1.2775    1.0000 </r>
       <r>    8.5037    1.0000 </r>
       <r>   16.0297    0.0000 </r>
       <r>   16.8375    0.0000 </r>
       <r>   21.5864    0.0000 </r>
       <r>   26.5660    0.0000 </r>
       <r>   28.4046    0.0000 </r>
       <r>   31.3145    0.0000 </r>
      </set>
      <set comment="kpoint 75">
       <r>    2.9179    1.0000 </r>
       <r>    6.2217    1.0000 </r>
       <r>   15.7893    0.0000 </r>
       <r>   16.4251    0.0000 </r>
       <r>   21.8759    0.0000 </r>
       <r>   25.8050    0.0000 </r>
       <r>   29.7490    0.0000 </r>
       <r>   32.0774    0.0000 </r>
      </set>
      <set comment="kpoint 76">
       <r>    4.1282    1.0000 </r>
       <r>    4.8493    1.0000 </r>
       <r>   15.1344    0.0000 </r>
       <r>   16.9085    0.0000 </r>
       <r>   22.3918    0.0000 </r>
       <r>   25.1883    0.0000 </r>
       <r>   29.9797    0.0000 </r>
       <r>   33.2639    0.0000 </r>
      </set>
      <set comment="kpoint 77">
       <r>    2.3445    1.0000 </r>
       <r>    6.9517    1.0000 </r>
       <r>   14.6924    0.0000 </r>
       <r>   17.6636    0.0000 </r>
       <r>   23.1072    0.0000 </r>
       <r>   24.8148    0.0000 </r>
       <r>   29.6797    0.0000 </r>
       <r>   31.9655    0.0000 </r>
      </set>
      <set comment="kpoint 78">
       <r>    0.7866    1.0000 </r>
       <r>    9.3004    1.0000 </r>
       <r>   14.5017    0.0000 </r>
       <r>   18.6508    0.0000 </r>
       <r>   23.8905    0.0000 </r>
       <r>   24.8011    0.0000 </r>
       <r>   28.7602    0.0000 </r>
       <r>   30.3984    0.0000 </r>
      </set>
      <set comment="kpoint 79">
       <r>   -0.5147    1.0000 </r>
       <r>   11.8289    0.0000 </r>
       <r>   14.5920    0.0000 </r>
       <r>   19.8457    0.0000 </r>
       <r>   24.3346    0.0000 </r>
       <r>   25.3887    0.0000 </r>
       <r>   27.1044    0.0000 </r>
       <r>   29.7728    0.0000 </r>
      </set>
      <set comment="kpoint 80">
       <r>   -1.5532    1.0000 </r>
       <r>   14.1906    0.0000 </r>
       <r>   15.2764    0.0000 </r>
       <r>   21.1859    0.0000 </r>
       <r>   24.2452    0.0000 </r>
       <r>   25.2422    0.0000 </r>
       <r>   27.0261    0.0000 </r>
       <r>   29.1716    0.0000 </r>
      </set>
      <set comment="kpoint 81">
       <r>   -0.8300    1.0000 </r>
       <r>   14.8602    0.0000 </r>
       <r>   15.6927    0.0000 </r>
       <r>   17.3524    0.0000 </r>
       <r>   20.0489    0.0000 </r>
       <r>   22.0231    0.0000 </r>
       <r>   31.1599    0.0000 </r>
       <r>   33.1715    0.0000 </r>
      </set>
      <set comment="kpoint 82">
       <r>    0.2044    1.0000 </r>
       <r>   12.4907    0.0000 </r>
       <r>   15.0943    0.0000 </r>
       <r>   15.8921    0.0000 </r>
       <r>   20.4520    0.0000 </r>
       <r>   23.2771    0.0000 </r>
       <r>   30.2270    0.0000 </r>
       <r>   33.6311    0.0000 </r>
      </set>
      <set comment="kpoint 83">
       <r>    1.5001    1.0000 </r>
       <r>    9.9773    1.0000 </r>
       <r>   14.5133    0.0000 </r>
       <r>   15.1278    0.0000 </r>
       <r>   20.5643    0.0000 </r>
       <r>   25.3404    0.0000 </r>
       <r>   29.2500    0.0000 </r>
       <r>   33.5642    0.0000 </r>
      </set>
      <set comment="kpoint 84">
       <r>    3.0503    1.0000 </r>
       <r>    7.6404    1.0000 </r>
       <r>   13.5112    0.0000 </r>
       <r>   15.2873    0.0000 </r>
       <r>   20.8208    0.0000 </r>
       <r>   27.4118    0.0000 </r>
       <r>   28.6349    0.0000 </r>
       <r>   33.1965    0.0000 </r>
      </set>
      <set comment="kpoint 85">
       <r>    4.8269    1.0000 </r>
       <r>    5.5418    1.0000 </r>
       <r>   12.7268    0.0000 </r>
       <r>   15.7283    0.0000 </r>
       <r>   21.2952    0.0000 </r>
       <r>   27.4479    0.0000 </r>
       <r>   30.2066    0.0000 </r>
       <r>   32.5225    0.0000 </r>
      </set>
      <set comment="kpoint 86">
       <r>    3.6256    1.0000 </r>
       <r>    6.8885    1.0000 </r>
       <r>   12.2001    0.0000 </r>
       <r>   16.4174    0.0000 </r>
       <r>   21.9966    0.0000 </r>
       <r>   27.0032    0.0000 </r>
       <r>   31.0216    0.0000 </r>
       <r>   31.8974    0.0000 </r>
      </set>
      <set comment="kpoint 87">
       <r>    1.9906    1.0000 </r>
       <r>    9.1036    1.0000 </r>
       <r>   11.9695    0.0000 </r>
       <r>   17.3451    0.0000 </r>
       <r>   22.9125    0.0000 </r>
       <r>   26.7154    0.0000 </r>
       <r>   28.9879    0.0000 </r>
       <r>   31.8412    0.0000 </r>
      </set>
      <set comment="kpoint 88">
       <r>    0.6079    1.0000 </r>
       <r>   11.1345    1.0000 </r>
       <r>   12.3942    0.0000 </r>
       <r>   18.4987    0.0000 </r>
       <r>   23.9979    0.0000 </r>
       <r>   26.2595    0.0000 </r>
       <r>   27.2175    0.0000 </r>
       <r>   31.0501    0.0000 </r>
      </set>
      <set comment="kpoint 89">
       <r>    0.7861    1.0000 </r>
       <r>   13.8518    0.0000 </r>
       <r>   13.8618    0.0000 </r>
       <r>   14.8013    0.0000 </r>
       <r>   19.0425    0.0000 </r>
       <r>   21.0868    0.0000 </r>
       <r>   32.6407    0.0000 </r>
       <r>   35.5685    0.0000 </r>
      </set>
      <set comment="kpoint 90">
       <r>    1.9878    1.0000 </r>
       <r>   11.6365    0.0000 </r>
       <r>   12.5217    0.0000 </r>
       <r>   14.3421    0.0000 </r>
       <r>   19.6234    0.0000 </r>
       <r>   22.5371    0.0000 </r>
       <r>   31.7799    0.0000 </r>
       <r>   35.7962    0.0000 </r>
      </set>
      <set comment="kpoint 91">
       <r>    3.4427    1.0000 </r>
       <r>    9.2891    1.0000 </r>
       <r>   11.3871    0.0638 </r>
       <r>   14.4277    0.0000 </r>
       <r>   19.9148    0.0000 </r>
       <r>   24.7984    0.0000 </r>
       <r>   30.9168    0.0000 </r>
       <r>   35.1734    0.0000 </r>
      </set>
      <set comment="kpoint 92">
       <r>    5.1345    1.0000 </r>
       <r>    7.1209    1.0000 </r>
       <r>   10.5131    1.0000 </r>
       <r>   14.7876    0.0000 </r>
       <r>   20.3455    0.0000 </r>
       <r>   27.2870    0.0000 </r>
       <r>   30.2214    0.0000 </r>
       <r>   33.7791    0.0000 </r>
      </set>
      <set comment="kpoint 93">
       <r>    5.1578    1.0000 </r>
       <r>    7.0408    1.0000 </r>
       <r>    9.9396    1.0000 </r>
       <r>   15.3993    0.0000 </r>
       <r>   20.9903    0.0000 </r>
       <r>   29.1932    0.0000 </r>
       <r>   30.2540    0.0000 </r>
       <r>   31.7042    0.0000 </r>
      </set>
      <set comment="kpoint 94">
       <r>    3.4510    1.0000 </r>
       <r>    8.7431    1.0000 </r>
       <r>   10.0441    1.0000 </r>
       <r>   16.2548    0.0000 </r>
       <r>   21.8549    0.0000 </r>
       <r>   28.8962    0.0000 </r>
       <r>   29.2957    0.0000 </r>
       <r>   32.4861    0.0000 </r>
      </set>
      <set comment="kpoint 95">
       <r>    2.7365    1.0000 </r>
       <r>   10.6977    1.0000 </r>
       <r>   13.1772    0.0000 </r>
       <r>   14.1211    0.0000 </r>
       <r>   18.3654    0.0000 </r>
       <r>   20.4622    0.0000 </r>
       <r>   34.2672    0.0000 </r>
       <r>   37.5360    0.0000 </r>
      </set>
      <set comment="kpoint 96">
       <r>    4.0877    1.0000 </r>
       <r>    9.4727    1.0000 </r>
       <r>   11.1457    1.0000 </r>
       <r>   13.8404    0.0000 </r>
       <r>   19.1221    0.0000 </r>
       <r>   22.0838    0.0000 </r>
       <r>   33.5331    0.0000 </r>
       <r>   36.6413    0.0000 </r>
      </set>
      <set comment="kpoint 97">
       <r>    5.6466    1.0000 </r>
       <r>    8.5162    1.0000 </r>
       <r>    8.9898    1.0000 </r>
       <r>   14.0956    0.0000 </r>
       <r>   19.5862    0.0000 </r>
       <r>   24.5161    0.0000 </r>
       <r>   32.7990    0.0000 </r>
       <r>   34.6451    0.0000 </r>
      </set>
      <set comment="kpoint 98">
       <r>    6.9252    1.0000 </r>
       <r>    7.0321    1.0000 </r>
       <r>    8.3275    1.0000 </r>
       <r>   14.6224    0.0000 </r>
       <r>   20.1850    0.0000 </r>
       <r>   27.1892    0.0000 </r>
       <r>   32.0676    0.0000 </r>
       <r>   32.2827    0.0000 </r>
      </set>
      <set comment="kpoint 99">
       <r>    4.9523    1.0000 </r>
       <r>    7.8543    1.0000 </r>
       <r>   12.8392    0.0000 </r>
       <r>   13.7922    0.0000 </r>
       <r>   18.0256    0.0000 </r>
       <r>   20.1469    0.0000 </r>
       <r>   35.8642    0.0000 </r>
       <r>   37.4523    0.0000 </r>
      </set>
      <set comment="kpoint 100">
       <r>    6.0052    1.0000 </r>
       <r>    7.2435    1.0000 </r>
       <r>   10.9729    1.0000 </r>
       <r>   13.6744    0.0000 </r>
       <r>   18.9543    0.0000 </r>
       <r>   21.9312    0.0000 </r>
       <r>   35.1478    0.0000 </r>
       <r>   35.5404    0.0000 </r>
      </set>
      <set comment="kpoint 101">
       <r>   -0.2896    1.0000 </r>
       <r>   12.8369    0.0000 </r>
       <r>   13.9865    0.0000 </r>
       <r>   17.8206    0.0000 </r>
       <r>   23.0242    0.0000 </r>
       <r>   24.3060    0.0000 </r>
       <r>   27.9369    0.0000 </r>
       <r>   32.1929    0.0000 </r>
      </set>
      <set comment="kpoint 102">
       <r>    0.9208    1.0000 </r>
       <r>   10.6394    1.0000 </r>
       <r>   13.4403    0.0000 </r>
       <r>   16.4924    0.0000 </r>
       <r>   23.4179    0.0000 </r>
       <r>   25.6249    0.0000 </r>
       <r>   27.1336    0.0000 </r>
       <r>   32.7830    0.0000 </r>
      </set>
      <set comment="kpoint 103">
       <r>    2.3890    1.0000 </r>
       <r>    8.2686    1.0000 </r>
       <r>   13.5067    0.0000 </r>
       <r>   15.3906    0.0000 </r>
       <r>   23.5694    0.0000 </r>
       <r>   25.5487    0.0000 </r>
       <r>   28.4847    0.0000 </r>
       <r>   32.8939    0.0000 </r>
      </set>
      <set comment="kpoint 104">
       <r>    4.1038    1.0000 </r>
       <r>    6.0858    1.0000 </r>
       <r>   13.8373    0.0000 </r>
       <r>   14.5525    0.0000 </r>
       <r>   23.7947    0.0000 </r>
       <r>   24.9635    0.0000 </r>
       <r>   30.6553    0.0000 </r>
       <r>   32.3463    0.0000 </r>
      </set>
      <set comment="kpoint 105">
       <r>    1.3220    1.0000 </r>
       <r>   11.8180    0.0000 </r>
       <r>   12.9847    0.0000 </r>
       <r>   14.4363    0.0000 </r>
       <r>   22.0546    0.0000 </r>
       <r>   23.5285    0.0000 </r>
       <r>   29.2876    0.0000 </r>
       <r>   35.0368    0.0000 </r>
      </set>
      <set comment="kpoint 106">
       <r>    2.6974    1.0000 </r>
       <r>    9.7847    1.0000 </r>
       <r>   12.5710    0.0000 </r>
       <r>   13.2482    0.0000 </r>
       <r>   22.6642    0.0000 </r>
       <r>   25.2354    0.0000 </r>
       <r>   28.3801    0.0000 </r>
       <r>   35.0658    0.0000 </r>
      </set>
      <set comment="kpoint 107">
       <r>    4.3213    1.0000 </r>
       <r>    7.5780    1.0000 </r>
       <r>   12.1930    0.0000 </r>
       <r>   12.9009    0.0000 </r>
       <r>   23.0339    0.0000 </r>
       <r>   26.8496    0.0000 </r>
       <r>   28.3310    0.0000 </r>
       <r>   33.4603    0.0000 </r>
      </set>
      <set comment="kpoint 108">
       <r>    5.5306    1.0000 </r>
       <r>    6.2085    1.0000 </r>
       <r>   11.5192    0.0000 </r>
       <r>   13.4026    0.0000 </r>
       <r>   23.5568    0.0000 </r>
       <r>   26.5722    0.0000 </r>
       <r>   30.1660    0.0000 </r>
       <r>   31.4892    0.0000 </r>
      </set>
      <set comment="kpoint 109">
       <r>    3.7569    1.0000 </r>
       <r>    8.2446    1.0000 </r>
       <r>   11.1226    1.0000 </r>
       <r>   14.1855    0.0000 </r>
       <r>   24.2465    0.0000 </r>
       <r>   26.1450    0.0000 </r>
       <r>   28.5699    0.0000 </r>
       <r>   33.0204    0.0000 </r>
      </set>
      <set comment="kpoint 110">
       <r>    2.2120    1.0000 </r>
       <r>   10.1112    1.0000 </r>
       <r>   11.3874    0.0630 </r>
       <r>   15.2200    0.0000 </r>
       <r>   24.9858    0.0000 </r>
       <r>   25.3639    0.0000 </r>
       <r>   26.9649    0.0000 </r>
       <r>   34.2541    0.0000 </r>
      </set>
      <set comment="kpoint 111">
       <r>    3.2667    1.0000 </r>
       <r>   11.1374    1.0000 </r>
       <r>   11.1866    1.0000 </r>
       <r>   12.3866    0.0000 </r>
       <r>   21.3954    0.0000 </r>
       <r>   22.9749    0.0000 </r>
       <r>   30.9514    0.0000 </r>
       <r>   36.2328    0.0000 </r>
      </set>
      <set comment="kpoint 112">
       <r>    4.7883    1.0000 </r>
       <r>    9.2626    1.0000 </r>
       <r>   10.1694    1.0000 </r>
       <r>   12.1342    0.0000 </r>
       <r>   22.1931    0.0000 </r>
       <r>   24.8775    0.0000 </r>
       <r>   30.1262    0.0000 </r>
       <r>   34.1626    0.0000 </r>
      </set>
      <set comment="kpoint 113">
       <r>    6.5048    1.0000 </r>
       <r>    7.2333    1.0000 </r>
       <r>    9.4230    1.0000 </r>
       <r>   12.5335    0.0000 </r>
       <r>   22.7402    0.0000 </r>
       <r>   27.2992    0.0000 </r>
       <r>   29.4566    0.0000 </r>
       <r>   31.7434    0.0000 </r>
      </set>
      <set comment="kpoint 114">
       <r>    5.3720    1.0000 </r>
       <r>    8.0591    1.0000 </r>
       <r>    9.3537    1.0000 </r>
       <r>   13.2293    0.0000 </r>
       <r>   23.4318    0.0000 </r>
       <r>   28.3241    0.0000 </r>
       <r>   28.7438    0.0000 </r>
       <r>   31.0161    0.0000 </r>
      </set>
      <set comment="kpoint 115">
       <r>    5.4736    1.0000 </r>
       <r>    8.3734    1.0000 </r>
       <r>   10.7968    1.0000 </r>
       <r>   12.0302    0.0000 </r>
       <r>   21.0631    0.0000 </r>
       <r>   22.6890    0.0000 </r>
       <r>   32.8279    0.0000 </r>
       <r>   34.7649    0.0000 </r>
      </set>
      <set comment="kpoint 116">
       <r>    6.6898    1.0000 </r>
       <r>    7.9360    1.0000 </r>
       <r>    9.1159    1.0000 </r>
       <r>   11.9597    0.0000 </r>
       <r>   22.0339    0.0000 </r>
       <r>   24.7486    0.0000 </r>
       <r>   31.8082    0.0000 </r>
       <r>   32.5013    0.0000 </r>
      </set>
      <set comment="kpoint 117">
       <r>    4.1470    1.0000 </r>
       <r>    9.4282    1.0000 </r>
       <r>   10.6927    1.0000 </r>
       <r>   12.0921    0.0000 </r>
       <r>   24.7329    0.0000 </r>
       <r>   25.4949    0.0000 </r>
       <r>   27.6484    0.0000 </r>
       <r>   33.6492    0.0000 </r>
      </set>
      <set comment="kpoint 118">
       <r>    5.8330    1.0000 </r>
       <r>    7.7282    1.0000 </r>
       <r>   10.5753    1.0000 </r>
       <r>   11.2429    0.9947 </r>
       <r>   25.3179    0.0000 </r>
       <r>   26.3193    0.0000 </r>
       <r>   28.2192    0.0000 </r>
       <r>   31.2764    0.0000 </r>
      </set>
      <set comment="kpoint 119">
       <r>    6.3398    1.0000 </r>
       <r>    9.0866    1.0000 </r>
       <r>    9.2133    1.0000 </r>
       <r>   10.4182    1.0000 </r>
       <r>   24.4118    0.0000 </r>
       <r>   25.4508    0.0000 </r>
       <r>   29.2881    0.0000 </r>
       <r>   31.7087    0.0000 </r>
      </set>
      <set comment="kpoint 120">
       <r>    7.5423    1.0000 </r>
       <r>    7.7171    1.0000 </r>
       <r>    8.9905    1.0000 </r>
       <r>   10.4794    1.0000 </r>
       <r>   25.3287    0.0000 </r>
       <r>   27.3415    0.0000 </r>
       <r>   28.0234    0.0000 </r>
       <r>   30.0419    0.0000 </r>
      </set>
     </set>
    </set>
   </array>
  </eigenvalues>
  <separator name="orbital magnetization" >
   <v name="MAGDIPOLOUT">      0.00000000      0.00000000      0.00000000</v>
  </separator>
  <dos>
   <i name="efermi">     11.33327551 </i>
   <total>
    <array>
     <dimension dim="1">gridpoints</dimension>
     <dimension dim="2">spin</dimension>
     <field>energy</field>
     <field>total</field>
     <field>integrated</field>
     <set>
      <set comment="spin 1">
       <r>    -6.0564     0.0000     0.0000 </r>
       <r>    -5.8999     0.0000     0.0000 </r>
       <r>    -5.7433     0.0000     0.0000 </r>
       <r>    -5.5867     0.0000     0.0000 </r>
       <r>    -5.4302     0.0000     0.0000 </r>
       <r>    -5.2736     0.0000     0.0000 </r>
       <r>    -5.1171     0.0000     0.0000 </r>
       <r>    -4.9605     0.0000     0.0000 </r>
       <r>    -4.8040     0.0000     0.0000 </r>
       <r>    -4.6474     0.0000     0.0000 </r>
       <r>    -4.4908     0.0000     0.0000 </r>
       <r>    -4.3343     0.0000     0.0000 </r>
       <r>    -4.1777     0.0000     0.0000 </r>
       <r>    -4.0212     0.0000     0.0000 </r>
       <r>    -3.8646     0.0039     0.0006 </r>
       <r>    -3.7080     0.0479     0.0081 </r>
       <r>    -3.5515     0.0296     0.0128 </r>
       <r>    -3.3949     0.0963     0.0278 </r>
       <r>    -3.2384     0.0475     0.0353 </r>
       <r>    -3.0818     0.0411     0.0417 </r>
       <r>    -2.9252     0.1606     0.0668 </r>
       <r>    -2.7687     0.0879     0.0806 </r>
       <r>    -2.6121     0.1229     0.0999 </r>
       <r>    -2.4556     0.0273     0.1041 </r>
       <r>    -2.2990     0.1911     0.1340 </r>
       <r>    -2.1424     0.1333     0.1549 </r>
       <r>    -1.9859     0.1058     0.1715 </r>
       <r>    -1.8293     0.1571     0.1961 </r>
       <r>    -1.6728     0.0329     0.2012 </r>
       <r>    -1.5162     0.2552     0.2412 </r>
       <r>    -1.3596     0.1315     0.2618 </r>
       <r>    -1.2031     0.2911     0.3073 </r>
       <r>    -1.0465     0.0503     0.3152 </r>
       <r>    -0.8900     0.0584     0.3244 </r>
       <r>    -0.7334     0.2340     0.3610 </r>
       <r>    -0.5768     0.1414     0.3831 </r>
       <r>    -0.4203     0.2889     0.4284 </r>
       <r>    -0.2637     0.0781     0.4406 </r>
       <r>    -0.1072     0.3657     0.4979 </r>
       <r>     0.0494     0.1354     0.5191 </r>
       <r>     0.2060     0.1588     0.5439 </r>
       <r>     0.3625     0.0905     0.5581 </r>
       <r>     0.5191     0.1179     0.5765 </r>
       <r>     0.6756     0.3531     0.6318 </r>
       <r>     0.8322     0.2506     0.6710 </r>
       <r>     0.9888     0.3812     0.7307 </r>
       <r>     1.1453     0.0375     0.7366 </r>
       <r>     1.3019     0.2151     0.7703 </r>
       <r>     1.4584     0.2607     0.8111 </r>
       <r>     1.6150     0.2166     0.8450 </r>
       <r>     1.7716     0.1255     0.8646 </r>
       <r>     1.9281     0.0636     0.8746 </r>
       <r>     2.0847     0.6020     0.9689 </r>
       <r>     2.2412     0.1628     0.9943 </r>
       <r>     2.3978     0.3982     1.0567 </r>
       <r>     2.5544     0.1357     1.0779 </r>
       <r>     2.7109     0.2288     1.1137 </r>
       <r>     2.8675     0.1650     1.1396 </r>
       <r>     3.0240     0.3392     1.1927 </r>
       <r>     3.1806     0.2745     1.2357 </r>
       <r>     3.3372     0.0916     1.2500 </r>
       <r>     3.4937     0.4268     1.3168 </r>
       <r>     3.6503     0.1648     1.3426 </r>
       <r>     3.8068     0.5448     1.4279 </r>
       <r>     3.9634     0.0826     1.4408 </r>
       <r>     4.1199     0.4299     1.5081 </r>
       <r>     4.2765     0.3669     1.5656 </r>
       <r>     4.4331     0.2053     1.5977 </r>
       <r>     4.5896     0.1387     1.6194 </r>
       <r>     4.7462     0.0551     1.6281 </r>
       <r>     4.9027     0.5362     1.7120 </r>
       <r>     5.0593     0.2452     1.7504 </r>
       <r>     5.2159     0.5950     1.8435 </r>
       <r>     5.3724     0.0764     1.8555 </r>
       <r>     5.5290     0.3268     1.9067 </r>
       <r>     5.6855     0.4635     1.9792 </r>
       <r>     5.8421     0.3581     2.0353 </r>
       <r>     5.9987     0.2537     2.0750 </r>
       <r>     6.1552     0.2887     2.1202 </r>
       <r>     6.3118     0.5038     2.1991 </r>
       <r>     6.4683     0.1488     2.2224 </r>
       <r>     6.6249     0.2132     2.2557 </r>
       <r>     6.7815     0.1226     2.2749 </r>
       <r>     6.9380     0.4233     2.3412 </r>
       <r>     7.0946     0.4964     2.4189 </r>
       <r>     7.2511     0.4428     2.4883 </r>
       <r>     7.4077     0.2576     2.5286 </r>
       <r>     7.5643     0.1459     2.5514 </r>
       <r>     7.7208     0.5216     2.6331 </r>
       <r>     7.8774     0.3613     2.6897 </r>
       <r>     8.0339     0.4296     2.7569 </r>
       <r>     8.1905     0.1944     2.7873 </r>
       <r>     8.3471     0.4510     2.8579 </r>
       <r>     8.5036     0.2554     2.8979 </r>
       <r>     8.6602     0.2702     2.9402 </r>
       <r>     8.8167     0.1239     2.9596 </r>
       <r>     8.9733     0.1984     2.9907 </r>
       <r>     9.1299     0.7470     3.1076 </r>
       <r>     9.2864     0.5161     3.1884 </r>
       <r>     9.4430     0.6069     3.2835 </r>
       <r>     9.5995     0.3178     3.3332 </r>
       <r>     9.7561     0.2235     3.3682 </r>
       <r>     9.9127     0.3213     3.4185 </r>
       <r>    10.0692     0.3983     3.4809 </r>
       <r>    10.2258     0.2754     3.5240 </r>
       <r>    10.3823     0.2402     3.5616 </r>
       <r>    10.5389     0.3994     3.6241 </r>
       <r>    10.6955     0.5443     3.7093 </r>
       <r>    10.8520     0.3425     3.7630 </r>
       <r>    11.0086     0.3096     3.8114 </r>
       <r>    11.1651     0.6311     3.9102 </r>
       <r>    11.3217     0.5516     3.9966 </r>
       <r>    11.4783     0.3500     4.0514 </r>
       <r>    11.6348     0.3360     4.1040 </r>
       <r>    11.7914     0.1434     4.1264 </r>
       <r>    11.9479     0.4102     4.1907 </r>
       <r>    12.1045     0.4863     4.2668 </r>
       <r>    12.2611     0.6187     4.3637 </r>
       <r>    12.4176     0.3331     4.4158 </r>
       <r>    12.5742     0.6932     4.5243 </r>
       <r>    12.7307     0.2208     4.5589 </r>
       <r>    12.8873     0.3869     4.6195 </r>
       <r>    13.0438     0.3377     4.6724 </r>
       <r>    13.2004     0.3699     4.7303 </r>
       <r>    13.3570     0.4726     4.8043 </r>
       <r>    13.5135     0.5836     4.8956 </r>
       <r>    13.6701     0.3919     4.9570 </r>
       <r>    13.8266     0.5289     5.0398 </r>
       <r>    13.9832     0.4480     5.1099 </r>
       <r>    14.1398     0.4821     5.1854 </r>
       <r>    14.2963     0.4039     5.2487 </r>
       <r>    14.4529     0.4656     5.3216 </r>
       <r>    14.6094     0.8163     5.4493 </r>
       <r>    14.7660     0.3833     5.5094 </r>
       <r>    14.9226     0.3908     5.5705 </r>
       <r>    15.0791     0.2527     5.6101 </r>
       <r>    15.2357     0.8916     5.7497 </r>
       <r>    15.3922     0.4671     5.8228 </r>
       <r>    15.5488     0.4241     5.8892 </r>
       <r>    15.7054     0.2733     5.9320 </r>
       <r>    15.8619     0.7307     6.0464 </r>
       <r>    16.0185     0.4671     6.1195 </r>
       <r>    16.1750     0.6834     6.2265 </r>
       <r>    16.3316     0.4651     6.2993 </r>
       <r>    16.4882     0.5657     6.3879 </r>
       <r>    16.6447     0.1961     6.4186 </r>
       <r>    16.8013     0.1820     6.4471 </r>
       <r>    16.9578     0.6221     6.5445 </r>
       <r>    17.1144     0.3963     6.6065 </r>
       <r>    17.2710     0.4191     6.6721 </r>
       <r>    17.4275     0.8406     6.8038 </r>
       <r>    17.5841     0.3006     6.8508 </r>
       <r>    17.7406     0.5771     6.9412 </r>
       <r>    17.8972     0.3142     6.9904 </r>
       <r>    18.0538     0.5136     7.0708 </r>
       <r>    18.2103     0.2595     7.1114 </r>
       <r>    18.3669     0.4960     7.1890 </r>
       <r>    18.5234     0.4302     7.2564 </r>
       <r>    18.6800     0.6093     7.3518 </r>
       <r>    18.8366     0.3196     7.4018 </r>
       <r>    18.9931     0.4059     7.4654 </r>
       <r>    19.1497     0.5554     7.5523 </r>
       <r>    19.3062     0.3771     7.6114 </r>
       <r>    19.4628     0.4634     7.6839 </r>
       <r>    19.6194     0.7873     7.8072 </r>
       <r>    19.7759     0.3824     7.8670 </r>
       <r>    19.9325     0.5444     7.9523 </r>
       <r>    20.0890     0.4751     8.0267 </r>
       <r>    20.2456     0.4614     8.0989 </r>
       <r>    20.4022     0.4855     8.1749 </r>
       <r>    20.5587     0.3871     8.2355 </r>
       <r>    20.7153     0.6288     8.3340 </r>
       <r>    20.8718     0.7001     8.4436 </r>
       <r>    21.0284     0.2643     8.4850 </r>
       <r>    21.1850     0.6563     8.5877 </r>
       <r>    21.3415     0.5203     8.6692 </r>
       <r>    21.4981     0.3548     8.7247 </r>
       <r>    21.6546     0.6800     8.8312 </r>
       <r>    21.8112     0.1580     8.8559 </r>
       <r>    21.9677     0.7632     8.9754 </r>
       <r>    22.1243     0.8100     9.1022 </r>
       <r>    22.2809     0.6086     9.1975 </r>
       <r>    22.4374     0.3944     9.2593 </r>
       <r>    22.5940     0.5261     9.3416 </r>
       <r>    22.7505     0.8384     9.4729 </r>
       <r>    22.9071     0.6389     9.5729 </r>
       <r>    23.0637     0.7080     9.6838 </r>
       <r>    23.2202     0.4879     9.7601 </r>
       <r>    23.3768     0.4504     9.8307 </r>
       <r>    23.5333     0.6709     9.9357 </r>
       <r>    23.6899     0.5096    10.0155 </r>
       <r>    23.8465     0.4442    10.0850 </r>
       <r>    24.0030     0.4331    10.1528 </r>
       <r>    24.1596     0.3905    10.2140 </r>
       <r>    24.3161     0.6152    10.3103 </r>
       <r>    24.4727     0.4527    10.3811 </r>
       <r>    24.6293     0.4261    10.4478 </r>
       <r>    24.7858     0.4248    10.5144 </r>
       <r>    24.9424     1.0676    10.6815 </r>
       <r>    25.0989     0.5349    10.7652 </r>
       <r>    25.2555     0.6239    10.8629 </r>
       <r>    25.4121     0.9461    11.0110 </r>
       <r>    25.5686     0.7100    11.1222 </r>
       <r>    25.7252     0.5862    11.2140 </r>
       <r>    25.8817     0.1895    11.2436 </r>
       <r>    26.0383     0.4181    11.3091 </r>
       <r>    26.1949     0.6761    11.4149 </r>
       <r>    26.3514     0.3823    11.4748 </r>
       <r>    26.5080     0.6955    11.5837 </r>
       <r>    26.6645     0.7276    11.6976 </r>
       <r>    26.8211     0.4499    11.7680 </r>
       <r>    26.9777     0.4214    11.8340 </r>
       <r>    27.1342     0.7552    11.9522 </r>
       <r>    27.2908     0.9943    12.1079 </r>
       <r>    27.4473     0.8178    12.2360 </r>
       <r>    27.6039     0.4028    12.2990 </r>
       <r>    27.7605     0.4935    12.3763 </r>
       <r>    27.9170     0.5463    12.4618 </r>
       <r>    28.0736     0.7317    12.5764 </r>
       <r>    28.2301     0.7261    12.6901 </r>
       <r>    28.3867     0.6935    12.7986 </r>
       <r>    28.5433     0.8135    12.9260 </r>
       <r>    28.6998     0.3916    12.9873 </r>
       <r>    28.8564     0.3106    13.0359 </r>
       <r>    29.0129     0.5463    13.1215 </r>
       <r>    29.1695     0.4573    13.1930 </r>
       <r>    29.3261     0.9223    13.3374 </r>
       <r>    29.4826     0.5778    13.4279 </r>
       <r>    29.6392     0.5109    13.5079 </r>
       <r>    29.7957     0.7275    13.6218 </r>
       <r>    29.9523     0.5255    13.7041 </r>
       <r>    30.1089     0.4065    13.7677 </r>
       <r>    30.2654     1.0911    13.9385 </r>
       <r>    30.4220     0.3957    14.0005 </r>
       <r>    30.5785     0.2531    14.0401 </r>
       <r>    30.7351     0.2056    14.0723 </r>
       <r>    30.8916     0.0996    14.0879 </r>
       <r>    31.0482     0.8921    14.2275 </r>
       <r>    31.2048     0.4569    14.2991 </r>
       <r>    31.3613     0.6327    14.3981 </r>
       <r>    31.5179     0.2703    14.4404 </r>
       <r>    31.6744     0.3160    14.4899 </r>
       <r>    31.8310     0.9525    14.6390 </r>
       <r>    31.9876     0.7226    14.7522 </r>
       <r>    32.1441     0.7057    14.8627 </r>
       <r>    32.3007     0.2596    14.9033 </r>
       <r>    32.4572     0.2261    14.9387 </r>
       <r>    32.6138     0.3636    14.9956 </r>
       <r>    32.7704     0.2785    15.0392 </r>
       <r>    32.9269     0.6527    15.1414 </r>
       <r>    33.0835     0.2093    15.1742 </r>
       <r>    33.2400     0.3083    15.2224 </r>
       <r>    33.3966     0.3393    15.2756 </r>
       <r>    33.5532     0.4260    15.3423 </r>
       <r>    33.7097     0.5203    15.4237 </r>
       <r>    33.8663     0.1991    15.4549 </r>
       <r>    34.0228     0.0752    15.4667 </r>
       <r>    34.1794     0.1276    15.4866 </r>
       <r>    34.3360     0.5077    15.5661 </r>
       <r>    34.4925     0.1365    15.5875 </r>
       <r>    34.6491     0.0994    15.6031 </r>
       <r>    34.8056     0.1777    15.6309 </r>
       <r>    34.9622     0.0204    15.6341 </r>
       <r>    35.1188     0.2874    15.6791 </r>
       <r>    35.2753     0.3412    15.7325 </r>
       <r>    35.4319     0.0962    15.7475 </r>
       <r>    35.5884     0.1889    15.7771 </r>
       <r>    35.7450     0.0622    15.7869 </r>
       <r>    35.9016     0.2830    15.8312 </r>
       <r>    36.0581     0.1376    15.8527 </r>
       <r>    36.2147     0.0846    15.8660 </r>
       <r>    36.3712     0.1515    15.8897 </r>
       <r>    36.5278     0.0008    15.8898 </r>
       <r>    36.6844     0.1614    15.9151 </r>
       <r>    36.8409     0.0637    15.9250 </r>
       <r>    36.9975     0.0019    15.9253 </r>
       <r>    37.1540     0.0314    15.9303 </r>
       <r>    37.3106     0.0821    15.9431 </r>
       <r>    37.4672     0.0626    15.9529 </r>
       <r>    37.6237     0.1393    15.9747 </r>
       <r>    37.7803     0.0074    15.9759 </r>
       <r>    37.9368     0.0858    15.9893 </r>
       <r>    38.0934     0.0002    15.9893 </r>
       <r>    38.2500     0.0000    15.9893 </r>
       <r>    38.4065     0.0114    15.9911 </r>
       <r>    38.5631     0.0341    15.9964 </r>
       <r>    38.7196     0.0012    15.9966 </r>
       <r>    38.8762     0.0214    16.0000 </r>
       <r>    39.0328     0.0001    16.0000 </r>
       <r>    39.1893     0.0000    16.0000 </r>
       <r>    39.3459     0.0000    16.0000 </r>
       <r>    39.5024     0.0000    16.0000 </r>
       <r>    39.6590     0.0000    16.0000 </r>
       <r>    39.8155     0.0000    16.0000 </r>
       <r>    39.9721     0.0000    16.0000 </r>
       <r>    40.1287     0.0000    16.0000 </r>
       <r>    40.2852     0.0000    16.0000 </r>
       <r>    40.4418     0.0000    16.0000 </r>
       <r>    40.5983     0.0000    16.0000 </r>
       <r>    40.7549     0.0000    16.0000 </r>
       <r>    40.9115     0.0000    16.0000 </r>
      </set>
     </set>
    </array>
   </total>
  </dos>
 </calculation>
 <structure name="finalpos" >
  <crystal>
   <varray name="basis" >
    <v>       2.30044710       0.00000000       1.32816264 </v>
    <v>       0.76681570       2.16888210       1.32816264 </v>
    <v>       0.00000000       0.00000000       2.65632724 </v>
   </varray>
   <i name="volume">     13.25347525 </i>
   <varray name="rec_basis" >
    <v>       0.43469811      -0.15368901       0.00000000 </v>
    <v>       0.00000000       0.46106702       0.00000000 </v>
    <v>      -0.21734889      -0.15368889       0.37645964 </v>
   </varray>
  </crystal>
  <varray name="positions" >
   <v>       0.00000000       0.00000000       0.00000000 </v>
  </varray>
 </structure>
</modeling>
