unknown system                          
           1
     2.300447    0.000000    1.328163
     0.766816    2.168882    1.328163
     0.000000    0.000000    2.656327
   Si
     1
Direct configuration=     1
   0.00000000  0.00000000  0.00000000
