   8   8   1   0
  0.9103145E+01  0.4176000E-09  0.4176000E-09  0.4176000E-09  0.5000000E-15
  1.000000000000000E-004
  CAR 
 bulk_NiO                                
     28.74998862    -62.57129438  301      6.60457749      1.00000000
    -62.571  0.0000E+00  0.0000E+00  0.0000E+00  0.0000E+00
    -62.267  0.0000E+00  0.0000E+00  0.0000E+00  0.0000E+00
    -61.962  0.0000E+00  0.0000E+00  0.0000E+00  0.0000E+00
    -61.658  0.0000E+00  0.0000E+00  0.0000E+00  0.0000E+00
    -61.354  0.0000E+00  0.0000E+00  0.0000E+00  0.0000E+00
    -61.049  0.0000E+00  0.0000E+00  0.0000E+00  0.0000E+00
    -60.745  0.0000E+00  0.0000E+00  0.0000E+00  0.0000E+00
    -60.440  0.0000E+00  0.0000E+00  0.0000E+00  0.0000E+00
    -60.136  0.0000E+00  0.0000E+00  0.0000E+00  0.0000E+00
    -59.832  0.0000E+00  0.0000E+00  0.0000E+00  0.0000E+00
    -59.527  0.0000E+00  0.0000E+00  0.0000E+00  0.0000E+00
    -59.223  0.0000E+00  0.0000E+00  0.0000E+00  0.0000E+00
    -58.918  0.0000E+00  0.0000E+00  0.0000E+00  0.0000E+00
    -58.614  0.1558E-06  0.1558E-06  0.4741E-07  0.4741E-07
    -58.310  0.1967E+02  0.1967E+02  0.5989E+01  0.5989E+01
    -58.005  0.3836E-02  0.3836E-02  0.6000E+01  0.6000E+01
    -57.701  0.0000E+00  0.0000E+00  0.6000E+01  0.6000E+01
    -57.396  0.0000E+00  0.0000E+00  0.6000E+01  0.6000E+01
    -57.092  0.0000E+00  0.0000E+00  0.6000E+01  0.6000E+01
    -56.788  0.0000E+00  0.0000E+00  0.6000E+01  0.6000E+01
    -56.483  0.9620E-09  0.9620E-09  0.6000E+01  0.6000E+01
    -56.179  0.1933E+02  0.1933E+02  0.1188E+02  0.1188E+02
    -55.874  0.3831E+00  0.3831E+00  0.1200E+02  0.1200E+02
    -55.570  0.0000E+00  0.0000E+00  0.1200E+02  0.1200E+02
    -55.266  0.0000E+00  0.0000E+00  0.1200E+02  0.1200E+02
    -54.961  0.0000E+00  0.0000E+00  0.1200E+02  0.1200E+02
    -54.657  0.0000E+00  0.0000E+00  0.1200E+02  0.1200E+02
    -54.352  0.0000E+00  0.0000E+00  0.1200E+02  0.1200E+02
    -54.048  0.0000E+00  0.0000E+00  0.1200E+02  0.1200E+02
    -53.744  0.0000E+00  0.0000E+00  0.1200E+02  0.1200E+02
    -53.439  0.0000E+00  0.0000E+00  0.1200E+02  0.1200E+02
    -53.135  0.0000E+00  0.0000E+00  0.1200E+02  0.1200E+02
    -52.830  0.0000E+00  0.0000E+00  0.1200E+02  0.1200E+02
    -52.526  0.0000E+00  0.0000E+00  0.1200E+02  0.1200E+02
    -52.222  0.0000E+00  0.0000E+00  0.1200E+02  0.1200E+02
    -51.917  0.0000E+00  0.0000E+00  0.1200E+02  0.1200E+02
    -51.613  0.0000E+00  0.0000E+00  0.1200E+02  0.1200E+02
    -51.308  0.0000E+00  0.0000E+00  0.1200E+02  0.1200E+02
    -51.004  0.0000E+00  0.0000E+00  0.1200E+02  0.1200E+02
    -50.700  0.0000E+00  0.0000E+00  0.1200E+02  0.1200E+02
    -50.395  0.0000E+00  0.0000E+00  0.1200E+02  0.1200E+02
    -50.091  0.0000E+00  0.0000E+00  0.1200E+02  0.1200E+02
    -49.786  0.0000E+00  0.0000E+00  0.1200E+02  0.1200E+02
    -49.482  0.0000E+00  0.0000E+00  0.1200E+02  0.1200E+02
    -49.178  0.0000E+00  0.0000E+00  0.1200E+02  0.1200E+02
    -48.873  0.0000E+00  0.0000E+00  0.1200E+02  0.1200E+02
    -48.569  0.0000E+00  0.0000E+00  0.1200E+02  0.1200E+02
    -48.264  0.0000E+00  0.0000E+00  0.1200E+02  0.1200E+02
    -47.960  0.0000E+00  0.0000E+00  0.1200E+02  0.1200E+02
    -47.655  0.0000E+00  0.0000E+00  0.1200E+02  0.1200E+02
    -47.351  0.0000E+00  0.0000E+00  0.1200E+02  0.1200E+02
    -47.047  0.0000E+00  0.0000E+00  0.1200E+02  0.1200E+02
    -46.742  0.0000E+00  0.0000E+00  0.1200E+02  0.1200E+02
    -46.438  0.0000E+00  0.0000E+00  0.1200E+02  0.1200E+02
    -46.133  0.0000E+00  0.0000E+00  0.1200E+02  0.1200E+02
    -45.829  0.0000E+00  0.0000E+00  0.1200E+02  0.1200E+02
    -45.525  0.0000E+00  0.0000E+00  0.1200E+02  0.1200E+02
    -45.220  0.0000E+00  0.0000E+00  0.1200E+02  0.1200E+02
    -44.916  0.0000E+00  0.0000E+00  0.1200E+02  0.1200E+02
    -44.611  0.0000E+00  0.0000E+00  0.1200E+02  0.1200E+02
    -44.307  0.0000E+00  0.0000E+00  0.1200E+02  0.1200E+02
    -44.003  0.0000E+00  0.0000E+00  0.1200E+02  0.1200E+02
    -43.698  0.0000E+00  0.0000E+00  0.1200E+02  0.1200E+02
    -43.394  0.0000E+00  0.0000E+00  0.1200E+02  0.1200E+02
    -43.089  0.0000E+00  0.0000E+00  0.1200E+02  0.1200E+02
    -42.785  0.0000E+00  0.0000E+00  0.1200E+02  0.1200E+02
    -42.481  0.0000E+00  0.0000E+00  0.1200E+02  0.1200E+02
    -42.176  0.0000E+00  0.0000E+00  0.1200E+02  0.1200E+02
    -41.872  0.0000E+00  0.0000E+00  0.1200E+02  0.1200E+02
    -41.567  0.0000E+00  0.0000E+00  0.1200E+02  0.1200E+02
    -41.263  0.0000E+00  0.0000E+00  0.1200E+02  0.1200E+02
    -40.959  0.0000E+00  0.0000E+00  0.1200E+02  0.1200E+02
    -40.654  0.0000E+00  0.0000E+00  0.1200E+02  0.1200E+02
    -40.350  0.0000E+00  0.0000E+00  0.1200E+02  0.1200E+02
    -40.045  0.0000E+00  0.0000E+00  0.1200E+02  0.1200E+02
    -39.741  0.0000E+00  0.0000E+00  0.1200E+02  0.1200E+02
    -39.437  0.0000E+00  0.0000E+00  0.1200E+02  0.1200E+02
    -39.132  0.0000E+00  0.0000E+00  0.1200E+02  0.1200E+02
    -38.828  0.0000E+00  0.0000E+00  0.1200E+02  0.1200E+02
    -38.523  0.0000E+00  0.0000E+00  0.1200E+02  0.1200E+02
    -38.219  0.0000E+00  0.0000E+00  0.1200E+02  0.1200E+02
    -37.915  0.0000E+00  0.0000E+00  0.1200E+02  0.1200E+02
    -37.610  0.0000E+00  0.0000E+00  0.1200E+02  0.1200E+02
    -37.306  0.0000E+00  0.0000E+00  0.1200E+02  0.1200E+02
    -37.001  0.0000E+00  0.0000E+00  0.1200E+02  0.1200E+02
    -36.697  0.0000E+00  0.0000E+00  0.1200E+02  0.1200E+02
    -36.393  0.0000E+00  0.0000E+00  0.1200E+02  0.1200E+02
    -36.088  0.0000E+00  0.0000E+00  0.1200E+02  0.1200E+02
    -35.784  0.0000E+00  0.0000E+00  0.1200E+02  0.1200E+02
    -35.479  0.0000E+00  0.0000E+00  0.1200E+02  0.1200E+02
    -35.175  0.0000E+00  0.0000E+00  0.1200E+02  0.1200E+02
    -34.871  0.0000E+00  0.0000E+00  0.1200E+02  0.1200E+02
    -34.566  0.0000E+00  0.0000E+00  0.1200E+02  0.1200E+02
    -34.262  0.0000E+00  0.0000E+00  0.1200E+02  0.1200E+02
    -33.957  0.0000E+00  0.0000E+00  0.1200E+02  0.1200E+02
    -33.653  0.0000E+00  0.0000E+00  0.1200E+02  0.1200E+02
    -33.348  0.0000E+00  0.0000E+00  0.1200E+02  0.1200E+02
    -33.044  0.0000E+00  0.0000E+00  0.1200E+02  0.1200E+02
    -32.740  0.0000E+00  0.0000E+00  0.1200E+02  0.1200E+02
    -32.435  0.0000E+00  0.0000E+00  0.1200E+02  0.1200E+02
    -32.131  0.0000E+00  0.0000E+00  0.1200E+02  0.1200E+02
    -31.826  0.0000E+00  0.0000E+00  0.1200E+02  0.1200E+02
    -31.522  0.0000E+00  0.0000E+00  0.1200E+02  0.1200E+02
    -31.218  0.0000E+00  0.0000E+00  0.1200E+02  0.1200E+02
    -30.913  0.0000E+00  0.0000E+00  0.1200E+02  0.1200E+02
    -30.609  0.0000E+00  0.0000E+00  0.1200E+02  0.1200E+02
    -30.304  0.0000E+00  0.0000E+00  0.1200E+02  0.1200E+02
    -30.000  0.0000E+00  0.0000E+00  0.1200E+02  0.1200E+02
    -29.696  0.0000E+00  0.0000E+00  0.1200E+02  0.1200E+02
    -29.391  0.0000E+00  0.0000E+00  0.1200E+02  0.1200E+02
    -29.087  0.0000E+00  0.0000E+00  0.1200E+02  0.1200E+02
    -28.782  0.0000E+00  0.0000E+00  0.1200E+02  0.1200E+02
    -28.478  0.0000E+00  0.0000E+00  0.1200E+02  0.1200E+02
    -28.174  0.0000E+00  0.0000E+00  0.1200E+02  0.1200E+02
    -27.869  0.0000E+00  0.0000E+00  0.1200E+02  0.1200E+02
    -27.565  0.0000E+00  0.0000E+00  0.1200E+02  0.1200E+02
    -27.260  0.0000E+00  0.0000E+00  0.1200E+02  0.1200E+02
    -26.956  0.0000E+00  0.0000E+00  0.1200E+02  0.1200E+02
    -26.652  0.0000E+00  0.0000E+00  0.1200E+02  0.1200E+02
    -26.347  0.0000E+00  0.0000E+00  0.1200E+02  0.1200E+02
    -26.043  0.0000E+00  0.0000E+00  0.1200E+02  0.1200E+02
    -25.738  0.0000E+00  0.0000E+00  0.1200E+02  0.1200E+02
    -25.434  0.0000E+00  0.0000E+00  0.1200E+02  0.1200E+02
    -25.130  0.0000E+00  0.0000E+00  0.1200E+02  0.1200E+02
    -24.825  0.0000E+00  0.0000E+00  0.1200E+02  0.1200E+02
    -24.521  0.0000E+00  0.0000E+00  0.1200E+02  0.1200E+02
    -24.216  0.0000E+00  0.0000E+00  0.1200E+02  0.1200E+02
    -23.912  0.0000E+00  0.0000E+00  0.1200E+02  0.1200E+02
    -23.608  0.0000E+00  0.0000E+00  0.1200E+02  0.1200E+02
    -23.303  0.0000E+00  0.0000E+00  0.1200E+02  0.1200E+02
    -22.999  0.0000E+00  0.0000E+00  0.1200E+02  0.1200E+02
    -22.694  0.0000E+00  0.0000E+00  0.1200E+02  0.1200E+02
    -22.390  0.0000E+00  0.0000E+00  0.1200E+02  0.1200E+02
    -22.086  0.0000E+00  0.0000E+00  0.1200E+02  0.1200E+02
    -21.781  0.0000E+00  0.0000E+00  0.1200E+02  0.1200E+02
    -21.477  0.0000E+00  0.0000E+00  0.1200E+02  0.1200E+02
    -21.172  0.0000E+00  0.0000E+00  0.1200E+02  0.1200E+02
    -20.868  0.0000E+00  0.0000E+00  0.1200E+02  0.1200E+02
    -20.564  0.0000E+00  0.0000E+00  0.1200E+02  0.1200E+02
    -20.259  0.0000E+00  0.0000E+00  0.1200E+02  0.1200E+02
    -19.955  0.0000E+00  0.0000E+00  0.1200E+02  0.1200E+02
    -19.650  0.0000E+00  0.0000E+00  0.1200E+02  0.1200E+02
    -19.346  0.0000E+00  0.0000E+00  0.1200E+02  0.1200E+02
    -19.041  0.0000E+00  0.0000E+00  0.1200E+02  0.1200E+02
    -18.737  0.0000E+00  0.0000E+00  0.1200E+02  0.1200E+02
    -18.433  0.0000E+00  0.0000E+00  0.1200E+02  0.1200E+02
    -18.128  0.0000E+00  0.0000E+00  0.1200E+02  0.1200E+02
    -17.824  0.0000E+00  0.0000E+00  0.1200E+02  0.1200E+02
    -17.519  0.0000E+00  0.0000E+00  0.1200E+02  0.1200E+02
    -17.215  0.0000E+00  0.0000E+00  0.1200E+02  0.1200E+02
    -16.911  0.0000E+00  0.0000E+00  0.1200E+02  0.1200E+02
    -16.606  0.0000E+00  0.0000E+00  0.1200E+02  0.1200E+02
    -16.302  0.0000E+00  0.0000E+00  0.1200E+02  0.1200E+02
    -15.997  0.0000E+00  0.0000E+00  0.1200E+02  0.1200E+02
    -15.693  0.0000E+00  0.0000E+00  0.1200E+02  0.1200E+02
    -15.389  0.0000E+00  0.0000E+00  0.1200E+02  0.1200E+02
    -15.084  0.0000E+00  0.0000E+00  0.1200E+02  0.1200E+02
    -14.780  0.0000E+00  0.0000E+00  0.1200E+02  0.1200E+02
    -14.475  0.0000E+00  0.0000E+00  0.1200E+02  0.1200E+02
    -14.171  0.0000E+00  0.0000E+00  0.1200E+02  0.1200E+02
    -13.867  0.0000E+00  0.0000E+00  0.1200E+02  0.1200E+02
    -13.562  0.0000E+00  0.0000E+00  0.1200E+02  0.1200E+02
    -13.258  0.0000E+00  0.0000E+00  0.1200E+02  0.1200E+02
    -12.953  0.1956E-08  0.1956E-08  0.1200E+02  0.1200E+02
    -12.649  0.1174E+00  0.1174E+00  0.1204E+02  0.1204E+02
    -12.345  0.5045E+00  0.5045E+00  0.1219E+02  0.1219E+02
    -12.040  0.9568E+00  0.9568E+00  0.1248E+02  0.1248E+02
    -11.736  0.1464E+01  0.1464E+01  0.1293E+02  0.1293E+02
    -11.431  0.3544E+01  0.3544E+01  0.1400E+02  0.1400E+02
    -11.127  0.6237E+01  0.6237E+01  0.1590E+02  0.1590E+02
    -10.823  0.3147E+00  0.3147E+00  0.1600E+02  0.1600E+02
    -10.518  0.0000E+00  0.0000E+00  0.1600E+02  0.1600E+02
    -10.214  0.0000E+00  0.0000E+00  0.1600E+02  0.1600E+02
     -9.909  0.0000E+00  0.0000E+00  0.1600E+02  0.1600E+02
     -9.605  0.0000E+00  0.0000E+00  0.1600E+02  0.1600E+02
     -9.301  0.0000E+00  0.0000E+00  0.1600E+02  0.1600E+02
     -8.996  0.0000E+00  0.0000E+00  0.1600E+02  0.1600E+02
     -8.692  0.0000E+00  0.0000E+00  0.1600E+02  0.1600E+02
     -8.387  0.0000E+00  0.0000E+00  0.1600E+02  0.1600E+02
     -8.083  0.0000E+00  0.0000E+00  0.1600E+02  0.1600E+02
     -7.779  0.0000E+00  0.0000E+00  0.1600E+02  0.1600E+02
     -7.474  0.0000E+00  0.0000E+00  0.1600E+02  0.1600E+02
     -7.170  0.0000E+00  0.0000E+00  0.1600E+02  0.1600E+02
     -6.865  0.0000E+00  0.0000E+00  0.1600E+02  0.1600E+02
     -6.561  0.0000E+00  0.0000E+00  0.1600E+02  0.1600E+02
     -6.257  0.0000E+00  0.0000E+00  0.1600E+02  0.1600E+02
     -5.952  0.0000E+00  0.0000E+00  0.1600E+02  0.1600E+02
     -5.648  0.0000E+00  0.0000E+00  0.1600E+02  0.1600E+02
     -5.343  0.0000E+00  0.0000E+00  0.1600E+02  0.1600E+02
     -5.039  0.0000E+00  0.0000E+00  0.1600E+02  0.1600E+02
     -4.734  0.0000E+00  0.0000E+00  0.1600E+02  0.1600E+02
     -4.430  0.0000E+00  0.0000E+00  0.1600E+02  0.1600E+02
     -4.126  0.0000E+00  0.0000E+00  0.1600E+02  0.1600E+02
     -3.821  0.0000E+00  0.0000E+00  0.1600E+02  0.1600E+02
     -3.517  0.0000E+00  0.0000E+00  0.1600E+02  0.1600E+02
     -3.212  0.0000E+00  0.0000E+00  0.1600E+02  0.1600E+02
     -2.908  0.0000E+00  0.0000E+00  0.1600E+02  0.1600E+02
     -2.604  0.0000E+00  0.0000E+00  0.1600E+02  0.1600E+02
     -2.299  0.0000E+00  0.0000E+00  0.1600E+02  0.1600E+02
     -1.995  0.0000E+00  0.0000E+00  0.1600E+02  0.1600E+02
     -1.690  0.0000E+00  0.0000E+00  0.1600E+02  0.1600E+02
     -1.386  0.8538E-02  0.8538E-02  0.1600E+02  0.1600E+02
     -1.082  0.6095E+00  0.6095E+00  0.1619E+02  0.1619E+02
     -0.777  0.3879E+01  0.3879E+01  0.1737E+02  0.1737E+02
     -0.473  0.5270E+01  0.5270E+01  0.1897E+02  0.1897E+02
     -0.168  0.3636E+01  0.3636E+01  0.2008E+02  0.2008E+02
      0.136  0.3479E+01  0.3479E+01  0.2114E+02  0.2114E+02
      0.440  0.4003E+01  0.4003E+01  0.2236E+02  0.2236E+02
      0.745  0.3500E+01  0.3500E+01  0.2342E+02  0.2342E+02
      1.049  0.4210E+01  0.4210E+01  0.2471E+02  0.2471E+02
      1.354  0.3290E+01  0.3290E+01  0.2571E+02  0.2571E+02
      1.658  0.3985E+01  0.3985E+01  0.2692E+02  0.2692E+02
      1.962  0.5119E+01  0.5119E+01  0.2848E+02  0.2848E+02
      2.267  0.5018E+01  0.5018E+01  0.3001E+02  0.3001E+02
      2.571  0.2158E+01  0.2158E+01  0.3066E+02  0.3066E+02
      2.876  0.5209E+01  0.5209E+01  0.3225E+02  0.3225E+02
      3.180  0.5847E+01  0.5847E+01  0.3403E+02  0.3403E+02
      3.484  0.5628E+01  0.5628E+01  0.3574E+02  0.3574E+02
      3.789  0.6882E+01  0.6882E+01  0.3784E+02  0.3784E+02
      4.093  0.6505E+01  0.6505E+01  0.3982E+02  0.3982E+02
      4.398  0.2412E+01  0.2412E+01  0.4055E+02  0.4055E+02
      4.702  0.2767E+01  0.2767E+01  0.4140E+02  0.4140E+02
      5.006  0.2759E+01  0.2759E+01  0.4224E+02  0.4224E+02
      5.311  0.2050E+01  0.2050E+01  0.4286E+02  0.4286E+02
      5.615  0.1281E+01  0.1281E+01  0.4325E+02  0.4325E+02
      5.920  0.1370E+01  0.1370E+01  0.4367E+02  0.4367E+02
      6.224  0.1069E+01  0.1069E+01  0.4399E+02  0.4399E+02
      6.528  0.2568E-01  0.2568E-01  0.4400E+02  0.4400E+02
      6.833  0.0000E+00  0.0000E+00  0.4400E+02  0.4400E+02
      7.137  0.0000E+00  0.0000E+00  0.4400E+02  0.4400E+02
      7.442  0.0000E+00  0.0000E+00  0.4400E+02  0.4400E+02
      7.746  0.0000E+00  0.0000E+00  0.4400E+02  0.4400E+02
      8.050  0.0000E+00  0.0000E+00  0.4400E+02  0.4400E+02
      8.355  0.0000E+00  0.0000E+00  0.4400E+02  0.4400E+02
      8.659  0.2279E-03  0.2279E-03  0.4400E+02  0.4400E+02
      8.964  0.5900E+00  0.5900E+00  0.4418E+02  0.4418E+02
      9.268  0.2787E+01  0.2787E+01  0.4503E+02  0.4503E+02
      9.573  0.2539E+01  0.2539E+01  0.4580E+02  0.4580E+02
      9.877  0.2583E+01  0.2583E+01  0.4659E+02  0.4659E+02
     10.181  0.1702E+01  0.1702E+01  0.4711E+02  0.4711E+02
     10.486  0.2053E+01  0.2053E+01  0.4773E+02  0.4773E+02
     10.790  0.1222E+01  0.1222E+01  0.4810E+02  0.4810E+02
     11.095  0.7666E-01  0.7666E-01  0.4813E+02  0.4813E+02
     11.399  0.2549E+00  0.2549E+00  0.4820E+02  0.4820E+02
     11.703  0.3574E+00  0.3574E+00  0.4831E+02  0.4831E+02
     12.008  0.8624E-01  0.8624E-01  0.4834E+02  0.4834E+02
     12.312  0.2977E+00  0.2977E+00  0.4843E+02  0.4843E+02
     12.617  0.4691E+00  0.4691E+00  0.4857E+02  0.4857E+02
     12.921  0.8662E+00  0.8662E+00  0.4884E+02  0.4884E+02
     13.225  0.4158E+00  0.4158E+00  0.4896E+02  0.4896E+02
     13.530  0.8112E+00  0.8112E+00  0.4921E+02  0.4921E+02
     13.834  0.1466E+01  0.1466E+01  0.4966E+02  0.4966E+02
     14.139  0.1328E+01  0.1328E+01  0.5006E+02  0.5006E+02
     14.443  0.1163E+01  0.1163E+01  0.5041E+02  0.5041E+02
     14.747  0.1080E+01  0.1080E+01  0.5074E+02  0.5074E+02
     15.052  0.1051E+01  0.1051E+01  0.5106E+02  0.5106E+02
     15.356  0.1374E+01  0.1374E+01  0.5148E+02  0.5148E+02
     15.661  0.3345E+00  0.3345E+00  0.5158E+02  0.5158E+02
     15.965  0.1073E+01  0.1073E+01  0.5191E+02  0.5191E+02
     16.269  0.2980E+00  0.2980E+00  0.5200E+02  0.5200E+02
     16.574  0.8128E+00  0.8128E+00  0.5225E+02  0.5225E+02
     16.878  0.1120E+01  0.1120E+01  0.5259E+02  0.5259E+02
     17.183  0.2319E+01  0.2319E+01  0.5330E+02  0.5330E+02
     17.487  0.1652E+01  0.1652E+01  0.5380E+02  0.5380E+02
     17.791  0.2431E+01  0.2431E+01  0.5454E+02  0.5454E+02
     18.096  0.4227E+01  0.4227E+01  0.5582E+02  0.5582E+02
     18.400  0.2754E+01  0.2754E+01  0.5666E+02  0.5666E+02
     18.705  0.1861E+01  0.1861E+01  0.5723E+02  0.5723E+02
     19.009  0.1524E+01  0.1524E+01  0.5769E+02  0.5769E+02
     19.313  0.8300E+00  0.8300E+00  0.5795E+02  0.5795E+02
     19.618  0.1368E+01  0.1368E+01  0.5836E+02  0.5836E+02
     19.922  0.6210E+00  0.6210E+00  0.5855E+02  0.5855E+02
     20.227  0.1061E+01  0.1061E+01  0.5888E+02  0.5888E+02
     20.531  0.3592E+00  0.3592E+00  0.5898E+02  0.5898E+02
     20.835  0.2665E+00  0.2665E+00  0.5907E+02  0.5907E+02
     21.140  0.1299E+01  0.1299E+01  0.5946E+02  0.5946E+02
     21.444  0.8537E+00  0.8537E+00  0.5972E+02  0.5972E+02
     21.749  0.1248E+01  0.1248E+01  0.6010E+02  0.6010E+02
     22.053  0.2164E+01  0.2164E+01  0.6076E+02  0.6076E+02
     22.357  0.2050E+01  0.2050E+01  0.6138E+02  0.6138E+02
     22.662  0.2397E+01  0.2397E+01  0.6211E+02  0.6211E+02
     22.966  0.1082E+01  0.1082E+01  0.6244E+02  0.6244E+02
     23.271  0.2007E+01  0.2007E+01  0.6305E+02  0.6305E+02
     23.575  0.1389E+01  0.1389E+01  0.6348E+02  0.6348E+02
     23.880  0.6341E+00  0.6341E+00  0.6367E+02  0.6367E+02
     24.184  0.4701E+00  0.4701E+00  0.6381E+02  0.6381E+02
     24.488  0.4856E+00  0.4853E+00  0.6396E+02  0.6396E+02
     24.793  0.1303E+00  0.1306E+00  0.6400E+02  0.6400E+02
     25.097  0.0000E+00  0.0000E+00  0.6400E+02  0.6400E+02
     25.402  0.0000E+00  0.0000E+00  0.6400E+02  0.6400E+02
     25.706  0.0000E+00  0.0000E+00  0.6400E+02  0.6400E+02
     26.010  0.0000E+00  0.0000E+00  0.6400E+02  0.6400E+02
     26.315  0.0000E+00  0.0000E+00  0.6400E+02  0.6400E+02
     26.619  0.0000E+00  0.0000E+00  0.6400E+02  0.6400E+02
     26.924  0.0000E+00  0.0000E+00  0.6400E+02  0.6400E+02
     27.228  0.0000E+00  0.0000E+00  0.6400E+02  0.6400E+02
     27.532  0.0000E+00  0.0000E+00  0.6400E+02  0.6400E+02
     27.837  0.0000E+00  0.0000E+00  0.6400E+02  0.6400E+02
     28.141  0.0000E+00  0.0000E+00  0.6400E+02  0.6400E+02
     28.446  0.0000E+00  0.0000E+00  0.6400E+02  0.6400E+02
     28.750  0.0000E+00  0.0000E+00  0.6400E+02  0.6400E+02
     28.74998862    -62.57129438  301      6.60457749      1.00000000
    -62.571  0.0000E+00  0.0000E+00  0.0000E+00  0.0000E+00  0.0000E+00  0.0000E+00  0.0000E+00  0.0000E+00  0.0000E+00  0.0000E+00  0.0000E+00  0.0000E+00  0.0000E+00  0.0000E+00  0.0000E+00  0.0000E+00  0.0000E+00  0.0000E+00
    -62.267  0.0000E+00  0.0000E+00  0.0000E+00  0.0000E+00  0.0000E+00  0.0000E+00  0.0000E+00  0.0000E+00  0.0000E+00  0.0000E+00  0.0000E+00  0.0000E+00  0.0000E+00  0.0000E+00  0.0000E+00  0.0000E+00  0.0000E+00  0.0000E+00
    -61.962  0.0000E+00  0.0000E+00  0.0000E+00  0.0000E+00  0.0000E+00  0.0000E+00  0.0000E+00  0.0000E+00  0.0000E+00  0.0000E+00  0.0000E+00  0.0000E+00  0.0000E+00  0.0000E+00  0.0000E+00  0.0000E+00  0.0000E+00  0.0000E+00
    -61.658  0.0000E+00  0.0000E+00  0.0000E+00  0.0000E+00  0.0000E+00  0.0000E+00  0.0000E+00  0.0000E+00  0.0000E+00  0.0000E+00  0.0000E+00  0.0000E+00  0.0000E+00  0.0000E+00  0.0000E+00  0.0000E+00  0.0000E+00  0.0000E+00
    -61.354  0.0000E+00  0.0000E+00  0.0000E+00  0.0000E+00  0.0000E+00  0.0000E+00  0.0000E+00  0.0000E+00  0.0000E+00  0.0000E+00  0.0000E+00  0.0000E+00  0.0000E+00  0.0000E+00  0.0000E+00  0.0000E+00  0.0000E+00  0.0000E+00
    -61.049  0.0000E+00  0.0000E+00  0.0000E+00  0.0000E+00  0.0000E+00  0.0000E+00  0.0000E+00  0.0000E+00  0.0000E+00  0.0000E+00  0.0000E+00  0.0000E+00  0.0000E+00  0.0000E+00  0.0000E+00  0.0000E+00  0.0000E+00  0.0000E+00
    -60.745  0.0000E+00  0.0000E+00  0.0000E+00  0.0000E+00  0.0000E+00  0.0000E+00  0.0000E+00  0.0000E+00  0.0000E+00  0.0000E+00  0.0000E+00  0.0000E+00  0.0000E+00  0.0000E+00  0.0000E+00  0.0000E+00  0.0000E+00  0.0000E+00
    -60.440  0.0000E+00  0.0000E+00  0.0000E+00  0.0000E+00  0.0000E+00  0.0000E+00  0.0000E+00  0.0000E+00  0.0000E+00  0.0000E+00  0.0000E+00  0.0000E+00  0.0000E+00  0.0000E+00  0.0000E+00  0.0000E+00  0.0000E+00  0.0000E+00
    -60.136  0.0000E+00  0.0000E+00  0.0000E+00  0.0000E+00  0.0000E+00  0.0000E+00  0.0000E+00  0.0000E+00  0.0000E+00  0.0000E+00  0.0000E+00  0.0000E+00  0.0000E+00  0.0000E+00  0.0000E+00  0.0000E+00  0.0000E+00  0.0000E+00
    -59.832  0.0000E+00  0.0000E+00  0.0000E+00  0.0000E+00  0.0000E+00  0.0000E+00  0.0000E+00  0.0000E+00  0.0000E+00  0.0000E+00  0.0000E+00  0.0000E+00  0.0000E+00  0.0000E+00  0.0000E+00  0.0000E+00  0.0000E+00  0.0000E+00
    -59.527  0.0000E+00  0.0000E+00  0.0000E+00  0.0000E+00  0.0000E+00  0.0000E+00  0.0000E+00  0.0000E+00  0.0000E+00  0.0000E+00  0.0000E+00  0.0000E+00  0.0000E+00  0.0000E+00  0.0000E+00  0.0000E+00  0.0000E+00  0.0000E+00
    -59.223  0.0000E+00  0.0000E+00  0.0000E+00  0.0000E+00  0.0000E+00  0.0000E+00  0.0000E+00  0.0000E+00  0.0000E+00  0.0000E+00  0.0000E+00  0.0000E+00  0.0000E+00  0.0000E+00  0.0000E+00  0.0000E+00  0.0000E+00  0.0000E+00
    -58.918  0.0000E+00  0.0000E+00  0.0000E+00  0.0000E+00  0.0000E+00  0.0000E+00  0.0000E+00  0.0000E+00  0.0000E+00  0.0000E+00  0.0000E+00  0.0000E+00  0.0000E+00  0.0000E+00  0.0000E+00  0.0000E+00  0.0000E+00  0.0000E+00
    -58.614  0.3048E-14  0.8934E-14  0.2574E-07  0.4303E-12  0.2591E-07  0.1613E-12  0.2591E-07  0.1613E-12  0.1269E-15  0.6026E-14  0.1269E-15  0.6026E-14  0.1033E-14  0.1710E-14  0.5574E-14  0.2501E-15  0.1226E-14  0.1674E-14
    -58.310  0.4366E-06  0.8526E-06  0.3267E+01  0.3835E-04  0.3266E+01  0.1948E-04  0.3266E+01  0.1948E-04  0.1556E-07  0.7571E-06  0.1556E-07  0.7571E-06  0.1469E-06  0.2360E-06  0.7614E-06  0.2071E-07  0.1709E-06  0.2090E-06
    -58.005  0.1967E-10  0.1787E-11  0.1210E-07  0.4179E-10  0.9554E-03  0.4034E-09  0.9554E-03  0.4034E-09  0.2323E-11  0.4602E-10  0.2323E-11  0.4602E-10  0.1100E-10  0.7714E-10  0.2983E-10  0.2914E-12  0.1144E-10  0.6028E-10
    -57.701  0.0000E+00  0.0000E+00  0.0000E+00  0.0000E+00  0.0000E+00  0.0000E+00  0.0000E+00  0.0000E+00  0.0000E+00  0.0000E+00  0.0000E+00  0.0000E+00  0.0000E+00  0.0000E+00  0.0000E+00  0.0000E+00  0.0000E+00  0.0000E+00
    -57.396  0.0000E+00  0.0000E+00  0.0000E+00  0.0000E+00  0.0000E+00  0.0000E+00  0.0000E+00  0.0000E+00  0.0000E+00  0.0000E+00  0.0000E+00  0.0000E+00  0.0000E+00  0.0000E+00  0.0000E+00  0.0000E+00  0.0000E+00  0.0000E+00
    -57.092  0.0000E+00  0.0000E+00  0.0000E+00  0.0000E+00  0.0000E+00  0.0000E+00  0.0000E+00  0.0000E+00  0.0000E+00  0.0000E+00  0.0000E+00  0.0000E+00  0.0000E+00  0.0000E+00  0.0000E+00  0.0000E+00  0.0000E+00  0.0000E+00
    -56.788  0.0000E+00  0.0000E+00  0.0000E+00  0.0000E+00  0.0000E+00  0.0000E+00  0.0000E+00  0.0000E+00  0.0000E+00  0.0000E+00  0.0000E+00  0.0000E+00  0.0000E+00  0.0000E+00  0.0000E+00  0.0000E+00  0.0000E+00  0.0000E+00
    -56.483  0.7328E-16  0.2395E-16  0.3484E-14  0.1183E-09  0.1099E-14  0.1804E-09  0.1099E-14  0.1804E-09  0.4235E-16  0.6745E-18  0.4235E-16  0.6745E-18  0.1671E-16  0.5725E-17  0.2046E-17  0.4243E-16  0.1732E-16  0.6784E-17
    -56.179  0.1079E-05  0.5266E-06  0.4601E-04  0.3214E+01  0.2315E-04  0.3208E+01  0.2315E-04  0.3208E+01  0.9003E-06  0.1516E-07  0.9003E-06  0.1516E-07  0.3909E-06  0.1268E-06  0.2236E-07  0.8812E-06  0.3479E-06  0.1461E-06
    -55.874  0.1746E-07  0.1033E-07  0.7183E-06  0.5955E-01  0.4290E-06  0.6566E-01  0.4290E-06  0.6566E-01  0.1732E-07  0.2921E-09  0.1732E-07  0.2921E-09  0.8055E-08  0.2520E-08  0.3431E-09  0.1697E-07  0.6856E-08  0.2867E-08
    -55.570  0.0000E+00  0.0000E+00  0.0000E+00  0.0000E+00  0.0000E+00  0.0000E+00  0.0000E+00  0.0000E+00  0.0000E+00  0.0000E+00  0.0000E+00  0.0000E+00  0.0000E+00  0.0000E+00  0.0000E+00  0.0000E+00  0.0000E+00  0.0000E+00
    -55.266  0.0000E+00  0.0000E+00  0.0000E+00  0.0000E+00  0.0000E+00  0.0000E+00  0.0000E+00  0.0000E+00  0.0000E+00  0.0000E+00  0.0000E+00  0.0000E+00  0.0000E+00  0.0000E+00  0.0000E+00  0.0000E+00  0.0000E+00  0.0000E+00
    -54.961  0.0000E+00  0.0000E+00  0.0000E+00  0.0000E+00  0.0000E+00  0.0000E+00  0.0000E+00  0.0000E+00  0.0000E+00  0.0000E+00  0.0000E+00  0.0000E+00  0.0000E+00  0.0000E+00  0.0000E+00  0.0000E+00  0.0000E+00  0.0000E+00
    -54.657  0.0000E+00  0.0000E+00  0.0000E+00  0.0000E+00  0.0000E+00  0.0000E+00  0.0000E+00  0.0000E+00  0.0000E+00  0.0000E+00  0.0000E+00  0.0000E+00  0.0000E+00  0.0000E+00  0.0000E+00  0.0000E+00  0.0000E+00  0.0000E+00
    -54.352  0.0000E+00  0.0000E+00  0.0000E+00  0.0000E+00  0.0000E+00  0.0000E+00  0.0000E+00  0.0000E+00  0.0000E+00  0.0000E+00  0.0000E+00  0.0000E+00  0.0000E+00  0.0000E+00  0.0000E+00  0.0000E+00  0.0000E+00  0.0000E+00
    -54.048  0.0000E+00  0.0000E+00  0.0000E+00  0.0000E+00  0.0000E+00  0.0000E+00  0.0000E+00  0.0000E+00  0.0000E+00  0.0000E+00  0.0000E+00  0.0000E+00  0.0000E+00  0.0000E+00  0.0000E+00  0.0000E+00  0.0000E+00  0.0000E+00
    -53.744  0.0000E+00  0.0000E+00  0.0000E+00  0.0000E+00  0.0000E+00  0.0000E+00  0.0000E+00  0.0000E+00  0.0000E+00  0.0000E+00  0.0000E+00  0.0000E+00  0.0000E+00  0.0000E+00  0.0000E+00  0.0000E+00  0.0000E+00  0.0000E+00
    -53.439  0.0000E+00  0.0000E+00  0.0000E+00  0.0000E+00  0.0000E+00  0.0000E+00  0.0000E+00  0.0000E+00  0.0000E+00  0.0000E+00  0.0000E+00  0.0000E+00  0.0000E+00  0.0000E+00  0.0000E+00  0.0000E+00  0.0000E+00  0.0000E+00
    -53.135  0.0000E+00  0.0000E+00  0.0000E+00  0.0000E+00  0.0000E+00  0.0000E+00  0.0000E+00  0.0000E+00  0.0000E+00  0.0000E+00  0.0000E+00  0.0000E+00  0.0000E+00  0.0000E+00  0.0000E+00  0.0000E+00  0.0000E+00  0.0000E+00
    -52.830  0.0000E+00  0.0000E+00  0.0000E+00  0.0000E+00  0.0000E+00  0.0000E+00  0.0000E+00  0.0000E+00  0.0000E+00  0.0000E+00  0.0000E+00  0.0000E+00  0.0000E+00  0.0000E+00  0.0000E+00  0.0000E+00  0.0000E+00  0.0000E+00
    -52.526  0.0000E+00  0.0000E+00  0.0000E+00  0.0000E+00  0.0000E+00  0.0000E+00  0.0000E+00  0.0000E+00  0.0000E+00  0.0000E+00  0.0000E+00  0.0000E+00  0.0000E+00  0.0000E+00  0.0000E+00  0.0000E+00  0.0000E+00  0.0000E+00
    -52.222  0.0000E+00  0.0000E+00  0.0000E+00  0.0000E+00  0.0000E+00  0.0000E+00  0.0000E+00  0.0000E+00  0.0000E+00  0.0000E+00  0.0000E+00  0.0000E+00  0.0000E+00  0.0000E+00  0.0000E+00  0.0000E+00  0.0000E+00  0.0000E+00
    -51.917  0.0000E+00  0.0000E+00  0.0000E+00  0.0000E+00  0.0000E+00  0.0000E+00  0.0000E+00  0.0000E+00  0.0000E+00  0.0000E+00  0.0000E+00  0.0000E+00  0.0000E+00  0.0000E+00  0.0000E+00  0.0000E+00  0.0000E+00  0.0000E+00
    -51.613  0.0000E+00  0.0000E+00  0.0000E+00  0.0000E+00  0.0000E+00  0.0000E+00  0.0000E+00  0.0000E+00  0.0000E+00  0.0000E+00  0.0000E+00  0.0000E+00  0.0000E+00  0.0000E+00  0.0000E+00  0.0000E+00  0.0000E+00  0.0000E+00
    -51.308  0.0000E+00  0.0000E+00  0.0000E+00  0.0000E+00  0.0000E+00  0.0000E+00  0.0000E+00  0.0000E+00  0.0000E+00  0.0000E+00  0.0000E+00  0.0000E+00  0.0000E+00  0.0000E+00  0.0000E+00  0.0000E+00  0.0000E+00  0.0000E+00
    -51.004  0.0000E+00  0.0000E+00  0.0000E+00  0.0000E+00  0.0000E+00  0.0000E+00  0.0000E+00  0.0000E+00  0.0000E+00  0.0000E+00  0.0000E+00  0.0000E+00  0.0000E+00  0.0000E+00  0.0000E+00  0.0000E+00  0.0000E+00  0.0000E+00
    -50.700  0.0000E+00  0.0000E+00  0.0000E+00  0.0000E+00  0.0000E+00  0.0000E+00  0.0000E+00  0.0000E+00  0.0000E+00  0.0000E+00  0.0000E+00  0.0000E+00  0.0000E+00  0.0000E+00  0.0000E+00  0.0000E+00  0.0000E+00  0.0000E+00
    -50.395  0.0000E+00  0.0000E+00  0.0000E+00  0.0000E+00  0.0000E+00  0.0000E+00  0.0000E+00  0.0000E+00  0.0000E+00  0.0000E+00  0.0000E+00  0.0000E+00  0.0000E+00  0.0000E+00  0.0000E+00  0.0000E+00  0.0000E+00  0.0000E+00
    -50.091  0.0000E+00  0.0000E+00  0.0000E+00  0.0000E+00  0.0000E+00  0.0000E+00  0.0000E+00  0.0000E+00  0.0000E+00  0.0000E+00  0.0000E+00  0.0000E+00  0.0000E+00  0.0000E+00  0.0000E+00  0.0000E+00  0.0000E+00  0.0000E+00
    -49.786  0.0000E+00  0.0000E+00  0.0000E+00  0.0000E+00  0.0000E+00  0.0000E+00  0.0000E+00  0.0000E+00  0.0000E+00  0.0000E+00  0.0000E+00  0.0000E+00  0.0000E+00  0.0000E+00  0.0000E+00  0.0000E+00  0.0000E+00  0.0000E+00
    -49.482  0.0000E+00  0.0000E+00  0.0000E+00  0.0000E+00  0.0000E+00  0.0000E+00  0.0000E+00  0.0000E+00  0.0000E+00  0.0000E+00  0.0000E+00  0.0000E+00  0.0000E+00  0.0000E+00  0.0000E+00  0.0000E+00  0.0000E+00  0.0000E+00
    -49.178  0.0000E+00  0.0000E+00  0.0000E+00  0.0000E+00  0.0000E+00  0.0000E+00  0.0000E+00  0.0000E+00  0.0000E+00  0.0000E+00  0.0000E+00  0.0000E+00  0.0000E+00  0.0000E+00  0.0000E+00  0.0000E+00  0.0000E+00  0.0000E+00
    -48.873  0.0000E+00  0.0000E+00  0.0000E+00  0.0000E+00  0.0000E+00  0.0000E+00  0.0000E+00  0.0000E+00  0.0000E+00  0.0000E+00  0.0000E+00  0.0000E+00  0.0000E+00  0.0000E+00  0.0000E+00  0.0000E+00  0.0000E+00  0.0000E+00
    -48.569  0.0000E+00  0.0000E+00  0.0000E+00  0.0000E+00  0.0000E+00  0.0000E+00  0.0000E+00  0.0000E+00  0.0000E+00  0.0000E+00  0.0000E+00  0.0000E+00  0.0000E+00  0.0000E+00  0.0000E+00  0.0000E+00  0.0000E+00  0.0000E+00
    -48.264  0.0000E+00  0.0000E+00  0.0000E+00  0.0000E+00  0.0000E+00  0.0000E+00  0.0000E+00  0.0000E+00  0.0000E+00  0.0000E+00  0.0000E+00  0.0000E+00  0.0000E+00  0.0000E+00  0.0000E+00  0.0000E+00  0.0000E+00  0.0000E+00
    -47.960  0.0000E+00  0.0000E+00  0.0000E+00  0.0000E+00  0.0000E+00  0.0000E+00  0.0000E+00  0.0000E+00  0.0000E+00  0.0000E+00  0.0000E+00  0.0000E+00  0.0000E+00  0.0000E+00  0.0000E+00  0.0000E+00  0.0000E+00  0.0000E+00
    -47.655  0.0000E+00  0.0000E+00  0.0000E+00  0.0000E+00  0.0000E+00  0.0000E+00  0.0000E+00  0.0000E+00  0.0000E+00  0.0000E+00  0.0000E+00  0.0000E+00  0.0000E+00  0.0000E+00  0.0000E+00  0.0000E+00  0.0000E+00  0.0000E+00
    -47.351  0.0000E+00  0.0000E+00  0.0000E+00  0.0000E+00  0.0000E+00  0.0000E+00  0.0000E+00  0.0000E+00  0.0000E+00  0.0000E+00  0.0000E+00  0.0000E+00  0.0000E+00  0.0000E+00  0.0000E+00  0.0000E+00  0.0000E+00  0.0000E+00