    8    8    1    2
  0.9103145E+01  0.4176000E-09  0.4176000E-09  0.4176000E-09  0.5000000E-15
  1.000000000000000E-004
  CAR 
 bulk_NiO                                
     88     40     64
 
  0.6250000E-01  0.6250000E-01  0.6250000E-01  0.1562500E-01
    1      -58.418837    -58.418837   1.000000   1.000000
    2      -58.418134    -58.418134   1.000000   1.000000
    3      -58.415428    -58.415428   1.000000   1.000000
    4      -58.412862    -58.412862   1.000000   1.000000
    5      -58.406379    -58.406379   1.000000   1.000000
    6      -58.405618    -58.405618   1.000000   1.000000
    7      -56.259791    -56.259791   1.000000   1.000000
    8      -56.258987    -56.258987   1.000000   1.000000
    9      -56.254109    -56.254109   1.000000   1.000000
   10      -56.251484    -56.251484   1.000000   1.000000
   11      -56.245754    -56.245754   1.000000   1.000000
   12      -56.244856    -56.244856   1.000000   1.000000
   13      -12.763333    -12.763333   1.000000   1.000000
   14      -11.457097    -11.457097   1.000000   1.000000
   15      -11.330601    -11.330601   1.000000   1.000000
   16      -11.205597    -11.205597   1.000000   1.000000
   17        0.323833      0.323833   1.000000   1.000000
   18        0.333242      0.333242   1.000000   1.000000
   19        0.366379      0.366379   1.000000   1.000000
   20        0.452630      0.452630   1.000000   1.000000
   21        0.819162      0.819162   1.000000   1.000000
   22        0.871950      0.871950   1.000000   1.000000
   23        0.922116      0.922116   1.000000   1.000000
   24        0.963515      0.963515   1.000000   1.000000
   25        0.999001      0.999001   1.000000   1.000000
   26        1.338093      1.338093   1.000000   1.000000
   27        1.535050      1.535050   1.000000   1.000000
   28        1.539262      1.539262   1.000000   1.000000
   29        2.085602      2.085602   1.000000   1.000000
   30        2.150295      2.150295   1.000000   1.000000
   31        2.782156      2.782156   1.000000   1.000000
   32        2.906724      2.906724   1.000000   1.000000
   33        2.978611      2.978611   1.000000   1.000000
   34        2.981630      2.981630   1.000000   1.000000
   35        3.204846      3.204846   1.000000   1.000000
   36        3.335475      3.335475   1.000000   1.000000
   37        3.344113      3.344113   1.000000   1.000000
   38        3.373612      3.373612   1.000000   1.000000
   39        3.432542      3.432542   1.000000   1.000000
   40        3.456306      3.456306   1.000000   1.000000
   41        3.575244      3.575244   1.000000   1.000000
   42        4.446973      4.446973   1.000000   1.000000
   43        4.692645      4.692645   1.000000   1.000000
   44        4.702632      4.702632   1.000000   1.000000
   45        8.770458      8.770458   0.000000   0.000000
   46        9.003586      9.003586   0.000000   0.000000
   47        9.100535      9.100535   0.000000   0.000000
   48        9.143948      9.143948   0.000000   0.000000
   49        9.309187      9.309187   0.000000   0.000000
   50       13.226380     13.226380   0.000000   0.000000
   51       13.478092     13.478092   0.000000   0.000000
   52       13.719543     13.719543   0.000000   0.000000
   53       17.979082     17.979082   0.000000   0.000000
   54       17.982685     17.982685   0.000000   0.000000
   55       17.984377     17.984377   0.000000   0.000000
   56       18.253241     18.253241   0.000000   0.000000
   57       18.256414     18.256414   0.000000   0.000000
   58       18.258511     18.258511   0.000000   0.000000
   59       23.250285     23.250285   0.000000   0.000000
   60       23.737298     23.737298   0.000000   0.000000
   61       23.836857     23.836857   0.000000   0.000000
   62       23.887171     23.887171   0.000000   0.000000
   63       23.930717     23.930717   0.000000   0.000000
   64       23.958518     23.958518   0.000000   0.000000
 
  0.1875000E+00  0.6250000E-01  0.6250000E-01  0.3125000E-01
    1      -58.418332    -58.418332   1.000000   1.000000
    2      -58.416509    -58.416509   1.000000   1.000000
    3      -58.415088    -58.415088   1.000000   1.000000
    4      -58.413005    -58.413005   1.000000   1.000000
    5      -58.407828    -58.407828   1.000000   1.000000
    6      -58.406055    -58.406055   1.000000   1.000000
    7      -56.259253    -56.259253   1.000000   1.000000
    8      -56.257181    -56.257181   1.000000   1.000000
    9      -56.253776    -56.253776   1.000000   1.000000
   10      -56.251639    -56.251639   1.000000   1.000000
   11      -56.247391    -56.247391   1.000000   1.000000
   12      -56.245359    -56.245359   1.000000   1.000000
   13      -12.642228    -12.642228   1.000000   1.000000
   14      -11.483673    -11.483673   1.000000   1.000000
   15      -11.295995    -11.295995   1.000000   1.000000
   16      -11.232121    -11.232121   1.000000   1.000000
   17       -0.184919     -0.184919   1.000000   1.000000
   18        0.129496      0.129496   1.000000   1.000000
   19        0.318813      0.318813   1.000000   1.000000
   20        0.327843      0.327843   1.000000   1.000000
   21        0.679915      0.679915   1.000000   1.000000
   22        0.780362      0.780362   1.000000   1.000000
   23        0.951820      0.951820   1.000000   1.000000
   24        0.955829      0.955829   1.000000   1.000000
   25        0.998438      0.998438   1.000000   1.000000
   26        1.484674      1.484674   1.000000   1.000000
   27        1.487520      1.487520   1.000000   1.000000
   28        1.592282      1.592282   1.000000   1.000000
   29        2.038258      2.038258   1.000000   1.000000
   30        2.076928      2.076928   1.000000   1.000000
   31        2.491268      2.491268   1.000000   1.000000
   32        2.894498      2.894498   1.000000   1.000000
   33        2.984945      2.984945   1.000000   1.000000
   34        3.078240      3.078240   1.000000   1.000000
   35        3.183307      3.183307   1.000000   1.000000
   36        3.295911      3.295911   1.000000   1.000000
   37        3.372973      3.372973   1.000000   1.000000
   38        3.461870      3.461870   1.000000   1.000000
   39        3.506068      3.506068   1.000000   1.000000
   40        3.804026      3.804026   1.000000   1.000000
   41        3.878154      3.878154   1.000000   1.000000
   42        4.080647      4.080647   1.000000   1.000000
   43        4.721435      4.721435   1.000000   1.000000
   44        4.746622      4.746622   1.000000   1.000000
   45        8.914580      8.914580   0.000000   0.000000
   46        9.102582      9.102582   0.000000   0.000000
   47        9.114838      9.114838   0.000000   0.000000
   48        9.438390      9.438390   0.000000   0.000000
   49        9.959101      9.959101   0.000000   0.000000
   50       13.548006     13.548006   0.000000   0.000000
   51       13.971493     13.971493   0.000000   0.000000
   52       14.111997     14.111997   0.000000   0.000000
   53       17.888179     17.888179   0.000000   0.000000
   54       17.889193     17.889193   0.000000   0.000000
   55       17.940386     17.940386   0.000000   0.000000
   56       18.069464     18.069464   0.000000   0.000000
   57       18.072544     18.072544   0.000000   0.000000
   58       18.427109     18.427109   0.000000   0.000000
   59       22.019832     22.019832   0.000000   0.000000
   60       23.116330     23.116330   0.000000   0.000000
   61       23.138282     23.138282   0.000000   0.000000
   62       23.701736     23.701736   0.000000   0.000000
   63       23.880491     23.880491   0.000000   0.000000
   64       24.352221     24.352209   0.000000   0.000000
 
  0.6250000E-01  0.1875000E+00  0.6250000E-01  0.1562500E-01
    1      -58.418666    -58.418666   1.000000   1.000000
    2      -58.418133    -58.418133   1.000000   1.000000
    3      -58.415251    -58.415251   1.000000   1.000000
    4      -58.412969    -58.412969   1.000000   1.000000
    5      -58.406161    -58.406161   1.000000   1.000000
    6      -58.405613    -58.405613   1.000000   1.000000
    7      -56.259648    -56.259648   1.000000   1.000000
    8      -56.259031    -56.259031   1.000000   1.000000
    9      -56.254013    -56.254013   1.000000   1.000000
   10      -56.251571    -56.251571   1.000000   1.000000
   11      -56.245527    -56.245527   1.000000   1.000000
   12      -56.244832    -56.244832   1.000000   1.000000
   13      -12.643545    -12.643545   1.000000   1.000000
   14      -11.432945    -11.432945   1.000000   1.000000
   15      -11.416223    -11.416223   1.000000   1.000000
   16      -11.159607    -11.159607   1.000000   1.000000
   17       -0.222994     -0.222994   1.000000   1.000000
   18        0.217128      0.217128   1.000000   1.000000
   19        0.305261      0.305261   1.000000   1.000000
   20        0.450383      0.450383   1.000000   1.000000
   21        0.502053      0.502053   1.000000   1.000000
   22        0.784914      0.784914   1.000000   1.000000
   23        0.846648      0.846648   1.000000   1.000000
   24        0.871334      0.871334   1.000000   1.000000
   25        1.236274      1.236274   1.000000   1.000000
   26        1.411397      1.411397   1.000000   1.000000
   27        1.491349      1.491349   1.000000   1.000000
   28        1.597670      1.597670   1.000000   1.000000
   29        2.093970      2.093970   1.000000   1.000000
   30        2.140476      2.140476   1.000000   1.000000
   31        2.691206      2.691206   1.000000   1.000000
   32        2.708768      2.708768   1.000000   1.000000
   33        2.867828      2.867828   1.000000   1.000000
   34        2.874311      2.874311   1.000000   1.000000
   35        3.014668      3.014668   1.000000   1.000000
   36        3.352638      3.352638   1.000000   1.000000
   37        3.458822      3.458822   1.000000   1.000000
   38        3.622839      3.622839   1.000000   1.000000
   39        3.736043      3.736043   1.000000   1.000000
   40        3.779906      3.779906   1.000000   1.000000
   41        3.786592      3.786592   1.000000   1.000000
   42        4.069069      4.069069   1.000000   1.000000
   43        4.714200      4.714200   1.000000   1.000000
   44        4.744351      4.744351   1.000000   1.000000
   45        8.768873      8.768873   0.000000   0.000000
   46        9.119795      9.119795   0.000000   0.000000
   47        9.310064      9.310064   0.000000   0.000000
   48        9.370774      9.370774   0.000000   0.000000
   49        9.948364      9.948364   0.000000   0.000000
   50       13.701759     13.701759   0.000000   0.000000
   51       13.728103     13.728103   0.000000   0.000000
   52       14.202756     14.202756   0.000000   0.000000
   53       17.875201     17.875201   0.000000   0.000000
   54       17.901453     17.901453   0.000000   0.000000
   55       17.938935     17.938935   0.000000   0.000000
   56       18.059151     18.059151   0.000000   0.000000
   57       18.087991     18.087991   0.000000   0.000000
   58       18.421700     18.421700   0.000000   0.000000
   59       22.023441     22.023441   0.000000   0.000000
   60       22.979462     22.979462   0.000000   0.000000
   61       23.290796     23.290796   0.000000   0.000000
   62       23.697175     23.697175   0.000000   0.000000
   63       23.879823     23.879823   0.000000   0.000000
   64       24.360959     24.360916   0.000000   0.000000
 
  0.3125000E+00  0.6250000E-01  0.6250000E-01  0.3125000E-01
    1      -58.417020    -58.417020   1.000000   1.000000
    2      -58.414747    -58.414747   1.000000   1.000000
    3      -58.414514    -58.414514   1.000000   1.000000
    4      -58.413404    -58.413404   1.000000   1.000000
    5      -58.410078    -58.410078   1.000000   1.000000
    6      -58.407388    -58.407388   1.000000   1.000000
    7      -56.257768    -56.257768   1.000000   1.000000
    8      -56.254881    -56.254881   1.000000   1.000000
    9      -56.253426    -56.253426   1.000000   1.000000
   10      -56.252080    -56.252080   1.000000   1.000000
   11      -56.249922    -56.249922   1.000000   1.000000
   12      -56.246836    -56.246836   1.000000   1.000000
   13      -12.420826    -12.420826   1.000000   1.000000
   14      -11.614023    -11.614023   1.000000   1.000000
   15      -11.246001    -11.246001   1.000000   1.000000
   16      -11.227433    -11.227433   1.000000   1.000000
   17       -0.621755     -0.621755   1.000000   1.000000
   18       -0.338239     -0.338239   1.000000   1.000000
   19        0.308297      0.308297   1.000000   1.000000
   20        0.312852      0.312852   1.000000   1.000000
   21        0.531867      0.531867   1.000000   1.000000
   22        0.598177      0.598177   1.000000   1.000000
   23        0.932906      0.932906   1.000000   1.000000
   24        0.951909      0.951909   1.000000   1.000000
   25        1.071471      1.071471   1.000000   1.000000
   26        1.391693      1.391693   1.000000   1.000000
   27        1.523466      1.523466   1.000000   1.000000
   28        1.656763      1.656763   1.000000   1.000000
   29        1.901161      1.901161   1.000000   1.000000
   30        2.029301      2.029301   1.000000   1.000000
   31        2.232229      2.232229   1.000000   1.000000
   32        2.800968      2.800968   1.000000   1.000000
   33        2.908033      2.908033   1.000000   1.000000
   34        2.982962      2.982962   1.000000   1.000000
   35        3.241162      3.241162   1.000000   1.000000
   36        3.244740      3.244740   1.000000   1.000000
   37        3.460840      3.460840   1.000000   1.000000
   38        3.464051      3.464051   1.000000   1.000000
   39        3.728865      3.728865   1.000000   1.000000
   40        4.006913      4.006913   1.000000   1.000000
   41        4.185102      4.185102   1.000000   1.000000
   42        4.219846      4.219846   1.000000   1.000000
   43        4.725703      4.725703   1.000000   1.000000
   44        4.784229      4.784229   1.000000   1.000000
   45        8.979134      8.979134   0.000000   0.000000
   46        9.099436      9.099436   0.000000   0.000000
   47        9.301215      9.301215   0.000000   0.000000
   48        9.566976      9.566976   0.000000   0.000000
   49       11.187247     11.187247   0.000000   0.000000
   50       13.768741     13.768741   0.000000   0.000000
   51       14.852294     14.852294   0.000000   0.000000
   52       14.905561     14.905561   0.000000   0.000000
   53       17.688355     17.688355   0.000000   0.000000
   54       17.690267     17.690267   0.000000   0.000000
   55       17.900899     17.900899   0.000000   0.000000
   56       17.901533     17.901533   0.000000   0.000000
   57       18.212597     18.212597   0.000000   0.000000
   58       18.768659     18.768659   0.000000   0.000000
   59       20.882919     20.882919   0.000000   0.000000
   60       21.945232     21.945232   0.000000   0.000000
   61       21.984761     21.984761   0.000000   0.000000
   62       23.330054     23.330054   0.000000   0.000000
   63       23.525409     23.525409   0.000000   0.000000
   64       23.793830     23.793916   0.000000   0.000000
 
  0.6250000E-01  0.3125000E+00  0.6250000E-01  0.1562500E-01
    1      -58.418762    -58.418762   1.000000   1.000000
    2      -58.418127    -58.418127   1.000000   1.000000
    3      -58.415267    -58.415267   1.000000   1.000000
    4      -58.413133    -58.413133   1.000000   1.000000
    5      -58.406190    -58.406190   1.000000   1.000000
    6      -58.405617    -58.405617   1.000000   1.000000
    7      -56.259792    -56.259792   1.000000   1.000000
    8      -56.259047    -56.259047   1.000000   1.000000
    9      -56.254122    -56.254122   1.000000   1.000000
   10      -56.251623    -56.251623   1.000000   1.000000
   11      -56.245544    -56.245544   1.000000   1.000000
   12      -56.244840    -56.244840   1.000000   1.000000
   13      -12.425810    -12.425810   1.000000   1.000000
   14      -11.586810    -11.586810   1.000000   1.000000
   15      -11.398479    -11.398479   1.000000   1.000000
   16      -11.093019    -11.093019   1.000000   1.000000
   17       -0.658715     -0.658715   1.000000   1.000000
   18       -0.242687     -0.242687   1.000000   1.000000
   19        0.272162      0.272162   1.000000   1.000000
   20        0.401900      0.401900   1.000000   1.000000
   21        0.446730      0.446730   1.000000   1.000000
   22        0.629348      0.629348   1.000000   1.000000
   23        0.734186      0.734186   1.000000   1.000000
   24        0.881139      0.881139   1.000000   1.000000
   25        1.160335      1.160335   1.000000   1.000000
   26        1.425912      1.425912   1.000000   1.000000
   27        1.461490      1.461490   1.000000   1.000000
   28        1.731164      1.731164   1.000000   1.000000
   29        2.100445      2.100445   1.000000   1.000000
   30        2.120867      2.120867   1.000000   1.000000
   31        2.405633      2.405633   1.000000   1.000000
   32        2.504007      2.504007   1.000000   1.000000
   33        2.639283      2.639283   1.000000   1.000000
   34        2.888008      2.888008   1.000000   1.000000
   35        2.982727      2.982727   1.000000   1.000000
   36        3.447964      3.447964   1.000000   1.000000
   37        3.592694      3.592694   1.000000   1.000000
   38        3.697318      3.697318   1.000000   1.000000
   39        3.780885      3.780885   1.000000   1.000000
   40        4.106435      4.106435   1.000000   1.000000
   41        4.131137      4.131137   1.000000   1.000000
   42        4.134460      4.134460   1.000000   1.000000
   43        4.718120      4.718120   1.000000   1.000000
   44        4.756327      4.756327   1.000000   1.000000
   45        8.766566      8.766566   0.000000   0.000000
   46        9.219655      9.219655   0.000000   0.000000
   47        9.309651      9.309651   0.000000   0.000000
   48        9.664653      9.664653   0.000000   0.000000
   49       11.149436     11.149436   0.000000   0.000000
   50       13.851849     13.851849   0.000000   0.000000
   51       14.592504     14.592504   0.000000   0.000000
   52       15.091051     15.091051   0.000000   0.000000
   53       17.669512     17.669512   0.000000   0.000000
   54       17.711628     17.711628   0.000000   0.000000
   55       17.874206     17.874206   0.000000   0.000000
   56       17.929864     17.929864   0.000000   0.000000
   57       18.210032     18.210032   0.000000   0.000000
   58       18.759458     18.759458   0.000000   0.000000
   59       20.891397     20.891397   0.000000   0.000000
   60       21.828590     21.828590   0.000000   0.000000
   61       22.131905     22.131905   0.000000   0.000000
   62       23.302401     23.302401   0.000000   0.000000
   63       23.498384     23.498383   0.000000   0.000000
   64       23.785640     23.785640   0.000000   0.000000
 
  0.4375000E+00  0.6250000E-01  0.6250000E-01  0.3125000E-01
    1      -58.414982    -58.414982   1.000000   1.000000
    2      -58.414421    -58.414421   1.000000   1.000000
    3      -58.413898    -58.413898   1.000000   1.000000
    4      -58.412638    -58.412638   1.000000   1.000000
    5      -58.411908    -58.411908   1.000000   1.000000
    6      -58.409554    -58.409554   1.000000   1.000000
    7      -56.255448    -56.255448   1.000000   1.000000
    8      -56.253097    -56.253097   1.000000   1.000000
    9      -56.252817    -56.252817   1.000000   1.000000
   10      -56.252560    -56.252560   1.000000   1.000000
   11      -56.251946    -56.251946   1.000000   1.000000
   12      -56.249332    -56.249332   1.000000   1.000000
   13      -12.139268    -12.139268   1.000000   1.000000
   14      -11.850734    -11.850734   1.000000   1.000000
   15      -11.209115    -11.209115   1.000000   1.000000
   16      -11.205457    -11.205457   1.000000   1.000000
   17       -0.807345     -0.807345   1.000000   1.000000
   18       -0.699339     -0.699339   1.000000   1.000000
   19        0.329451      0.329451   1.000000   1.000000
   20        0.347601      0.347601   1.000000   1.000000
   21        0.409497      0.409497   1.000000   1.000000
   22        0.444767      0.444767   1.000000   1.000000
   23        0.927566      0.927566   1.000000   1.000000
   24        0.937417      0.937417   1.000000   1.000000
   25        1.166617      1.166617   1.000000   1.000000
   26        1.277729      1.277729   1.000000   1.000000
   27        1.577476      1.577476   1.000000   1.000000
   28        1.678824      1.678824   1.000000   1.000000
   29        1.828324      1.828324   1.000000   1.000000
   30        1.922264      1.922264   1.000000   1.000000
   31        2.152779      2.152779   1.000000   1.000000
   32        2.338190      2.338190   1.000000   1.000000
   33        2.933730      2.933730   1.000000   1.000000
   34        2.960153      2.960153   1.000000   1.000000
   35        3.346742      3.346742   1.000000   1.000000
   36        3.386657      3.386657   1.000000   1.000000
   37        3.436094      3.436094   1.000000   1.000000
   38        3.475231      3.475231   1.000000   1.000000
   39        3.922609      3.922609   1.000000   1.000000
   40        4.010695      4.010695   1.000000   1.000000
   41        4.479544      4.479544   1.000000   1.000000
   42        4.522634      4.522634   1.000000   1.000000
   43        4.656391      4.656391   1.000000   1.000000
   44        4.719753      4.719753   1.000000   1.000000
   45        9.025501      9.025501   0.000000   0.000000
   46        9.066758      9.066758   0.000000   0.000000
   47        9.480060      9.480060   0.000000   0.000000
   48        9.580408      9.580408   0.000000   0.000000
   49       12.423734     12.423734   0.000000   0.000000
   50       13.385011     13.385011   0.000000   0.000000
   51       15.729068     15.729068   0.000000   0.000000
   52       15.740676     15.740676   0.000000   0.000000
   53       17.475303     17.475303   0.000000   0.000000
   54       17.476968     17.476968   0.000000   0.000000
   55       17.810870     17.810870   0.000000   0.000000
   56       17.810964     17.810964   0.000000   0.000000
   57       19.163331     19.163331   0.000000   0.000000
   58       19.416233     19.416233   0.000000   0.000000
   59       19.954406     19.954406   0.000000   0.000000
   60       20.903908     20.903908   0.000000   0.000000
   61       21.021977     21.021977   0.000000   0.000000
   62       21.304074     21.304074   0.000000   0.000000
   63       23.421759     23.421759   0.000000   0.000000
   64       23.504219     23.504219   0.000000   0.000000
 
  0.6250000E-01  0.4375000E+00  0.6250000E-01  0.1562500E-01
    1      -58.418747    -58.418747   1.000000   1.000000
    2      -58.418177    -58.418177   1.000000   1.000000
    3      -58.415159    -58.415159   1.000000   1.000000
    4      -58.413142    -58.413142   1.000000   1.000000
    5      -58.406391    -58.406391   1.000000   1.000000
    6      -58.405708    -58.405708   1.000000   1.000000
    7      -56.259725    -56.259725   1.000000   1.000000
    8      -56.259131    -56.259131   1.000000   1.000000
    9      -56.254104    -56.254104   1.000000   1.000000
   10      -56.251657    -56.251657   1.000000   1.000000
   11      -56.245708    -56.245708   1.000000   1.000000
   12      -56.244950    -56.244950   1.000000   1.000000
   13      -12.159998    -12.159998   1.000000   1.000000
   14      -11.820158    -11.820158   1.000000   1.000000
   15      -11.373860    -11.373860   1.000000   1.000000
   16      -11.044591    -11.044591   1.000000   1.000000
   17       -0.886939     -0.886939   1.000000   1.000000
   18       -0.558162     -0.558162   1.000000   1.000000
   19        0.255566      0.255566   1.000000   1.000000
   20        0.397114      0.397114   1.000000   1.000000
   21        0.443667      0.443667   1.000000   1.000000
   22        0.526818      0.526818   1.000000   1.000000
   23        0.624886      0.624886   1.000000   1.000000
   24        0.909846      0.909846   1.000000   1.000000
   25        1.052954      1.052954   1.000000   1.000000
   26        1.381277      1.381277   1.000000   1.000000
   27        1.480457      1.480457   1.000000   1.000000
   28        1.783818      1.783818   1.000000   1.000000
   29        2.102884      2.102884   1.000000   1.000000
   30        2.109524      2.109524   1.000000   1.000000
   31        2.192726      2.192726   1.000000   1.000000
   32        2.397696      2.397696   1.000000   1.000000
   33        2.401524      2.401524   1.000000   1.000000
   34        2.922551      2.922551   1.000000   1.000000
   35        3.063782      3.063782   1.000000   1.000000
   36        3.497662      3.497662   1.000000   1.000000
   37        3.670711      3.670711   1.000000   1.000000
   38        3.708363      3.708363   1.000000   1.000000
   39        3.749053      3.749053   1.000000   1.000000
   40        4.326656      4.326656   1.000000   1.000000
   41        4.370271      4.370271   1.000000   1.000000
   42        4.394484      4.394484   1.000000   1.000000
   43        4.667303      4.667303   1.000000   1.000000
   44        4.710941      4.710941   1.000000   1.000000
   45        8.764773      8.764773   0.000000   0.000000
   46        9.277428      9.277428   0.000000   0.000000
   47        9.308458      9.308458   0.000000   0.000000
   48        9.824502      9.824502   0.000000   0.000000
   49       12.311556     12.311556   0.000000   0.000000
   50       13.506421     13.506421   0.000000   0.000000
   51       15.420724     15.420724   0.000000   0.000000
   52       16.001730     16.001730   0.000000   0.000000
   53       17.454357     17.454357   0.000000   0.000000
   54       17.501080     17.501080   0.000000   0.000000
   55       17.780953     17.780953   0.000000   0.000000
   56       17.842541     17.842541   0.000000   0.000000
   57       19.146656     19.146656   0.000000   0.000000
   58       19.404609     19.404609   0.000000   0.000000
   59       19.983277     19.983277   0.000000   0.000000
   60       20.891237     20.891237   0.000000   0.000000
   61       21.136075     21.136075   0.000000   0.000000
   62       21.193686     21.193686   0.000000   0.000000
   63       23.355028     23.355028   0.000000   0.000000
   64       23.567679     23.567679   0.000000   0.000000
 
  0.1875000E+00  0.1875000E+00  0.6250000E-01  0.3125000E-01
    1      -58.418419    -58.418419   1.000000   1.000000
    2      -58.416676    -58.416676   1.000000   1.000000
    3      -58.415179    -58.415179   1.000000   1.000000
    4      -58.413237    -58.413237   1.000000   1.000000
    5      -58.407938    -58.407938   1.000000   1.000000
    6      -58.406108    -58.406108   1.000000   1.000000
    7      -56.259334    -56.259334   1.000000   1.000000
    8      -56.257359    -56.257359   1.000000   1.000000
    9      -56.253933    -56.253933   1.000000   1.000000
   10      -56.251846    -56.251846   1.000000   1.000000
   11      -56.247497    -56.247497   1.000000   1.000000
   12      -56.245411    -56.245411   1.000000   1.000000
   13      -12.526681    -12.526681   1.000000   1.000000
   14      -11.454027    -11.454027   1.000000   1.000000
   15      -11.372604    -11.372604   1.000000   1.000000
   16      -11.190894    -11.190894   1.000000   1.000000
   17       -0.227378     -0.227378   1.000000   1.000000
   18       -0.202294     -0.202294   1.000000   1.000000
   19        0.142221      0.142221   1.000000   1.000000
   20        0.230006      0.230006   1.000000   1.000000
   21        0.409450      0.409450   1.000000   1.000000
   22        0.630804      0.630804   1.000000   1.000000
   23        0.703083      0.703083   1.000000   1.000000
   24        0.877058      0.877058   1.000000   1.000000
   25        1.012189      1.012189   1.000000   1.000000
   26        1.417893      1.417893   1.000000   1.000000
   27        1.623020      1.623020   1.000000   1.000000
   28        1.666821      1.666821   1.000000   1.000000
   29        2.084184      2.084184   1.000000   1.000000
   30        2.106376      2.106376   1.000000   1.000000
   31        2.680237      2.680237   1.000000   1.000000
   32        2.739093      2.739093   1.000000   1.000000
   33        2.801032      2.801032   1.000000   1.000000
   34        2.866093      2.866093   1.000000   1.000000
   35        3.143533      3.143533   1.000000   1.000000
   36        3.373523      3.373523   1.000000   1.000000
   37        3.537965      3.537965   1.000000   1.000000
   38        3.588479      3.588479   1.000000   1.000000
   39        3.755356      3.755356   1.000000   1.000000
   40        3.907091      3.907091   1.000000   1.000000
   41        3.923264      3.923264   1.000000   1.000000
   42        4.140985      4.140985   1.000000   1.000000
   43        4.740173      4.740173   1.000000   1.000000
   44        4.906973      4.906973   1.000000   1.000000
   45        8.927842      8.927842   0.000000   0.000000
   46        9.314809      9.314809   0.000000   0.000000
   47        9.432212      9.432212   0.000000   0.000000
   48        9.545978      9.545978   0.000000   0.000000
   49       10.414068     10.414068   0.000000   0.000000
   50       13.986388     13.986388   0.000000   0.000000
   51       14.130755     14.130755   0.000000   0.000000
   52       14.496723     14.496723   0.000000   0.000000
   53       17.606097     17.606097   0.000000   0.000000
   54       17.759561     17.759561   0.000000   0.000000
   55       17.763584     17.763584   0.000000   0.000000
   56       17.974697     17.974697   0.000000   0.000000
   57       18.245054     18.245054   0.000000   0.000000