 vasp.6.2.0 18Jan21 (build Aug 12 2022 13:00:08) complex                        
  
 executed on             LinuxIFC date 2024.11.05  19:06:51
 running on   16 total cores
 distrk:  each k-point on   16 cores,    1 groups
 distr:  one band on NCORE=   1 cores,   16 groups


--------------------------------------------------------------------------------------------------------


 INCAR:
   SYSTEM = bulk_NiO
   ISTART = 0
   ICHARG = 2
   ISMEAR = 0
   SIGMA = 0.05
   ENCUT = 500
   IBRION = -1
   ISPIN = 2
   MAGMOM = 3 -3 3 -3 4*0
   NSW = 0
   PREC = Accurate
   ALGO = Normal
   EDIFF = 0.1E-05
   EDIFFG = -0.001
   LORBIT = 11
   LMAXMIX = 4
   LREAL = Auto
   LDAU = .TRUE.
   LDAUTYPE = 2
   LDAUL = 2 0
   LDAUU = 6.2 0
   LDAUJ = 0 0
   LDAUPRINT = 0

 POTCAR:    PAW_PBE Ni_pv 06Sep2000               
 POTCAR:    PAW_PBE O 08Apr2002                   
 -----------------------------------------------------------------------------
|                                                                             |
|           W    W    AA    RRRRR   N    N  II  N    N   GGGG   !!!           |
|           W    W   A  A   R    R  NN   N  II  NN   N  G    G  !!!           |
|           W    W  A    A  R    R  N N  N  II  N N  N  G       !!!           |
|           W WW W  AAAAAA  RRRRR   N  N N  II  N  N N  G  GGG   !            |
|           WW  WW  A    A  R   R   N   NN  II  N   NN  G    G                |
|           W    W  A    A  R    R  N    N  II  N    N   GGGG   !!!           |
|                                                                             |
|     For optimal performance we recommend to set                             |
|       NCORE = 2 up to number-of-cores-per-socket                            |
|     NCORE specifies how many cores store one orbital (NPAR=cpu/NCORE).      |
|     This setting can greatly improve the performance of VASP for DFT.       |
|     The default, NCORE=1 might be grossly inefficient on modern             |
|     multi-core architectures or massively parallel machines. Do your        |
|     own testing! More info at https://www.vasp.at/wiki/index.php/NCORE      |
|     Unfortunately you need to use the default for GW and RPA                |
|     calculations (for HF NCORE is supported but not extensively tested      |
|     yet).                                                                   |
|                                                                             |
 -----------------------------------------------------------------------------

 POTCAR:    PAW_PBE Ni_pv 06Sep2000               
   VRHFIN =Ni:                                                                                      
   LEXCH  = PE                                                                                      
   EATOM  =  3501.1230 eV,  257.3253 Ry                                                             
                                                                                                    
   TITEL  = PAW_PBE Ni_pv 06Sep2000                                                                 
   LULTRA =        F    use ultrasoft PP ?                                                          
   IUNSCR =        1    unscreen: 0-lin 1-nonlin 2-no                                               
   RPACOR =    1.500    partial core radius                                                         
   POMASS =   58.690; ZVAL   =   16.000    mass and valenz                                          
   RCORE  =    2.000    outmost cutoff radius                                                       
   RWIGS  =    2.000; RWIGS  =    1.058    wigner-seitz radius (au A)                               
   ENMAX  =  367.986; ENMIN  =  275.989 eV                                                          
   RCLOC  =    1.301    cutoff for local pot                                                        
   LCOR   =        T    correct aug charges                                                         
   LPAW   =        T    paw PP                                                                      
   EAUG   =  703.443                                                                                
   DEXC   =    0.000                                                                                
   RMAX   =    2.041    core radius for proj-oper                                                   
   RAUG   =    1.300    factor for augmentation sphere                                              
   RDEP   =    2.103    radius for radial grids                                                     
   RDEPT  =    1.618    core radius for aug-charge                                                  
                                                                                                    
   Atomic configuration                                                                             
    8 entries                                                                                       
     n  l   j            E        occ.                                                              
     1  0  0.50     -8206.4253   2.0000                                                             
     2  0  0.50      -976.1748   2.0000                                                             
     2  1  1.50      -839.0571   6.0000                                                             
     3  0  0.50      -105.9991   2.0000                                                             
     3  1  1.50       -66.4603   6.0000                                                             
     3  2  2.50        -4.6458   9.0000                                                             
     4  0  0.50        -4.4926   1.0000                                                             
     4  3  2.50        -1.3606   0.0000                                                             
   Description                                                                                      
     l       E           TYP  RCUT    TYP  RCUT                                                     
     1    -66.4602962     23  1.700                                                                 
     1     -1.3605826     23  1.700                                                                 
     2     -4.6457867     23  2.000                                                                 
     2     -6.0063693     23  2.000                                                                 
     0     -4.4925576     23  1.900                                                                 
     0     16.3626226     23  1.900                                                                 
  local pseudopotential read in
  partial core-charges read in
  partial kinetic energy density read in
  atomic valenz-charges read in
  non local Contribution for L=           1  read in
    real space projection operators read in
  non local Contribution for L=           1  read in
    real space projection operators read in
  non local Contribution for L=           2  read in
    real space projection operators read in
  non local Contribution for L=           2  read in
    real space projection operators read in
  non local Contribution for L=           0  read in
    real space projection operators read in
  non local Contribution for L=           0  read in
    real space projection operators read in
    PAW grid and wavefunctions read in
 
   number of l-projection  operators is LMAX  =           6
   number of lm-projection operators is LMMAX =          18
 
 POTCAR:    PAW_PBE O 08Apr2002                   
   VRHFIN =O: s2p4                                                                                  
   LEXCH  = PE                                                                                      
   EATOM  =   432.3788 eV,   31.7789 Ry                                                             
                                                                                                    
   TITEL  = PAW_PBE O 08Apr2002                                                                     
   LULTRA =        F    use ultrasoft PP ?                                                          
   IUNSCR =        1    unscreen: 0-lin 1-nonlin 2-no                                               
   RPACOR =    1.200    partial core radius                                                         
   POMASS =   16.000; ZVAL   =    6.000    mass and valenz                                          
   RCORE  =    1.520    outmost cutoff radius                                                       
   RWIGS  =    1.550; RWIGS  =    0.820    wigner-seitz radius (au A)                               
   ENMAX  =  400.000; ENMIN  =  300.000 eV                                                          
   ICORE  =        2    local potential                                                             
   LCOR   =        T    correct aug charges                                                         
   LPAW   =        T    paw PP                                                                      
   EAUG   =  605.392                                                                                
   DEXC   =    0.000                                                                                
   RMAX   =    1.553    core radius for proj-oper                                                   
   RAUG   =    1.300    factor for augmentation sphere                                              
   RDEP   =    1.550    radius for radial grids                                                     
   RDEPT  =    1.329    core radius for aug-charge                                                  
                                                                                                    
   Atomic configuration                                                                             
    4 entries                                                                                       
     n  l   j            E        occ.                                                              
     1  0  0.50      -514.6923   2.0000                                                             
     2  0  0.50       -23.9615   2.0000                                                             
     2  1  0.50        -9.0305   4.0000                                                             
     3  2  1.50        -9.5241   0.0000                                                             
   Description                                                                                      
     l       E           TYP  RCUT    TYP  RCUT                                                     
     0    -23.9615318     23  1.200                                                                 
     0     -9.5240782     23  1.200                                                                 
     1     -9.0304911     23  1.520                                                                 
     1      8.1634956     23  1.520                                                                 
     2     -9.5240782      7  1.500                                                                 
  local pseudopotential read in
  partial core-charges read in
  partial kinetic energy density read in
  kinetic energy density of atom read in
  atomic valenz-charges read in
  non local Contribution for L=           0  read in
    real space projection operators read in
  non local Contribution for L=           0  read in
    real space projection operators read in
  non local Contribution for L=           1  read in
    real space projection operators read in
  non local Contribution for L=           1  read in
    real space projection operators read in
    PAW grid and wavefunctions read in
 
   number of l-projection  operators is LMAX  =           4
   number of lm-projection operators is LMMAX =           8
 
 -----------------------------------------------------------------------------
|                                                                             |
|               ----> ADVICE to this user running VASP <----                  |
|                                                                             |
|     You have a (more or less) 'small supercell' and for smaller cells       |
|     it is recommended to use the reciprocal-space projection scheme!        |
|     The real-space optimization is not efficient for small cells and it     |
|     is also less accurate ...                                               |
|     Therefore, set LREAL=.FALSE. in the INCAR file.                         |
|                                                                             |
 -----------------------------------------------------------------------------

 Optimization of the real space projectors (new method)

 maximal supplied QI-value         = 18.90
 optimisation between [QCUT,QGAM] = [ 11.34, 22.87] = [ 36.00,146.41] Ry 
 Optimized for a Real-space Cutoff    1.39 Angstroem

   l    n(q)    QCUT    max X(q) W(low)/X(q) W(high)/X(q)  e(spline) 
   1      9    11.338     2.836    0.28E-04    0.31E-04    0.11E-06
   1      9    11.338     4.023    0.94E-04    0.75E-04    0.25E-06
   2      9    11.338    73.368    0.15E-03    0.23E-03    0.35E-06
   2      9    11.338    69.010    0.15E-03    0.23E-03    0.36E-06
   0     10    11.338    54.797    0.38E-04    0.54E-04    0.83E-07
   0     10    11.338    24.266    0.28E-04    0.48E-04    0.74E-07
 Optimization of the real space projectors (new method)

 maximal supplied QI-value         = 24.76
 optimisation between [QCUT,QGAM] = [ 11.39, 22.77] = [ 36.31,145.25] Ry 
 Optimized for a Real-space Cutoff    1.10 Angstroem

   l    n(q)    QCUT    max X(q) W(low)/X(q) W(high)/X(q)  e(spline) 
   0      7    11.387    20.381    0.22E-03    0.48E-03    0.18E-06
   0      7    11.387    15.268    0.22E-03    0.52E-03    0.19E-06
   1      7    11.387     5.964    0.22E-03    0.73E-03    0.24E-06
   1      7    11.387     5.382    0.19E-03    0.60E-03    0.21E-06
  PAW_PBE Ni_pv 06Sep2000               :
 energy of atom  1       EATOM=-3501.1230
 kinetic energy error for atom=    0.0690 (will be added to EATOM!!)
  PAW_PBE O 08Apr2002                   :
 energy of atom  2       EATOM= -432.3788
 kinetic energy error for atom=    0.0224 (will be added to EATOM!!)
 
 
 POSCAR: Ni4 O4
  positions in direct lattice
  velocities in cartesian coordinates
 exchange correlation table for  LEXCH =        8
   RHO(1)=    0.500       N(1)  =     2000
   RHO(2)=  100.500       N(2)  =     4000
 


--------------------------------------------------------------------------------------------------------


 ion  position               nearest neighbor table
   1  0.000  0.000  0.000-   5 2.09   7 2.09   8 2.09   7 2.09   8 2.09   5 2.09
   2  0.000  0.500  0.500-   6 2.09   7 2.09   8 2.09   8 2.09   7 2.09   6 2.09
   3  0.500  0.000  0.500-   5 2.09   6 2.09   7 2.09   5 2.09   6 2.09   7 2.09
   4  0.500  0.500  0.000-   5 2.09   6 2.09   8 2.09   6 2.09   5 2.09   8 2.09
   5  0.500  0.000  0.000-   1 2.09   3 2.09   4 2.09   3 2.09   4 2.09   1 2.09
   6  0.500  0.500  0.500-   2 2.09   3 2.09   4 2.09   4 2.09   3 2.09   2 2.09
   7  0.000  0.000  0.500-   1 2.09   2 2.09   3 2.09   1 2.09   2 2.09   3 2.09
   8  0.000  0.500  0.000-   1 2.09   2 2.09   4 2.09   2 2.09   1 2.09   4 2.09
 
  LATTYP: Found a simple cubic cell.
 ALAT       =     4.1760000000
  
  Lattice vectors:
  
 A1 = (   4.1760000000,   0.0000000000,   0.0000000000)
 A2 = (   0.0000000000,   4.1760000000,   0.0000000000)
 A3 = (   0.0000000000,   0.0000000000,   4.1760000000)


Analysis of symmetry for initial positions (statically):
=====================================================================
 Subroutine PRICEL returns following result:
 
  LATTYP: Found a face centered cubic cell.
 ALAT       =     4.1760000000
  
  Lattice vectors:
  
 A1 = (   2.0880000000,  -2.0880000000,   0.0000000000)
 A2 = (   2.0880000000,   0.0000000000,   2.0880000000)
 A3 = (   0.0000000000,  -2.0880000000,   2.0880000000)
 
   4 primitive cells build up your supercell.
 

 Routine SETGRP: Setting up the symmetry group for a 
 simple cubic supercell.


 Subroutine GETGRP returns: Found 48 space group operations
 (whereof 48 operations were pure point group operations)
 out of a pool of 48 trial point group operations.


The static configuration has the point symmetry O_h .


Analysis of symmetry for dynamics (positions and initial velocities):
=====================================================================
 Subroutine PRICEL returns following result:
 
  LATTYP: Found a face centered cubic cell.
 ALAT       =     4.1760000000
  
  Lattice vectors:
  
 A1 = (   2.0880000000,  -2.0880000000,   0.0000000000)
 A2 = (   2.0880000000,   0.0000000000,   2.0880000000)
 A3 = (   0.0000000000,  -2.0880000000,   2.0880000000)
 
   4 primitive cells build up your supercell.
 

 Routine SETGRP: Setting up the symmetry group for a 
 simple cubic supercell.


 Subroutine GETGRP returns: Found 48 space group operations
 (whereof 48 operations were pure point group operations)
 out of a pool of 48 trial point group operations.


The dynamic configuration has the point symmetry O_h .


Analysis of structural, dynamic, and magnetic symmetry:
=====================================================================
 Subroutine PRICEL returns following result:
 
  LATTYP: Found a face centered cubic cell.
 ALAT       =     4.1760000000
  
  Lattice vectors:
  
 A1 = (   2.0880000000,  -2.0880000000,   0.0000000000)
 A2 = (   2.0880000000,   0.0000000000,   2.0880000000)
 A3 = (   0.0000000000,  -2.0880000000,   2.0880000000)
 
   4 primitive cells build up your supercell.
 

 Routine SETGRP: Setting up the symmetry group for a 
 simple cubic supercell.


 Subroutine GETGRP returns: Found 16 space group operations
 (whereof 16 operations were pure point group operations)
 out of a pool of 48 trial point group operations.


The overall configuration has the point symmetry D_4h.


 Subroutine INISYM returns: Found 16 space group operations
 (whereof 16 operations are pure point group operations),
 and found     4 'primitive' translations


----------------------------------------------------------------------------------------

                                     Primitive cell                                     

  volume of cell :      18.2063

  direct lattice vectors                    reciprocal lattice vectors
     2.088000000 -2.088000000  0.000000000     0.239463602 -0.239463602 -0.239463602
     2.088000000  0.000000000  2.088000000     0.239463602  0.239463602  0.239463602
     0.000000000 -2.088000000  2.088000000    -0.239463602 -0.239463602  0.239463602

  length of vectors
     2.952877918  2.952877918  2.952877918     0.414763124  0.414763124  0.414763124

  position of ions in fractional coordinates (direct lattice)
     0.000000000  0.000000000  0.000000000
     0.500000000  0.500000000  0.500000000

  ion indices of the primitive-cell ions
   primitive index   ion index
                 1           1
                 2           5

----------------------------------------------------------------------------------------

 
 
 KPOINTS: K-Points                                

Automatic generation of k-mesh.
 Grid dimensions read from file:
 generate k-points for:    8    8    8

 Generating k-lattice:

  Cartesian coordinates                     Fractional coordinates (reciprocal lattice)
     0.029932950  0.000000000  0.000000000     0.125000000  0.000000000  0.000000000
     0.000000000  0.029932950  0.000000000     0.000000000  0.125000000  0.000000000
     0.000000000  0.000000000  0.029932950     0.000000000  0.000000000  0.125000000

  Length of vectors
     0.029932950  0.029932950  0.029932950

  Shift w.r.t. Gamma in fractional coordinates (k-lattice)
     0.500000000  0.500000000  0.500000000

 
 Subroutine IBZKPT returns following result:
 ===========================================
 
 Found     40 irreducible k-points:
 
 Following reciprocal coordinates:
            Coordinates               Weight
  0.062500  0.062500  0.062500      8.000000
  0.187500  0.062500  0.062500     16.000000
  0.062500  0.187500  0.062500      8.000000
  0.312500  0.062500  0.062500     16.000000
  0.062500  0.312500  0.062500      8.000000
  0.437500  0.062500  0.062500     16.000000
  0.062500  0.437500  0.062500      8.000000
  0.187500  0.187500  0.062500     16.000000
  0.187500  0.062500  0.187500      8.000000
  0.312500  0.187500  0.062500     16.000000
  0.062500  0.312500  0.187500     16.000000
  0.187500  0.062500  0.312500     16.000000
  0.437500  0.187500  0.062500     16.000000
  0.062500  0.437500  0.187500     16.000000
  0.187500  0.062500  0.437500     16.000000
  0.312500  0.312500  0.062500     16.000000
  0.312500  0.062500  0.312500      8.000000
  0.437500  0.312500  0.062500     16.000000
  0.062500  0.437500  0.312500     16.000000
  0.312500  0.062500  0.437500     16.000000
  0.437500  0.437500  0.062500     16.000000
  0.437500  0.062500  0.437500      8.000000
  0.187500  0.187500  0.187500      8.000000
  0.312500  0.187500  0.187500     16.000000
  0.187500  0.312500  0.187500      8.000000
  0.437500  0.187500  0.187500     16.000000
  0.187500  0.437500  0.187500      8.000000
  0.312500  0.312500  0.187500     16.000000
  0.312500  0.187500  0.312500      8.000000
  0.437500  0.312500  0.187500     16.000000
  0.187500  0.437500  0.312500     16.000000
  0.312500  0.187500  0.437500     16.000000
  0.437500  0.437500  0.187500     16.000000
  0.437500  0.187500  0.437500      8.000000
  0.312500  0.312500  0.312500      8.000000
  0.437500  0.312500  0.312500     16.000000
  0.312500  0.437500  0.312500      8.000000
  0.437500  0.437500  0.312500     16.000000
  0.437500  0.312500  0.437500      8.000000
  0.437500  0.437500  0.437500      8.000000
 
 Following cartesian coordinates:
            Coordinates               Weight
  0.014966  0.014966  0.014966      8.000000
  0.044899  0.014966  0.014966     16.000000
  0.014966  0.044899  0.014966      8.000000
  0.074832  0.014966  0.014966     16.000000
  0.014966  0.074832  0.014966      8.000000
  0.104765  0.014966  0.014966     16.000000
  0.014966  0.104765  0.014966      8.000000
  0.044899  0.044899  0.014966     16.000000
  0.044899  0.014966  0.044899      8.000000
  0.074832  0.044899  0.014966     16.000000
  0.014966  0.074832  0.044899     16.000000
  0.044899  0.014966  0.074832     16.000000
  0.104765  0.044899  0.014966     16.000000
  0.014966  0.104765  0.044899     16.000000
  0.044899  0.014966  0.104765     16.000000
  0.074832  0.074832  0.014966     16.000000
  0.074832  0.014966  0.074832      8.000000
  0.104765  0.074832  0.014966     16.000000
  0.014966  0.104765  0.074832     16.000000
  0.074832  0.014966  0.104765     16.000000
  0.104765  0.104765  0.014966     16.000000
  0.104765  0.014966  0.104765      8.000000
  0.044899  0.044899  0.044899      8.000000
  0.074832  0.044899  0.044899     16.000000
  0.044899  0.074832  0.044899      8.000000
  0.104765  0.044899  0.044899     16.000000
  0.044899  0.104765  0.044899      8.000000
  0.074832  0.074832  0.044899     16.000000
  0.074832  0.044899  0.074832      8.000000
  0.104765  0.074832  0.044899     16.000000
  0.044899  0.104765  0.074832     16.000000
  0.074832  0.044899  0.104765     16.000000
  0.104765  0.104765  0.044899     16.000000
  0.104765  0.044899  0.104765      8.000000
  0.074832  0.074832  0.074832      8.000000
  0.104765  0.074832  0.074832     16.000000
  0.074832  0.104765  0.074832      8.000000
  0.104765  0.104765  0.074832     16.000000
  0.104765  0.074832  0.104765      8.000000
  0.104765  0.104765  0.104765      8.000000
 


--------------------------------------------------------------------------------------------------------




 Dimension of arrays:
   k-points           NKPTS =     40   k-points in BZ     NKDIM =     40   number of bands    NBANDS=     64
   number of dos      NEDOS =    301   number of ions     NIONS =      8
   non local maximal  LDIM  =      6   non local SUM 2l+1 LMDIM =     18
   total plane-waves  NPLWV =  27000
   max r-space proj   IRMAX =   4218   max aug-charges    IRDMAX=   8384
   dimension x,y,z NGX =    30 NGY =   30 NGZ =   30
   dimension x,y,z NGXF=    60 NGYF=   60 NGZF=   60
   support grid    NGXF=    60 NGYF=   60 NGZF=   60
   ions per type =               4   4
   NGX,Y,Z   is equivalent  to a cutoff of  11.94, 11.94, 11.94 a.u.
   NGXF,Y,Z  is equivalent  to a cutoff of  23.89, 23.89, 23.89 a.u.

 SYSTEM =  bulk_NiO                                
 POSCAR =  Ni4 O4                                  

 Startparameter for this run:
   NWRITE =      2    write-flag & timer
   PREC   = accura    normal or accurate (medium, high low for compatibility)
   ISTART =      0    job   : 0-new  1-cont  2-samecut
   ICHARG =      2    charge: 1-file 2-atom 10-const
   ISPIN  =      2    spin polarized calculation?
   LNONCOLLINEAR =      F non collinear calculations
   LSORBIT =      F    spin-orbit coupling
   INIWAV =      1    electr: 0-lowe 1-rand  2-diag
   LASPH  =      F    aspherical Exc in radial PAW
   METAGGA=      F    non-selfconsistent MetaGGA calc.

 Electronic Relaxation 1
   ENCUT  =  500.0 eV  36.75 Ry    6.06 a.u.   7.61  7.61  7.61*2*pi/ulx,y,z
   ENINI  =  500.0     initial cutoff
   ENAUG  =  703.4 eV  augmentation charge cutoff
   NELM   =     60;   NELMIN=  2; NELMDL= -5     # of ELM steps 
   EDIFF  = 0.1E-05   stopping-criterion for ELM
   LREAL  =      T    real-space projection
   NLSPLINE    = F    spline interpolate recip. space projectors
   LCOMPAT=      F    compatible to vasp.4.4
   GGA_COMPAT  = T    GGA compatible to vasp.4.4-vasp.4.6
   LMAXPAW     = -100 max onsite density
   LMAXMIX     =    4 max onsite mixed and CHGCAR
   VOSKOWN=      0    Vosko Wilk Nusair interpolation
   ROPT   =   -0.00025  -0.00025
 Ionic relaxation
   EDIFFG = -.1E-02   stopping-criterion for IOM
   NSW    =      0    number of steps for IOM
   NBLOCK =      1;   KBLOCK =      1    inner block; outer block 
   IBRION =     -1    ionic relax: 0-MD 1-quasi-New 2-CG
   NFREE  =      0    steps in history (QN), initial steepest desc. (CG)
   ISIF   =      2    stress and relaxation
   IWAVPR =     10    prediction:  0-non 1-charg 2-wave 3-comb
   ISYM   =      2    0-nonsym 1-usesym 2-fastsym
   LCORR  =      T    Harris-Foulkes like correction to forces

   POTIM  = 0.5000    time-step for ionic-motion
   TEIN   =    0.0    initial temperature
   TEBEG  =    0.0;   TEEND  =   0.0 temperature during run
   SMASS  =  -3.00    Nose mass-parameter (am)
   estimated Nose-frequenzy (Omega)   =  0.10E-29 period in steps = 0.13E+47 mass=  -0.399E-27a.u.
   SCALEE = 1.0000    scale energy and forces
   NPACO  =    256;   APACO  = 16.0  distance and # of slots for P.C.
   PSTRESS=    0.0 pullay stress

  Mass of Ions in am
   POMASS =  58.69 16.00
  Ionic Valenz
   ZVAL   =  16.00  6.00
  Atomic Wigner-Seitz radii
   RWIGS  =  -1.00 -1.00
  virtual crystal weights 
   VCA    =   1.00  1.00
   NELECT =      88.0000    total number of electrons
   NUPDOWN=      -1.0000    fix difference up-down

 DOS related values:
   EMIN   =  10.00;   EMAX   =-10.00  energy-range for DOS
   EFERMI =   0.00
   ISMEAR =     0;   SIGMA  =   0.05  broadening in eV -4-tet -1-fermi 0-gaus

 Electronic relaxation 2 (details)
   IALGO  =     38    algorithm
   LDIAG  =      T    sub-space diagonalisation (order eigenvalues)
   LSUBROT=      F    optimize rotation matrix (better conditioning)
   TURBO    =      0    0=normal 1=particle mesh
   IRESTART =      0    0=no restart 2=restart with 2 vectors
   NREBOOT  =      0    no. of reboots
   NMIN     =      0    reboot dimension
   EREF     =   0.00    reference energy to select bands
   IMIX   =      4    mixing-type and parameters
     AMIX     =   0.40;   BMIX     =  1.00
     AMIX_MAG =   1.60;   BMIX_MAG =  1.00
     AMIN     =   0.10
     WC   =   100.;   INIMIX=   1;  MIXPRE=   1;  MAXMIX= -45

 Intra band minimization:
   WEIMIN = 0.0000     energy-eigenvalue tresh-hold
   EBREAK =  0.39E-08  absolut break condition
   DEPER  =   0.30     relativ break condition  

   TIME   =   0.40     timestep for ELM

  volume/ion in A,a.u.               =       9.10        61.43
  Fermi-wavevector in a.u.,A,eV,Ry     =   1.743714  3.295141 41.369034  3.040538
  Thomas-Fermi vector in A             =   2.815733
 
 Write flags
   LWAVE        =      T    write WAVECAR
   LDOWNSAMPLE  =      F    k-point downsampling of WAVECAR
   LCHARG       =      T    write CHGCAR
   LVTOT        =      F    write LOCPOT, total local potential
   LVHAR        =      F    write LOCPOT, Hartree potential only
   LELF         =      F    write electronic localiz. function (ELF)
   LORBIT       =     11    0 simple, 1 ext, 2 COOP (PROOUT), +10 PAW based schemes


 Dipole corrections
   LMONO  =      F    monopole corrections only (constant potential shift)
   LDIPOL =      F    correct potential (dipole corrections)
   IDIPOL =      0    1-x, 2-y, 3-z, 4-all directions 
   EPSILON=  1.0000000 bulk dielectric constant

 LDA+U is selected, type is set to LDAUTYPE =  2
   angular momentum for each species LDAUL =     2    0
   U (eV)           for each species LDAUU =   6.2  0.0
   J (eV)           for each species LDAUJ =   0.0  0.0
 Exchange correlation treatment:
   GGA     =    --    GGA type
   LEXCH   =     8    internal setting for exchange type
   VOSKOWN=      0    Vosko Wilk Nusair interpolation
   LHFCALC =     F    Hartree Fock is set to
   LHFONE  =     F    Hartree Fock one center treatment
   AEXX    =    0.0000 exact exchange contribution

 Linear response parameters
   LEPSILON=     F    determine dielectric tensor
   LRPA    =     F    only Hartree local field effects (RPA)
   LNABLA  =     F    use nabla operator in PAW spheres
   LVEL    =     F    velocity operator in full k-point grid
   LINTERFAST=   F  fast interpolation
   KINTER  =     0    interpolate to denser k-point grid
   CSHIFT  =0.1000    complex shift for real part using Kramers Kronig
   OMEGAMAX=  -1.0    maximum frequency
   DEG_THRESHOLD= 0.2000000E-02 threshold for treating states as degnerate
   RTIME   =   -0.100 relaxation time in fs
  (WPLASMAI=    0.000 imaginary part of plasma frequency in eV, 0.658/RTIME)
   DFIELD  = 0.0000000 0.0000000 0.0000000 field for delta impulse in time
 
 Orbital magnetization related:
   ORBITALMAG=     F  switch on orbital magnetization
   LCHIMAG   =     F  perturbation theory with respect to B field
   DQ        =  0.001000  dq finite difference perturbation B field
   LLRAUG    =     F  two centre corrections for induced B field



--------------------------------------------------------------------------------------------------------


 Static calculation
 charge density and potential will be updated during run
 spin polarized calculation
 Variant of blocked Davidson
 Davidson routine will perform the subspace rotation
 perform sub-space diagonalisation
    after iterative eigenvector-optimisation
 modified Broyden-mixing scheme, WC =      100.0
 initial mixing is a Kerker type mixing with AMIX =  0.4000 and BMIX =      1.0000
 Hartree-type preconditioning will be used
 using additional bands           20
 real space projection scheme for non local part
 use partial core corrections
 calculate Harris-corrections to forces 
   (improved forces if not selfconsistent)
 use gradient corrections 
 use of overlap-Matrix (Vanderbilt PP)
 Gauss-broadening in eV      SIGMA  =   0.05


--------------------------------------------------------------------------------------------------------


  energy-cutoff  :      500.00
  volume of cell :       72.83
      direct lattice vectors                 reciprocal lattice vectors
     4.176000000  0.000000000  0.000000000     0.239463602  0.000000000  0.000000000
     0.000000000  4.176000000  0.000000000     0.000000000  0.239463602  0.000000000
     0.000000000  0.000000000  4.176000000     0.000000000  0.000000000  0.239463602

  length of vectors
     4.176000000  4.176000000  4.176000000     0.239463602  0.239463602  0.239463602


 
 k-points in units of 2pi/SCALE and weight: K-Points                                
   0.01496648  0.01496648  0.01496648       0.016
   0.04489943  0.01496648  0.01496648       0.031
   0.01496648  0.04489943  0.01496648       0.016
   0.07483238  0.01496648  0.01496648       0.031
   0.01496648  0.07483238  0.01496648       0.016
   0.10476533  0.01496648  0.01496648       0.031
   0.01496648  0.10476533  0.01496648       0.016
   0.04489943  0.04489943  0.01496648       0.031
   0.04489943  0.01496648  0.04489943       0.016
   0.07483238  0.04489943  0.01496648       0.031
   0.01496648  0.07483238  0.04489943       0.031
   0.04489943  0.01496648  0.07483238       0.031
   0.10476533  0.04489943  0.01496648       0.031
   0.01496648  0.10476533  0.04489943       0.031
   0.04489943  0.01496648  0.10476533       0.031
   0.07483238  0.07483238  0.01496648       0.031
   0.07483238  0.01496648  0.07483238       0.016
   0.10476533  0.07483238  0.01496648       0.031
   0.01496648  0.10476533  0.07483238       0.031
   0.07483238  0.01496648  0.10476533       0.031
   0.10476533  0.10476533  0.01496648       0.031
   0.10476533  0.01496648  0.10476533       0.016
   0.04489943  0.04489943  0.04489943       0.016
   0.07483238  0.04489943  0.04489943       0.031
   0.04489943  0.07483238  0.04489943       0.016
   0.10476533  0.04489943  0.04489943       0.031
   0.04489943  0.10476533  0.04489943       0.016
   0.07483238  0.07483238  0.04489943       0.031
   0.07483238  0.04489943  0.07483238       0.016
   0.10476533  0.07483238  0.04489943       0.031
   0.04489943  0.10476533  0.07483238       0.031
   0.07483238  0.04489943  0.10476533       0.031
   0.10476533  0.10476533  0.04489943       0.031
   0.10476533  0.04489943  0.10476533       0.016
   0.07483238  0.07483238  0.07483238       0.016
   0.10476533  0.07483238  0.07483238       0.031
   0.07483238  0.10476533  0.07483238       0.016
   0.10476533  0.10476533  0.07483238       0.031
   0.10476533  0.07483238  0.10476533       0.016
   0.10476533  0.10476533  0.10476533       0.016
 
 k-points in reciprocal lattice and weights: K-Points                                
   0.06250000  0.06250000  0.06250000       0.016
   0.18750000  0.06250000  0.06250000       0.031
   0.06250000  0.18750000  0.06250000       0.016
   0.31250000  0.06250000  0.06250000       0.031
   0.06250000  0.31250000  0.06250000       0.016
   0.43750000  0.06250000  0.06250000       0.031
   0.06250000  0.43750000  0.06250000       0.016
   0.18750000  0.18750000  0.06250000       0.031
   0.18750000  0.06250000  0.18750000       0.016
   0.31250000  0.18750000  0.06250000       0.031
   0.06250000  0.31250000  0.18750000       0.031
   0.18750000  0.06250000  0.31250000       0.031
   0.43750000  0.18750000  0.06250000       0.031
   0.06250000  0.43750000  0.18750000       0.031
   0.18750000  0.06250000  0.43750000       0.031
   0.31250000  0.31250000  0.06250000       0.031
   0.31250000  0.06250000  0.31250000       0.016
   0.43750000  0.31250000  0.06250000       0.031
   0.06250000  0.43750000  0.31250000       0.031
   0.31250000  0.06250000  0.43750000       0.031
   0.43750000  0.43750000  0.06250000       0.031
   0.43750000  0.06250000  0.43750000       0.016
   0.18750000  0.18750000  0.18750000       0.016
   0.31250000  0.18750000  0.18750000       0.031
   0.18750000  0.31250000  0.18750000       0.016
   0.43750000  0.18750000  0.18750000       0.031
   0.18750000  0.43750000  0.18750000       0.016
   0.31250000  0.31250000  0.18750000       0.031
   0.31250000  0.18750000  0.31250000       0.016
   0.43750000  0.31250000  0.18750000       0.031
   0.18750000  0.43750000  0.31250000       0.031
   0.31250000  0.18750000  0.43750000       0.031
   0.43750000  0.43750000  0.18750000       0.031
   0.43750000  0.18750000  0.43750000       0.016
   0.31250000  0.31250000  0.31250000       0.016
   0.43750000  0.31250000  0.31250000       0.031
   0.31250000  0.43750000  0.31250000       0.016
   0.43750000  0.43750000  0.31250000       0.031
   0.43750000  0.31250000  0.43750000       0.016
   0.43750000  0.43750000  0.43750000       0.016
 
 position of ions in fractional coordinates (direct lattice) 
   0.00000000  0.00000000  0.00000000
   0.00000000  0.50000000  0.50000000
   0.50000000  0.00000000  0.50000000
   0.50000000  0.50000000  0.00000000
   0.50000000  0.00000000  0.00000000
   0.50000000  0.50000000  0.50000000
   0.00000000  0.00000000  0.50000000
   0.00000000  0.50000000  0.00000000
 
 position of ions in cartesian coordinates  (Angst):
   0.00000000  0.00000000  0.00000000
   0.00000000  2.08800000  2.08800000
   2.08800000  0.00000000  2.08800000
   2.08800000  2.08800000  0.00000000
   2.08800000  0.00000000  0.00000000
   2.08800000  2.08800000  2.08800000
   0.00000000  0.00000000  2.08800000
   0.00000000  2.08800000  0.00000000
 


--------------------------------------------------------------------------------------------------------


 k-point   1 :   0.0625 0.0625 0.0625  plane waves:    1860
 k-point   2 :   0.1875 0.0625 0.0625  plane waves:    1847
 k-point   3 :   0.0625 0.1875 0.0625  plane waves:    1847
 k-point   4 :   0.3125 0.0625 0.0625  plane waves:    1851
 k-point   5 :   0.0625 0.3125 0.0625  plane waves:    1851
 k-point   6 :   0.4375 0.0625 0.0625  plane waves:    1856
 k-point   7 :   0.0625 0.4375 0.0625  plane waves:    1856
 k-point   8 :   0.1875 0.1875 0.0625  plane waves:    1863
 k-point   9 :   0.1875 0.0625 0.1875  plane waves:    1863
 k-point  10 :   0.3125 0.1875 0.0625  plane waves:    1852
 k-point  11 :   0.0625 0.3125 0.1875  plane waves:    1852
 k-point  12 :   0.1875 0.0625 0.3125  plane waves:    1852
 k-point  13 :   0.4375 0.1875 0.0625  plane waves:    1848
 k-point  14 :   0.0625 0.4375 0.1875  plane waves:    1848
 k-point  15 :   0.1875 0.0625 0.4375  plane waves:    1848
 k-point  16 :   0.3125 0.3125 0.0625  plane waves:    1848
 k-point  17 :   0.3125 0.0625 0.3125  plane waves:    1848
 k-point  18 :   0.4375 0.3125 0.0625  plane waves:    1851
 k-point  19 :   0.0625 0.4375 0.3125  plane waves:    1851
 k-point  20 :   0.3125 0.0625 0.4375  plane waves:    1851
 k-point  21 :   0.4375 0.4375 0.0625  plane waves:    1847
 k-point  22 :   0.4375 0.0625 0.4375  plane waves:    1847
 k-point  23 :   0.1875 0.1875 0.1875  plane waves:    1857
 k-point  24 :   0.3125 0.1875 0.1875  plane waves:    1852
 k-point  25 :   0.1875 0.3125 0.1875  plane waves:    1852
 k-point  26 :   0.4375 0.1875 0.1875  plane waves:    1848
 k-point  27 :   0.1875 0.4375 0.1875  plane waves:    1848
 k-point  28 :   0.3125 0.3125 0.1875  plane waves:    1847
 k-point  29 :   0.3125 0.1875 0.3125  plane waves:    1847
 k-point  30 :   0.4375 0.3125 0.1875  plane waves:    1846
 k-point  31 :   0.1875 0.4375 0.3125  plane waves:    1846
 k-point  32 :   0.3125 0.1875 0.4375  plane waves:    1846
 k-point  33 :   0.4375 0.4375 0.1875  plane waves:    1828
 k-point  34 :   0.4375 0.1875 0.4375  plane waves:    1828
 k-point  35 :   0.3125 0.3125 0.3125  plane waves:    1836
 k-point  36 :   0.4375 0.3125 0.3125  plane waves:    1843
 k-point  37 :   0.3125 0.4375 0.3125  plane waves:    1843
 k-point  38 :   0.4375 0.4375 0.3125  plane waves:    1841
 k-point  39 :   0.4375 0.3125 0.4375  plane waves:    1841
 k-point  40 :   0.4375 0.4375 0.4375  plane waves:    1862

 maximum and minimum number of plane-waves per node :      1863     1828

 maximum number of plane-waves:      1863
 maximum index in each direction: 
   IXMAX=    7   IYMAX=    7   IZMAX=    7
   IXMIN=   -8   IYMIN=   -8   IZMIN=   -8


 serial   3D FFT for wavefunctions
 parallel 3D FFT for charge:
    minimum data exchange during FFTs selected (reduces bandwidth)


 total amount of memory used by VASP MPI-rank0    47991. kBytes
=======================================================================

   base      :      30000. kBytes
   nonlr-proj:       3610. kBytes
   fftplans  :        604. kBytes
   grid      :       3371. kBytes
   one-center:        248. kBytes
   wavefun   :      10158. kBytes
 
     INWAV:  cpu time    0.0000: real time    0.0009
 Broyden mixing: mesh for mixing (old mesh)
   NGX = 15   NGY = 15   NGZ = 15
  (NGX  = 60   NGY  = 60   NGZ  = 60)
  gives a total of   3375 points

 initial charge density was supplied:
 charge density of overlapping atoms calculated
 number of electron      88.0000000 magnetization       0.0000000
 keeping initial charge density in first step


--------------------------------------------------------------------------------------------------------


 Maximum index for non-local projection operator         3959
 Maximum index for augmentation-charges          518 (set IRDMAX)


--------------------------------------------------------------------------------------------------------


 First call to EWALD:  gamma=   0.424
 Maximum number of real-space cells 3x 3x 3
 Maximum number of reciprocal cells 3x 3x 3

    FEWALD:  cpu time    0.0030: real time    0.0037


--------------------------------------- Iteration      1(   1)  ---------------------------------------


    POTLOK:  cpu time    0.0500: real time    0.0540
    SETDIJ:  cpu time    0.0150: real time    0.0152
     EDDAV:  cpu time    9.2716: real time    9.2828
       DOS:  cpu time    0.0030: real time    0.0039
    --------------------------------------------
      LOOP:  cpu time    9.3396: real time    9.3562

 eigenvalue-minimisations  : 10480
 total energy-change (2. order) : 0.1094829E+04  (-0.5558308E+04)
 number of electron      88.0000000 magnetization      -0.0000000
 augmentation part       88.0000000 magnetization      -0.0000000

 Free energy of the ion-electron system (eV)
  ---------------------------------------------------
  alpha Z        PSCENC =       620.95558523
  Ewald energy   TEWEN  =    -10675.76284260
  -Hartree energ DENC   =     -4472.87740086
  -exchange      EXHF   =         0.00000000
  -V(xc)+E(xc)   XCENC  =       470.41179419
  PAW double counting   =     13038.34031942   -13517.26574471
  entropy T*S    EENTRO =        -0.00386384
  eigenvalues    EBANDS =      -102.61061371
  atomic energy  EATOM  =     15733.64188381
  Solvation  Ediel_sol  =         0.00000000
  ---------------------------------------------------
  free energy    TOTEN  =      1094.82911693 eV

  energy without entropy =     1094.83298076  energy(sigma->0) =     1094.83104885


--------------------------------------------------------------------------------------------------------




--------------------------------------- Iteration      1(   2)  ---------------------------------------


     EDDAV:  cpu time    9.5775: real time    9.6558
       DOS:  cpu time    0.0030: real time    0.0039
    --------------------------------------------
      LOOP:  cpu time    9.5815: real time    9.6597

 eigenvalue-minimisations  : 10832
 total energy-change (2. order) :-0.1062527E+04  (-0.1014962E+04)
 number of electron      88.0000000 magnetization      -0.0000000
 augmentation part       88.0000000 magnetization      -0.0000000

 Free energy of the ion-electron system (eV)
  ---------------------------------------------------
  alpha Z        PSCENC =       620.95558523
  Ewald energy   TEWEN  =    -10675.76284260
  -Hartree energ DENC   =     -4472.87740086
  -exchange      EXHF   =         0.00000000
  -V(xc)+E(xc)   XCENC  =       470.41179419
  PAW double counting   =     13038.34031942   -13517.26574471
  entropy T*S    EENTRO =        -0.01047692
  eigenvalues    EBANDS =     -1165.13102327
  atomic energy  EATOM  =     15733.64188381
  Solvation  Ediel_sol  =         0.00000000
  ---------------------------------------------------
  free energy    TOTEN  =        32.30209428 eV

  energy without entropy =       32.31257120  energy(sigma->0) =       32.30733274


--------------------------------------------------------------------------------------------------------




--------------------------------------- Iteration      1(   3)  ---------------------------------------


     EDDAV:  cpu time   10.6354: real time   10.6878
       DOS:  cpu time    0.0030: real time    0.0040
    --------------------------------------------
      LOOP:  cpu time   10.6384: real time   10.6917

 eigenvalue-minimisations  : 12064
 total energy-change (2. order) :-0.6674829E+02  (-0.6567690E+02)
 number of electron      88.0000000 magnetization      -0.0000000
 augmentation part       88.0000000 magnetization      -0.0000000

 Free energy of the ion-electron system (eV)
  ---------------------------------------------------
  alpha Z        PSCENC =       620.95558523
  Ewald energy   TEWEN  =    -10675.76284260
  -Hartree energ DENC   =     -4472.87740086
  -exchange      EXHF   =         0.00000000
  -V(xc)+E(xc)   XCENC  =       470.41179419
  PAW double counting   =     13038.34031942   -13517.26574471
  entropy T*S    EENTRO =        -0.01307898
  eigenvalues    EBANDS =     -1231.87671182
  atomic energy  EATOM  =     15733.64188381
  Solvation  Ediel_sol  =         0.00000000
  ---------------------------------------------------
  free energy    TOTEN  =       -34.44619633 eV

  energy without entropy =      -34.43311735  energy(sigma->0) =      -34.43965684


--------------------------------------------------------------------------------------------------------




--------------------------------------- Iteration      1(   4)  ---------------------------------------


     EDDAV:  cpu time    9.4686: real time    9.7271
       DOS:  cpu time    0.0040: real time    0.0039
    --------------------------------------------
      LOOP:  cpu time    9.4726: real time    9.7309

 eigenvalue-minimisations  : 10624
 total energy-change (2. order) :-0.9406639E+00  (-0.9402944E+00)
 number of electron      88.0000000 magnetization      -0.0000000
 augmentation part       88.0000000 magnetization      -0.0000000

 Free energy of the ion-electron system (eV)
  ---------------------------------------------------
  alpha Z        PSCENC =       620.95558523
  Ewald energy   TEWEN  =    -10675.76284260
  -Hartree energ DENC   =     -4472.87740086
  -exchange      EXHF   =         0.00000000
  -V(xc)+E(xc)   XCENC  =       470.41179419
  PAW double counting   =     13038.34031942   -13517.26574471
  entropy T*S    EENTRO =        -0.01309575
  eigenvalues    EBANDS =     -1232.81735893
  atomic energy  EATOM  =     15733.64188381
  Solvation  Ediel_sol  =         0.00000000
  ---------------------------------------------------
  free energy    TOTEN  =       -35.38686021 eV

  energy without entropy =      -35.37376446  energy(sigma->0) =      -35.38031233


--------------------------------------------------------------------------------------------------------




--------------------------------------- Iteration      1(   5)  ---------------------------------------


     EDDAV:  cpu time   10.1845: real time   10.2343
       DOS:  cpu time    0.0030: real time    0.0039
    CHARGE:  cpu time    0.2870: real time    0.2885
    MIXING:  cpu time    0.0020: real time    0.0018
    --------------------------------------------
      LOOP:  cpu time   10.4754: real time   10.5285

 eigenvalue-minimisations  : 11648
 total energy-change (2. order) :-0.1488319E-01  (-0.1488288E-01)
 number of electron      88.0000202 magnetization       0.0000000
 augmentation part       39.5560164 magnetization       0.0000000

 Broyden mixing:
  rms(total) = 0.33782E+01    rms(broyden)= 0.33593E+01
  rms(prec ) = 0.55574E+01
  weight for this iteration     100.00

 Free energy of the ion-electron system (eV)
  ---------------------------------------------------
  alpha Z        PSCENC =       620.95558523
  Ewald energy   TEWEN  =    -10675.76284260
  -Hartree energ DENC   =     -4472.87740086
  -exchange      EXHF   =         0.00000000
  -V(xc)+E(xc)   XCENC  =       470.41179419
  PAW double counting   =     13038.34031942   -13517.26574471
  entropy T*S    EENTRO =        -0.01309606
  eigenvalues    EBANDS =     -1232.83224181
  atomic energy  EATOM  =     15733.64188381
  Solvation  Ediel_sol  =         0.00000000
  ---------------------------------------------------
  free energy    TOTEN  =       -35.40174340 eV

  energy without entropy =      -35.38864734  energy(sigma->0) =      -35.39519537


--------------------------------------------------------------------------------------------------------




--------------------------------------- Iteration      1(   6)  ---------------------------------------


    POTLOK:  cpu time    0.0710: real time    0.1246
    SETDIJ:  cpu time    0.0150: real time    0.0148
     EDDAV:  cpu time   11.5192: real time   11.5707
       DOS:  cpu time    0.0020: real time    0.0022
    CHARGE:  cpu time    0.2860: real time    0.2865
    MIXING:  cpu time    0.0020: real time    0.0016
    --------------------------------------------
      LOOP:  cpu time   11.8952: real time   12.0004

 eigenvalue-minimisations  : 13216
 total energy-change (2. order) : 0.1043465E+01  (-0.6441611E+01)
 number of electron      88.0000196 magnetization      -0.0000000
 augmentation part       41.3017743 magnetization      -0.0000000

 Broyden mixing:
  rms(total) = 0.36536E+01    rms(broyden)= 0.36497E+01
  rms(prec ) = 0.39085E+01
  weight for this iteration     100.00

 eigenvalues of (default mixing * dielectric matrix)
  average eigenvalue GAMMA=   0.4949
  0.4949

 Free energy of the ion-electron system (eV)
  ---------------------------------------------------
  alpha Z        PSCENC =       620.95558523
  Ewald energy   TEWEN  =    -10675.76284260
  -Hartree energ DENC   =     -4333.51613117
  -exchange      EXHF   =         0.00000000
  -V(xc)+E(xc)   XCENC  =       467.10903241
  PAW double counting   =     13187.99775820   -13639.97933788
  entropy T*S    EENTRO =        -0.00000000
  eigenvalues    EBANDS =     -1394.80422634
  atomic energy  EATOM  =     15733.64188381
  Solvation  Ediel_sol  =         0.00000000
  ---------------------------------------------------
  free energy    TOTEN  =       -34.35827834 eV

  energy without entropy =      -34.35827834  energy(sigma->0) =      -34.35827834


--------------------------------------------------------------------------------------------------------




--------------------------------------- Iteration      1(   7)  ---------------------------------------


    POTLOK:  cpu time    0.0640: real time    0.1228
    SETDIJ:  cpu time    0.0140: real time    0.0146
     EDDAV:  cpu time    9.7885: real time    9.8136
       DOS:  cpu time    0.0030: real time    0.0025
    CHARGE:  cpu time    0.2850: real time    0.2866
    MIXING:  cpu time    0.0020: real time    0.0015
    --------------------------------------------
      LOOP:  cpu time   10.1565: real time   10.2416

 eigenvalue-minimisations  : 11216
 total energy-change (2. order) :-0.1746682E+01  (-0.1023376E+01)
 number of electron      88.0000191 magnetization      -0.0000000
 augmentation part       40.6819562 magnetization      -0.0000000

 Broyden mixing:
  rms(total) = 0.17007E+01    rms(broyden)= 0.17003E+01
  rms(prec ) = 0.17881E+01
  weight for this iteration     100.00

 eigenvalues of (default mixing * dielectric matrix)
  average eigenvalue GAMMA=   0.7376
  0.7376  0.7376

 Free energy of the ion-electron system (eV)
  ---------------------------------------------------
  alpha Z        PSCENC =       620.95558523
  Ewald energy   TEWEN  =    -10675.76284260
  -Hartree energ DENC   =     -4372.91110946
  -exchange      EXHF   =         0.00000000
  -V(xc)+E(xc)   XCENC  =       467.91655535
  PAW double counting   =     13707.12970860   -14183.83269419
  entropy T*S    EENTRO =        -0.00000000
  eigenvalues    EBANDS =     -1333.24204754
  atomic energy  EATOM  =     15733.64188381
  Solvation  Ediel_sol  =         0.00000000
  ---------------------------------------------------
  free energy    TOTEN  =       -36.10496080 eV

  energy without entropy =      -36.10496080  energy(sigma->0) =      -36.10496080


--------------------------------------------------------------------------------------------------------




--------------------------------------- Iteration      1(   8)  ---------------------------------------


    POTLOK:  cpu time    0.1450: real time    0.2913
    SETDIJ:  cpu time    0.0150: real time    0.0149
     EDDAV:  cpu time   11.5172: real time   11.5285
       DOS:  cpu time    0.0010: real time    0.0023
    CHARGE:  cpu time    0.2870: real time    0.2866
    MIXING:  cpu time    0.0010: real time    0.0015
    --------------------------------------------
      LOOP:  cpu time   11.9662: real time   12.1251

 eigenvalue-minimisations  : 13440
 total energy-change (2. order) :-0.7994479E+00  (-0.1630889E+00)
 number of electron      88.0000189 magnetization       0.0000000
 augmentation part       40.5373353 magnetization       0.0000000

 Broyden mixing:
  rms(total) = 0.11434E+01    rms(broyden)= 0.11431E+01
  rms(prec ) = 0.12205E+01
  weight for this iteration     100.00

 eigenvalues of (default mixing * dielectric matrix)
  average eigenvalue GAMMA=   1.0476
  1.7367  0.8366  0.5696

 Free energy of the ion-electron system (eV)
  ---------------------------------------------------
  alpha Z        PSCENC =       620.95558523
  Ewald energy   TEWEN  =    -10675.76284260
  -Hartree energ DENC   =     -4369.78253394
  -exchange      EXHF   =         0.00000000
  -V(xc)+E(xc)   XCENC  =       467.99416736
  PAW double counting   =     14057.22335516   -14536.34079639
  entropy T*S    EENTRO =        -0.00000000
  eigenvalues    EBANDS =     -1334.83322737
  atomic energy  EATOM  =     15733.64188381
  Solvation  Ediel_sol  =         0.00000000
  ---------------------------------------------------
  free energy    TOTEN  =       -36.90440873 eV

  energy without entropy =      -36.90440873  energy(sigma->0) =      -36.90440873


--------------------------------------------------------------------------------------------------------




--------------------------------------- Iteration      1(   9)  ---------------------------------------


    POTLOK:  cpu time    0.0460: real time    0.0885
    SETDIJ:  cpu time    0.0140: real time    0.0145
     EDDAV:  cpu time   10.6094: real time   10.6221
       DOS:  cpu time    0.0020: real time    0.0023
    CHARGE:  cpu time    0.2870: real time    0.2877
    MIXING:  cpu time    0.0020: real time    0.0015
    --------------------------------------------
      LOOP:  cpu time   10.9603: real time   11.0167

 eigenvalue-minimisations  : 11968
 total energy-change (2. order) :-0.4525099E+00  (-0.1707864E-01)
 number of electron      88.0000189 magnetization       0.0000000
 augmentation part       40.5764574 magnetization       0.0000000

 Broyden mixing:
  rms(total) = 0.25052E+00    rms(broyden)= 0.25045E+00
  rms(prec ) = 0.28312E+00
  weight for this iteration     100.00

 eigenvalues of (default mixing * dielectric matrix)
  average eigenvalue GAMMA=   1.1383
  2.4613  0.7065  0.7065  0.6787

 Free energy of the ion-electron system (eV)
  ---------------------------------------------------
  alpha Z        PSCENC =       620.95558523
  Ewald energy   TEWEN  =    -10675.76284260
  -Hartree energ DENC   =     -4356.24233815
  -exchange      EXHF   =         0.00000000
  -V(xc)+E(xc)   XCENC  =       468.01374708
  PAW double counting   =     14429.45989338   -14913.64635147
  entropy T*S    EENTRO =        -0.00000000
  eigenvalues    EBANDS =     -1343.77649590
  atomic energy  EATOM  =     15733.64188381
  Solvation  Ediel_sol  =         0.00000000
  ---------------------------------------------------
  free energy    TOTEN  =       -37.35691862 eV

  energy without entropy =      -37.35691862  energy(sigma->0) =      -37.35691862


--------------------------------------------------------------------------------------------------------




--------------------------------------- Iteration      1(  10)  ---------------------------------------


    POTLOK:  cpu time    0.0480: real time    0.0866
    SETDIJ:  cpu time    0.0140: real time    0.0145
     EDDAV:  cpu time   11.3943: real time   11.4076
       DOS:  cpu time    0.0020: real time    0.0024
    CHARGE:  cpu time    0.2860: real time    0.2865
    MIXING:  cpu time    0.0020: real time    0.0016
    --------------------------------------------
      LOOP:  cpu time   11.7462: real time   11.7993

 eigenvalue-minimisations  : 13200
 total energy-change (2. order) :-0.5419430E-01  (-0.1531949E-01)
 number of electron      88.0000189 magnetization       0.0000000
 augmentation part       40.5933623 magnetization       0.0000000

 Broyden mixing:
  rms(total) = 0.55866E-01    rms(broyden)= 0.55845E-01
  rms(prec ) = 0.66319E-01
  weight for this iteration     100.00

 eigenvalues of (default mixing * dielectric matrix)
  average eigenvalue GAMMA=   1.0688
  2.4781  0.8222  0.7089  0.7089  0.6259

 Free energy of the ion-electron system (eV)
  ---------------------------------------------------
  alpha Z        PSCENC =       620.95558523
  Ewald energy   TEWEN  =    -10675.76284260
  -Hartree energ DENC   =     -4352.66113634
  -exchange      EXHF   =         0.00000000
  -V(xc)+E(xc)   XCENC  =       467.94496862
  PAW double counting   =     14544.01318902   -15030.55961009
  entropy T*S    EENTRO =        -0.00000000
  eigenvalues    EBANDS =     -1344.98315057
  atomic energy  EATOM  =     15733.64188381
  Solvation  Ediel_sol  =         0.00000000
  ---------------------------------------------------
  free energy    TOTEN  =       -37.41111292 eV

  energy without entropy =      -37.41111292  energy(sigma->0) =      -37.41111292


--------------------------------------------------------------------------------------------------------




--------------------------------------- Iteration      1(  11)  ---------------------------------------


    POTLOK:  cpu time    0.0470: real time    0.0906
    SETDIJ:  cpu time    0.0130: real time    0.0147
     EDDAV:  cpu time    9.4676: real time    9.4778
       DOS:  cpu time    0.0020: real time    0.0024
    CHARGE:  cpu time    0.2870: real time    0.2870
    MIXING:  cpu time    0.0000: real time    0.0016
    --------------------------------------------
      LOOP:  cpu time    9.8175: real time    9.8743

 eigenvalue-minimisations  : 10688
 total energy-change (2. order) :-0.2443793E-02  (-0.2374086E-02)
 number of electron      88.0000189 magnetization       0.0000000
 augmentation part       40.5776534 magnetization       0.0000000

 Broyden mixing:
  rms(total) = 0.22514E-01    rms(broyden)= 0.22504E-01
  rms(prec ) = 0.26538E-01
  weight for this iteration     100.00

 eigenvalues of (default mixing * dielectric matrix)
  average eigenvalue GAMMA=   1.0660
  2.5011  1.1347  0.7007  0.7007  0.6317  0.7272

 Free energy of the ion-electron system (eV)
  ---------------------------------------------------
  alpha Z        PSCENC =       620.95558523
  Ewald energy   TEWEN  =    -10675.76284260
  -Hartree energ DENC   =     -4353.48040450
  -exchange      EXHF   =         0.00000000
  -V(xc)+E(xc)   XCENC  =       467.95517483
  PAW double counting   =     14532.31765467   -15018.75785575
  entropy T*S    EENTRO =        -0.00000000
  eigenvalues    EBANDS =     -1344.28275241
  atomic energy  EATOM  =     15733.64188381
  Solvation  Ediel_sol  =         0.00000000
  ---------------------------------------------------
  free energy    TOTEN  =       -37.41355672 eV

  energy without entropy =      -37.41355672  energy(sigma->0) =      -37.41355672


--------------------------------------------------------------------------------------------------------




--------------------------------------- Iteration      1(  12)  ---------------------------------------


    POTLOK:  cpu time    0.1460: real time    0.2918
    SETDIJ:  cpu time    0.0140: real time    0.0146
     EDDAV:  cpu time    9.9605: real time    9.9726
       DOS:  cpu time    0.0020: real time    0.0024
    CHARGE:  cpu time    0.2860: real time    0.2867
    MIXING:  cpu time    0.0010: real time    0.0017
    --------------------------------------------
      LOOP:  cpu time   10.4094: real time   10.5698

 eigenvalue-minimisations  : 11376
 total energy-change (2. order) :-0.1002336E-02  (-0.6254383E-04)
 number of electron      88.0000189 magnetization      -0.0000000
 augmentation part       40.5794833 magnetization      -0.0000000

 Broyden mixing:
  rms(total) = 0.12342E-01    rms(broyden)= 0.12340E-01
  rms(prec ) = 0.14752E-01
  weight for this iteration     100.00

 eigenvalues of (default mixing * dielectric matrix)
  average eigenvalue GAMMA=   1.0783
  2.5297  1.3746  0.9002  0.7396  0.7396  0.6323  0.6323

 Free energy of the ion-electron system (eV)
  ---------------------------------------------------
  alpha Z        PSCENC =       620.95558523
  Ewald energy   TEWEN  =    -10675.76284260
  -Hartree energ DENC   =     -4353.18776881
  -exchange      EXHF   =         0.00000000
  -V(xc)+E(xc)   XCENC  =       467.94451770
  PAW double counting   =     14530.67649114   -15017.13509118
  entropy T*S    EENTRO =        -0.00000000
  eigenvalues    EBANDS =     -1344.54733435
  atomic energy  EATOM  =     15733.64188381
  Solvation  Ediel_sol  =         0.00000000
  ---------------------------------------------------
  free energy    TOTEN  =       -37.41455905 eV

  energy without entropy =      -37.41455905  energy(sigma->0) =      -37.41455905


--------------------------------------------------------------------------------------------------------




--------------------------------------- Iteration      1(  13)  ---------------------------------------


    POTLOK:  cpu time    0.0900: real time    0.1769
    SETDIJ:  cpu time    0.0150: real time    0.0150
     EDDAV:  cpu time   10.7034: real time   10.7161
       DOS:  cpu time    0.0010: real time    0.0023
    CHARGE:  cpu time    0.2880: real time    0.2875
    MIXING:  cpu time    0.0010: real time    0.0017
    --------------------------------------------
      LOOP:  cpu time   11.0973: real time   11.1994

 eigenvalue-minimisations  : 12368
 total energy-change (2. order) :-0.3775182E-03  (-0.2087330E-04)
 number of electron      88.0000189 magnetization      -0.0000000
 augmentation part       40.5804101 magnetization      -0.0000000

 Broyden mixing:
  rms(total) = 0.57813E-02    rms(broyden)= 0.57801E-02
  rms(prec ) = 0.62704E-02
  weight for this iteration     100.00

 eigenvalues of (default mixing * dielectric matrix)
  average eigenvalue GAMMA=   1.1922
  2.7223  2.3761  1.0017  0.7251  0.7251  0.7030  0.6422  0.6422

 Free energy of the ion-electron system (eV)
  ---------------------------------------------------
  alpha Z        PSCENC =       620.95558523
  Ewald energy   TEWEN  =    -10675.76284260
  -Hartree energ DENC   =     -4352.99017857
  -exchange      EXHF   =         0.00000000
  -V(xc)+E(xc)   XCENC  =       467.94764557
  PAW double counting   =     14530.89647709   -15017.36859957
  entropy T*S    EENTRO =        -0.00000000
  eigenvalues    EBANDS =     -1344.73490753
  atomic energy  EATOM  =     15733.64188381
  Solvation  Ediel_sol  =         0.00000000
  ---------------------------------------------------
  free energy    TOTEN  =       -37.41493657 eV

  energy without entropy =      -37.41493657  energy(sigma->0) =      -37.41493657


--------------------------------------------------------------------------------------------------------




--------------------------------------- Iteration      1(  14)  ---------------------------------------


    POTLOK:  cpu time    0.0500: real time    0.2461
    SETDIJ:  cpu time    0.0130: real time    0.0148
     EDDAV:  cpu time   10.3184: real time   10.3364
       DOS:  cpu time    0.0020: real time    0.0023
    CHARGE:  cpu time    0.2870: real time    0.2875
    MIXING:  cpu time    0.0010: real time    0.0017
    --------------------------------------------
      LOOP:  cpu time   10.6724: real time   10.8888

 eigenvalue-minimisations  : 11728
 total energy-change (2. order) :-0.5792421E-04  (-0.1267894E-04)
 number of electron      88.0000189 magnetization       0.0000000
 augmentation part       40.5801957 magnetization       0.0000000

 Broyden mixing:
  rms(total) = 0.11955E-02    rms(broyden)= 0.11917E-02
  rms(prec ) = 0.13298E-02
  weight for this iteration     100.00

 eigenvalues of (default mixing * dielectric matrix)
  average eigenvalue GAMMA=   1.1648
  2.7319  2.4180  0.9729  0.9729  0.7203  0.7203  0.6847  0.6212  0.6414

 Free energy of the ion-electron system (eV)
  ---------------------------------------------------
  alpha Z        PSCENC =       620.95558523
  Ewald energy   TEWEN  =    -10675.76284260
  -Hartree energ DENC   =     -4352.95971194
  -exchange      EXHF   =         0.00000000
  -V(xc)+E(xc)   XCENC  =       467.94942307
  PAW double counting   =     14529.73033493   -15016.18740332
  entropy T*S    EENTRO =        -0.00000000
  eigenvalues    EBANDS =     -1344.78226367
  atomic energy  EATOM  =     15733.64188381
  Solvation  Ediel_sol  =         0.00000000
  ---------------------------------------------------
  free energy    TOTEN  =       -37.41499450 eV

  energy without entropy =      -37.41499450  energy(sigma->0) =      -37.41499450


--------------------------------------------------------------------------------------------------------




--------------------------------------- Iteration      1(  15)  ---------------------------------------


    POTLOK:  cpu time    0.0580: real time    0.0973
    SETDIJ:  cpu time    0.0150: real time    0.0150
     EDDAV:  cpu time    8.7297: real time    8.7402
       DOS:  cpu time    0.0020: real time    0.0023
    CHARGE:  cpu time    0.2870: real time    0.2875
    MIXING:  cpu time    0.0010: real time    0.0017
    --------------------------------------------
      LOOP:  cpu time    9.0926: real time    9.1440

 eigenvalue-minimisations  :  9472
 total energy-change (2. order) :-0.1641674E-05  (-0.7356742E-06)
 number of electron      88.0000189 magnetization      -0.0000000
 augmentation part       40.5801469 magnetization      -0.0000000

 Broyden mixing:
  rms(total) = 0.62324E-03    rms(broyden)= 0.62287E-03
  rms(prec ) = 0.73906E-03
  weight for this iteration     100.00

 eigenvalues of (default mixing * dielectric matrix)
  average eigenvalue GAMMA=   1.1670
  2.7419  2.4218  1.0773  1.0773  0.9596  0.7323  0.7323  0.6611  0.6611  0.6056

 Free energy of the ion-electron system (eV)
  ---------------------------------------------------
  alpha Z        PSCENC =       620.95558523
  Ewald energy   TEWEN  =    -10675.76284260
  -Hartree energ DENC   =     -4352.96146118
  -exchange      EXHF   =         0.00000000
  -V(xc)+E(xc)   XCENC  =       467.94935099
  PAW double counting   =     14529.58469391   -15016.03760592
  entropy T*S    EENTRO =        -0.00000000
  eigenvalues    EBANDS =     -1344.78460038
  atomic energy  EATOM  =     15733.64188381
  Solvation  Ediel_sol  =         0.00000000
  ---------------------------------------------------
  free energy    TOTEN  =       -37.41499614 eV

  energy without entropy =      -37.41499614  energy(sigma->0) =      -37.41499614


--------------------------------------------------------------------------------------------------------




--------------------------------------- Iteration      1(  16)  ---------------------------------------


    POTLOK:  cpu time    0.0510: real time    0.1049
    SETDIJ:  cpu time    0.0140: real time    0.0150
     EDDAV:  cpu time    6.5430: real time    6.5496
       DOS:  cpu time    0.0020: real time    0.0023
    --------------------------------------------
      LOOP:  cpu time    6.6090: real time    6.6717

 eigenvalue-minimisations  :  6112
 total energy-change (2. order) :-0.1732169E-06  (-0.3998008E-07)
 number of electron      88.0000189 magnetization      -0.0000000
 augmentation part       40.5801469 magnetization      -0.0000000

 Free energy of the ion-electron system (eV)
  ---------------------------------------------------
  alpha Z        PSCENC =       620.95558523
  Ewald energy   TEWEN  =    -10675.76284260
  -Hartree energ DENC   =     -4352.95719802
  -exchange      EXHF   =         0.00000000
  -V(xc)+E(xc)   XCENC  =       467.94941660
  PAW double counting   =     14529.60834741   -15016.05433220
  entropy T*S    EENTRO =        -0.00000000
  eigenvalues    EBANDS =     -1344.79585653
  atomic energy  EATOM  =     15733.64188381
  Solvation  Ediel_sol  =         0.00000000
  ---------------------------------------------------
  free energy    TOTEN  =       -37.41499631 eV

  energy without entropy =      -37.41499631  energy(sigma->0) =      -37.41499631


--------------------------------------------------------------------------------------------------------




 average (electrostatic) potential at core
  the test charge radii are     0.8614  0.7215
  (the norm of the test charge is              1.0000)
       1 -80.9774       2 -80.9774       3 -80.9774       4 -80.9774       5 -68.3122
       6 -68.3122       7 -68.3122       8 -68.3122
 
 
 
 E-fermi :   6.6046     XC(G=0): -12.9529     alpha+bet :-12.9968

 Fermi energy:         6.6045774910

 spin component 1

 k-point     1 :       0.0625    0.0625    0.0625
  band No.  band energies     occupation 
      1     -58.4188      1.00000
      2     -58.4181      1.00000
      3     -58.4154      1.00000
      4     -58.4129      1.00000
      5     -58.4064      1.00000
      6     -58.4056      1.00000
      7     -56.2598      1.00000
      8     -56.2590      1.00000
      9     -56.2541      1.00000
     10     -56.2515      1.00000
     11     -56.2458      1.00000
     12     -56.2449      1.00000
     13     -12.7633      1.00000
     14     -11.4571      1.00000
     15     -11.3306      1.00000
     16     -11.2056      1.00000
     17       0.3238      1.00000
     18       0.3332      1.00000
     19       0.3664      1.00000
     20       0.4526      1.00000
     21       0.8192      1.00000
     22       0.8720      1.00000
     23       0.9221      1.00000
     24       0.9635      1.00000
     25       0.9990      1.00000
     26       1.3381      1.00000
     27       1.5351      1.00000
     28       1.5393      1.00000
     29       2.0856      1.00000
     30       2.1503      1.00000
     31       2.7822      1.00000
     32       2.9067      1.00000
     33       2.9786      1.00000
     34       2.9816      1.00000
     35       3.2048      1.00000
     36       3.3355      1.00000
     37       3.3441      1.00000
     38       3.3736      1.00000
     39       3.4325      1.00000
     40       3.4563      1.00000
     41       3.5752      1.00000
     42       4.4470      1.00000
     43       4.6926      1.00000
     44       4.7026      1.00000
     45       8.7705      0.00000
     46       9.0036      0.00000
     47       9.1005      0.00000
     48       9.1439      0.00000
     49       9.3092      0.00000
     50      13.2264      0.00000
     51      13.4781      0.00000
     52      13.7195      0.00000
     53      17.9791      0.00000
     54      17.9827      0.00000
     55      17.9844      0.00000
     56      18.2532      0.00000
     57      18.2564      0.00000
     58      18.2585      0.00000
     59      23.2503      0.00000
     60      23.7373      0.00000
     61      23.8369      0.00000
     62      23.8872      0.00000
     63      23.9307      0.00000
     64      23.9585      0.00000

 k-point     2 :       0.1875    0.0625    0.0625
  band No.  band energies     occupation 
      1     -58.4183      1.00000
      2     -58.4165      1.00000
      3     -58.4151      1.00000
      4     -58.4130      1.00000
      5     -58.4078      1.00000
      6     -58.4061      1.00000
      7     -56.2593      1.00000
      8     -56.2572      1.00000
      9     -56.2538      1.00000
     10     -56.2516      1.00000
     11     -56.2474      1.00000
     12     -56.2454      1.00000
     13     -12.6422      1.00000
     14     -11.4837      1.00000
     15     -11.2960      1.00000
     16     -11.2321      1.00000
     17      -0.1849      1.00000
     18       0.1295      1.00000
     19       0.3188      1.00000
     20       0.3278      1.00000
     21       0.6799      1.00000
     22       0.7804      1.00000
     23       0.9518      1.00000
     24       0.9558      1.00000
     25       0.9984      1.00000
     26       1.4847      1.00000
     27       1.4875      1.00000
     28       1.5923      1.00000
     29       2.0383      1.00000
     30       2.0769      1.00000
     31       2.4913      1.00000
     32       2.8945      1.00000
     33       2.9849      1.00000
     34       3.0782      1.00000
     35       3.1833      1.00000
     36       3.2959      1.00000
     37       3.3730      1.00000
     38       3.4619      1.00000
     39       3.5061      1.00000
     40       3.8040      1.00000
     41       3.8782      1.00000
     42       4.0806      1.00000
     43       4.7214      1.00000
     44       4.7466      1.00000
     45       8.9146      0.00000
     46       9.1026      0.00000
     47       9.1148      0.00000
     48       9.4384      0.00000
     49       9.9591      0.00000
     50      13.5480      0.00000
     51      13.9715      0.00000
     52      14.1120      0.00000
     53      17.8882      0.00000
     54      17.8892      0.00000
     55      17.9404      0.00000
     56      18.0695      0.00000
     57      18.0725      0.00000
     58      18.4271      0.00000
     59      22.0198      0.00000
     60      23.1163      0.00000
     61      23.1383      0.00000
     62      23.7017      0.00000
     63      23.8805      0.00000
     64      24.3522      0.00000

 k-point     3 :       0.0625    0.1875    0.0625
  band No.  band energies     occupation 
      1     -58.4187      1.00000
      2     -58.4181      1.00000
      3     -58.4153      1.00000
      4     -58.4130      1.00000
      5     -58.4062      1.00000
      6     -58.4056      1.00000
      7     -56.2596      1.00000
      8     -56.2590      1.00000
      9     -56.2540      1.00000
     10     -56.2516      1.00000
     11     -56.2455      1.00000
     12     -56.2448      1.00000
     13     -12.6435      1.00000
     14     -11.4329      1.00000
     15     -11.4162      1.00000
     16     -11.1596      1.00000
     17      -0.2230      1.00000
     18       0.2171      1.00000
     19       0.3053      1.00000
     20       0.4504      1.00000
     21       0.5021      1.00000
     22       0.7849      1.00000
     23       0.8466      1.00000
     24       0.8713      1.00000
     25       1.2363      1.00000
     26       1.4114      1.00000
     27       1.4913      1.00000
     28       1.5977      1.00000
     29       2.0940      1.00000
     30       2.1405      1.00000
     31       2.6912      1.00000
     32       2.7088      1.00000
     33       2.8678      1.00000
     34       2.8743      1.00000
     35       3.0147      1.00000
     36       3.3526      1.00000
     37       3.4588      1.00000
     38       3.6228      1.00000
     39       3.7360      1.00000
     40       3.7799      1.00000
     41       3.7866      1.00000
     42       4.0691      1.00000
     43       4.7142      1.00000
     44       4.7444      1.00000
     45       8.7689      0.00000
     46       9.1198      0.00000
     47       9.3101      0.00000
     48       9.3708      0.00000
     49       9.9484      0.00000
     50      13.7018      0.00000
     51      13.7281      0.00000
     52      14.2028      0.00000
     53      17.8752      0.00000
     54      17.9015      0.00000
     55      17.9389      0.00000
     56      18.0592      0.00000
     57      18.0880      0.00000
     58      18.4217      0.00000
     59      22.0234      0.00000
     60      22.9795      0.00000
     61      23.2908      0.00000
     62      23.6972      0.00000
     63      23.8798      0.00000
     64      24.3610      0.00000

 k-point     4 :       0.3125    0.0625    0.0625
  band No.  band energies     occupation 
      1     -58.4170      1.00000
      2     -58.4147      1.00000
      3     -58.4145      1.00000
      4     -58.4134      1.00000
      5     -58.4101      1.00000
      6     -58.4074      1.00000
      7     -56.2578      1.00000
      8     -56.2549      1.00000
      9     -56.2534      1.00000
     10     -56.2521      1.00000
     11     -56.2499      1.00000
     12     -56.2468      1.00000
     13     -12.4208      1.00000
     14     -11.6140      1.00000
     15     -11.2460      1.00000
     16     -11.2274      1.00000
     17      -0.6218      1.00000
     18      -0.3382      1.00000
     19       0.3083      1.00000
     20       0.3129      1.00000
     21       0.5319      1.00000
     22       0.5982      1.00000
     23       0.9329      1.00000
     24       0.9519      1.00000
     25       1.0715      1.00000
     26       1.3917      1.00000
     27       1.5235      1.00000
     28       1.6568      1.00000
     29       1.9012      1.00000
     30       2.0293      1.00000
     31       2.2322      1.00000
     32       2.8010      1.00000
     33       2.9080      1.00000
     34       2.9830      1.00000
     35       3.2412      1.00000
     36       3.2447      1.00000
     37       3.4608      1.00000
     38       3.4641      1.00000
     39       3.7289      1.00000
     40       4.0069      1.00000
     41       4.1851      1.00000
     42       4.2198      1.00000
     43       4.7257      1.00000
     44       4.7842      1.00000
     45       8.9791      0.00000
     46       9.0994      0.00000
     47       9.3012      0.00000
     48       9.5670      0.00000
     49      11.1872      0.00000
     50      13.7687      0.00000
     51      14.8523      0.00000
     52      14.9056      0.00000
     53      17.6884      0.00000
     54      17.6903      0.00000
     55      17.9009      0.00000
     56      17.9015      0.00000
     57      18.2126      0.00000
     58      18.7687      0.00000
     59      20.8829      0.00000
     60      21.9452      0.00000
     61      21.9848      0.00000
     62      23.3301      0.00000
     63      23.5254      0.00000
     64      23.7938      0.00000

 k-point     5 :       0.0625    0.3125    0.0625
  band No.  band energies     occupation 
      1     -58.4188      1.00000
      2     -58.4181      1.00000
      3     -58.4153      1.00000
      4     -58.4131      1.00000
      5     -58.4062      1.00000
      6     -58.4056      1.00000
      7     -56.2598      1.00000
      8     -56.2590      1.00000
      9     -56.2541      1.00000
     10     -56.2516      1.00000
     11     -56.2455      1.00000
     12     -56.2448      1.00000
     13     -12.4258      1.00000
     14     -11.5868      1.00000
     15     -11.3985      1.00000
     16     -11.0930      1.00000
     17      -0.6587      1.00000
     18      -0.2427      1.00000
     19       0.2722      1.00000
     20       0.4019      1.00000
     21       0.4467      1.00000
     22       0.6293      1.00000
     23       0.7342      1.00000
     24       0.8811      1.00000
     25       1.1603      1.00000
     26       1.4259      1.00000
     27       1.4615      1.00000
     28       1.7312      1.00000
[...]
     30       2.0122      1.00000
     31       2.9471      1.00000
     32       2.9609      1.00000
     33       3.4548      1.00000
     34       3.4652      1.00000
     35       3.4842      1.00000
     36       3.5291      1.00000
     37       3.7364      1.00000
     38       3.7372      1.00000
     39       4.0024      1.00000
     40       4.0140      1.00000
     41       5.6828      1.00000
     42       5.6940      1.00000
     43       6.0718      1.00000
     44       6.1473      1.00000
     45      10.2377      0.00000
     46      10.2434      0.00000
     47      10.7054      0.00000
     48      10.7521      0.00000
     49      12.9151      0.00000
     50      13.4448      0.00000
     51      13.4493      0.00000
     52      13.6825      0.00000
     53      17.0990      0.00000
     54      17.1148      0.00000
     55      17.4247      0.00000
     56      17.5537      0.00000
     57      19.8700      0.00000
     58      20.1530      0.00000
     59      20.2889      0.00000
     60      21.0843      0.00000
     61      21.4119      0.00000
     62      21.4272      0.00000
     63      21.7190      0.00000
     64      21.7842      0.00000

 k-point    40 :       0.4375    0.4375    0.4375
  band No.  band energies     occupation 
      1     -58.4203      1.00000
      2     -58.4199      1.00000
      3     -58.4143      1.00000
      4     -58.4143      1.00000
      5     -58.4048      1.00000
      6     -58.4045      1.00000
      7     -56.2614      1.00000
      8     -56.2608      1.00000
      9     -56.2530      1.00000
     10     -56.2528      1.00000
     11     -56.2440      1.00000
     12     -56.2436      1.00000
     13     -11.4405      1.00000
     14     -11.4002      1.00000
     15     -11.3051      1.00000
     16     -11.2778      1.00000
     17      -1.3439      1.00000
     18      -1.3259      1.00000
     19      -1.2947      1.00000
     20      -1.2521      1.00000
     21      -0.8445      1.00000
     22      -0.8382      1.00000
     23      -0.8357      1.00000
     24      -0.8289      1.00000
     25       1.3134      1.00000
     26       1.3499      1.00000
     27       1.8359      1.00000
     28       1.8443      1.00000
     29       2.0143      1.00000
     30       2.0433      1.00000
     31       2.9397      1.00000
     32       2.9575      1.00000
     33       3.3236      1.00000
     34       3.3473      1.00000
     35       3.5954      1.00000
     36       3.6495      1.00000
     37       3.8419      1.00000
     38       3.8463      1.00000
     39       4.0554      1.00000
     40       4.0626      1.00000
     41       6.1301      1.00000
     42       6.1644      1.00000
     43       6.1666      1.00000
     44       6.2099      1.00000
     45      10.6930      0.00000
     46      10.7080      0.00000
     47      10.7263      0.00000
     48      10.7543      0.00000
     49      12.7210      0.00000
     50      12.9700      0.00000
     51      13.0200      0.00000
     52      13.0623      0.00000
     53      17.1596      0.00000
     54      17.2083      0.00000
     55      17.4914      0.00000
     56      17.5420      0.00000
     57      20.6159      0.00000
     58      20.7504      0.00000
     59      20.8836      0.00000
     60      21.1051      0.00000
     61      21.1901      0.00000
     62      21.3018      0.00000
     63      21.3649      0.00000
     64      21.4632      0.00000


--------------------------------------------------------------------------------------------------------


 soft charge-density along one line, spin component           1
         0         1         2         3         4         5         6         7         8         9
 total charge-density along one line
 
 soft charge-density along one line, spin component           2
         0         1         2         3         4         5         6         7         8         9
 total charge-density along one line
 
 pseudopotential strength for first ion, spin component:           1
-62.094  -0.000   0.000  10.628   0.000  -0.000  -0.000   0.000
 -0.000 -62.093  -0.000   0.000  10.627   0.000  -0.000  -0.000
  0.000  -0.000 -62.093  -0.000   0.000  10.627  -0.000  -0.000
 10.628   0.000  -0.000   5.322  -0.000   0.000   0.000  -0.000
  0.000  10.627   0.000  -0.000   5.322  -0.000   0.000   0.000
 -0.000   0.000  10.627   0.000  -0.000   5.322   0.000   0.000
 -0.000  -0.000  -0.000   0.000   0.000   0.000  -9.741  -0.000
  0.000  -0.000  -0.000  -0.000   0.000   0.000  -0.000  -9.741
  0.000   0.000   0.000  -0.000  -0.000  -0.000  -0.000   0.000
 -0.000  -0.000   0.000   0.000   0.000  -0.000  -0.000   0.000
  0.000   0.000  -0.000  -0.000  -0.000   0.000  -0.000   0.000
 -0.000  -0.000  -0.000   0.000   0.000   0.000 -10.389  -0.000
  0.000  -0.000  -0.000  -0.000   0.000   0.000  -0.000 -10.389
  0.000   0.000   0.000  -0.000  -0.000  -0.000  -0.000   0.000
 -0.000  -0.000   0.000   0.000   0.000  -0.000  -0.000   0.000
  0.000   0.000  -0.000  -0.000  -0.000   0.000  -0.000   0.000
  0.000  -0.000   0.000   0.000  -0.000   0.000  -0.000   0.000
  0.000  -0.000   0.000   0.000  -0.000   0.000  -0.000   0.000
 pseudopotential strength for first ion, spin component:           2
-60.613   0.000   0.000   9.954  -0.000  -0.000  -0.000   0.000
  0.000 -60.613  -0.000  -0.000   9.954   0.000   0.000  -0.000
  0.000  -0.000 -60.613  -0.000   0.000   9.954  -0.000   0.000
  9.954  -0.000  -0.000   5.552   0.000   0.000   0.000  -0.000
 -0.000   9.954   0.000   0.000   5.552  -0.000  -0.000   0.000
 -0.000   0.000   9.954   0.000  -0.000   5.552   0.000  -0.000
 -0.000   0.000  -0.000   0.000  -0.000   0.000  -8.744  -0.000
  0.000  -0.000   0.000  -0.000   0.000  -0.000  -0.000  -8.744
  0.000   0.000   0.000  -0.000  -0.000  -0.000  -0.000   0.000
  0.000  -0.000   0.000  -0.000   0.000  -0.000   0.000   0.000
  0.000   0.000  -0.000  -0.000  -0.000   0.000  -0.000  -0.000
 -0.000   0.000  -0.000   0.000  -0.000   0.000  -9.403  -0.000
  0.000  -0.000   0.000  -0.000   0.000  -0.000  -0.000  -9.403
  0.000   0.000   0.000  -0.000  -0.000  -0.000  -0.000   0.000
  0.000  -0.000   0.000  -0.000   0.000  -0.000   0.000   0.000
  0.000   0.000  -0.000  -0.000  -0.000   0.000  -0.000  -0.000
  0.000  -0.000   0.000   0.000  -0.000   0.000  -0.000  -0.000
  0.000  -0.000   0.000   0.000  -0.000   0.000  -0.000  -0.000
 total augmentation occupancy for first ion, spin component:           1
  1.996  -0.000  -0.000  -0.020  -0.000   0.000   0.000   0.000   0.000   0.000   0.000   0.000   0.000   0.000  -0.000   0.000
 -0.000   1.996  -0.000   0.000  -0.020   0.000  -0.000   0.000   0.000   0.000   0.000  -0.000   0.000   0.000  -0.000  -0.000
 -0.000  -0.000   1.996   0.000   0.000  -0.020  -0.000   0.000  -0.000   0.000   0.000   0.000   0.000  -0.000   0.000   0.000
 -0.020   0.000   0.000   0.096  -0.000   0.000   0.000  -0.000   0.000   0.000   0.000  -0.000   0.000   0.000   0.000  -0.000
 -0.000  -0.020   0.000  -0.000   0.096   0.000  -0.000  -0.000   0.000   0.000  -0.000   0.000  -0.000  -0.000   0.000  -0.000
  0.000   0.000  -0.020   0.000   0.000   0.096   0.000   0.000  -0.000   0.000  -0.000  -0.000   0.000  -0.000   0.000  -0.000
  0.000  -0.000  -0.000   0.000  -0.000   0.000   5.186   0.000   0.000  -0.000  -0.000  -2.549  -0.000  -0.000   0.000   0.000
  0.000   0.000   0.000  -0.000  -0.000   0.000   0.000   5.186  -0.000  -0.000   0.000  -0.000  -2.549   0.000   0.000   0.000
  0.000  -0.000  -0.000   0.000   0.000   0.000   0.000  -0.000   8.810   0.000   0.005   0.000  -0.000  -6.988  -0.000  -0.005
  0.000   0.000   0.000   0.000   0.000   0.000  -0.000  -0.000   0.000   5.184  -0.000  -0.000   0.000  -0.000  -2.547   0.000
  0.000   0.000   0.000   0.000   0.000  -0.000  -0.000   0.000   0.005  -0.000   8.816  -0.000  -0.000  -0.005   0.000  -6.994
  0.000  -0.000   0.000  -0.000   0.000  -0.000  -2.549  -0.000  -0.000  -0.000  -0.000   2.022   0.000   0.000   0.000   0.000
  0.000   0.000   0.000   0.000  -0.000   0.000  -0.000  -2.549  -0.000   0.000   0.000   0.000   2.022  -0.000   0.000   0.000
  0.000   0.000  -0.000   0.000  -0.000   0.000  -0.000   0.000  -6.988  -0.000  -0.005  -0.000  -0.000   6.366   0.000   0.005
 -0.000  -0.000   0.000   0.000   0.000   0.000   0.000   0.000  -0.000  -2.547  -0.000   0.000   0.000   0.000   2.020   0.000
  0.000   0.000   0.000   0.000  -0.000   0.000  -0.000   0.000  -0.005   0.000  -6.994   0.000   0.000   0.005   0.000   6.372
  0.000   0.000  -0.000  -0.000  -0.000   0.000   0.000   0.000   0.004   0.000   0.007  -0.000  -0.000  -0.003   0.000  -0.004
  0.000   0.000   0.000   0.000  -0.000  -0.000   0.000   0.000  -0.000   0.000  -0.000   0.000  -0.000   0.000   0.000   0.000
 total augmentation occupancy for first ion, spin component:           2
 -0.001   0.000   0.000  -0.006  -0.000  -0.000  -0.000   0.000   0.000   0.000  -0.000   0.000   0.000  -0.000   0.000   0.000
  0.000  -0.001  -0.000  -0.000  -0.006   0.000   0.000   0.000  -0.000  -0.000  -0.000   0.000  -0.000   0.000  -0.000   0.000
  0.000  -0.000  -0.001   0.000  -0.000  -0.006   0.000  -0.000   0.000  -0.000   0.000  -0.000  -0.000   0.000   0.000   0.000
 -0.006  -0.000   0.000   0.007   0.000   0.000   0.000   0.000  -0.000   0.000  -0.000   0.000  -0.000   0.000  -0.000   0.000
 -0.000  -0.006  -0.000   0.000   0.006  -0.000  -0.000  -0.000   0.000   0.000   0.000   0.000   0.000   0.000   0.000   0.000
 -0.000   0.000  -0.006   0.000  -0.000   0.006   0.000   0.000   0.000  -0.000   0.000  -0.000   0.000   0.000  -0.000  -0.000
 -0.000   0.000   0.000   0.000  -0.000   0.000   0.815   0.000  -0.000  -0.000   0.000  -0.500   0.000  -0.000   0.000  -0.000
  0.000   0.000  -0.000   0.000  -0.000   0.000   0.000   0.815   0.000   0.000  -0.000  -0.000  -0.500   0.000   0.000  -0.000
  0.000  -0.000   0.000  -0.000   0.000   0.000  -0.000   0.000   7.189  -0.000   0.002   0.000   0.000  -4.888   0.000  -0.002
  0.000  -0.000  -0.000   0.000   0.000  -0.000  -0.000   0.000  -0.000   0.769   0.000   0.000   0.000  -0.000  -0.458   0.000
  0.000  -0.000   0.000   0.000  -0.000   0.000   0.000  -0.000   0.002   0.000   7.190  -0.000   0.000  -0.002  -0.000  -4.891
  0.000   0.000  -0.000   0.000   0.000  -0.000  -0.500  -0.000   0.000   0.000   0.000   0.205   0.000  -0.000   0.000   0.000
  0.000  -0.000  -0.000  -0.000   0.000   0.000   0.000  -0.500   0.000   0.000   0.000   0.000   0.205  -0.000   0.000   0.000
 -0.000  -0.000   0.000   0.000   0.000   0.000  -0.000  -0.000  -4.888  -0.000  -0.002  -0.000   0.000   3.597  -0.000   0.004
  0.000  -0.000   0.000  -0.000   0.000  -0.000   0.000   0.000   0.000  -0.458  -0.000   0.000   0.000  -0.000   0.165   0.000
 -0.000   0.000   0.000   0.000   0.000  -0.000  -0.000   0.000  -0.002   0.000  -4.891   0.000   0.000   0.004   0.000   3.601
  0.000   0.000   0.000  -0.000  -0.000  -0.000  -0.000  -0.000   0.004   0.000   0.007   0.000  -0.000  -0.004  -0.000  -0.008
  0.000  -0.000   0.000  -0.000   0.000   0.000  -0.000   0.000  -0.000  -0.000  -0.000  -0.000   0.000   0.000   0.000   0.000


------------------------ aborting loop because EDIFF is reached ----------------------------------------





 total charge

# of ion       s       p       d       tot
------------------------------------------
    1        0.219   6.188   7.910  14.317
    2        0.219   6.188   7.910  14.317
    3        0.219   6.188   7.910  14.317
    4        0.219   6.188   7.910  14.317
    5        1.550   3.493   0.000   5.042
    6        1.550   3.493   0.000   5.042
    7        1.550   3.493   0.000   5.042
    8        1.550   3.493   0.000   5.042
--------------------------------------------------
tot          7.073  38.724  31.640  77.438



 magnetization (x)

# of ion       s       p       d       tot
------------------------------------------
    1        0.013   0.013   1.769   1.795
    2       -0.013  -0.013  -1.769  -1.795
    3        0.013   0.013   1.769   1.795
    4       -0.013  -0.013  -1.769  -1.795
    5        0.008   0.056   0.000   0.064
    6       -0.008  -0.056   0.000  -0.064
    7        0.008   0.056   0.000   0.064
    8       -0.008  -0.056   0.000  -0.064
--------------------------------------------------
tot          0.000   0.000   0.000   0.000
 
    CHARGE:  cpu time    0.2890: real time    0.2891
    FORLOC:  cpu time    0.0020: real time    0.0022
    FORNL :  cpu time    1.9387: real time    1.9399
    STRESS:  cpu time    5.7941: real time    5.7988
    FORCOR:  cpu time    0.0430: real time    0.0440
    FORHAR:  cpu time    0.0060: real time    0.0053
    MIXING:  cpu time    0.0010: real time    0.0016
    OFIELD:  cpu time    0.0010: real time    0.0003

  FORCE on cell =-STRESS in cart. coord.  units (eV):
  Direction    XX          YY          ZZ          XY          YZ          ZX
  --------------------------------------------------------------------------------------
  Alpha Z   620.95559   620.95559   620.95559
  Ewald   -3558.59198 -3558.59198 -3558.59198     0.00000     0.00000     0.00000
  Hartree  1451.06853  1450.84887  1451.06853    -0.00000    -0.00000    -0.00000
  E(xc)    -595.71596  -595.72177  -595.71596    -0.00000     0.00000     0.00000
  Local     374.64636   375.06254   374.64636    -0.00000     0.00000    -0.00000
  n-local  -455.07182  -455.55272  -455.86552     0.10873     0.07959     0.06664
  augment   743.60415   743.50743   743.60415     0.00000    -0.00000     0.00000
  Kinetic  1420.14470  1422.71309  1425.37259    -2.65201    -2.56278    -2.60152
  Fock        0.00000     0.00000     0.00000     0.00000     0.00000     0.00000
  -------------------------------------------------------------------------------------
  Total       3.25665     3.22104     3.25665     0.00000    -0.00000    -0.00000
  in kB      71.64736    70.86391    71.64736     0.00000    -0.00000    -0.00000
  external pressure =       71.39 kB  Pullay stress =        0.00 kB


 VOLUME and BASIS-vectors are now :
 -----------------------------------------------------------------------------
  energy-cutoff  :      500.00
  volume of cell :       72.83
      direct lattice vectors                 reciprocal lattice vectors
     4.176000000  0.000000000  0.000000000     0.239463602  0.000000000  0.000000000
     0.000000000  4.176000000  0.000000000     0.000000000  0.239463602  0.000000000
     0.000000000  0.000000000  4.176000000     0.000000000  0.000000000  0.239463602

  length of vectors
     4.176000000  4.176000000  4.176000000     0.239463602  0.239463602  0.239463602


 FORCES acting on ions
    electron-ion (+dipol)            ewald-force                    non-local-force                 convergence-correction
 -----------------------------------------------------------------------------------------------
   0.176E-13 0.840E-13 -.225E-13   -.268E-13 -.107E-13 -.212E-13   0.414E-24 -.827E-24 0.827E-24   -.417E-12 0.194E-12 -.522E-12
   0.163E-13 0.768E-12 0.600E-12   -.278E-13 0.248E-13 0.718E-14   0.165E-23 0.000E+00 -.827E-24   -.415E-12 0.193E-12 0.255E-12
   0.679E-12 0.650E-13 -.362E-11   0.219E-13 -.236E-13 0.746E-14   -.124E-23 0.414E-24 -.827E-24   0.497E-12 0.132E-12 0.266E-12
   0.680E-12 0.784E-11 -.346E-11   0.209E-13 0.119E-13 -.133E-13   0.165E-23 0.827E-24 0.217E-23   0.477E-12 0.224E-12 -.505E-12
   0.742E-13 0.255E-13 0.397E-12   0.109E-13 -.483E-14 0.234E-14   0.000E+00 -.100E-24 0.103E-24   0.144E-12 -.137E-14 -.146E-12
   0.766E-13 0.161E-11 -.896E-12   0.107E-13 0.591E-14 0.108E-13   0.207E-24 0.000E+00 0.000E+00   0.135E-12 0.109E-13 0.127E-12
   -.104E-13 0.226E-13 0.362E-13   -.562E-14 -.409E-14 0.107E-13   0.207E-24 -.103E-24 -.297E-24   -.151E-12 -.352E-14 0.133E-12
   -.105E-13 0.111E-12 -.447E-13   -.584E-14 0.665E-14 0.700E-15   0.000E+00 0.000E+00 0.258E-24   -.164E-12 0.297E-14 -.139E-12
 -----------------------------------------------------------------------------------------------
   0.152E-11 0.105E-10 -.701E-11   -.164E-14 0.610E-14 0.467E-14   0.290E-23 0.210E-24 0.141E-23   0.106E-12 0.752E-12 -.530E-12
 
 
 POSITION                                       TOTAL-FORCE (eV/Angst)
 -----------------------------------------------------------------------------------
      0.00000      0.00000      0.00000         0.000000     -0.000000     -0.000000
      0.00000      2.08800      2.08800        -0.000000      0.000000      0.000000
      2.08800      0.00000      2.08800         0.000000     -0.000000     -0.000000
      2.08800      2.08800      0.00000        -0.000000      0.000000      0.000000
      2.08800      0.00000      0.00000         0.000000     -0.000000      0.000000
      2.08800      2.08800      2.08800         0.000000      0.000000     -0.000000
      0.00000      0.00000      2.08800         0.000000     -0.000000     -0.000000
      0.00000      2.08800      0.00000         0.000000     -0.000000      0.000000
 -----------------------------------------------------------------------------------
    total drift:                                0.000000      0.000000     -0.000000


--------------------------------------------------------------------------------------------------------



  FREE ENERGIE OF THE ION-ELECTRON SYSTEM (eV)
  ---------------------------------------------------
  free  energy   TOTEN  =       -37.41499631 eV

  energy  without entropy=      -37.41499631  energy(sigma->0) =      -37.41499631
 


--------------------------------------------------------------------------------------------------------


    POTLOK:  cpu time    0.0620: real time    0.0737


--------------------------------------------------------------------------------------------------------


 writing wavefunctions
     LOOP+:  cpu time  176.1172: real time  187.7186
    4ORBIT:  cpu time    0.0000: real time    0.0000



 total charge

# of ion       s       p       d       tot
------------------------------------------
    1        0.219   6.188   7.910  14.317
    2        0.219   6.188   7.910  14.317
    3        0.219   6.188   7.910  14.317
    4        0.219   6.188   7.910  14.317
    5        1.550   3.493   0.000   5.042
    6        1.550   3.493   0.000   5.042
    7        1.550   3.493   0.000   5.042
    8        1.550   3.493   0.000   5.042
--------------------------------------------------
tot          7.073  38.724  31.640  77.438



 magnetization (x)

# of ion       s       p       d       tot
------------------------------------------
    1        0.013   0.013   1.769   1.795
    2       -0.013  -0.013  -1.769  -1.795
    3        0.013   0.013   1.769   1.795
    4       -0.013  -0.013  -1.769  -1.795
    5        0.008   0.056   0.000   0.064
    6       -0.008  -0.056   0.000  -0.064
    7        0.008   0.056   0.000   0.064
    8       -0.008  -0.056   0.000  -0.064
--------------------------------------------------
tot          0.000   0.000   0.000   0.000
 

 total amount of memory used by VASP MPI-rank0    47991. kBytes
=======================================================================

   base      :      30000. kBytes
   nonlr-proj:       3610. kBytes
   fftplans  :        604. kBytes
   grid      :       3371. kBytes
   one-center:        248. kBytes
   wavefun   :      10158. kBytes
 
  
  
 General timing and accounting informations for this job:
 ========================================================
  
                  Total CPU time used (sec):      187.814
                            User time (sec):      183.528
                          System time (sec):        4.286
                         Elapsed time (sec):      223.519
  
                   Maximum memory used (kb):       65672.
                   Average memory used (kb):          N/A
  
                          Minor page faults:        12900
                          Major page faults:            1
                 Voluntary context switches:       569187
