PROCAR lm decomposed
# of k-points:   40         # of bands:   64         # of ions:    8

 k-point     1 :    0.06250000 0.06250000 0.06250000     weight = 0.01562500

band     1 # energy  -58.41883746 # occ.  1.00000000
 
ion      s     py     pz     px    dxy    dyz    dz2    dxz  x2-y2    tot
    1  0.000  0.000  0.249  0.249  0.000  0.000  0.000  0.000  0.000  0.498
    2  0.000  0.000  0.000  0.000  0.000  0.000  0.000  0.000  0.000  0.000
    3  0.000  0.000  0.249  0.249  0.000  0.000  0.000  0.000  0.000  0.498
    4  0.000  0.000  0.000  0.000  0.000  0.000  0.000  0.000  0.000  0.000
    5  0.000  0.000  0.000  0.000  0.000  0.000  0.000  0.000  0.000  0.000
    6  0.000  0.000  0.000  0.000  0.000  0.000  0.000  0.000  0.000  0.000
    7  0.000  0.000  0.000  0.000  0.000  0.000  0.000  0.000  0.000  0.000
    8  0.000  0.000  0.000  0.000  0.000  0.000  0.000  0.000  0.000  0.000
tot    0.000  0.000  0.498  0.498  0.000  0.000  0.000  0.000  0.000  0.996
 
band     2 # energy  -58.41813414 # occ.  1.00000000
 
ion      s     py     pz     px    dxy    dyz    dz2    dxz  x2-y2    tot
    1  0.000  0.000  0.249  0.249  0.000  0.000  0.000  0.000  0.000  0.498
    2  0.000  0.000  0.000  0.000  0.000  0.000  0.000  0.000  0.000  0.000
    3  0.000  0.000  0.249  0.249  0.000  0.000  0.000  0.000  0.000  0.498
    4  0.000  0.000  0.000  0.000  0.000  0.000  0.000  0.000  0.000  0.000
    5  0.000  0.000  0.000  0.000  0.000  0.000  0.000  0.000  0.000  0.000
    6  0.000  0.000  0.000  0.000  0.000  0.000  0.000  0.000  0.000  0.000
    7  0.000  0.000  0.000  0.000  0.000  0.000  0.000  0.000  0.000  0.000
    8  0.000  0.000  0.000  0.000  0.000  0.000  0.000  0.000  0.000  0.000
tot    0.000  0.000  0.498  0.498  0.000  0.000  0.000  0.000  0.000  0.996
 
band     3 # energy  -58.41542848 # occ.  1.00000000
 
ion      s     py     pz     px    dxy    dyz    dz2    dxz  x2-y2    tot
    1  0.000  0.498  0.000  0.000  0.000  0.000  0.000  0.000  0.000  0.498
    2  0.000  0.000  0.000  0.000  0.000  0.000  0.000  0.000  0.000  0.000
    3  0.000  0.498  0.000  0.000  0.000  0.000  0.000  0.000  0.000  0.498
    4  0.000  0.000  0.000  0.000  0.000  0.000  0.000  0.000  0.000  0.000
    5  0.000  0.000  0.000  0.000  0.000  0.000  0.000  0.000  0.000  0.000
    6  0.000  0.000  0.000  0.000  0.000  0.000  0.000  0.000  0.000  0.000
    7  0.000  0.000  0.000  0.000  0.000  0.000  0.000  0.000  0.000  0.000
    8  0.000  0.000  0.000  0.000  0.000  0.000  0.000  0.000  0.000  0.000
tot    0.000  0.996  0.000  0.000  0.000  0.000  0.000  0.000  0.000  0.996
 
band     4 # energy  -58.41286212 # occ.  1.00000000
 
ion      s     py     pz     px    dxy    dyz    dz2    dxz  x2-y2    tot
    1  0.000  0.498  0.000  0.000  0.000  0.000  0.000  0.000  0.000  0.498
    2  0.000  0.000  0.000  0.000  0.000  0.000  0.000  0.000  0.000  0.000
    3  0.000  0.498  0.000  0.000  0.000  0.000  0.000  0.000  0.000  0.498
    4  0.000  0.000  0.000  0.000  0.000  0.000  0.000  0.000  0.000  0.000
    5  0.000  0.000  0.000  0.000  0.000  0.000  0.000  0.000  0.000  0.000
    6  0.000  0.000  0.000  0.000  0.000  0.000  0.000  0.000  0.000  0.000
    7  0.000  0.000  0.000  0.000  0.000  0.000  0.000  0.000  0.000  0.000
    8  0.000  0.000  0.000  0.000  0.000  0.000  0.000  0.000  0.000  0.000
tot    0.000  0.996  0.000  0.000  0.000  0.000  0.000  0.000  0.000  0.996
 
band     5 # energy  -58.40637950 # occ.  1.00000000
 
ion      s     py     pz     px    dxy    dyz    dz2    dxz  x2-y2    tot
    1  0.000  0.000  0.249  0.249  0.000  0.000  0.000  0.000  0.000  0.498
    2  0.000  0.000  0.000  0.000  0.000  0.000  0.000  0.000  0.000  0.000
    3  0.000  0.000  0.249  0.249  0.000  0.000  0.000  0.000  0.000  0.498
    4  0.000  0.000  0.000  0.000  0.000  0.000  0.000  0.000  0.000  0.000
    5  0.000  0.000  0.000  0.000  0.000  0.000  0.000  0.000  0.000  0.000
    6  0.000  0.000  0.000  0.000  0.000  0.000  0.000  0.000  0.000  0.000
    7  0.000  0.000  0.000  0.000  0.000  0.000  0.000  0.000  0.000  0.000
    8  0.000  0.000  0.000  0.000  0.000  0.000  0.000  0.000  0.000  0.000
tot    0.000  0.000  0.498  0.498  0.000  0.000  0.000  0.000  0.000  0.996
 
band     6 # energy  -58.40561834 # occ.  1.00000000
 
ion      s     py     pz     px    dxy    dyz    dz2    dxz  x2-y2    tot
    1  0.000  0.000  0.249  0.249  0.000  0.000  0.000  0.000  0.000  0.498
    2  0.000  0.000  0.000  0.000  0.000  0.000  0.000  0.000  0.000  0.000
    3  0.000  0.000  0.249  0.249  0.000  0.000  0.000  0.000  0.000  0.498
    4  0.000  0.000  0.000  0.000  0.000  0.000  0.000  0.000  0.000  0.000
    5  0.000  0.000  0.000  0.000  0.000  0.000  0.000  0.000  0.000  0.000
    6  0.000  0.000  0.000  0.000  0.000  0.000  0.000  0.000  0.000  0.000
    7  0.000  0.000  0.000  0.000  0.000  0.000  0.000  0.000  0.000  0.000
    8  0.000  0.000  0.000  0.000  0.000  0.000  0.000  0.000  0.000  0.000
tot    0.000  0.000  0.498  0.498  0.000  0.000  0.000  0.000  0.000  0.996
 
band     7 # energy  -56.25979103 # occ.  1.00000000
 
ion      s     py     pz     px    dxy    dyz    dz2    dxz  x2-y2    tot
    1  0.000  0.000  0.000  0.000  0.000  0.000  0.000  0.000  0.000  0.000
    2  0.000  0.000  0.249  0.249  0.000  0.000  0.000  0.000  0.000  0.498
    3  0.000  0.000  0.000  0.000  0.000  0.000  0.000  0.000  0.000  0.000
    4  0.000  0.000  0.249  0.249  0.000  0.000  0.000  0.000  0.000  0.498
    5  0.000  0.000  0.000  0.000  0.000  0.000  0.000  0.000  0.000  0.000
    6  0.000  0.000  0.000  0.000  0.000  0.000  0.000  0.000  0.000  0.000
    7  0.000  0.000  0.000  0.000  0.000  0.000  0.000  0.000  0.000  0.000
    8  0.000  0.000  0.000  0.000  0.000  0.000  0.000  0.000  0.000  0.000
tot    0.000  0.000  0.498  0.498  0.000  0.000  0.000  0.000  0.000  0.996
 
band     8 # energy  -56.25898722 # occ.  1.00000000
 
ion      s     py     pz     px    dxy    dyz    dz2    dxz  x2-y2    tot
    1  0.000  0.000  0.000  0.000  0.000  0.000  0.000  0.000  0.000  0.000
    2  0.000  0.000  0.249  0.249  0.000  0.000  0.000  0.000  0.000  0.498
    3  0.000  0.000  0.000  0.000  0.000  0.000  0.000  0.000  0.000  0.000
    4  0.000  0.000  0.249  0.249  0.000  0.000  0.000  0.000  0.000  0.498
    5  0.000  0.000  0.000  0.000  0.000  0.000  0.000  0.000  0.000  0.000
    6  0.000  0.000  0.000  0.000  0.000  0.000  0.000  0.000  0.000  0.000
    7  0.000  0.000  0.000  0.000  0.000  0.000  0.000  0.000  0.000  0.000
    8  0.000  0.000  0.000  0.000  0.000  0.000  0.000  0.000  0.000  0.000
tot    0.000  0.000  0.498  0.498  0.000  0.000  0.000  0.000  0.000  0.996
 
band     9 # energy  -56.25410948 # occ.  1.00000000
 
ion      s     py     pz     px    dxy    dyz    dz2    dxz  x2-y2    tot
    1  0.000  0.000  0.000  0.000  0.000  0.000  0.000  0.000  0.000  0.000
    2  0.000  0.498  0.000  0.000  0.000  0.000  0.000  0.000  0.000  0.498
    3  0.000  0.000  0.000  0.000  0.000  0.000  0.000  0.000  0.000  0.000
    4  0.000  0.498  0.000  0.000  0.000  0.000  0.000  0.000  0.000  0.498
    5  0.000  0.000  0.000  0.000  0.000  0.000  0.000  0.000  0.000  0.000
    6  0.000  0.000  0.000  0.000  0.000  0.000  0.000  0.000  0.000  0.000
    7  0.000  0.000  0.000  0.000  0.000  0.000  0.000  0.000  0.000  0.000
    8  0.000  0.000  0.000  0.000  0.000  0.000  0.000  0.000  0.000  0.000
tot    0.000  0.996  0.000  0.000  0.000  0.000  0.000  0.000  0.000  0.996
 
band    10 # energy  -56.25148416 # occ.  1.00000000
 
ion      s     py     pz     px    dxy    dyz    dz2    dxz  x2-y2    tot
    1  0.000  0.000  0.000  0.000  0.000  0.000  0.000  0.000  0.000  0.000
    2  0.000  0.498  0.000  0.000  0.000  0.000  0.000  0.000  0.000  0.498
    3  0.000  0.000  0.000  0.000  0.000  0.000  0.000  0.000  0.000  0.000
    4  0.000  0.498  0.000  0.000  0.000  0.000  0.000  0.000  0.000  0.498
    5  0.000  0.000  0.000  0.000  0.000  0.000  0.000  0.000  0.000  0.000
    6  0.000  0.000  0.000  0.000  0.000  0.000  0.000  0.000  0.000  0.000
    7  0.000  0.000  0.000  0.000  0.000  0.000  0.000  0.000  0.000  0.000
    8  0.000  0.000  0.000  0.000  0.000  0.000  0.000  0.000  0.000  0.000
tot    0.000  0.997  0.000  0.000  0.000  0.000  0.000  0.000  0.000  0.997
 
band    11 # energy  -56.24575444 # occ.  1.00000000
 
ion      s     py     pz     px    dxy    dyz    dz2    dxz  x2-y2    tot
    1  0.000  0.000  0.000  0.000  0.000  0.000  0.000  0.000  0.000  0.000
    2  0.000  0.000  0.249  0.249  0.000  0.000  0.000  0.000  0.000  0.498
    3  0.000  0.000  0.000  0.000  0.000  0.000  0.000  0.000  0.000  0.000
    4  0.000  0.000  0.249  0.249  0.000  0.000  0.000  0.000  0.000  0.498
    5  0.000  0.000  0.000  0.000  0.000  0.000  0.000  0.000  0.000  0.000
    6  0.000  0.000  0.000  0.000  0.000  0.000  0.000  0.000  0.000  0.000
    7  0.000  0.000  0.000  0.000  0.000  0.000  0.000  0.000  0.000  0.000
    8  0.000  0.000  0.000  0.000  0.000  0.000  0.000  0.000  0.000  0.000
tot    0.000  0.000  0.498  0.498  0.000  0.000  0.000  0.000  0.000  0.997
 
band    12 # energy  -56.24485594 # occ.  1.00000000
 
ion      s     py     pz     px    dxy    dyz    dz2    dxz  x2-y2    tot
    1  0.000  0.000  0.000  0.000  0.000  0.000  0.000  0.000  0.000  0.000
    2  0.000  0.000  0.249  0.249  0.000  0.000  0.000  0.000  0.000  0.498
    3  0.000  0.000  0.000  0.000  0.000  0.000  0.000  0.000  0.000  0.000
    4  0.000  0.000  0.249  0.249  0.000  0.000  0.000  0.000  0.000  0.498
    5  0.000  0.000  0.000  0.000  0.000  0.000  0.000  0.000  0.000  0.000
    6  0.000  0.000  0.000  0.000  0.000  0.000  0.000  0.000  0.000  0.000
    7  0.000  0.000  0.000  0.000  0.000  0.000  0.000  0.000  0.000  0.000
    8  0.000  0.000  0.000  0.000  0.000  0.000  0.000  0.000  0.000  0.000
tot    0.000  0.000  0.498  0.498  0.000  0.000  0.000  0.000  0.000  0.997
 
band    13 # energy  -12.76333254 # occ.  1.00000000
 
ion      s     py     pz     px    dxy    dyz    dz2    dxz  x2-y2    tot
    1  0.016  0.000  0.000  0.000  0.000  0.000  0.000  0.000  0.000  0.016
    2  0.014  0.000  0.000  0.000  0.000  0.000  0.000  0.000  0.000  0.014
    3  0.016  0.000  0.000  0.000  0.000  0.000  0.000  0.000  0.000  0.016
    4  0.014  0.000  0.000  0.000  0.000  0.000  0.000  0.000  0.000  0.014
    5  0.180  0.000  0.000  0.000  0.000  0.000  0.000  0.000  0.000  0.180
    6  0.151  0.000  0.000  0.000  0.000  0.000  0.000  0.000  0.000  0.151
    7  0.180  0.000  0.000  0.000  0.000  0.000  0.000  0.000  0.000  0.180
    8  0.151  0.000  0.000  0.000  0.000  0.000  0.000  0.000  0.000  0.151
tot    0.721  0.000  0.000  0.000  0.000  0.000  0.000  0.000  0.000  0.722
 
band    14 # energy  -11.45709696 # occ.  1.00000000
 
ion      s     py     pz     px    dxy    dyz    dz2    dxz  x2-y2    tot
    1  0.000  0.000  0.000  0.000  0.000  0.000  0.017  0.000  0.006  0.024
    2  0.003  0.000  0.000  0.000  0.000  0.000  0.001  0.000  0.002  0.007
    3  0.000  0.000  0.000  0.000  0.000  0.000  0.017  0.000  0.006  0.024
    4  0.003  0.000  0.000  0.000  0.000  0.000  0.001  0.000  0.002  0.007
    5  0.375  0.000  0.000  0.000  0.000  0.000  0.000  0.000  0.000  0.375
    6  0.000  0.000  0.000  0.000  0.000  0.000  0.000  0.000  0.000  0.000
    7  0.375  0.000  0.000  0.000  0.000  0.000  0.000  0.000  0.000  0.375
    8  0.000  0.000  0.000  0.000  0.000  0.000  0.000  0.000  0.000  0.000
tot    0.756  0.000  0.000  0.000  0.000  0.000  0.036  0.000  0.016  0.810
 
band    15 # energy  -11.33060123 # occ.  1.00000000
 
ion      s     py     pz     px    dxy    dyz    dz2    dxz  x2-y2    tot
    1  0.001  0.000  0.000  0.000  0.000  0.000  0.004  0.000  0.012  0.018
    2  0.002  0.000  0.000  0.000  0.000  0.000  0.002  0.000  0.005  0.009
    3  0.001  0.000  0.000  0.000  0.000  0.000  0.004  0.000  0.012  0.018
    4  0.002  0.000  0.000  0.000  0.000  0.000  0.002  0.000  0.005  0.009
    5  0.175  0.000  0.000  0.000  0.000  0.000  0.000  0.000  0.000  0.175
    6  0.203  0.000  0.000  0.000  0.000  0.000  0.000  0.000  0.000  0.203
    7  0.175  0.000  0.000  0.000  0.000  0.000  0.000  0.000  0.000  0.175
    8  0.203  0.000  0.000  0.000  0.000  0.000  0.000  0.000  0.000  0.203
tot    0.763  0.000  0.000  0.000  0.000  0.000  0.011  0.000  0.034  0.808
 
band    16 # energy  -11.20559743 # occ.  1.00000000
 
ion      s     py     pz     px    dxy    dyz    dz2    dxz  x2-y2    tot
    1  0.004  0.000  0.000  0.000  0.000  0.000  0.002  0.000  0.006  0.012
    2  0.000  0.000  0.000  0.000  0.000  0.000  0.007  0.000  0.002  0.010
    3  0.004  0.000  0.000  0.000  0.000  0.000  0.002  0.000  0.006  0.012
    4  0.000  0.000  0.000  0.000  0.000  0.000  0.007  0.000  0.002  0.010
    5  0.000  0.000  0.000  0.000  0.000  0.000  0.000  0.000  0.000  0.000
    6  0.381  0.000  0.000  0.000  0.000  0.000  0.000  0.000  0.000  0.381
    7  0.000  0.000  0.000  0.000  0.000  0.000  0.000  0.000  0.000  0.000
    8  0.381  0.000  0.000  0.000  0.000  0.000  0.000  0.000  0.000  0.381
tot    0.770  0.000  0.000  0.000  0.000  0.000  0.019  0.000  0.017  0.808
 
band    17 # energy    0.32383261 # occ.  1.00000000
 
ion      s     py     pz     px    dxy    dyz    dz2    dxz  x2-y2    tot
    1  0.001  0.019  0.000  0.000  0.004  0.004  0.031  0.000  0.094  0.151
    2  0.001  0.017  0.000  0.000  0.001  0.001  0.000  0.000  0.000  0.019
    3  0.001  0.019  0.000  0.000  0.004  0.004  0.031  0.000  0.094  0.151
    4  0.001  0.017  0.000  0.000  0.001  0.001  0.000  0.000  0.000  0.019
    5  0.001  0.072  0.000  0.000  0.000  0.000  0.000  0.000  0.000  0.073
    6  0.001  0.093  0.000  0.000  0.000  0.000  0.000  0.000  0.000  0.094
    7  0.001  0.072  0.000  0.000  0.000  0.000  0.000  0.000  0.000  0.073
    8  0.001  0.093  0.000  0.000  0.000  0.000  0.000  0.000  0.000  0.094
tot    0.006  0.401  0.000  0.000  0.009  0.009  0.062  0.000  0.187  0.675
 
band    18 # energy    0.33324211 # occ.  1.00000000
 
ion      s     py     pz     px    dxy    dyz    dz2    dxz  x2-y2    tot
    1  0.000  0.000  0.011  0.011  0.003  0.003  0.064  0.000  0.021  0.114
    2  0.001  0.000  0.009  0.009  0.000  0.000  0.000  0.002  0.000  0.021
    3  0.000  0.000  0.011  0.011  0.003  0.003  0.064  0.000  0.021  0.114
    4  0.001  0.000  0.009  0.009  0.000  0.000  0.000  0.002  0.000  0.021
    5  0.002  0.000  0.053  0.053  0.000  0.000  0.000  0.000  0.000  0.109
    6  0.000  0.000  0.039  0.039  0.000  0.000  0.000  0.000  0.000  0.078
    7  0.002  0.000  0.053  0.053  0.000  0.000  0.000  0.000  0.000  0.109
    8  0.000  0.000  0.039  0.039  0.000  0.000  0.000  0.000  0.000  0.078
tot    0.006  0.000  0.224  0.224  0.007  0.007  0.129  0.004  0.043  0.644
 
band    19 # energy    0.36637852 # occ.  1.00000000
 
ion      s     py     pz     px    dxy    dyz    dz2    dxz  x2-y2    tot
    1  0.001  0.000  0.010  0.010  0.003  0.003  0.027  0.008  0.082  0.145
    2  0.000  0.000  0.008  0.008  0.000  0.000  0.000  0.000  0.000  0.016
    3  0.001  0.000  0.010  0.010  0.003  0.003  0.027  0.008  0.082  0.145
    4  0.000  0.000  0.008  0.008  0.000  0.000  0.000  0.000  0.000  0.016
    5  0.000  0.000  0.052  0.052  0.000  0.000  0.000  0.000  0.000  0.104
    6  0.001  0.001  0.033  0.033  0.000  0.000  0.000  0.000  0.000  0.068
    7  0.000  0.000  0.052  0.052  0.000  0.000  0.000  0.000  0.000  0.104
    8  0.001  0.001  0.033  0.033  0.000  0.000  0.000  0.000  0.000  0.068
tot    0.004  0.002  0.207  0.207  0.006  0.006  0.055  0.015  0.164  0.666
 
band    20 # energy    0.45263044 # occ.  1.00000000
 
ion      s     py     pz     px    dxy    dyz    dz2    dxz  x2-y2    tot
    1  0.000  0.000  0.000  0.000  0.000  0.000  0.351  0.000  0.117  0.469
    2  0.000  0.000  0.000  0.000  0.000  0.000  0.000  0.000  0.000  0.000
    3  0.000  0.000  0.000  0.000  0.000  0.000  0.351  0.000  0.117  0.469
    4  0.000  0.000  0.000  0.000  0.000  0.000  0.000  0.000  0.000  0.000
    5  0.000  0.000  0.004  0.004  0.000  0.000  0.000  0.000  0.000  0.008
    6  0.000  0.000  0.000  0.000  0.000  0.000  0.000  0.000  0.000  0.000
    7  0.000  0.000  0.004  0.004  0.000  0.000  0.000  0.000  0.000  0.008
    8  0.000  0.000  0.000  0.000  0.000  0.000  0.000  0.000  0.000  0.000
tot    0.000  0.000  0.009  0.009  0.000  0.000  0.703  0.000  0.234  0.956
 
band    21 # energy    0.81916190 # occ.  1.00000000
 
ion      s     py     pz     px    dxy    dyz    dz2    dxz  x2-y2    tot
    1  0.000  0.000  0.000  0.000  0.001  0.001  0.005  0.376  0.014  0.398
    2  0.000  0.000  0.000  0.000  0.000  0.000  0.000  0.028  0.000  0.029
    3  0.000  0.000  0.000  0.000  0.001  0.001  0.005  0.376  0.014  0.398
    4  0.000  0.000  0.000  0.000  0.000  0.000  0.000  0.028  0.000  0.029
    5  0.000  0.003  0.003  0.003  0.000  0.000  0.000  0.000  0.000  0.010
    6  0.000  0.002  0.001  0.001  0.000  0.000  0.000  0.000  0.000  0.003
    7  0.000  0.003  0.003  0.003  0.000  0.000  0.000  0.000  0.000  0.010
    8  0.000  0.002  0.001  0.001  0.000  0.000  0.000  0.000  0.000  0.003
tot    0.002  0.010  0.009  0.009  0.001  0.001  0.010  0.808  0.029  0.880
 
band    22 # energy    0.87195041 # occ.  1.00000000
 
ion      s     py     pz     px    dxy    dyz    dz2    dxz  x2-y2    tot
    1  0.000  0.001  0.002  0.002  0.003  0.003  0.087  0.003  0.262  0.364
    2  0.000  0.000  0.003  0.003  0.000  0.000  0.001  0.000  0.000  0.008
    3  0.000  0.001  0.002  0.002  0.003  0.003  0.087  0.003  0.262  0.364
    4  0.000  0.000  0.003  0.003  0.000  0.000  0.001  0.000  0.000  0.008
    5  0.000  0.000  0.009  0.009  0.000  0.000  0.000  0.000  0.000  0.018
    6  0.007  0.009  0.016  0.016  0.000  0.000  0.000  0.000  0.000  0.048
    7  0.000  0.000  0.009  0.009  0.000  0.000  0.000  0.000  0.000  0.018
    8  0.007  0.009  0.016  0.016  0.000  0.000  0.000  0.000  0.000  0.048
tot    0.015  0.019  0.061  0.061  0.007  0.007  0.177  0.006  0.525  0.877
 
band    23 # energy    0.92211554 # occ.  1.00000000
 
ion      s     py     pz     px    dxy    dyz    dz2    dxz  x2-y2    tot
    1  0.000  0.000  0.000  0.000  0.168  0.168  0.013  0.000  0.004  0.354
    2  0.000  0.001  0.000  0.000  0.036  0.036  0.000  0.000  0.000  0.074
    3  0.000  0.000  0.000  0.000  0.168  0.168  0.013  0.000  0.004  0.354
    4  0.000  0.001  0.000  0.000  0.036  0.036  0.000  0.000  0.000  0.074
    5  0.001  0.005  0.001  0.001  0.000  0.000  0.000  0.000  0.000  0.009
    6  0.000  0.000  0.001  0.001  0.000  0.000  0.000  0.000  0.000  0.003
    7  0.001  0.005  0.001  0.001  0.000  0.000  0.000  0.000  0.000  0.009
    8  0.000  0.000  0.001  0.001  0.000  0.000  0.000  0.000  0.000  0.003
tot    0.002  0.011  0.006  0.006  0.409  0.409  0.026  0.000  0.009  0.879
 
band    24 # energy    0.96351515 # occ.  1.00000000
 
ion      s     py     pz     px    dxy    dyz    dz2    dxz  x2-y2    tot
    1  0.000  0.000  0.001  0.001  0.169  0.169  0.000  0.001  0.000  0.341
    2  0.000  0.000  0.000  0.000  0.044  0.044  0.000  0.000  0.000  0.087
    3  0.000  0.000  0.001  0.001  0.169  0.169  0.000  0.001  0.000  0.341
    4  0.000  0.000  0.000  0.000  0.044  0.044  0.000  0.000  0.000  0.087
    5  0.000  0.000  0.003  0.003  0.000  0.000  0.000  0.000  0.000  0.006
    6  0.000  0.003  0.000  0.000  0.000  0.000  0.000  0.000  0.000  0.003
    7  0.000  0.000  0.003  0.003  0.000  0.000  0.000  0.000  0.000  0.006
    8  0.000  0.003  0.000  0.000  0.000  0.000  0.000  0.000  0.000  0.003
tot    0.000  0.007  0.007  0.007  0.425  0.425  0.000  0.002  0.001  0.875
 
band    25 # energy    0.99900056 # occ.  1.00000000
 
ion      s     py     pz     px    dxy    dyz    dz2    dxz  x2-y2    tot
    1  0.000  0.005  0.000  0.000  0.008  0.008  0.077  0.030  0.232  0.360
    2  0.000  0.006  0.000  0.000  0.000  0.000  0.001  0.002  0.002  0.011
    3  0.000  0.005  0.000  0.000  0.008  0.008  0.077  0.030  0.232  0.360
    4  0.000  0.006  0.000  0.000  0.000  0.000  0.001  0.002  0.002  0.011
    5  0.006  0.036  0.001  0.001  0.000  0.000  0.000  0.000  0.000  0.044
    6  0.006  0.016  0.000  0.000  0.000  0.000  0.000  0.000  0.000  0.022
    7  0.006  0.036  0.001  0.001  0.000  0.000  0.000  0.000  0.000  0.044
    8  0.006  0.016  0.000  0.000  0.000  0.000  0.000  0.000  0.000  0.022
tot    0.025  0.126  0.002  0.002  0.015  0.015  0.156  0.063  0.468  0.874
 
band    26 # energy    1.33809271 # occ.  1.00000000
 
ion      s     py     pz     px    dxy    dyz    dz2    dxz  x2-y2    tot
    1  0.000  0.000  0.001  0.001  0.005  0.005  0.261  0.000  0.087  0.361
    2  0.000  0.000  0.003  0.003  0.004  0.004  0.000  0.002  0.001  0.018
    3  0.000  0.000  0.001  0.001  0.005  0.005  0.261  0.000  0.087  0.361
    4  0.000  0.000  0.003  0.003  0.004  0.004  0.000  0.002  0.001  0.018
    5  0.020  0.000  0.004  0.004  0.000  0.000  0.000  0.000  0.000  0.029
    6  0.000  0.000  0.020  0.020  0.000  0.000  0.000  0.000  0.000  0.041
    7  0.020  0.000  0.004  0.004  0.000  0.000  0.000  0.000  0.000  0.029
    8  0.000  0.000  0.020  0.020  0.000  0.000  0.000  0.000  0.000  0.041
tot    0.041  0.000  0.059  0.059  0.018  0.018  0.523  0.004  0.176  0.897
 
band    27 # energy    1.53505013 # occ.  1.00000000
 
ion      s     py     pz     px    dxy    dyz    dz2    dxz  x2-y2    tot
    1  0.000  0.001  0.000  0.000  0.199  0.199  0.001  0.000  0.004  0.404
    2  0.000  0.000  0.000  0.000  0.023  0.023  0.000  0.001  0.000  0.048
    3  0.000  0.001  0.000  0.000  0.199  0.199  0.001  0.000  0.004  0.404
    4  0.000  0.000  0.000  0.000  0.023  0.023  0.000  0.001  0.000  0.048
    5  0.000  0.001  0.000  0.000  0.000  0.000  0.000  0.000  0.000  0.002
    6  0.000  0.008  0.001  0.001  0.000  0.000  0.000  0.000  0.000  0.010
    7  0.000  0.001  0.000  0.000  0.000  0.000  0.000  0.000  0.000  0.002
    8  0.000  0.008  0.001  0.001  0.000  0.000  0.000  0.000  0.000  0.010
tot    0.001  0.021  0.002  0.002  0.445  0.445  0.003  0.002  0.008  0.928
 
band    28 # energy    1.53926241 # occ.  1.00000000
 
ion      s     py     pz     px    dxy    dyz    dz2    dxz  x2-y2    tot
    1  0.000  0.000  0.000  0.000  0.216  0.216  0.000  0.000  0.000  0.433
    2  0.000  0.000  0.000  0.000  0.018  0.018  0.000  0.000  0.000  0.037
    3  0.000  0.000  0.000  0.000  0.216  0.216  0.000  0.000  0.000  0.433
    4  0.000  0.000  0.000  0.000  0.018  0.018  0.000  0.000  0.000  0.037
    5  0.000  0.000  0.000  0.000  0.000  0.000  0.000  0.000  0.000  0.000
    6  0.000  0.000  0.001  0.001  0.000  0.000  0.000  0.000  0.000  0.002
    7  0.000  0.000  0.000  0.000  0.000  0.000  0.000  0.000  0.000  0.000
    8  0.000  0.000  0.001  0.001  0.000  0.000  0.000  0.000  0.000  0.002
tot    0.000  0.000  0.002  0.002  0.469  0.469  0.000  0.000  0.000  0.942
 
band    29 # energy    2.08560151 # occ.  1.00000000
 
ion      s     py     pz     px    dxy    dyz    dz2    dxz  x2-y2    tot
    1  0.000  0.000  0.000  0.000  0.000  0.000  0.000  0.468  0.000  0.468
    2  0.000  0.000  0.001  0.001  0.000  0.000  0.000  0.000  0.000  0.003
    3  0.000  0.000  0.000  0.000  0.000  0.000  0.000  0.468  0.000  0.468
    4  0.000  0.000  0.001  0.001  0.000  0.000  0.000  0.000  0.000  0.003
    5  0.000  0.000  0.000  0.000  0.000  0.000  0.000  0.000  0.000  0.000
    6  0.000  0.000  0.006  0.006  0.000  0.000  0.000  0.000  0.000  0.011
    7  0.000  0.000  0.000  0.000  0.000  0.000  0.000  0.000  0.000  0.000
    8  0.000  0.000  0.006  0.006  0.000  0.000  0.000  0.000  0.000  0.011
tot    0.000  0.000  0.013  0.013  0.001  0.001  0.000  0.935  0.000  0.964
 
band    30 # energy    2.15029492 # occ.  1.00000000
 
ion      s     py     pz     px    dxy    dyz    dz2    dxz  x2-y2    tot
    1  0.000  0.000  0.000  0.000  0.001  0.001  0.000  0.043  0.000  0.044
    2  0.000  0.000  0.000  0.000  0.000  0.000  0.000  0.394  0.000  0.396
    3  0.000  0.000  0.000  0.000  0.001  0.001  0.000  0.043  0.000  0.044
    4  0.000  0.000  0.000  0.000  0.000  0.000  0.000  0.394  0.000  0.396
    5  0.000  0.000  0.000  0.000  0.000  0.000  0.000  0.000  0.000  0.001
    6  0.000  0.000  0.005  0.005  0.000  0.000  0.000  0.000  0.000  0.011
    7  0.000  0.000  0.000  0.000  0.000  0.000  0.000  0.000  0.000  0.001
    8  0.000  0.000  0.005  0.005  0.000  0.000  0.000  0.000  0.000  0.011
tot    0.000  0.000  0.012  0.012  0.002  0.002  0.000  0.874  0.000  0.903
 
band    31 # energy    2.78215582 # occ.  1.00000000
 
ion      s     py     pz     px    dxy    dyz    dz2    dxz  x2-y2    tot
    1  0.001  0.006  0.000  0.000  0.053  0.053  0.001  0.000  0.003  0.116
    2  0.000  0.000  0.001  0.001  0.123  0.123  0.000  0.000  0.000  0.249
    3  0.001  0.006  0.000  0.000  0.053  0.053  0.001  0.000  0.003  0.116
    4  0.000  0.000  0.001  0.001  0.123  0.123  0.000  0.000  0.000  0.249
    5  0.000  0.000  0.001  0.001  0.000  0.000  0.000  0.000  0.000  0.001
    6  0.000  0.063  0.008  0.008  0.000  0.000  0.000  0.000  0.000  0.079
    7  0.000  0.000  0.001  0.001  0.000  0.000  0.000  0.000  0.000  0.001
    8  0.000  0.063  0.008  0.008  0.000  0.000  0.000  0.000  0.000  0.079
tot    0.001  0.139  0.019  0.019  0.352  0.352  0.003  0.000  0.006  0.892
 
band    32 # energy    2.90672436 # occ.  1.00000000
 
ion      s     py     pz     px    dxy    dyz    dz2    dxz  x2-y2    tot
    1  0.000  0.000  0.000  0.000  0.046  0.046  0.001  0.000  0.000  0.093
    2  0.000  0.001  0.001  0.001  0.165  0.165  0.000  0.010  0.000  0.344
    3  0.000  0.000  0.000  0.000  0.046  0.046  0.001  0.000  0.000  0.093
    4  0.000  0.001  0.001  0.001  0.165  0.165  0.000  0.010  0.000  0.344
    5  0.000  0.009  0.003  0.003  0.000  0.000  0.000  0.000  0.000  0.014
    6  0.000  0.000  0.009  0.009  0.000  0.000  0.000  0.000  0.000  0.017
    7  0.000  0.009  0.003  0.003  0.000  0.000  0.000  0.000  0.000  0.014
    8  0.000  0.000  0.009  0.009  0.000  0.000  0.000  0.000  0.000  0.017
tot    0.000  0.019  0.025  0.025  0.422  0.422  0.002  0.021  0.001  0.937
 
band    33 # energy    2.97861129 # occ.  1.00000000
 
ion      s     py     pz     px    dxy    dyz    dz2    dxz  x2-y2    tot
    1  0.000  0.000  0.001  0.001  0.016  0.016  0.002  0.000  0.001  0.037
    2  0.000  0.000  0.001  0.001  0.184  0.184  0.000  0.000  0.000  0.369
    3  0.000  0.000  0.001  0.001  0.016  0.016  0.002  0.000  0.001  0.037
    4  0.000  0.000  0.001  0.001  0.184  0.184  0.000  0.000  0.000  0.369
    5  0.000  0.000  0.017  0.017  0.000  0.000  0.000  0.000  0.000  0.034
    6  0.000  0.000  0.009  0.009  0.000  0.000  0.000  0.000  0.000  0.019
    7  0.000  0.000  0.017  0.017  0.000  0.000  0.000  0.000  0.000  0.034
    8  0.000  0.000  0.009  0.009  0.000  0.000  0.000  0.000  0.000  0.019
tot    0.000  0.000  0.058  0.058  0.399  0.399  0.004  0.000  0.001  0.920
 
band    34 # energy    2.98162974 # occ.  1.00000000
 
ion      s     py     pz     px    dxy    dyz    dz2    dxz  x2-y2    tot
    1  0.001  0.000  0.002  0.002  0.018  0.018  0.000  0.002  0.001  0.044
    2  0.000  0.001  0.001  0.001  0.159  0.159  0.000  0.006  0.000  0.328
    3  0.001  0.000  0.002  0.002  0.018  0.018  0.000  0.002  0.001  0.044
    4  0.000  0.001  0.001  0.001  0.159  0.159  0.000  0.006  0.000  0.328
    5  0.000  0.008  0.024  0.024  0.000  0.000  0.000  0.000  0.000  0.057
    6  0.000  0.000  0.011  0.011  0.000  0.000  0.000  0.000  0.000  0.021
    7  0.000  0.008  0.024  0.024  0.000  0.000  0.000  0.000  0.000  0.057
    8  0.000  0.000  0.011  0.011  0.000  0.000  0.000  0.000  0.000  0.021
tot    0.002  0.018  0.076  0.076  0.354  0.354  0.001  0.015  0.003  0.899
 
band    35 # energy    3.20484623 # occ.  1.00000000
 
ion      s     py     pz     px    dxy    dyz    dz2    dxz  x2-y2    tot
    1  0.000  0.000  0.004  0.004  0.000  0.000  0.007  0.000  0.002  0.019
    2  0.001  0.001  0.002  0.002  0.017  0.017  0.000  0.192  0.000  0.233
    3  0.000  0.000  0.004  0.004  0.000  0.000  0.007  0.000  0.002  0.019
    4  0.001  0.001  0.002  0.002  0.017  0.017  0.000  0.192  0.000  0.233
    5  0.000  0.019  0.046  0.046  0.000  0.000  0.000  0.000  0.000  0.112
    6  0.000  0.000  0.027  0.027  0.000  0.000  0.000  0.000  0.000  0.053
    7  0.000  0.019  0.046  0.046  0.000  0.000  0.000  0.000  0.000  0.112
    8  0.000  0.000  0.027  0.027  0.000  0.000  0.000  0.000  0.000  0.053
tot    0.003  0.041  0.159  0.159  0.034  0.034  0.015  0.385  0.005  0.835
 
band    36 # energy    3.33547457 # occ.  1.00000000
 
ion      s     py     pz     px    dxy    dyz    dz2    dxz  x2-y2    tot
    1  0.002  0.000  0.006  0.006  0.000  0.000  0.000  0.009  0.001  0.026
    2  0.000  0.000  0.006  0.006  0.026  0.026  0.001  0.000  0.000  0.065
    3  0.002  0.000  0.006  0.006  0.000  0.000  0.000  0.009  0.001  0.026
    4  0.000  0.000  0.006  0.006  0.026  0.026  0.001  0.000  0.000  0.065
    5  0.000  0.000  0.068  0.068  0.000  0.000  0.000  0.000  0.000  0.136
    6  0.000  0.006  0.070  0.070  0.000  0.000  0.000  0.000  0.000  0.146
    7  0.000  0.000  0.068  0.068  0.000  0.000  0.000  0.000  0.000  0.136
    8  0.000  0.006  0.070  0.070  0.000  0.000  0.000  0.000  0.000  0.146
tot    0.005  0.012  0.299  0.299  0.052  0.052  0.004  0.018  0.004  0.745
 
band    37 # energy    3.34411303 # occ.  1.00000000
 
ion      s     py     pz     px    dxy    dyz    dz2    dxz  x2-y2    tot
    1  0.000  0.000  0.000  0.000  0.011  0.011  0.000  0.000  0.000  0.022
    2  0.001  0.023  0.000  0.000  0.005  0.005  0.001  0.023  0.002  0.060
    3  0.000  0.000  0.000  0.000  0.011  0.011  0.000  0.000  0.000  0.022
    4  0.001  0.023  0.000  0.000  0.005  0.005  0.001  0.023  0.002  0.060