unknown system                          
   1.00000000000000     
     2.792603   -0.000000    0.000000
     0.000000    2.792603    0.000000
    -0.000000    0.000000    2.792603
   Fe
     2
Direct
  0.000000  0.000000  0.000000
  0.500000  0.500000  0.500000
 
   36   36   36
  198.91      193.94      179.74      158.26      132.25      104.72      78.414      55.448      37.120      23.860    
  15.332      10.591      8.3691      7.2820      6.5095      5.9861      5.6648      5.5016      5.4493      5.5016    
  5.6648      5.9861      6.5095      7.2820      8.3691      10.591      15.332      23.860      37.120      55.448    
  78.414      104.72      132.25      158.26      179.74      193.94      193.94      189.11      175.32      154.42    
  129.10      102.26      76.597      54.177      36.289      23.363      15.070      10.480      8.3330      7.2658    
  6.4996      5.9828      5.6652      5.5045      5.4526      5.5045      5.6652      5.9828      6.4996      7.2658    
  8.3330      10.480      15.070      23.363      36.289      54.177      76.597      102.26      129.10      154.42    
  175.32      189.11      179.74      175.32      162.64      143.41      120.03      95.179      71.351      50.509    
  33.893      21.936      14.327      10.167      8.2316      7.2164      6.4703      5.9728      5.6664      5.5125    
  5.4621      5.5125      5.6664      5.9728      6.4703      7.2164      8.2316      10.167      14.327      21.936    
  33.893      50.509      71.351      95.179      120.03      143.41      162.64      175.32      158.26      154.42    
  143.41      126.64      106.17      84.306      63.274      44.860      30.223      19.774      13.224      9.7172    
  8.0804      7.1326      6.4232      5.9557      5.6684      5.5244      5.4772      5.5244      5.6684      5.9557    
  6.4232      7.1326      8.0804      9.7172      13.224      19.774      30.223      44.860      63.274      84.306    
  106.17      126.64      143.41      154.42      132.25      129.10      120.03      106.17      89.152      70.902    
  53.296      37.899      25.738      17.183      11.943      9.2159      7.8936      7.0139      6.3612      5.9314    
  5.6710      5.5380      5.4964      5.5380      5.6710      5.9314      6.3612      7.0139      7.8936      9.2159    
  11.943      17.183      25.738      37.899      53.296      70.902      89.152      106.17      120.03      129.10    
  104.72      102.26      95.179      84.306      70.902      56.480      42.563      30.459      21.022      14.536    
  10.692      8.7390      7.6720      6.8660      6.2865      5.9014      5.6728      5.5522      5.5172      5.5522    
  5.6728      5.9014      6.2865      6.8660      7.6720      8.7390      10.692      14.536      21.022      30.459    
  42.563      56.480      70.902      84.306      95.179      102.26      78.414      76.597      71.351      63.274    
  53.296      42.563      32.262      23.415      16.669      12.191      9.6427      8.3118      7.4107      6.7016    
  6.2014      5.8690      5.6713      5.5662      5.5356      5.5662      5.6713      5.8690      6.2014      6.7016    
  7.4107      8.3118      9.6427      12.191      16.669      23.415      32.262      42.563      53.296      63.274    
  71.351      76.597      55.448      54.177      50.509      44.860      37.899      30.459      23.415      17.499    
  13.153      10.391      8.8558      7.8989      7.1227      6.5320      6.1106      5.8353      5.6658      5.5783    
  5.5497      5.5783      5.6658      5.8353      6.1106      6.5320      7.1227      7.8989      8.8558      10.391    
  13.153      17.499      23.415      30.459      37.899      44.860      50.509      54.177      37.120      36.289    
  33.893      30.223      25.738      21.022      16.669      13.153      10.687      9.1832      8.2401      7.4698    
  6.8388      6.3619      6.0239      5.7982      5.6587      5.5835      5.5601      5.5835      5.6587      5.7982    
  6.0239      6.3619      6.8388      7.4698      8.2401      9.1832      10.687      13.153      16.669      21.022    
  25.738      30.223      33.893      36.289      23.860      23.363      21.936      19.774      17.183      14.536    
  12.191      10.391      9.1832      8.3637      7.6662      7.0586      6.5725      6.2044      5.9409      5.7609    
  5.6468      5.5837      5.5637      5.5837      5.6468      5.7609      5.9409      6.2044      6.5725      7.0586    
  7.6662      8.3637      9.1832      10.391      12.191      14.536      17.183      19.774      21.936      23.363    
  15.332      15.070      14.327      13.224      11.943      10.692      9.6427      8.8558      8.2401      7.6662    
  7.1387      6.6933      6.3359      6.0639      5.8642      5.7239      5.6306      5.5776      5.5601      5.5776    
  5.6306      5.7239      5.8642      6.0639      6.3359      6.6933      7.1387      7.6662      8.2401      8.8558    
  9.6427      10.692      11.943      13.224      14.327      15.070      10.591      10.480      10.167      9.7172    
  9.2159      8.7390      8.3118      7.8989      7.4698      7.0586      6.6933      6.3842      6.1358      5.9419    
  5.7942      5.6847      5.6091      5.5644      5.5497      5.5644      5.6091      5.6847      5.7942      5.9419    
  6.1358      6.3842      6.6933      7.0586      7.4698      7.8989      8.3118      8.7390      9.2159      9.7172    
  10.167      10.480      8.3691      8.3330      8.2316      8.0804      7.8936      7.6720      7.4107      7.1227    
  6.8388      6.5725      6.3359      6.1358      5.9709      5.8365      5.7286      5.6454      5.5850      5.5482    
  5.5356      5.5482      5.5850      5.6454      5.7286      5.8365      5.9709      6.1358      6.3359      6.5725    
  6.8388      7.1227      7.4107      7.6720      7.8936      8.0804      8.2316      8.3330      7.2820      7.2658    
  7.2164      7.1326      7.0139      6.8660      6.7016      6.5320      6.3619      6.2044      6.0639      5.9419    
  5.8365      5.7456      5.6695      5.6066      5.5585      5.5277      5.5172      5.5277      5.5585      5.6066    
  5.6695      5.7456      5.8365      5.9419      6.0639      6.2044      6.3619      6.5320      6.7016      6.8660    
  7.0139      7.1326      7.2164      7.2658      6.5095      6.4996      6.4703      6.4232      6.3612      6.2865    
  6.2014      6.1106      6.0239      5.9409      5.8642      5.7942      5.7286      5.6695      5.6155      5.5679    
  5.5296      5.5050      5.4964      5.5050      5.5296      5.5679      5.6155      5.6695      5.7286      5.7942    
  5.8642      5.9409      6.0239      6.1106      6.2014      6.2865      6.3612      6.4232      6.4703      6.4996    
  5.9861      5.9828      5.9728      5.9557      5.9314      5.9014      5.8690      5.8353      5.7982      5.7609    
  5.7239      5.6847      5.6454      5.6066      5.5679      5.5318      5.5027      5.4837      5.4772      5.4837    
  5.5027      5.5318      5.5679      5.6066      5.6454      5.6847      5.7239      5.7609      5.7982      5.8353    
  5.8690      5.9014      5.9314      5.9557      5.9728      5.9828      5.6648      5.6652      5.6664      5.6684    
  5.6710      5.6728      5.6713      5.6658      5.6587      5.6468      5.6306      5.6091      5.5850      5.5585    
  5.5296      5.5027      5.4809      5.4669      5.4621      5.4669      5.4809      5.5027      5.5296      5.5585    
  5.5850      5.6091      5.6306      5.6468      5.6587      5.6658      5.6713      5.6728      5.6710      5.6684    
  5.6664      5.6652      5.5016      5.5045      5.5125      5.5244      5.5380      5.5522      5.5662      5.5783    
  5.5835      5.5837      5.5776      5.5644      5.5482      5.5277      5.5050      5.4837      5.4669      5.4562    
  5.4526      5.4562      5.4669      5.4837      5.5050      5.5277      5.5482      5.5644      5.5776      5.5837    
  5.5835      5.5783      5.5662      5.5522      5.5380      5.5244      5.5125      5.5045      5.4493      5.4526    
  5.4621      5.4772      5.4964      5.5172      5.5356      5.5497      5.5601      5.5637      5.5601      5.5497    
  5.5356      5.5172      5.4964      5.4772      5.4621      5.4526      5.4493      5.4526      5.4621      5.4772    
  5.4964      5.5172      5.5356      5.5497      5.5601      5.5637      5.5601      5.5497      5.5356      5.5172    
  5.4964      5.4772      5.4621      5.4526      5.5016      5.5045      5.5125      5.5244      5.5380      5.5522    
  5.5662      5.5783      5.5835      5.5837      5.5776      5.5644      5.5482      5.5277      5.5050      5.4837    
  5.4669      5.4562      5.4526      5.4562      5.4669      5.4837      5.5050      5.5277      5.5482      5.5644    
  5.5776      5.5837      5.5835      5.5783      5.5662      5.5522      5.5380      5.5244      5.5125      5.5045    
  5.6648      5.6652      5.6664      5.6684      5.6710      5.6728      5.6713      5.6658      5.6587      5.6468    
  5.6306      5.6091      5.5850      5.5585      5.5296      5.5027      5.4809      5.4669      5.4621      5.4669    
  5.4809      5.5027      5.5296      5.5585      5.5850      5.6091      5.6306      5.6468      5.6587      5.6658    
  5.6713      5.6728      5.6710      5.6684      5.6664      5.6652      5.9861      5.9828      5.9728      5.9557    
  5.9314      5.9014      5.8690      5.8353      5.7982      5.7609      5.7239      5.6847      5.6454      5.6066    
  5.5679      5.5318      5.5027      5.4837      5.4772      5.4837      5.5027      5.5318      5.5679      5.6066    
  5.6454      5.6847      5.7239      5.7609      5.7982      5.8353      5.8690      5.9014      5.9314      5.9557    
  5.9728      5.9828      6.5095      6.4996      6.4703      6.4232      6.3612      6.2865      6.2014      6.1106    
  6.0239      5.9409      5.8642      5.7942      5.7286      5.6695      5.6155      5.5679      5.5296      5.5050    
  5.4964      5.5050      5.5296      5.5679      5.6155      5.6695      5.7286      5.7942      5.8642      5.9409    
  6.0239      6.1106      6.2014      6.2865      6.3612      6.4232      6.4703      6.4996      7.2820      7.2658    
  7.2164      7.1326      7.0139      6.8660      6.7016      6.5320      6.3619      6.2044      6.0639      5.9419    
  5.8365      5.7456      5.6695      5.6066      5.5585      5.5277      5.5172      5.5277      5.5585      5.6066    
  5.6695      5.7456      5.8365      5.9419      6.0639      6.2044      6.3619      6.5320      6.7016      6.8660    
  7.0139      7.1326      7.2164      7.2658      8.3691      8.3330      8.2316      8.0804      7.8936      7.6720    
  7.4107      7.1227      6.8388      6.5725      6.3359      6.1358      5.9709      5.8365      5.7286      5.6454    
  5.5850      5.5482      5.5356      5.5482      5.5850      5.6454      5.7286      5.8365      5.9709      6.1358    
  6.3359      6.5725      6.8388      7.1227      7.4107      7.6720      7.8936      8.0804      8.2316      8.3330    
  10.591      10.480      10.167      9.7172      9.2159      8.7390      8.3118      7.8989      7.4698      7.0586    
  6.6933      6.3842      6.1358      5.9419      5.7942      5.6847      5.6091      5.5644      5.5497      5.5644    
  5.6091      5.6847      5.7942      5.9419      6.1358      6.3842      6.6933      7.0586      7.4698      7.8989    
  8.3118      8.7390      9.2159      9.7172      10.167      10.480      15.332      15.070      14.327      13.224    
  11.943      10.692      9.6427      8.8558      8.2401      7.6662      7.1387      6.6933      6.3359      6.0639    
  5.8642      5.7239      5.6306      5.5776      5.5601      5.5776      5.6306      5.7239      5.8642      6.0639    
  6.3359      6.6933      7.1387      7.6662      8.2401      8.8558      9.6427      10.692      11.943      13.224    
  14.327      15.070      23.860      23.363      21.936      19.774      17.183      14.536      12.191      10.391    
  9.1832      8.3637      7.6662      7.0586      6.5725      6.2044      5.9409      5.7609      5.6468      5.5837    
  5.5637      5.5837      5.6468      5.7609      5.9409      6.2044      6.5725      7.0586      7.6662      8.3637    
  9.1832      10.391      12.191      14.536      17.183      19.774      21.936      23.363      37.120      36.289    
  33.893      30.223      25.738      21.022      16.669      13.153      10.687      9.1832      8.2401      7.4698    
  6.8388      6.3619      6.0239      5.7982      5.6587      5.5835      5.5601      5.5835      5.6587      5.7982    
  6.0239      6.3619      6.8388      7.4698      8.2401      9.1832      10.687      13.153      16.669      21.022    
  25.738      30.223      33.893      36.289      55.448      54.177      50.509      44.860      37.899      30.459    
  23.415      17.499      13.153      10.391      8.8558      7.8989      7.1227      6.5320      6.1106      5.8353    
  5.6658      5.5783      5.5497      5.5783      5.6658      5.8353      6.1106      6.5320      7.1227      7.8989    
  8.8558      10.391      13.153      17.499      23.415      30.459      37.899      44.860      50.509      54.177    
  78.414      76.597      71.351      63.274      53.296      42.563      32.262      23.415      16.669      12.191    
  9.6427      8.3118      7.4107      6.7016      6.2014      5.8690      5.6713      5.5662      5.5356      5.5662    
  5.6713      5.8690      6.2014      6.7016      7.4107      8.3118      9.6427      12.191      16.669      23.415    
  32.262      42.563      53.296      63.274      71.351      76.597      104.72      102.26      95.179      84.306    
  70.902      56.480      42.563      30.459      21.022      14.536      10.692      8.7390      7.6720      6.8660    
  6.2865      5.9014      5.6728      5.5522      5.5172      5.5522      5.6728      5.9014      6.2865      6.8660    
  7.6720      8.7390      10.692      14.536      21.022      30.459      42.563      56.480      70.902      84.306    
  95.179      102.26      132.25      129.10      120.03      106.17      89.152      70.902      53.296      37.899    
  25.738      17.183      11.943      9.2159      7.8936      7.0139      6.3612      5.9314      5.6710      5.5380    
  5.4964      5.5380      5.6710      5.9314      6.3612      7.0139      7.8936      9.2159      11.943      17.183    
  25.738      37.899      53.296      70.902      89.152      106.17      120.03      129.10      158.26      154.42    
  143.41      126.64      106.17      84.306      63.274      44.860      30.223      19.774      13.224      9.7172    
  8.0804      7.1326      6.4232      5.9557      5.6684      5.5244      5.4772      5.5244      5.6684      5.9557    
  6.4232      7.1326      8.0804      9.7172      13.224      19.774      30.223      44.860      63.274      84.306    
  106.17      126.64      143.41      154.42      179.74      175.32      162.64      143.41      120.03      95.179    
  71.351      50.509      33.893      21.936      14.327      10.167      8.2316      7.2164      6.4703      5.9728    
  5.6664      5.5125      5.4621      5.5125      5.6664      5.9728      6.4703      7.2164      8.2316      10.167    
  14.327      21.936      33.893      50.509      71.351      95.179      120.03      143.41      162.64      175.32    
  193.94      189.11      175.32      154.42      129.10      102.26      76.597      54.177      36.289      23.363    
  15.070      10.480      8.3330      7.2658      6.4996      5.9828      5.6652      5.5045      5.4526      5.5045    
  5.6652      5.9828      6.4996      7.2658      8.3330      10.480      15.070      23.363      36.289      54.177    
  76.597      102.26      129.10      154.42      175.32      189.11      193.94      189.11      175.32      154.42    
  129.10      102.26      76.597      54.177      36.289      23.363      15.070      10.480      8.3330      7.2658    
  6.4996      5.9828      5.6652      5.5045      5.4526      5.5045      5.6652      5.9828      6.4996      7.2658    
  8.3330      10.480      15.070      23.363      36.289      54.177      76.597      102.26      129.10      154.42    
  175.32      189.11      189.11      184.42      171.01      150.68      126.03      99.865      74.821      52.934    
  35.478      22.878      14.817      10.373      8.2988      7.2500      6.4903      5.9800      5.6661      5.5077    
  5.4562      5.5077      5.6661      5.9800      6.4903      7.2500      8.2988      10.373      14.817      22.878    
  35.478      52.934      74.821      99.865      126.03      150.68      171.01      184.42      175.32      171.01    
  158.68      139.96      117.18      92.948      69.693      49.348      33.137      21.488      14.098      10.073    
  8.2025      7.2022      6.4628      5.9713      5.6687      5.5168      5.4669      5.5168      5.6687      5.9713    
  6.4628      7.2022      8.2025      10.073      14.098      21.488      33.137      49.348      69.693      92.948    
  117.18      139.96      158.68      171.01      154.42      150.68      139.96      123.62      103.66      82.330    
  61.800      43.828      29.555      19.385      13.031      9.6435      8.0580      7.1205      6.4186      5.9563    
  5.6727      5.5302      5.4837      5.5302      5.6727      5.9563      6.4186      7.1205      8.0580      9.6435    
  13.031      19.385      29.555      43.828      61.800      82.330      103.66      123.62      139.96      150.68    
  129.10      126.03      117.18      103.66      87.055      69.240      52.053      37.032      25.184      16.870    
  11.796      9.1650      7.8774      7.0051      6.3598      5.9346      5.6777      5.5459      5.5050      5.5459    
  5.6777      5.9346      6.3598      7.0051      7.8774      9.1650      11.796      16.870      25.184      37.032    
  52.053      69.240      87.055      103.66      117.18      126.03      102.26      99.865      92.948      82.330    
  69.240      55.156      41.575      29.777      20.596      14.307      10.594      8.7089      7.6603      6.8614    
  6.2887      5.9077      5.6818      5.5622      5.5277      5.5622      5.6818      5.9077      6.2887      6.8614    
  7.6603      8.7089      10.594      14.307      20.596      29.777      41.575      55.156      69.240      82.330    
  92.948      99.865      76.597      74.821      69.693      61.800      52.053      41.575      31.532      22.920    
  16.374      12.043      9.5878      8.2952      7.4030      6.7017      6.2068      5.8783      5.6825      5.5787    
  5.5482      5.5787      5.6825      5.8783      6.2068      6.7017      7.4030      8.2952      9.5878      12.043    
  16.374      22.920      31.532      41.575      52.053      61.800      69.693      74.821      54.177      52.934    
  49.348      43.828      37.032      29.777      22.920      17.179      12.974      10.313      8.8307      7.8889    
  7.1202      6.5364      6.1200      5.8477      5.6796      5.5928      5.5644      5.5928      5.6796      5.8477    
  6.1200      6.5364      7.1202      7.8889      8.8307      10.313      12.974      17.179      22.920      29.777    
  37.032      43.828      49.348      52.934      36.289      35.478      33.137      29.555      25.184      20.596    
  16.374      12.974      10.599      9.1511      8.2281      7.4653      6.8420      6.3707      6.0367      5.8133    
  5.6753      5.6007      5.5776      5.6007      5.6753      5.8133      6.0367      6.3707      6.8420      7.4653    
  8.2281      9.1511      10.599      12.974      16.374      20.596      25.184      29.555      33.137      35.478    
  23.363      22.878      21.488      19.385      16.870      14.307      12.043      10.313      9.1511      8.3507    
  7.6605      7.0607      6.5807      6.2174      5.9575      5.7796      5.6663      5.6035      5.5837      5.6035    
  5.6663      5.7796      5.9575      6.2174      6.5807      7.0607      7.6605      8.3507      9.1511      10.313    
  12.043      14.307      16.870      19.385      21.488      22.878      15.070      14.817      14.098      13.031    
  11.796      10.594      9.5878      8.8307      8.2281      7.6605      7.1404      6.7012      6.3492      6.0815    
  5.8841      5.7451      5.6529      5.6007      5.5835      5.6007      5.6529      5.7451      5.8841      6.0815    
  6.3492      6.7012      7.1404      7.6605      8.2281      8.8307      9.5878      10.594      11.796      13.031    
  14.098      14.817      10.480      10.373      10.073      9.6435      9.1650      8.7089      8.2952      7.8889    
  7.4653      7.0607      6.7012      6.3976      6.1537      5.9624      5.8176      5.7108      5.6369      5.5928    
  5.5783      5.5928      5.6369      5.7108      5.8176      5.9624      6.1537      6.3976      6.7012      7.0607    
  7.4653      7.8889      8.2952      8.7089      9.1650      9.6435      10.073      10.373      8.3330      8.2988    
  8.2025      8.0580      7.8774      7.6603      7.4030      7.1202      6.8420      6.5807      6.3492      6.1537    
  5.9916      5.8614      5.7572      5.6754      5.6155      5.5787      5.5662      5.5787      5.6155      5.6754    
  5.7572      5.8614      5.9916      6.1537      6.3492      6.5807      6.8420      7.1202      7.4030      7.6603    
  7.8774      8.0580      8.2025      8.2988      7.2658      7.2500      7.2022      7.1205      7.0051      6.8614    
  6.7017      6.5364      6.3707      6.2174      6.0815      5.9624      5.8614      5.7749      5.7002      5.6383    
  5.5916      5.5622      5.5522      5.5622      5.5916      5.6383      5.7002      5.7749      5.8614      5.9624    
  6.0815      6.2174      6.3707      6.5364      6.7017      6.8614      7.0051      7.1205      7.2022      7.2500    
  6.4996      6.4903      6.4628      6.4186      6.3598      6.2887      6.2068      6.1200      6.0367      5.9575    
  5.8841      5.8176      5.7572      5.7002      5.6480      5.6033      5.5684      5.5459      5.5380      5.5459    
  5.5684      5.6033      5.6480      5.7002      5.7572      5.8176      5.8841      5.9575      6.0367      6.1200    
  6.2068      6.2887      6.3598      6.4186      6.4628      6.4903      5.9828      5.9800      5.9713      5.9563    
  5.9346      5.9077      5.8783      5.8477      5.8133      5.7796      5.7451      5.7108      5.6754      5.6383    
  5.6033      5.5721      5.5469      5.5302      5.5244      5.5302      5.5469      5.5721      5.6033      5.6383    
  5.6754      5.7108      5.7451      5.7796      5.8133      5.8477      5.8783      5.9077      5.9346      5.9563    
  5.9713      5.9800      5.6652      5.6661      5.6687      5.6727      5.6777      5.6818      5.6825      5.6796    
  5.6753      5.6663      5.6529      5.6369      5.6155      5.5916      5.5684      5.5469      5.5289      5.5168    
  5.5125      5.5168      5.5289      5.5469      5.5684      5.5916      5.6155      5.6369      5.6529      5.6663    
  5.6753      5.6796      5.6825      5.6818      5.6777      5.6727      5.6687      5.6661      5.5045      5.5077    
  5.5168      5.5302      5.5459      5.5622      5.5787      5.5928      5.6007      5.6035      5.6007      5.5928    
  5.5787      5.5622      5.5459      5.5302      5.5168      5.5077      5.5045      5.5077      5.5168      5.5302    
  5.5459      5.5622      5.5787      5.5928      5.6007      5.6035      5.6007      5.5928      5.5787      5.5622    
  5.5459      5.5302      5.5168      5.5077      5.4526      5.4562      5.4669      5.4837      5.5050      5.5277    
  5.5482      5.5644      5.5776      5.5837      5.5835      5.5783      5.5662      5.5522      5.5380      5.5244    
  5.5125      5.5045      5.5016      5.5045      5.5125      5.5244      5.5380      5.5522      5.5662      5.5783    
  5.5835      5.5837      5.5776      5.5644      5.5482      5.5277      5.5050      5.4837      5.4669      5.4562    
  5.5045      5.5077      5.5168      5.5302      5.5459      5.5622      5.5787      5.5928      5.6007      5.6035    
  5.6007      5.5928      5.5787      5.5622      5.5459      5.5302      5.5168      5.5077      5.5045      5.5077    
  5.5168      5.5302      5.5459      5.5622      5.5787      5.5928      5.6007      5.6035      5.6007      5.5928    
  5.5787      5.5622      5.5459      5.5302      5.5168      5.5077      5.6652      5.6661      5.6687      5.6727    
  5.6777      5.6818      5.6825      5.6796      5.6753      5.6663      5.6529      5.6369      5.6155      5.5916    
  5.5684      5.5469      5.5289      5.5168      5.5125      5.5168      5.5289      5.5469      5.5684      5.5916    
  5.6155      5.6369      5.6529      5.6663      5.6753      5.6796      5.6825      5.6818      5.6777      5.6727    
  5.6687      5.6661      5.9828      5.9800      5.9713      5.9563      5.9346      5.9077      5.8783      5.8477    
  5.8133      5.7796      5.7451      5.7108      5.6754      5.6383      5.6033      5.5721      5.5469      5.5302    
  5.5244      5.5302      5.5469      5.5721      5.6033      5.6383      5.6754      5.7108      5.7451      5.7796    
  5.8133      5.8477      5.8783      5.9077      5.9346      5.9563      5.9713      5.9800      6.4996      6.4903    
  6.4628      6.4186      6.3598      6.2887      6.2068      6.1200      6.0367      5.9575      5.8841      5.8176    
  5.7572      5.7002      5.6480      5.6033      5.5684      5.5459      5.5380      5.5459      5.5684      5.6033    
  5.6480      5.7002      5.7572      5.8176      5.8841      5.9575      6.0367      6.1200      6.2068      6.2887    
  6.3598      6.4186      6.4628      6.4903      7.2658      7.2500      7.2022      7.1205      7.0051      6.8614    
  6.7017      6.5364      6.3707      6.2174      6.0815      5.9624      5.8614      5.7749      5.7002      5.6383    
  5.5916      5.5622      5.5522      5.5622      5.5916      5.6383      5.7002      5.7749      5.8614      5.9624    
  6.0815      6.2174      6.3707      6.5364      6.7017      6.8614      7.0051      7.1205      7.2022      7.2500    
  8.3330      8.2988      8.2025      8.0580      7.8774      7.6603      7.4030      7.1202      6.8420      6.5807    
  6.3492      6.1537      5.9916      5.8614      5.7572      5.6754      5.6155      5.5787      5.5662      5.5787    
  5.6155      5.6754      5.7572      5.8614      5.9916      6.1537      6.3492      6.5807      6.8420      7.1202    
  7.4030      7.6603      7.8774      8.0580      8.2025      8.2988      10.480      10.373      10.073      9.6435    
  9.1650      8.7089      8.2952      7.8889      7.4653      7.0607      6.7012      6.3976      6.1537      5.9624    
  5.8176      5.7108      5.6369      5.5928      5.5783      5.5928      5.6369      5.7108      5.8176      5.9624    
  6.1537      6.3976      6.7012      7.0607      7.4653      7.8889      8.2952      8.7089      9.1650      9.6435    
  10.073      10.373      15.070      14.817      14.098      13.031      11.796      10.594      9.5878      8.8307    
  8.2281      7.6605      7.1404      6.7012      6.3492      6.0815      5.8841      5.7451      5.6529      5.6007    
  5.5835      5.6007      5.6529      5.7451      5.8841      6.0815      6.3492      6.7012      7.1404      7.6605    
  8.2281      8.8307      9.5878      10.594      11.796      13.031      14.098      14.817      23.363      22.878    
  21.488      19.385      16.870      14.307      12.043      10.313      9.1511      8.3507      7.6605      7.0607    
  6.5807      6.2174      5.9575      5.7796      5.6663      5.6035      5.5837      5.6035      5.6663      5.7796    
  5.9575      6.2174      6.5807      7.0607      7.6605      8.3507      9.1511      10.313      12.043      14.307    
  16.870      19.385      21.488      22.878      36.289      35.478      33.137      29.555      25.184      20.596    
  16.374      12.974      10.599      9.1511      8.2281      7.4653      6.8420      6.3707      6.0367      5.8133    
  5.6753      5.6007      5.5776      5.6007      5.6753      5.8133      6.0367      6.3707      6.8420      7.4653    
  8.2281      9.1511      10.599      12.974      16.374      20.596      25.184      29.555      33.137      35.478    
  54.177      52.934      49.348      43.828      37.032      29.777      22.920      17.179      12.974      10.313    
  8.8307      7.8889      7.1202      6.5364      6.1200      5.8477      5.6796      5.5928      5.5644      5.5928    
  5.6796      5.8477      6.1200      6.5364      7.1202      7.8889      8.8307      10.313      12.974      17.179    
  22.920      29.777      37.032      43.828      49.348      52.934      76.597      74.821      69.693      61.800    
  52.053      41.575      31.532      22.920      16.374      12.043      9.5878      8.2952      7.4030      6.7017    
  6.2068      5.8783      5.6825      5.5787      5.5482      5.5787      5.6825      5.8783      6.2068      6.7017    
  7.4030      8.2952      9.5878      12.043      16.374      22.920      31.532      41.575      52.053      61.800    
  69.693      74.821      102.26      99.865      92.948      82.330      69.240      55.156      41.575      29.777    
  20.596      14.307      10.594      8.7089      7.6603      6.8614      6.2887      5.9077      5.6818      5.5622    
  5.5277      5.5622      5.6818      5.9077      6.2887      6.8614      7.6603      8.7089      10.594      14.307    
  20.596      29.777      41.575      55.156      69.240      82.330      92.948      99.865      129.10      126.03    