   2   2   1   0
  0.1173411E+02  0.2863036E-09  0.2863036E-09  0.2863036E-09  0.5000000E-15
  1.000000000000000E-004
  CAR 
 unknown system                          
     42.59742041     -4.76453073  301      5.80538842      1.00000000
     -4.765  0.0000E+00  0.0000E+00  0.0000E+00  0.0000E+00
     -4.607  0.0000E+00  0.0000E+00  0.0000E+00  0.0000E+00
     -4.449  0.0000E+00  0.0000E+00  0.0000E+00  0.0000E+00
     -4.291 -0.1063E-33  0.0000E+00 -0.1677E-34  0.0000E+00
     -4.133 -0.2947E-28 -0.1497E-35 -0.4653E-29 -0.2363E-36
     -3.975 -0.2326E-23 -0.6198E-30 -0.3672E-24 -0.9786E-31
     -3.817 -0.5208E-19 -0.7307E-25 -0.8223E-20 -0.1154E-25
     -3.659 -0.3178E-15 -0.2446E-20 -0.5018E-16 -0.3862E-21
     -3.502 -0.5572E-12 -0.2242E-16 -0.8802E-13 -0.3540E-17
     -3.344 -0.2691E-09 -0.5910E-13 -0.4257E-10 -0.9334E-14
     -3.186 -0.3467E-07 -0.4316E-10 -0.5517E-08 -0.6824E-11
     -3.028 -0.1091E-05 -0.8523E-08 -0.1778E-06 -0.1352E-08
     -2.870 -0.5315E-05 -0.4281E-06 -0.1017E-05 -0.6893E-07
     -2.712  0.2941E-04 -0.4307E-05  0.3625E-05 -0.7489E-06
     -2.554  0.9695E-04  0.8714E-05  0.1893E-04  0.6268E-06
     -2.396  0.3969E-04  0.8712E-04  0.2520E-04  0.1438E-04
     -2.239  0.3582E-03  0.5425E-04  0.8175E-04  0.2294E-04
     -2.081  0.5967E-03  0.1837E-03  0.1759E-03  0.5194E-04
     -1.923  0.3203E-03  0.6315E-03  0.2265E-03  0.1516E-03
     -1.765  0.1159E-02  0.3181E-03  0.4095E-03  0.2019E-03
     -1.607  0.8951E-03  0.7933E-03  0.5508E-03  0.3271E-03
     -1.449  0.4656E-03  0.1220E-02  0.6243E-03  0.5196E-03
     -1.291  0.8174E-03  0.4051E-03  0.7533E-03  0.5836E-03
     -1.133  0.3493E-03  0.7748E-03  0.8085E-03  0.7059E-03
     -0.976  0.4904E-03  0.5222E-03  0.8859E-03  0.7884E-03
     -0.818  0.6932E-03  0.3603E-03  0.9953E-03  0.8452E-03
     -0.660  0.2289E-02  0.4965E-03  0.1357E-02  0.9236E-03
     -0.502  0.1973E-02  0.1071E-02  0.1668E-02  0.1093E-02
     -0.344  0.2061E-02  0.2569E-02  0.1993E-02  0.1498E-02
     -0.186  0.2164E-02  0.1472E-02  0.2335E-02  0.1731E-02
     -0.028  0.2840E-03  0.2380E-02  0.2380E-02  0.2106E-02
      0.130  0.8498E-03  0.1682E-02  0.2514E-02  0.2372E-02
      0.287  0.9960E-03 -0.6770E-04  0.2671E-02  0.2361E-02
      0.445  0.1541E-02  0.3029E-03  0.2915E-02  0.2409E-02
      0.603  0.3587E-02  0.1207E-02  0.3481E-02  0.2600E-02
      0.761  0.3920E-02  0.9436E-03  0.4100E-02  0.2749E-02
      0.919  0.6571E-02  0.2695E-02  0.5137E-02  0.3174E-02
      1.077  0.7920E-02  0.2952E-02  0.6388E-02  0.3640E-02
      1.235  0.1213E-01  0.2578E-02  0.8303E-02  0.4047E-02
      1.393  0.1441E-01  0.2388E-02  0.1058E-01  0.4424E-02
      1.550  0.1238E-01  0.2721E-02  0.1253E-01  0.4854E-02
      1.708  0.1580E-01  0.2974E-02  0.1503E-01  0.5323E-02
      1.866  0.1979E-01  0.3062E-02  0.1815E-01  0.5807E-02
      2.024  0.1834E-01  0.5087E-02  0.2105E-01  0.6610E-02
      2.182  0.3672E-02  0.5862E-02  0.2163E-01  0.7535E-02
      2.340  0.4219E-02  0.2841E-02  0.2229E-01  0.7984E-02
      2.498  0.2638E-01  0.4352E-02  0.2646E-01  0.8671E-02
      2.656  0.3276E-01  0.8042E-02  0.3163E-01  0.9940E-02
      2.813  0.2282E-01  0.1142E-01  0.3523E-01  0.1174E-01
      2.971  0.1538E-01  0.1078E-01  0.3766E-01  0.1345E-01
      3.129  0.2098E-01  0.8298E-02  0.4097E-01  0.1476E-01
      3.287  0.3182E-01  0.1246E-01  0.4600E-01  0.1672E-01
      3.445  0.3016E-01  0.1328E-01  0.5076E-01  0.1882E-01
      3.603  0.1837E-01  0.8413E-02  0.5366E-01  0.2015E-01
      3.761  0.1215E-01  0.6477E-02  0.5558E-01  0.2117E-01
      3.918  0.6445E-02  0.6595E-02  0.5660E-01  0.2221E-01
      4.076  0.4382E-02  0.1469E-01  0.5729E-01  0.2453E-01
      4.234  0.8677E-02  0.2525E-01  0.5866E-01  0.2852E-01
      4.392  0.2122E-01  0.2713E-01  0.6201E-01  0.3280E-01
      4.550  0.2458E-01  0.2422E-01  0.6589E-01  0.3662E-01
      4.708  0.3075E-01  0.2019E-01  0.7074E-01  0.3981E-01
      4.866  0.4638E-01  0.2686E-01  0.7807E-01  0.4405E-01
      5.024  0.5219E-01  0.2475E-01  0.8631E-01  0.4796E-01
      5.181  0.3314E-01  0.1886E-01  0.9154E-01  0.5094E-01
      5.339  0.9816E-02  0.1570E-01  0.9309E-01  0.5342E-01
      5.497  0.1390E-01  0.1653E-01  0.9528E-01  0.5603E-01
      5.655  0.2430E-01  0.1017E-01  0.9912E-01  0.5763E-01
      5.813  0.1889E-01  0.2498E-02  0.1021E+00  0.5803E-01
      5.971  0.1148E-01  0.3523E-02  0.1039E+00  0.5858E-01
      6.129  0.8317E-02  0.4611E-02  0.1052E+00  0.5931E-01
      6.287  0.4434E-02  0.6586E-02  0.1059E+00  0.6035E-01
      6.444  0.5604E-03  0.1058E-01  0.1060E+00  0.6202E-01
      6.602  0.2491E-02  0.1153E-01  0.1064E+00  0.6384E-01
      6.760  0.6208E-02  0.1020E-01  0.1074E+00  0.6545E-01
      6.918  0.2231E-02  0.1386E-01  0.1077E+00  0.6764E-01
      7.076  0.6596E-03  0.2541E-01  0.1078E+00  0.7165E-01
      7.234  0.3208E-02  0.2527E-01  0.1084E+00  0.7564E-01
      7.392  0.2962E-02  0.2200E-01  0.1088E+00  0.7911E-01
      7.550  0.2184E-02  0.2492E-01  0.1092E+00  0.8305E-01
      7.707  0.6564E-02  0.4008E-01  0.1102E+00  0.8937E-01
      7.865  0.5302E-02  0.4940E-01  0.1110E+00  0.9717E-01
      8.023  0.2810E-02  0.2814E-01  0.1115E+00  0.1016E+00
      8.181  0.1331E-02  0.1444E-01  0.1117E+00  0.1039E+00
      8.339 -0.3450E-03  0.9752E-02  0.1116E+00  0.1054E+00
      8.497  0.2977E-02  0.6680E-02  0.1121E+00  0.1065E+00
      8.655  0.7896E-02  0.7918E-02  0.1134E+00  0.1077E+00
      8.813  0.3176E-02  0.2103E-02  0.1139E+00  0.1081E+00
      8.970 -0.2825E-03  0.2161E-03  0.1138E+00  0.1081E+00
      9.128 -0.2189E-03  0.4061E-02  0.1138E+00  0.1087E+00
      9.286  0.1460E-03  0.6983E-02  0.1138E+00  0.1098E+00
      9.444  0.2131E-02  0.4389E-02  0.1141E+00  0.1105E+00
      9.602  0.2126E-02  0.3639E-02  0.1145E+00  0.1111E+00
      9.760  0.2394E-03  0.2930E-02  0.1145E+00  0.1116E+00
      9.918  0.1044E-02  0.2769E-02  0.1147E+00  0.1120E+00
     10.076  0.3168E-02  0.6572E-02  0.1152E+00  0.1131E+00
     10.233  0.4361E-02  0.4674E-02  0.1159E+00  0.1138E+00
     10.391  0.3181E-02  0.2099E-03  0.1164E+00  0.1138E+00
     10.549  0.1703E-03 -0.3331E-03  0.1164E+00  0.1138E+00
     10.707  0.1578E-02  0.3643E-03  0.1166E+00  0.1138E+00
     10.865  0.6059E-02  0.2535E-02  0.1176E+00  0.1142E+00
     11.023  0.4867E-02  0.2175E-02  0.1184E+00  0.1146E+00
     11.181  0.1127E-02  0.4915E-03  0.1185E+00  0.1146E+00
     11.339  0.3185E-03  0.3421E-02  0.1186E+00  0.1152E+00
     11.496  0.8221E-03  0.6174E-02  0.1187E+00  0.1162E+00
     11.654  0.2055E-03  0.1660E-02  0.1188E+00  0.1164E+00
     11.812 -0.4233E-04  0.1821E-03  0.1187E+00  0.1165E+00
     11.970 -0.7581E-05  0.4768E-02  0.1187E+00  0.1172E+00
     12.128 -0.3752E-06  0.6151E-02  0.1187E+00  0.1182E+00
     12.286 -0.7398E-05  0.2221E-02  0.1187E+00  0.1185E+00
     12.444 -0.7091E-04  0.1162E-03  0.1187E+00  0.1185E+00
     12.602  0.1627E-03  0.7359E-03  0.1188E+00  0.1187E+00
     12.759  0.1526E-02  0.5495E-03  0.1190E+00  0.1188E+00
     12.917  0.1277E-02 -0.6365E-05  0.1192E+00  0.1188E+00
     13.075 -0.2039E-03 -0.2281E-04  0.1192E+00  0.1187E+00
     13.233  0.1488E-02 -0.1544E-05  0.1194E+00  0.1187E+00
     13.391  0.5937E-02 -0.6815E-05  0.1203E+00  0.1187E+00
     13.549  0.7309E-02 -0.6917E-04  0.1215E+00  0.1187E+00
     13.707  0.7465E-02  0.1286E-03  0.1227E+00  0.1188E+00
     13.865  0.2405E-02  0.1453E-02  0.1231E+00  0.1190E+00
     14.022 -0.3221E-03  0.1554E-02  0.1230E+00  0.1192E+00
     14.180  0.8228E-03  0.1159E-02  0.1231E+00  0.1194E+00
     14.338  0.2241E-02  0.2732E-02  0.1235E+00  0.1198E+00
     14.496  0.3028E-02  0.2175E-02  0.1240E+00  0.1202E+00
     14.654  0.4688E-02  0.4785E-02  0.1247E+00  0.1209E+00
     14.812  0.5689E-02  0.9000E-02  0.1256E+00  0.1224E+00
     14.970  0.7731E-02  0.4892E-02  0.1268E+00  0.1231E+00
     15.127  0.7027E-02  0.1671E-02  0.1279E+00  0.1234E+00
     15.285  0.3058E-02  0.8324E-03  0.1284E+00  0.1235E+00
     15.443  0.1377E-02  0.1205E-02  0.1286E+00  0.1237E+00
     15.601  0.1518E-02  0.2300E-02  0.1289E+00  0.1241E+00
     15.759  0.1673E-02  0.4089E-02  0.1291E+00  0.1247E+00
     15.917  0.4885E-02  0.7045E-02  0.1299E+00  0.1258E+00
     16.075  0.4396E-02  0.1088E-01  0.1306E+00  0.1276E+00
     16.233  0.2274E-02  0.6598E-02  0.1310E+00  0.1286E+00
     16.390  0.2972E-02  0.2650E-02  0.1314E+00  0.1290E+00
     16.548  0.2474E-02  0.6589E-03  0.1318E+00  0.1291E+00
     16.706  0.2901E-02  0.1869E-02  0.1323E+00  0.1294E+00
     16.864  0.2655E-02  0.5709E-02  0.1327E+00  0.1303E+00
     17.022  0.1477E-02  0.4884E-02  0.1329E+00  0.1311E+00
     17.180  0.3988E-02  0.3680E-02  0.1336E+00  0.1317E+00
     17.338  0.8729E-02  0.2624E-02  0.1349E+00  0.1321E+00
     17.496  0.7484E-02  0.2540E-02  0.1361E+00  0.1325E+00
     17.653  0.5328E-02  0.2107E-02  0.1370E+00  0.1328E+00
     17.811  0.3345E-02  0.1102E-02  0.1375E+00  0.1330E+00
     17.969  0.1759E-02  0.1934E-02  0.1378E+00  0.1333E+00
     18.127  0.5022E-02  0.7369E-02  0.1386E+00  0.1345E+00
     18.285  0.2507E-02  0.1002E-01  0.1390E+00  0.1360E+00
     18.443  0.5688E-03  0.6218E-02  0.1390E+00  0.1370E+00
     18.601  0.3595E-02  0.2927E-02  0.1396E+00  0.1375E+00
     18.759  0.4540E-02  0.4453E-03  0.1403E+00  0.1376E+00
     18.916  0.2011E-02  0.3340E-02  0.1406E+00  0.1381E+00
     19.074  0.1201E-02  0.5147E-02  0.1408E+00  0.1389E+00
     19.232  0.7083E-02  0.3671E-02  0.1420E+00  0.1395E+00
     19.390  0.9059E-02  0.3763E-02  0.1434E+00  0.1401E+00
     19.548  0.2641E-02  0.3013E-02  0.1438E+00  0.1405E+00
     19.706 -0.3747E-03  0.3096E-02  0.1437E+00  0.1410E+00
     19.864 -0.1709E-03  0.5446E-02  0.1437E+00  0.1419E+00
     20.022  0.5662E-03  0.7412E-02  0.1438E+00  0.1431E+00
     20.179  0.2523E-02  0.4296E-02  0.1442E+00  0.1437E+00
     20.337  0.5430E-02  0.1242E-03  0.1451E+00  0.1438E+00
     20.495  0.5005E-02 -0.2565E-03  0.1459E+00  0.1437E+00
     20.653  0.6850E-02 -0.1278E-03  0.1469E+00  0.1437E+00
     20.811  0.6917E-02  0.1106E-02  0.1480E+00  0.1439E+00
     20.969  0.2475E-02  0.4636E-02  0.1484E+00  0.1446E+00
     21.127 -0.2151E-03  0.5336E-02  0.1484E+00  0.1455E+00
     21.285  0.7156E-03  0.7369E-02  0.1485E+00  0.1466E+00
     21.442  0.3595E-02  0.9207E-02  0.1491E+00  0.1481E+00
     21.600  0.4192E-02  0.2514E-02  0.1497E+00  0.1485E+00
     21.758  0.7149E-02 -0.5566E-03  0.1509E+00  0.1484E+00
     21.916  0.5291E-02  0.4997E-03  0.1517E+00  0.1485E+00
     22.074  0.2044E-02  0.3716E-02  0.1520E+00  0.1490E+00
     22.232  0.3012E-02  0.5753E-02  0.1525E+00  0.1500E+00
     22.390  0.3832E-02  0.6104E-02  0.1531E+00  0.1509E+00
     22.548  0.4078E-02  0.3364E-02  0.1537E+00  0.1514E+00
     22.705  0.1016E-02  0.3557E-02  0.1539E+00  0.1520E+00
     22.863  0.2979E-02  0.5913E-02  0.1544E+00  0.1529E+00
     23.021  0.8450E-02  0.2272E-02  0.1557E+00  0.1533E+00
     23.179  0.5225E-02  0.4380E-03  0.1565E+00  0.1534E+00
     23.337  0.3755E-02  0.1592E-02  0.1571E+00  0.1536E+00
     23.495  0.3551E-02  0.3276E-02  0.1577E+00  0.1541E+00
     23.653  0.2672E-02  0.7430E-02  0.1581E+00  0.1553E+00
     23.811  0.4373E-02  0.7680E-02  0.1588E+00  0.1565E+00
     23.968  0.8921E-02  0.5102E-02  0.1602E+00  0.1573E+00
     24.126  0.7204E-02  0.3533E-02  0.1613E+00  0.1579E+00
     24.284  0.2071E-02  0.6895E-02  0.1617E+00  0.1590E+00
     24.442  0.2843E-02  0.8582E-02  0.1621E+00  0.1603E+00
     24.600  0.4908E-02  0.4664E-02  0.1629E+00  0.1611E+00
     24.758  0.3786E-02  0.4325E-02  0.1635E+00  0.1618E+00
     24.916  0.5015E-02  0.3054E-02  0.1643E+00  0.1622E+00
     25.073  0.7884E-02  0.2666E-02  0.1655E+00  0.1627E+00
     25.231  0.9189E-02  0.4232E-02  0.1670E+00  0.1633E+00
     25.389  0.5515E-02  0.5347E-02  0.1678E+00  0.1642E+00
     25.547  0.7854E-03  0.5582E-02  0.1680E+00  0.1650E+00
     25.705  0.2118E-02  0.1104E-01  0.1683E+00  0.1668E+00
     25.863  0.2384E-02  0.6986E-02  0.1687E+00  0.1679E+00
     26.021  0.3687E-02  0.7493E-04  0.1693E+00  0.1679E+00
     26.179  0.5437E-02  0.1140E-02  0.1701E+00  0.1681E+00
     26.336  0.7413E-02  0.2579E-02  0.1713E+00  0.1685E+00
     26.494  0.8558E-02  0.2460E-02  0.1726E+00  0.1689E+00
     26.652  0.5566E-02  0.4615E-02  0.1735E+00  0.1696E+00
     26.810  0.3545E-02  0.8889E-02  0.1741E+00  0.1710E+00
     26.968  0.3942E-02  0.1018E-01  0.1747E+00  0.1726E+00
     27.126  0.9203E-02  0.5920E-02  0.1762E+00  0.1736E+00
     27.284  0.8331E-02  0.3993E-02  0.1775E+00  0.1742E+00
     27.442  0.2751E-02  0.5235E-02  0.1779E+00  0.1750E+00
     27.599  0.1618E-02  0.1090E-01  0.1782E+00  0.1767E+00
     27.757 -0.1040E-03  0.8365E-02  0.1781E+00  0.1781E+00
     27.915  0.1244E-02  0.1084E-02  0.1783E+00  0.1782E+00
     28.073  0.4229E-02 -0.3850E-03  0.1790E+00  0.1782E+00
     28.231  0.3700E-02 -0.2011E-03  0.1796E+00  0.1781E+00
     28.389  0.5346E-02  0.1398E-02  0.1804E+00  0.1784E+00
     28.547  0.3769E-02  0.3794E-02  0.1810E+00  0.1790E+00
     28.705  0.1693E-03  0.3311E-02  0.1811E+00  0.1795E+00
     28.862  0.1373E-03  0.5904E-02  0.1811E+00  0.1804E+00
     29.020  0.1688E-02  0.3996E-02  0.1813E+00  0.1810E+00
     29.178  0.7953E-02  0.9494E-04  0.1826E+00  0.1811E+00
     29.336  0.8323E-02  0.4444E-03  0.1839E+00  0.1811E+00
     29.494  0.3604E-02  0.2873E-02  0.1845E+00  0.1816E+00
     29.652  0.1802E-02  0.5759E-02  0.1848E+00  0.1825E+00
     29.810  0.1755E-02  0.6295E-02  0.1850E+00  0.1835E+00
     29.968  0.1243E-02  0.4284E-02  0.1852E+00  0.1842E+00
     30.125  0.2308E-02  0.2538E-02  0.1856E+00  0.1846E+00
     30.283  0.4185E-02  0.2779E-02  0.1863E+00  0.1850E+00
     30.441  0.4865E-02  0.3623E-02  0.1870E+00  0.1856E+00
     30.599  0.6899E-02  0.4126E-02  0.1881E+00  0.1862E+00
     30.757  0.7211E-02  0.3639E-02  0.1893E+00  0.1868E+00
     30.915  0.3280E-02  0.2370E-02  0.1898E+00  0.1872E+00
     31.073  0.7294E-03  0.8080E-02  0.1899E+00  0.1884E+00
     31.231  0.1695E-02  0.7078E-02  0.1902E+00  0.1896E+00
     31.388  0.1033E-01  0.1297E-02  0.1918E+00  0.1898E+00
     31.546  0.1056E-01  0.5098E-02  0.1935E+00  0.1906E+00
     31.704  0.2665E-02  0.9725E-02  0.1939E+00  0.1921E+00
     31.862  0.1132E-02  0.7599E-02  0.1941E+00  0.1933E+00
     32.020  0.4903E-02  0.3713E-02  0.1948E+00  0.1939E+00
     32.178  0.3358E-02  0.1637E-02  0.1954E+00  0.1941E+00
     32.336 -0.3465E-04  0.2487E-02  0.1954E+00  0.1945E+00
     32.494 -0.2700E-03  0.2491E-02  0.1953E+00  0.1949E+00
     32.651 -0.7866E-04  0.2322E-02  0.1953E+00  0.1953E+00
     32.809  0.3110E-02  0.2932E-03  0.1958E+00  0.1953E+00
     32.967  0.5410E-02 -0.3622E-03  0.1966E+00  0.1953E+00
     33.125  0.3395E-02  0.1204E-02  0.1972E+00  0.1955E+00
     33.283  0.1665E-02  0.6138E-02  0.1974E+00  0.1964E+00
     33.441  0.1463E-04  0.5779E-02  0.1974E+00  0.1974E+00
     33.599 -0.8293E-04  0.7625E-03  0.1974E+00  0.1975E+00
     33.757 -0.6046E-05 -0.2645E-03  0.1974E+00  0.1974E+00
     33.914 -0.9579E-07 -0.3547E-04  0.1974E+00  0.1974E+00
     34.072 -0.4243E-09 -0.9284E-06  0.1974E+00  0.1974E+00
     34.230 -0.1311E-07 -0.9648E-08  0.1974E+00  0.1974E+00
     34.388 -0.1416E-05 -0.5116E-06  0.1974E+00  0.1974E+00
     34.546 -0.3654E-04 -0.1909E-04  0.1974E+00  0.1974E+00
     34.704 -0.1183E-03 -0.1241E-03  0.1974E+00  0.1974E+00
     34.862  0.9974E-03  0.5132E-03  0.1976E+00  0.1975E+00
     35.020  0.2705E-02  0.2568E-02  0.1980E+00  0.1979E+00
     35.177  0.9072E-03  0.1571E-02  0.1981E+00  0.1981E+00
     35.335  0.2829E-03 -0.1636E-03  0.1982E+00  0.1981E+00
     35.493  0.2439E-02  0.6949E-03  0.1986E+00  0.1982E+00
     35.651  0.1762E-02  0.2682E-02  0.1988E+00  0.1987E+00
     35.809  0.5499E-05  0.1285E-02  0.1988E+00  0.1989E+00
     35.967 -0.7420E-04 -0.9166E-04  0.1988E+00  0.1988E+00
     36.125 -0.3071E-04 -0.6809E-04  0.1988E+00  0.1988E+00
     36.282 -0.1274E-03 -0.1264E-03  0.1988E+00  0.1988E+00
     36.440  0.7152E-03  0.5152E-03  0.1989E+00  0.1989E+00
     36.598  0.2672E-02  0.2571E-02  0.1993E+00  0.1993E+00
     36.756  0.1337E-02  0.1595E-02  0.1996E+00  0.1996E+00
     36.914 -0.8403E-04 -0.3719E-04  0.1995E+00  0.1995E+00
     37.072 -0.5136E-04 -0.6423E-04  0.1995E+00  0.1995E+00
     37.230 -0.2512E-05 -0.3755E-05  0.1995E+00  0.1995E+00
     37.388 -0.2844E-07 -0.4936E-07  0.1995E+00  0.1995E+00
     37.545 -0.8458E-10 -0.1693E-09  0.1995E+00  0.1995E+00
     37.703 -0.6885E-13 -0.1584E-12  0.1995E+00  0.1995E+00
     37.861 -0.1575E-16 -0.4133E-16  0.1995E+00  0.1995E+00
     38.019  0.0000E+00  0.0000E+00  0.1995E+00  0.1995E+00
     38.177  0.0000E+00  0.0000E+00  0.1995E+00  0.1995E+00
     38.335  0.0000E+00  0.0000E+00  0.1995E+00  0.1995E+00
     38.493  0.0000E+00  0.0000E+00  0.1995E+00  0.1995E+00
     38.651  0.0000E+00  0.0000E+00  0.1995E+00  0.1995E+00
     38.808 -0.4871E-30 -0.5876E-31  0.1995E+00  0.1995E+00
     38.966 -0.7783E-25 -0.1157E-25  0.1995E+00  0.1995E+00
     39.124 -0.3534E-20 -0.6478E-21  0.1995E+00  0.1995E+00
     39.282 -0.4415E-16 -0.9953E-17  0.1995E+00  0.1995E+00
     39.440 -0.1582E-12 -0.4427E-13  0.1995E+00  0.1995E+00
     39.598 -0.1578E-09 -0.5471E-10  0.1995E+00  0.1995E+00
     39.756 -0.4290E-07 -0.1851E-07  0.1995E+00  0.1995E+00
     39.914 -0.3031E-05 -0.1645E-05  0.1995E+00  0.1995E+00
     40.071 -0.4737E-04 -0.3389E-04  0.1995E+00  0.1995E+00
     40.229 -0.4071E-05 -0.5706E-04  0.1995E+00  0.1995E+00
     40.387  0.1148E-02  0.8840E-03  0.1997E+00  0.1997E+00
     40.545  0.1668E-02  0.1783E-02  0.2000E+00  0.1999E+00
     40.703  0.2847E-03  0.4830E-03  0.2000E+00  0.2000E+00
     40.861 -0.8009E-04 -0.8489E-04  0.2000E+00  0.2000E+00
     41.019 -0.1094E-04 -0.1746E-04  0.2000E+00  0.2000E+00
     41.177 -0.2716E-06 -0.5548E-06  0.2000E+00  0.2000E+00
     41.334 -0.1686E-08 -0.4305E-08  0.2000E+00  0.2000E+00
     41.492 -0.2812E-11 -0.8915E-11  0.2000E+00  0.2000E+00
     41.650 -0.1296E-14 -0.5085E-14  0.2000E+00  0.2000E+00
     41.808  0.0000E+00 -0.6561E-18  0.2000E+00  0.2000E+00
     41.966  0.0000E+00  0.0000E+00  0.2000E+00  0.2000E+00
     42.124  0.0000E+00  0.0000E+00  0.2000E+00  0.2000E+00
     42.282  0.0000E+00  0.0000E+00  0.2000E+00  0.2000E+00
     42.440  0.0000E+00  0.0000E+00  0.2000E+00  0.2000E+00
     42.597  0.0000E+00  0.0000E+00  0.2000E+00  0.2000E+00
     42.59742041     -4.76453073  301      5.80538842      1.00000000
     -4.765  0.0000E+00  0.0000E+00  0.0000E+00  0.0000E+00  0.0000E+00  0.0000E+00  0.0000E+00  0.0000E+00  0.0000E+00  0.0000E+00  0.0000E+00  0.0000E+00  0.0000E+00  0.0000E+00  0.0000E+00  0.0000E+00  0.0000E+00  0.0000E+00
     -4.607  0.0000E+00  0.0000E+00  0.0000E+00  0.0000E+00  0.0000E+00  0.0000E+00  0.0000E+00  0.0000E+00  0.0000E+00  0.0000E+00  0.0000E+00  0.0000E+00  0.0000E+00  0.0000E+00  0.0000E+00  0.0000E+00  0.0000E+00  0.0000E+00
     -4.449  0.0000E+00  0.0000E+00  0.0000E+00  0.0000E+00  0.0000E+00  0.0000E+00  0.0000E+00  0.0000E+00  0.0000E+00  0.0000E+00  0.0000E+00  0.0000E+00  0.0000E+00  0.0000E+00  0.0000E+00  0.0000E+00  0.0000E+00  0.0000E+00
     -4.291 -0.3906E-32  0.0000E+00 -0.6257E-62  0.0000E+00 -0.6257E-62  0.0000E+00 -0.6257E-62  0.0000E+00 -0.2912E-46  0.0000E+00 -0.2912E-46  0.0000E+00 -0.3281E-48  0.0000E+00 -0.2912E-46  0.0000E+00 -0.3281E-48  0.0000E+00
     -4.133 -0.1083E-26 -0.5502E-34 -0.1736E-56 -0.2871E-64 -0.1736E-56 -0.2871E-64 -0.1736E-56 -0.2871E-64 -0.8076E-41 -0.7963E-47 -0.8076E-41 -0.7963E-47 -0.9100E-43 -0.7085E-47 -0.8076E-41 -0.7963E-47 -0.9100E-43 -0.7085E-47
     -3.975 -0.8549E-22 -0.2278E-28 -0.1370E-51 -0.1189E-58 -0.1370E-51 -0.1189E-58 -0.1370E-51 -0.1189E-58 -0.6373E-36 -0.3297E-41 -0.6373E-36 -0.3297E-41 -0.7181E-38 -0.2934E-41 -0.6373E-36 -0.3297E-41 -0.7181E-38 -0.2934E-41
     -3.817 -0.1914E-17 -0.2686E-23 -0.2445E-31  0.0000E+00 -0.2445E-31  0.0000E+00 -0.2445E-31  0.0000E+00 -0.1427E-31 -0.3887E-36 -0.1427E-31 -0.3887E-36 -0.1481E-32 -0.3458E-36 -0.1427E-31 -0.3887E-36 -0.1481E-32 -0.3458E-36
     -3.659 -0.1168E-13 -0.8991E-19 -0.4451E-26 -0.3172E-33 -0.4451E-26 -0.3172E-33 -0.4451E-26 -0.3172E-33 -0.8708E-28 -0.1301E-31 -0.8708E-28 -0.1301E-31 -0.2414E-27 -0.1159E-31 -0.8708E-28 -0.1301E-31 -0.2414E-27 -0.1159E-31
     -3.502 -0.2048E-10 -0.8240E-15 -0.2303E-21 -0.8804E-28 -0.2303E-21 -0.8804E-28 -0.2303E-21 -0.8804E-28 -0.1527E-24 -0.1193E-27 -0.1527E-24 -0.1193E-27 -0.1244E-22 -0.1094E-27 -0.1527E-24 -0.1193E-27 -0.1244E-22 -0.1094E-27
     -3.344 -0.9890E-08 -0.2172E-11 -0.3286E-17 -0.6953E-23 -0.3286E-17 -0.6953E-23 -0.3286E-17 -0.6953E-23 -0.7373E-22 -0.3144E-24 -0.7373E-22 -0.3144E-24 -0.1775E-18 -0.5380E-24 -0.7373E-22 -0.3144E-24 -0.1775E-18 -0.5380E-24
     -3.186 -0.1274E-05 -0.1587E-08 -0.1343E-13 -0.1558E-18 -0.1343E-13 -0.1558E-18 -0.1343E-13 -0.1558E-18 -0.9501E-20 -0.2296E-21 -0.9501E-20 -0.2296E-21 -0.7251E-15 -0.5992E-20 -0.9501E-20 -0.2296E-21 -0.7251E-15 -0.5992E-20
     -3.028 -0.4012E-04 -0.3133E-06 -0.1531E-10 -0.9513E-15 -0.1531E-10 -0.9513E-15 -0.1531E-10 -0.9513E-15 -0.3051E-18 -0.4534E-19 -0.3051E-18 -0.4534E-19 -0.8268E-12 -0.3538E-16 -0.3051E-18 -0.4534E-19 -0.8268E-12 -0.3538E-16
     -2.870 -0.1953E-03 -0.1573E-04 -0.4771E-08 -0.1669E-11 -0.4771E-08 -0.1669E-11 -0.4771E-08 -0.1669E-11 -0.5013E-16 -0.2277E-17 -0.5013E-16 -0.2277E-17 -0.2577E-09 -0.6201E-13 -0.5013E-16 -0.2277E-17 -0.2577E-09 -0.6201E-13
     -2.712  0.1082E-02 -0.1583E-03 -0.3893E-06 -0.8066E-09 -0.3893E-06 -0.8066E-09 -0.3893E-06 -0.8066E-09 -0.1136E-12 -0.2427E-16 -0.1136E-12 -0.2427E-16 -0.2102E-07 -0.2997E-10 -0.1136E-12 -0.2427E-16 -0.2102E-07 -0.2997E-10
     -2.554  0.3585E-02  0.3206E-03 -0.7243E-05 -0.1040E-06 -0.7243E-05 -0.1040E-06 -0.7243E-05 -0.1040E-06 -0.7332E-10 -0.5054E-14 -0.7332E-10 -0.5054E-14 -0.3911E-06 -0.3864E-08 -0.7332E-10 -0.5054E-14 -0.3911E-06 -0.3864E-08
     -2.396  0.1483E-02  0.3212E-02 -0.7836E-05 -0.3277E-05 -0.7836E-05 -0.3277E-05 -0.7836E-05 -0.3277E-05 -0.1276E-07 -0.5315E-11 -0.1276E-07 -0.5315E-11 -0.4205E-06 -0.1217E-06 -0.1276E-07 -0.5315E-11 -0.4205E-06 -0.1217E-06
     -2.239  0.1263E-01  0.2043E-02  0.1775E-03 -0.1598E-04  0.1775E-03 -0.1598E-04  0.1775E-03 -0.1598E-04 -0.5586E-06 -0.1511E-08 -0.5586E-06 -0.1511E-08  0.9703E-05 -0.5933E-06 -0.5586E-06 -0.1511E-08  0.9703E-05 -0.5933E-06
     -2.081  0.2111E-01  0.6482E-02  0.2733E-03  0.8870E-04  0.2733E-03  0.8870E-04  0.2733E-03  0.8870E-04 -0.4633E-05 -0.1119E-06 -0.4633E-05 -0.1119E-06  0.1575E-04  0.3323E-05 -0.4633E-05 -0.1119E-06  0.1575E-04  0.3323E-05
     -1.923  0.1103E-01  0.2229E-01  0.2351E-03  0.3032E-03  0.2351E-03  0.3032E-03  0.2351E-03  0.3032E-03  0.1356E-04 -0.1852E-05  0.1356E-04 -0.1852E-05  0.9813E-05  0.1172E-04  0.1356E-04 -0.1852E-05  0.9813E-05  0.1172E-04
     -1.765  0.3905E-01  0.1123E-01  0.1102E-02  0.1534E-03  0.1102E-02  0.1534E-03  0.1102E-02  0.1534E-03  0.9400E-04 -0.7582E-06  0.9400E-04 -0.7582E-06  0.3990E-04  0.5889E-05  0.9400E-04 -0.7582E-06  0.3990E-04  0.5889E-05
     -1.607  0.3021E-01  0.2673E-01  0.8374E-03  0.7668E-03  0.8374E-03  0.7668E-03  0.8374E-03  0.7668E-03  0.6938E-04  0.4466E-04  0.6938E-04  0.4466E-04  0.3107E-04  0.1754E-04  0.6938E-04  0.4466E-04  0.3107E-04  0.1754E-04
     -1.449  0.1504E-01  0.4118E-01  0.6269E-03  0.1156E-02  0.6269E-03  0.1156E-02  0.6269E-03  0.1156E-02  0.9624E-04  0.6465E-04  0.9624E-04  0.6465E-04 -0.2019E-05  0.2759E-04  0.9624E-04  0.6465E-04 -0.2019E-05  0.2759E-04
     -1.291  0.2634E-01  0.1342E-01  0.1119E-02  0.4590E-03  0.1119E-02  0.4590E-03  0.1119E-02  0.4590E-03  0.1824E-03  0.3770E-04  0.1824E-03  0.3770E-04 -0.1782E-04  0.4929E-05  0.1824E-03  0.3770E-04 -0.1782E-04  0.4929E-05
     -1.133  0.1106E-01  0.2493E-01  0.5327E-03  0.1096E-02  0.5327E-03  0.1096E-02  0.5327E-03  0.1096E-02  0.4253E-04  0.1218E-03  0.4253E-04  0.1218E-03  0.6309E-04 -0.6827E-05  0.4253E-04  0.1218E-03  0.6309E-04 -0.6827E-05
     -0.976  0.1502E-01  0.1685E-01  0.8977E-03  0.7253E-03  0.8977E-03  0.7253E-03  0.8977E-03  0.7253E-03 -0.5800E-04  0.7844E-04 -0.5800E-04  0.7844E-04  0.2804E-03 -0.3136E-05 -0.5800E-04  0.7844E-04  0.2804E-03 -0.3136E-05
     -0.818  0.2056E-01  0.1106E-01  0.1346E-02  0.6659E-03  0.1346E-02  0.6659E-03  0.1346E-02  0.6659E-03  0.1301E-03 -0.1104E-04  0.1301E-03 -0.1104E-04  0.3653E-03  0.1245E-03  0.1301E-03 -0.1104E-04  0.3653E-03  0.1245E-03
     -0.660  0.6590E-01  0.1533E-01  0.4695E-02  0.8999E-03  0.4695E-02  0.8999E-03  0.4695E-02  0.8999E-03  0.9683E-03 -0.3576E-04  0.9683E-03 -0.3576E-04  0.1187E-02  0.1758E-03  0.9683E-03 -0.3576E-04  0.1187E-02  0.1758E-03
     -0.502  0.5653E-01  0.3141E-01  0.4098E-02  0.2263E-02  0.4098E-02  0.2263E-02  0.4098E-02  0.2263E-02  0.8988E-03  0.2515E-03  0.8988E-03  0.2515E-03  0.1000E-02  0.3341E-03  0.8988E-03  0.2515E-03  0.1000E-02  0.3341E-03
     -0.344  0.5622E-01  0.7496E-01  0.4837E-02  0.5490E-02  0.4837E-02  0.5490E-02  0.4837E-02  0.5490E-02  0.1616E-02  0.6711E-03  0.1616E-02  0.6711E-03  0.7873E-03  0.7987E-03  0.1616E-02  0.6711E-03  0.7873E-03  0.7987E-03
     -0.186  0.5904E-01  0.4228E-01  0.5126E-02  0.3303E-02  0.5126E-02  0.3303E-02  0.5126E-02  0.3303E-02  0.1682E-02  0.4979E-03  0.1682E-02  0.4979E-03  0.7707E-03  0.4160E-03  0.1682E-02  0.4979E-03  0.7707E-03  0.4160E-03
     -0.028  0.7510E-02  0.6577E-01  0.6592E-03  0.5936E-02  0.6592E-03  0.5936E-02  0.6592E-03  0.5936E-02  0.2999E-03  0.1239E-02  0.2999E-03  0.1239E-02  0.1541E-03  0.5156E-03  0.2999E-03  0.1239E-02  0.1541E-03  0.5156E-03
      0.130  0.1884E-01  0.4659E-01  0.1780E-02  0.4179E-02  0.1780E-02  0.4179E-02  0.1780E-02  0.4179E-02  0.2113E-02  0.8541E-03  0.2113E-02  0.8541E-03  0.1244E-02  0.3620E-03  0.2113E-02  0.8541E-03  0.1244E-02  0.3620E-03
      0.287  0.2274E-01 -0.1671E-02  0.2061E-02 -0.1774E-03  0.2061E-02 -0.1774E-03  0.2061E-02 -0.1774E-03  0.2372E-02 -0.8745E-04  0.2372E-02 -0.8745E-04  0.1258E-02 -0.4274E-04  0.2372E-02 -0.8745E-04  0.1258E-02 -0.4274E-04
      0.445  0.3375E-01  0.7197E-02  0.4086E-02  0.8025E-03  0.4086E-02  0.8025E-03  0.4086E-02  0.8025E-03  0.3462E-02  0.4675E-03  0.3462E-02  0.4675E-03  0.1509E-02  0.2313E-03  0.3462E-02  0.4675E-03  0.1509E-02  0.2313E-03
      0.603  0.7753E-01  0.2970E-01  0.1028E-01  0.3114E-02  0.1028E-01  0.3114E-02  0.1028E-01  0.3114E-02  0.6168E-02  0.1636E-02  0.6168E-02  0.1636E-02  0.5397E-02  0.7944E-03  0.6168E-02  0.1636E-02  0.5397E-02  0.7944E-03
      0.761  0.7461E-01  0.2271E-01  0.1076E-01  0.2622E-02  0.1076E-01  0.2622E-02  0.1076E-01  0.2622E-02  0.7227E-02  0.1325E-02  0.7227E-02  0.1325E-02  0.1208E-01  0.5238E-03  0.7227E-02  0.1325E-02  0.1208E-01  0.5238E-03
      0.919  0.9391E-01  0.6229E-01  0.1203E-01  0.8471E-02  0.1203E-01  0.8471E-02  0.1203E-01  0.8471E-02  0.2626E-01  0.3509E-02  0.2626E-01  0.3509E-02  0.2966E-01  0.1627E-02  0.2626E-01  0.3509E-02  0.2966E-01  0.1627E-02
      1.077  0.8983E-01  0.6692E-01  0.1072E-01  0.9525E-02  0.1072E-01  0.9525E-02  0.1072E-01  0.9525E-02  0.3800E-01  0.3226E-02  0.3800E-01  0.3226E-02  0.4757E-01  0.2939E-02  0.3800E-01  0.3226E-02  0.4757E-01  0.2939E-02
      1.235  0.9376E-01  0.5465E-01  0.1145E-01  0.8828E-02  0.1145E-01  0.8828E-02  0.1145E-01  0.8828E-02  0.6727E-01  0.1900E-02  0.6727E-01  0.1900E-02  0.9549E-01  0.5095E-02  0.6727E-01  0.1900E-02  0.9549E-01  0.5095E-02
      1.393  0.9189E-01  0.4916E-01  0.1289E-01  0.8368E-02  0.1289E-01  0.8368E-02  0.1289E-01  0.8368E-02  0.7213E-01  0.2217E-02  0.7213E-01  0.2217E-02  0.1377E+00  0.4602E-02  0.7213E-01  0.2217E-02  0.1377E+00  0.4602E-02
      1.550  0.5183E-01  0.5337E-01  0.1321E-01  0.9367E-02  0.1321E-01  0.9367E-02  0.1321E-01  0.9367E-02  0.3781E-01  0.4066E-02  0.3781E-01  0.4066E-02  0.1651E+00  0.4945E-02  0.3781E-01  0.4066E-02  0.1651E+00  0.4945E-02
      1.708  0.6044E-01  0.5264E-01  0.1904E-01  0.8268E-02  0.1904E-01  0.8268E-02  0.1904E-01  0.8268E-02  0.4729E-01  0.8488E-02  0.4729E-01  0.8488E-02  0.2123E+00  0.6599E-02  0.4729E-01  0.8488E-02  0.2123E+00  0.6599E-02
      1.866  0.6400E-01  0.5223E-01  0.2435E-01  0.8491E-02  0.2435E-01  0.8491E-02  0.2435E-01  0.8491E-02  0.8071E-01  0.1033E-01  0.8071E-01  0.1033E-01  0.2430E+00  0.5786E-02  0.8071E-01  0.1033E-01  0.2430E+00  0.5786E-02
      2.024  0.5112E-01  0.7711E-01  0.1972E-01  0.1319E-01  0.1972E-01  0.1319E-01  0.1972E-01  0.1319E-01  0.1106E+00  0.2144E-01  0.1106E+00  0.2144E-01  0.1852E+00  0.1098E-01  0.1106E+00  0.2144E-01  0.1852E+00  0.1098E-01
      2.182  0.1378E-01  0.8367E-01  0.2735E-02  0.1327E-01  0.2735E-02  0.1327E-01  0.2735E-02  0.1327E-01  0.4005E-01  0.2756E-01  0.4005E-01  0.2756E-01  0.1174E-01  0.1511E-01  0.4005E-01  0.2756E-01  0.1174E-01  0.1511E-01
      2.340  0.7357E-04  0.2973E-01  0.2740E-02  0.2678E-02  0.2740E-02  0.2678E-02  0.2740E-02  0.2678E-02  0.4131E-01  0.1975E-01  0.4131E-01  0.1975E-01  0.3120E-01  0.1145E-01  0.4131E-01  0.1975E-01  0.3120E-01  0.1145E-01
      2.498  0.2630E-02  0.3806E-01  0.2274E-01  0.4227E-02  0.2274E-01  0.4227E-02  0.2274E-01  0.4227E-02  0.2356E+00  0.2955E-01  0.2356E+00  0.2955E-01  0.2165E+00  0.2266E-01  0.2356E+00  0.2955E-01  0.2165E+00  0.2266E-01
      2.656  0.3113E-02  0.7079E-01  0.2580E-01  0.1496E-01  0.2580E-01  0.1496E-01  0.2580E-01  0.1496E-01  0.3358E+00  0.4047E-01  0.3358E+00  0.4047E-01  0.2134E+00  0.4843E-01  0.3358E+00  0.4047E-01  0.2134E+00  0.4843E-01
      2.813  0.4238E-02  0.1035E+00  0.1456E-01  0.2667E-01  0.1456E-01  0.2667E-01  0.1456E-01  0.2667E-01  0.2878E+00  0.5452E-01  0.2878E+00  0.5452E-01  0.7841E-01  0.6163E-01  0.2878E+00  0.5452E-01  0.7841E-01  0.6163E-01
      2.971  0.9164E-02  0.8681E-01  0.1345E-01  0.2389E-01  0.1345E-01  0.2389E-01  0.1345E-01  0.2389E-01  0.1971E+00  0.5010E-01  0.1971E+00  0.5010E-01  0.3822E-01  0.6897E-01  0.1971E+00  0.5010E-01  0.3822E-01  0.6897E-01
      3.129  0.1347E-01  0.3440E-01  0.1963E-01  0.1148E-01  0.1963E-01  0.1148E-01  0.1963E-01  0.1148E-01  0.2299E+00  0.3002E-01  0.2299E+00  0.3002E-01  0.1063E+00  0.9598E-01  0.2299E+00  0.3002E-01  0.1063E+00  0.9598E-01