unknown system                          
   1.00000000000000     
     2.797700   -0.000000    0.000000
     0.000000    2.797700    0.000000
     0.000000   -0.000000    2.797700
   Fe
     2
Direct
  0.000000  0.000000  0.000000
  0.500000  0.500000  0.500000
 
   36   36   36
  199.02      194.05      179.84      158.33      132.27      104.67      78.307      55.312      36.990      23.763    
  15.275      10.566      8.3603      7.2806      6.5128      5.9923      5.6729      5.5106      5.4586      5.5106    
  5.6729      5.9923      6.5128      7.2806      8.3603      10.566      15.275      23.763      36.990      55.312    
  78.307      104.67      132.27      158.33      179.84      194.05      194.05      189.22      175.41      154.49    
  129.12      102.23      76.506      54.056      36.171      23.273      15.018      10.456      8.3247      7.2644    
  6.5027      5.9888      5.6731      5.5133      5.4616      5.5133      5.6731      5.9888      6.5027      7.2644    
  8.3247      10.456      15.018      23.273      36.171      54.056      76.506      102.23      129.12      154.49    
  175.41      189.22      179.84      175.41      162.74      143.49      120.08      95.177      71.300      50.426    
  33.807      21.868      14.286      10.148      8.2246      7.2152      6.4732      5.9783      5.6737      5.5206    
  5.4705      5.5206      5.6737      5.9783      6.4732      7.2152      8.2246      10.148      14.286      21.868    
  33.807      50.426      71.300      95.177      120.08      143.49      162.74      175.41      158.33      154.49    
  143.49      126.73      106.24      84.343      63.270      44.824      30.174      19.732      13.197      9.7042    
  8.0750      7.1315      6.4255      5.9603      5.6747      5.5315      5.4846      5.5315      5.6747      5.9603    
  6.4255      7.1315      8.0750      9.7042      13.197      19.732      30.174      44.824      63.270      84.343    
  106.24      126.73      143.49      154.49      132.27      129.12      120.08      106.24      89.229      70.963    
  53.328      37.901      25.722      17.163      11.928      9.2075      7.8893      7.0127      6.3626      5.9350    
  5.6761      5.5440      5.5026      5.5440      5.6761      5.9350      6.3626      7.0127      7.8893      9.2075    
  11.928      17.163      25.722      37.901      53.328      70.963      89.229      106.24      120.08      129.12    
  104.67      102.23      95.177      84.343      70.963      56.543      42.608      30.480      21.025      14.530    
  10.685      8.7332      7.6682      6.8644      6.2870      5.9037      5.6766      5.5569      5.5222      5.5569    
  5.6766      5.9037      6.2870      6.8644      7.6682      8.7332      10.685      14.530      21.025      30.480    
  42.608      56.543      70.963      84.343      95.177      102.23      78.307      76.506      71.300      63.270    
  53.328      42.608      32.302      23.438      16.677      12.190      9.6379      8.3069      7.4068      6.6993    
  6.2008      5.8702      5.6739      5.5698      5.5394      5.5698      5.6739      5.8702      6.2008      6.6993    
  7.4068      8.3069      9.6379      12.190      16.677      23.438      32.302      42.608      53.328      63.270    
  71.300      76.506      55.312      54.056      50.426      44.824      37.901      30.480      23.438      17.514    
  13.157      10.389      8.8511      7.8938      7.1183      6.5289      6.1093      5.8356      5.6674      5.5809    
  5.5526      5.5809      5.6674      5.8356      6.1093      6.5289      7.1183      7.8938      8.8511      10.389    
  13.157      17.514      23.438      30.480      37.901      44.824      50.426      54.056      36.990      36.171    
  33.807      30.174      25.722      21.025      16.677      13.157      10.686      9.1793      8.2348      7.4643    
  6.8339      6.3583      6.0221      5.7980      5.6598      5.5855      5.5625      5.5855      5.6598      5.7980    
  6.0221      6.3583      6.8339      7.4643      8.2348      9.1793      10.686      13.157      16.677      21.025    
  25.722      30.174      33.807      36.171      23.763      23.273      21.868      19.732      17.163      14.530    
  12.190      10.389      9.1793      8.3584      7.6602      7.0528      6.5675      6.2008      5.9389      5.7605    
  5.6478      5.5855      5.5659      5.5855      5.6478      5.7605      5.9389      6.2008      6.5675      7.0528    
  7.6602      8.3584      9.1793      10.389      12.190      14.530      17.163      19.732      21.868      23.273    
  15.275      15.018      14.286      13.197      11.928      10.685      9.6379      8.8511      8.2348      7.6602    
  7.1326      6.6876      6.3312      6.0606      5.8626      5.7238      5.6318      5.5797      5.5625      5.5797    
  5.6318      5.7238      5.8626      6.0606      6.3312      6.6876      7.1326      7.6602      8.2348      8.8511    
  9.6379      10.685      11.928      13.197      14.286      15.018      10.566      10.456      10.148      9.7042    
  9.2075      8.7332      8.3069      7.8938      7.4643      7.0528      6.6876      6.3792      6.1319      5.9395    
  5.7934      5.6854      5.6110      5.5670      5.5526      5.5670      5.6110      5.6854      5.7934      5.9395    
  6.1319      6.3792      6.6876      7.0528      7.4643      7.8938      8.3069      8.7332      9.2075      9.7042    
  10.148      10.456      8.3603      8.3247      8.2246      8.0750      7.8893      7.6682      7.4068      7.1183    
  6.8339      6.5675      6.3312      6.1319      5.9682      5.8353      5.7289      5.6471      5.5879      5.5518    
  5.5394      5.5518      5.5879      5.6471      5.7289      5.8353      5.9682      6.1319      6.3312      6.5675    
  6.8339      7.1183      7.4068      7.6682      7.8893      8.0750      8.2246      8.3247      7.2806      7.2644    
  7.2152      7.1315      7.0127      6.8644      6.6993      6.5289      6.3583      6.2008      6.0606      5.9395    
  5.8353      5.7458      5.6712      5.6096      5.5625      5.5325      5.5222      5.5325      5.5625      5.6096    
  5.6712      5.7458      5.8353      5.9395      6.0606      6.2008      6.3583      6.5289      6.6993      6.8644    
  7.0127      7.1315      7.2152      7.2644      6.5128      6.5027      6.4732      6.4255      6.3626      6.2870    
  6.2008      6.1093      6.0221      5.9389      5.8626      5.7934      5.7289      5.6712      5.6185      5.5722    
  5.5350      5.5110      5.5026      5.5110      5.5350      5.5722      5.6185      5.6712      5.7289      5.7934    
  5.8626      5.9389      6.0221      6.1093      6.2008      6.2870      6.3626      6.4255      6.4732      6.5027    
  5.9923      5.9888      5.9783      5.9603      5.9350      5.9037      5.8702      5.8356      5.7980      5.7605    
  5.7238      5.6854      5.6471      5.6096      5.5722      5.5374      5.5092      5.4909      5.4846      5.4909    
  5.5092      5.5374      5.5722      5.6096      5.6471      5.6854      5.7238      5.7605      5.7980      5.8356    
  5.8702      5.9037      5.9350      5.9603      5.9783      5.9888      5.6729      5.6731      5.6737      5.6747    
  5.6761      5.6766      5.6739      5.6674      5.6598      5.6478      5.6318      5.6110      5.5879      5.5625    
  5.5350      5.5092      5.4884      5.4751      5.4705      5.4751      5.4884      5.5092      5.5350      5.5625    
  5.5879      5.6110      5.6318      5.6478      5.6598      5.6674      5.6739      5.6766      5.6761      5.6747    
  5.6737      5.6731      5.5106      5.5133      5.5206      5.5315      5.5440      5.5569      5.5698      5.5809    
  5.5855      5.5855      5.5797      5.5670      5.5518      5.5325      5.5110      5.4909      5.4751      5.4650    
  5.4616      5.4650      5.4751      5.4909      5.5110      5.5325      5.5518      5.5670      5.5797      5.5855    
  5.5855      5.5809      5.5698      5.5569      5.5440      5.5315      5.5206      5.5133      5.4586      5.4616    
  5.4705      5.4846      5.5026      5.5222      5.5394      5.5526      5.5625      5.5659      5.5625      5.5526    
  5.5394      5.5222      5.5026      5.4846      5.4705      5.4616      5.4586      5.4616      5.4705      5.4846    
  5.5026      5.5222      5.5394      5.5526      5.5625      5.5659      5.5625      5.5526      5.5394      5.5222    
  5.5026      5.4846      5.4705      5.4616      5.5106      5.5133      5.5206      5.5315      5.5440      5.5569    
  5.5698      5.5809      5.5855      5.5855      5.5797      5.5670      5.5518      5.5325      5.5110      5.4909    
  5.4751      5.4650      5.4616      5.4650      5.4751      5.4909      5.5110      5.5325      5.5518      5.5670    
  5.5797      5.5855      5.5855      5.5809      5.5698      5.5569      5.5440      5.5315      5.5206      5.5133    
  5.6729      5.6731      5.6737      5.6747      5.6761      5.6766      5.6739      5.6674      5.6598      5.6478    
  5.6318      5.6110      5.5879      5.5625      5.5350      5.5092      5.4884      5.4751      5.4705      5.4751    
  5.4884      5.5092      5.5350      5.5625      5.5879      5.6110      5.6318      5.6478      5.6598      5.6674    
  5.6739      5.6766      5.6761      5.6747      5.6737      5.6731      5.9923      5.9888      5.9783      5.9603    
  5.9350      5.9037      5.8702      5.8356      5.7980      5.7605      5.7238      5.6854      5.6471      5.6096    
  5.5722      5.5374      5.5092      5.4909      5.4846      5.4909      5.5092      5.5374      5.5722      5.6096    
  5.6471      5.6854      5.7238      5.7605      5.7980      5.8356      5.8702      5.9037      5.9350      5.9603    
  5.9783      5.9888      6.5128      6.5027      6.4732      6.4255      6.3626      6.2870      6.2008      6.1093    
  6.0221      5.9389      5.8626      5.7934      5.7289      5.6712      5.6185      5.5722      5.5350      5.5110    
  5.5026      5.5110      5.5350      5.5722      5.6185      5.6712      5.7289      5.7934      5.8626      5.9389    
  6.0221      6.1093      6.2008      6.2870      6.3626      6.4255      6.4732      6.5027      7.2806      7.2644    
  7.2152      7.1315      7.0127      6.8644      6.6993      6.5289      6.3583      6.2008      6.0606      5.9395    
  5.8353      5.7458      5.6712      5.6096      5.5625      5.5325      5.5222      5.5325      5.5625      5.6096    
  5.6712      5.7458      5.8353      5.9395      6.0606      6.2008      6.3583      6.5289      6.6993      6.8644    
  7.0127      7.1315      7.2152      7.2644      8.3603      8.3247      8.2246      8.0750      7.8893      7.6682    
  7.4068      7.1183      6.8339      6.5675      6.3312      6.1319      5.9682      5.8353      5.7289      5.6471    
  5.5879      5.5518      5.5394      5.5518      5.5879      5.6471      5.7289      5.8353      5.9682      6.1319    
  6.3312      6.5675      6.8339      7.1183      7.4068      7.6682      7.8893      8.0750      8.2246      8.3247    
  10.566      10.456      10.148      9.7042      9.2075      8.7332      8.3069      7.8938      7.4643      7.0528    
  6.6876      6.3792      6.1319      5.9395      5.7934      5.6854      5.6110      5.5670      5.5526      5.5670    
  5.6110      5.6854      5.7934      5.9395      6.1319      6.3792      6.6876      7.0528      7.4643      7.8938    
  8.3069      8.7332      9.2075      9.7042      10.148      10.456      15.275      15.018      14.286      13.197    
  11.928      10.685      9.6379      8.8511      8.2348      7.6602      7.1326      6.6876      6.3312      6.0606    
  5.8626      5.7238      5.6318      5.5797      5.5625      5.5797      5.6318      5.7238      5.8626      6.0606    
  6.3312      6.6876      7.1326      7.6602      8.2348      8.8511      9.6379      10.685      11.928      13.197    
  14.286      15.018      23.763      23.273      21.868      19.732      17.163      14.530      12.190      10.389    
  9.1793      8.3584      7.6602      7.0528      6.5675      6.2008      5.9389      5.7605      5.6478      5.5855    
  5.5659      5.5855      5.6478      5.7605      5.9389      6.2008      6.5675      7.0528      7.6602      8.3584    
  9.1793      10.389      12.190      14.530      17.163      19.732      21.868      23.273      36.990      36.171    
  33.807      30.174      25.722      21.025      16.677      13.157      10.686      9.1793      8.2348      7.4643    
  6.8339      6.3583      6.0221      5.7980      5.6598      5.5855      5.5625      5.5855      5.6598      5.7980    
  6.0221      6.3583      6.8339      7.4643      8.2348      9.1793      10.686      13.157      16.677      21.025    
  25.722      30.174      33.807      36.171      55.312      54.056      50.426      44.824      37.901      30.480    
  23.438      17.514      13.157      10.389      8.8511      7.8938      7.1183      6.5289      6.1093      5.8356    
  5.6674      5.5809      5.5526      5.5809      5.6674      5.8356      6.1093      6.5289      7.1183      7.8938    
  8.8511      10.389      13.157      17.514      23.438      30.480      37.901      44.824      50.426      54.056    
  78.307      76.506      71.300      63.270      53.328      42.608      32.302      23.438      16.677      12.190    
  9.6379      8.3069      7.4068      6.6993      6.2008      5.8702      5.6739      5.5698      5.5394      5.5698    
  5.6739      5.8702      6.2008      6.6993      7.4068      8.3069      9.6379      12.190      16.677      23.438    
  32.302      42.608      53.328      63.270      71.300      76.506      104.67      102.23      95.177      84.343    
  70.963      56.543      42.608      30.480      21.025      14.530      10.685      8.7332      7.6682      6.8644    
  6.2870      5.9037      5.6766      5.5569      5.5222      5.5569      5.6766      5.9037      6.2870      6.8644    
  7.6682      8.7332      10.685      14.530      21.025      30.480      42.608      56.543      70.963      84.343    
  95.177      102.23      132.27      129.12      120.08      106.24      89.229      70.963      53.328      37.901    
  25.722      17.163      11.928      9.2075      7.8893      7.0127      6.3626      5.9350      5.6761      5.5440    
  5.5026      5.5440      5.6761      5.9350      6.3626      7.0127      7.8893      9.2075      11.928      17.163    
  25.722      37.901      53.328      70.963      89.229      106.24      120.08      129.12      158.33      154.49    
  143.49      126.73      106.24      84.343      63.270      44.824      30.174      19.732      13.197      9.7042    
  8.0750      7.1315      6.4255      5.9603      5.6747      5.5315      5.4846      5.5315      5.6747      5.9603    
  6.4255      7.1315      8.0750      9.7042      13.197      19.732      30.174      44.824      63.270      84.343    
  106.24      126.73      143.49      154.49      179.84      175.41      162.74      143.49      120.08      95.177    
  71.300      50.426      33.807      21.868      14.286      10.148      8.2246      7.2152      6.4732      5.9783    
  5.6737      5.5206      5.4705      5.5206      5.6737      5.9783      6.4732      7.2152      8.2246      10.148    
  14.286      21.868      33.807      50.426      71.300      95.177      120.08      143.49      162.74      175.41    
  194.05      189.22      175.41      154.49      129.12      102.23      76.506      54.056      36.171      23.273    
  15.018      10.456      8.3247      7.2644      6.5027      5.9888      5.6731      5.5133      5.4616      5.5133    
  5.6731      5.9888      6.5027      7.2644      8.3247      10.456      15.018      23.273      36.171      54.056    
  76.506      102.23      129.12      154.49      175.41      189.22      194.05      189.22      175.41      154.49    
  129.12      102.23      76.506      54.056      36.171      23.273      15.018      10.456      8.3247      7.2644    
  6.5027      5.9888      5.6731      5.5133      5.4616      5.5133      5.6731      5.9888      6.5027      7.2644    
  8.3247      10.456      15.018      23.273      36.171      54.056      76.506      102.23      129.12      154.49    
  175.41      189.22      189.22      184.53      171.11      150.76      126.06      99.841      74.745      52.827    
  35.371      22.796      14.768      10.351      8.2910      7.2487      6.4933      5.9859      5.6737      5.5163    
  5.4650      5.5163      5.6737      5.9859      6.4933      7.2487      8.2910      10.351      14.768      22.796    
  35.371      52.827      74.745      99.841      126.06      150.76      171.11      184.53      175.41      171.11    
  158.78      140.05      117.24      92.959      69.655      49.277      33.060      21.426      14.060      10.056    
  8.1959      7.2010      6.4655      5.9766      5.6757      5.5247      5.4751      5.5247      5.6757      5.9766    
  6.4655      7.2010      8.1959      10.056      14.060      21.426      33.060      49.277      69.655      92.959    
  117.24      140.05      158.78      171.11      154.49      150.76      140.05      123.72      103.74      82.378    
  61.806      43.801      29.513      19.347      13.007      9.6313      8.0527      7.1194      6.4208      5.9608    
  5.6787      5.5371      5.4909      5.5371      5.6787      5.9608      6.4208      7.1194      8.0527      9.6313    
  13.007      19.347      29.513      43.801      61.806      82.378      103.74      123.72      140.05      150.76    
  129.12      126.06      117.24      103.74      87.142      69.309      52.091      37.040      25.172      16.853    
  11.782      9.1569      7.8731      7.0037      6.3611      5.9379      5.6825      5.5515      5.5110      5.5515    
  5.6825      5.9379      6.3611      7.0037      7.8731      9.1569      11.782      16.853      25.172      37.040    
  52.091      69.309      87.142      103.74      117.24      126.06      102.23      99.841      92.959      82.378    
  69.309      55.226      41.626      29.802      20.601      14.302      10.586      8.7030      7.6562      6.8595    
  6.2889      5.9098      5.6853      5.5666      5.5325      5.5666      5.6853      5.9098      6.2889      6.8595    
  7.6562      8.7030      10.586      14.302      20.601      29.802      41.626      55.226      69.309      82.378    
  92.959      99.841      76.506      74.745      69.655      61.806      52.091      41.626      31.574      22.945    
  16.382      12.042      9.5828      8.2900      7.3987      6.6991      6.2060      5.8793      5.6849      5.5820    
  5.5518      5.5820      5.6849      5.8793      6.2060      6.6991      7.3987      8.2900      9.5828      12.042    
  16.382      22.945      31.574      41.626      52.091      61.806      69.655      74.745      54.056      52.827    
  49.277      43.801      37.040      29.802      22.945      17.194      12.979      10.310      8.8257      7.8834    
  7.1155      6.5330      6.1183      5.8477      5.6810      5.5952      5.5670      5.5952      5.6810      5.8477    
  6.1183      6.5330      7.1155      7.8834      8.8257      10.310      12.979      17.194      22.945      29.802    
  37.040      43.801      49.277      52.827      36.171      35.371      33.060      29.513      25.172      20.601    
  16.382      12.979      10.598      9.1466      8.2223      7.4593      6.8367      6.3668      6.0345      5.8127    
  5.6761      5.6024      5.5797      5.6024      5.6761      5.8127      6.0345      6.3668      6.8367      7.4593    
  8.2223      9.1466      10.598      12.979      16.382      20.601      25.172      29.513      33.060      35.371    
  23.273      22.796      21.426      19.347      16.853      14.302      12.042      10.310      9.1466      8.3449    
  7.6541      7.0544      6.5753      6.2134      5.9551      5.7789      5.6670      5.6051      5.5855      5.6051    
  5.6670      5.7789      5.9551      6.2134      6.5753      7.0544      7.6541      8.3449      9.1466      10.310    
  12.042      14.302      16.853      19.347      21.426      22.796      15.018      14.768      14.060      13.007    
  11.782      10.586      9.5828      8.8257      8.2223      7.6541      7.1338      6.6950      6.3441      6.0778    
  5.8821      5.7447      5.6538      5.6024      5.5855      5.6024      5.6538      5.7447      5.8821      6.0778    
  6.3441      6.6950      7.1338      7.6541      8.2223      8.8257      9.5828      10.586      11.782      13.007    
  14.060      14.768      10.456      10.351      10.056      9.6313      9.1569      8.7030      8.2900      7.8834    
  7.4593      7.0544      6.6950      6.3922      6.1494      5.9596      5.8164      5.7111      5.6384      5.5952    
  5.5809      5.5952      5.6384      5.7111      5.8164      5.9596      6.1494      6.3922      6.6950      7.0544    
  7.4593      7.8834      8.2900      8.7030      9.1569      9.6313      10.056      10.351      8.3247      8.2910    
  8.1959      8.0527      7.8731      7.6562      7.3987      7.1155      6.8367      6.5753      6.3441      6.1494    
  5.9886      5.8598      5.7571      5.6768      5.6180      5.5820      5.5698      5.5820      5.6180      5.6768    
  5.7571      5.8598      5.9886      6.1494      6.3441      6.5753      6.8367      7.1155      7.3987      7.6562    
  7.8731      8.0527      8.1959      8.2910      7.2644      7.2487      7.2010      7.1194      7.0037      6.8595    
  6.6991      6.5330      6.3668      6.2134      6.0778      5.9596      5.8598      5.7748      5.7015      5.6409    
  5.5953      5.5666      5.5569      5.5666      5.5953      5.6409      5.7015      5.7748      5.8598      5.9596    
  6.0778      6.2134      6.3668      6.5330      6.6991      6.8595      7.0037      7.1194      7.2010      7.2487    
  6.5027      6.4933      6.4655      6.4208      6.3611      6.2889      6.2060      6.1183      6.0345      5.9551    
  5.8821      5.8164      5.7571      5.7015      5.6507      5.6073      5.5734      5.5515      5.5440      5.5515    
  5.5734      5.6073      5.6507      5.7015      5.7571      5.8164      5.8821      5.9551      6.0345      6.1183    
  6.2060      6.2889      6.3611      6.4208      6.4655      6.4933      5.9888      5.9859      5.9766      5.9608    
  5.9379      5.9098      5.8793      5.8477      5.8127      5.7789      5.7447      5.7111      5.6768      5.6409    
  5.6073      5.5773      5.5532      5.5371      5.5315      5.5371      5.5532      5.5773      5.6073      5.6409    
  5.6768      5.7111      5.7447      5.7789      5.8127      5.8477      5.8793      5.9098      5.9379      5.9608    
  5.9766      5.9859      5.6731      5.6737      5.6757      5.6787      5.6825      5.6853      5.6849      5.6810    
  5.6761      5.6670      5.6538      5.6384      5.6180      5.5953      5.5734      5.5532      5.5361      5.5247    
  5.5206      5.5247      5.5361      5.5532      5.5734      5.5953      5.6180      5.6384      5.6538      5.6670    
  5.6761      5.6810      5.6849      5.6853      5.6825      5.6787      5.6757      5.6737      5.5133      5.5163    
  5.5247      5.5371      5.5515      5.5666      5.5820      5.5952      5.6024      5.6051      5.6024      5.5952    
  5.5820      5.5666      5.5515      5.5371      5.5247      5.5163      5.5133      5.5163      5.5247      5.5371    
  5.5515      5.5666      5.5820      5.5952      5.6024      5.6051      5.6024      5.5952      5.5820      5.5666    
  5.5515      5.5371      5.5247      5.5163      5.4616      5.4650      5.4751      5.4909      5.5110      5.5325    
  5.5518      5.5670      5.5797      5.5855      5.5855      5.5809      5.5698      5.5569      5.5440      5.5315    
  5.5206      5.5133      5.5106      5.5133      5.5206      5.5315      5.5440      5.5569      5.5698      5.5809    
  5.5855      5.5855      5.5797      5.5670      5.5518      5.5325      5.5110      5.4909      5.4751      5.4650    
  5.5133      5.5163      5.5247      5.5371      5.5515      5.5666      5.5820      5.5952      5.6024      5.6051    
  5.6024      5.5952      5.5820      5.5666      5.5515      5.5371      5.5247      5.5163      5.5133      5.5163    
  5.5247      5.5371      5.5515      5.5666      5.5820      5.5952      5.6024      5.6051      5.6024      5.5952    
  5.5820      5.5666      5.5515      5.5371      5.5247      5.5163      5.6731      5.6737      5.6757      5.6787    
  5.6825      5.6853      5.6849      5.6810      5.6761      5.6670      5.6538      5.6384      5.6180      5.5953    
  5.5734      5.5532      5.5361      5.5247      5.5206      5.5247      5.5361      5.5532      5.5734      5.5953    
  5.6180      5.6384      5.6538      5.6670      5.6761      5.6810      5.6849      5.6853      5.6825      5.6787    
  5.6757      5.6737      5.9888      5.9859      5.9766      5.9608      5.9379      5.9098      5.8793      5.8477    
  5.8127      5.7789      5.7447      5.7111      5.6768      5.6409      5.6073      5.5773      5.5532      5.5371    
  5.5315      5.5371      5.5532      5.5773      5.6073      5.6409      5.6768      5.7111      5.7447      5.7789    
  5.8127      5.8477      5.8793      5.9098      5.9379      5.9608      5.9766      5.9859      6.5027      6.4933    
  6.4655      6.4208      6.3611      6.2889      6.2060      6.1183      6.0345      5.9551      5.8821      5.8164    
  5.7571      5.7015      5.6507      5.6073      5.5734      5.5515      5.5440      5.5515      5.5734      5.6073    
  5.6507      5.7015      5.7571      5.8164      5.8821      5.9551      6.0345      6.1183      6.2060      6.2889    
  6.3611      6.4208      6.4655      6.4933      7.2644      7.2487      7.2010      7.1194      7.0037      6.8595    
  6.6991      6.5330      6.3668      6.2134      6.0778      5.9596      5.8598      5.7748      5.7015      5.6409    
  5.5953      5.5666      5.5569      5.5666      5.5953      5.6409      5.7015      5.7748      5.8598      5.9596    
  6.0778      6.2134      6.3668      6.5330      6.6991      6.8595      7.0037      7.1194      7.2010      7.2487    
  8.3247      8.2910      8.1959      8.0527      7.8731      7.6562      7.3987      7.1155      6.8367      6.5753    
  6.3441      6.1494      5.9886      5.8598      5.7571      5.6768      5.6180      5.5820      5.5698      5.5820    
  5.6180      5.6768      5.7571      5.8598      5.9886      6.1494      6.3441      6.5753      6.8367      7.1155    
  7.3987      7.6562      7.8731      8.0527      8.1959      8.2910      10.456      10.351      10.056      9.6313    
  9.1569      8.7030      8.2900      7.8834      7.4593      7.0544      6.6950      6.3922      6.1494      5.9596    
  5.8164      5.7111      5.6384      5.5952      5.5809      5.5952      5.6384      5.7111      5.8164      5.9596    
  6.1494      6.3922      6.6950      7.0544      7.4593      7.8834      8.2900      8.7030      9.1569      9.6313    
  10.056      10.351      15.018      14.768      14.060      13.007      11.782      10.586      9.5828      8.8257    
  8.2223      7.6541      7.1338      6.6950      6.3441      6.0778      5.8821      5.7447      5.6538      5.6024    
  5.5855      5.6024      5.6538      5.7447      5.8821      6.0778      6.3441      6.6950      7.1338      7.6541    
  8.2223      8.8257      9.5828      10.586      11.782      13.007      14.060      14.768      23.273      22.796    
  21.426      19.347      16.853      14.302      12.042      10.310      9.1466      8.3449      7.6541      7.0544    
  6.5753      6.2134      5.9551      5.7789      5.6670      5.6051      5.5855      5.6051      5.6670      5.7789    
  5.9551      6.2134      6.5753      7.0544      7.6541      8.3449      9.1466      10.310      12.042      14.302    
  16.853      19.347      21.426      22.796      36.171      35.371      33.060      29.513      25.172      20.601    
  16.382      12.979      10.598      9.1466      8.2223      7.4593      6.8367      6.3668      6.0345      5.8127    
  5.6761      5.6024      5.5797      5.6024      5.6761      5.8127      6.0345      6.3668      6.8367      7.4593    
  8.2223      9.1466      10.598      12.979      16.382      20.601      25.172      29.513      33.060      35.371    
  54.056      52.827      49.277      43.801      37.040      29.802      22.945      17.194      12.979      10.310    
  8.8257      7.8834      7.1155      6.5330      6.1183      5.8477      5.6810      5.5952      5.5670      5.5952    
  5.6810      5.8477      6.1183      6.5330      7.1155      7.8834      8.8257      10.310      12.979      17.194    
  22.945      29.802      37.040      43.801      49.277      52.827      76.506      74.745      69.655      61.806    
  52.091      41.626      31.574      22.945      16.382      12.042      9.5828      8.2900      7.3987      6.6991    
  6.2060      5.8793      5.6849      5.5820      5.5518      5.5820      5.6849      5.8793      6.2060      6.6991    
  7.3987      8.2900      9.5828      12.042      16.382      22.945      31.574      41.626      52.091      61.806    
  69.655      74.745      102.23      99.841      92.959      82.378      69.309      55.226      41.626      29.802    
  20.601      14.302      10.586      8.7030      7.6562      6.8595      6.2889      5.9098      5.6853      5.5666    
  5.5325      5.5666      5.6853      5.9098      6.2889      6.8595      7.6562      8.7030      10.586      14.302    
  20.601      29.802      41.626      55.226      69.309      82.378      92.959      99.841      129.12      126.06    