   2   2   1   0
  0.1173411E+02  0.2863036E-09  0.2863036E-09  0.2863036E-09  0.5000000E-15
  1.000000000000000E-004
  CAR 
 unknown system                          
     45.26942742     -4.86555625  301      5.87320971      1.00000000
     -4.866  0.0000E+00  0.0000E+00  0.0000E+00  0.0000E+00
     -4.698  0.0000E+00  0.0000E+00  0.0000E+00  0.0000E+00
     -4.531  0.0000E+00  0.0000E+00  0.0000E+00  0.0000E+00
     -4.364  0.0000E+00  0.0000E+00  0.0000E+00  0.0000E+00
     -4.197 -0.2812E-32  0.0000E+00 -0.4700E-33  0.0000E+00
     -4.030 -0.8784E-27 -0.5136E-32 -0.1468E-27 -0.8583E-33
     -3.863 -0.6727E-22 -0.1505E-26 -0.1124E-22 -0.2516E-27
     -3.696 -0.1225E-17 -0.1082E-21 -0.2047E-18 -0.1808E-22
     -3.529 -0.5602E-14 -0.1847E-17 -0.9365E-15 -0.3087E-18
     -3.362 -0.6352E-11 -0.7924E-14 -0.1062E-11 -0.1325E-14
     -3.194 -0.1818E-08 -0.8429E-11 -0.3049E-09 -0.1410E-11
     -3.027 -0.1346E-06 -0.2264E-08 -0.2280E-07 -0.3798E-09
     -2.860 -0.2508E-05 -0.1574E-06 -0.4420E-06 -0.2669E-07
     -2.693 -0.6091E-05 -0.2740E-05 -0.1460E-05 -0.4846E-06
     -2.526  0.6458E-04 -0.5493E-05  0.9333E-05 -0.1403E-05
     -2.359  0.2302E-03  0.7083E-04  0.4781E-04  0.1044E-04
     -2.192  0.3636E-03  0.2348E-03  0.1086E-03  0.4968E-04
     -2.025  0.5343E-03  0.3662E-03  0.1979E-03  0.1109E-03
     -1.857  0.4655E-03  0.5324E-03  0.2757E-03  0.1999E-03
     -1.690  0.7022E-03  0.4553E-03  0.3930E-03  0.2759E-03
     -1.523  0.7553E-03  0.6946E-03  0.5192E-03  0.3920E-03
     -1.356  0.8074E-03  0.7368E-03  0.6542E-03  0.5151E-03
     -1.189  0.7273E-03  0.7900E-03  0.7757E-03  0.6472E-03
     -1.022  0.1043E-02  0.7033E-03  0.9501E-03  0.7647E-03
     -0.855  0.1230E-02  0.9551E-03  0.1156E-02  0.9243E-03
     -0.688  0.1011E-02  0.1184E-02  0.1325E-02  0.1122E-02
     -0.521  0.9998E-03  0.1041E-02  0.1492E-02  0.1296E-02
     -0.353  0.1515E-02  0.8020E-03  0.1745E-02  0.1430E-02
     -0.186  0.1631E-02  0.1323E-02  0.2017E-02  0.1651E-02
     -0.019  0.1535E-02  0.1497E-02  0.2274E-02  0.1902E-02
      0.148  0.1581E-02  0.1418E-02  0.2538E-02  0.2139E-02
      0.315  0.1927E-02  0.1228E-02  0.2860E-02  0.2344E-02
      0.482  0.2443E-02  0.1587E-02  0.3268E-02  0.2609E-02
      0.649  0.2725E-02  0.1550E-02  0.3724E-02  0.2868E-02
      0.816  0.3164E-02  0.1941E-02  0.4252E-02  0.3192E-02
      0.984  0.5860E-02  0.2178E-02  0.5232E-02  0.3557E-02
      1.151  0.1055E-01  0.1970E-02  0.6994E-02  0.3886E-02
      1.318  0.1155E-01  0.1762E-02  0.8925E-02  0.4180E-02
      1.485  0.1407E-01  0.2716E-02  0.1128E-01  0.4634E-02
      1.652  0.1807E-01  0.3013E-02  0.1430E-01  0.5138E-02
      1.819  0.1800E-01  0.3052E-02  0.1731E-01  0.5647E-02
      1.986  0.1371E-01  0.3676E-02  0.1960E-01  0.6262E-02
      2.153  0.9754E-02  0.4531E-02  0.2123E-01  0.7019E-02
      2.320  0.8533E-02  0.6322E-02  0.2265E-01  0.8076E-02
      2.488  0.1868E-01  0.7821E-02  0.2577E-01  0.9382E-02
      2.655  0.3028E-01  0.6597E-02  0.3083E-01  0.1048E-01
      2.822  0.2411E-01  0.7357E-02  0.3486E-01  0.1171E-01
      2.989  0.2012E-01  0.9263E-02  0.3823E-01  0.1326E-01
      3.156  0.2229E-01  0.1162E-01  0.4195E-01  0.1520E-01
      3.323  0.2815E-01  0.1298E-01  0.4666E-01  0.1737E-01
      3.490  0.2723E-01  0.1115E-01  0.5121E-01  0.1924E-01
      3.657  0.1669E-01  0.8184E-02  0.5400E-01  0.2061E-01
      3.825  0.9453E-02  0.5481E-02  0.5558E-01  0.2152E-01
      3.992  0.8415E-02  0.9779E-02  0.5698E-01  0.2316E-01
      4.159  0.8974E-02  0.2081E-01  0.5848E-01  0.2663E-01
      4.326  0.1184E-01  0.2640E-01  0.6046E-01  0.3105E-01
      4.493  0.1839E-01  0.2446E-01  0.6354E-01  0.3513E-01
      4.660  0.3046E-01  0.2274E-01  0.6863E-01  0.3893E-01
      4.827  0.4258E-01  0.2251E-01  0.7574E-01  0.4270E-01
      4.994  0.5045E-01  0.2421E-01  0.8417E-01  0.4674E-01
      5.161  0.3637E-01  0.2337E-01  0.9025E-01  0.5065E-01
      5.329  0.1902E-01  0.1907E-01  0.9343E-01  0.5384E-01
      5.496  0.1664E-01  0.1316E-01  0.9621E-01  0.5604E-01
      5.663  0.1405E-01  0.6530E-02  0.9856E-01  0.5713E-01
      5.830  0.1480E-01  0.5447E-02  0.1010E+00  0.5804E-01
      5.997  0.1565E-01  0.4733E-02  0.1036E+00  0.5883E-01
      6.164  0.9987E-02  0.5432E-02  0.1053E+00  0.5974E-01
      6.331  0.4652E-02  0.5895E-02  0.1061E+00  0.6072E-01
      6.498  0.2277E-02  0.8615E-02  0.1065E+00  0.6216E-01
      6.665  0.2697E-02  0.1184E-01  0.1069E+00  0.6414E-01
      6.833  0.3531E-02  0.1491E-01  0.1075E+00  0.6663E-01
      7.000  0.3273E-02  0.1768E-01  0.1081E+00  0.6958E-01
      7.167  0.2393E-02  0.2245E-01  0.1085E+00  0.7334E-01
      7.334  0.3015E-02  0.2670E-01  0.1090E+00  0.7780E-01
      7.501  0.3465E-02  0.2528E-01  0.1095E+00  0.8202E-01
      7.668  0.2079E-02  0.3152E-01  0.1099E+00  0.8729E-01
      7.835  0.2140E-02  0.4787E-01  0.1103E+00  0.9529E-01
      8.002  0.3131E-02  0.3332E-01  0.1108E+00  0.1009E+00
      8.170  0.3338E-02  0.1680E-01  0.1113E+00  0.1037E+00
      8.337  0.2849E-02  0.1154E-01  0.1118E+00  0.1056E+00
      8.504  0.2671E-02  0.6252E-02  0.1123E+00  0.1066E+00
      8.671  0.2094E-02  0.4146E-02  0.1126E+00  0.1073E+00
      8.838  0.1861E-02  0.4612E-02  0.1129E+00  0.1081E+00
      9.005  0.2566E-02  0.4401E-02  0.1133E+00  0.1088E+00
      9.172  0.2604E-02  0.3782E-02  0.1138E+00  0.1095E+00
      9.339  0.2368E-02  0.2657E-02  0.1142E+00  0.1099E+00
      9.506  0.2469E-02  0.3243E-02  0.1146E+00  0.1105E+00
      9.674  0.2678E-02  0.4852E-02  0.1150E+00  0.1113E+00
      9.841  0.1982E-02  0.3727E-02  0.1154E+00  0.1119E+00
     10.008  0.1672E-02  0.2251E-02  0.1156E+00  0.1123E+00
     10.175  0.1768E-02  0.2231E-02  0.1159E+00  0.1126E+00
     10.342  0.2147E-02  0.3401E-02  0.1163E+00  0.1132E+00
     10.509  0.1319E-02  0.3501E-02  0.1165E+00  0.1138E+00
     10.676  0.1292E-02  0.2441E-02  0.1167E+00  0.1142E+00
     10.843  0.2462E-02  0.2358E-02  0.1171E+00  0.1146E+00
     11.011  0.2127E-02  0.3195E-02  0.1175E+00  0.1151E+00
     11.178  0.1822E-02  0.2280E-02  0.1178E+00  0.1155E+00
     11.345  0.1185E-02  0.1765E-02  0.1180E+00  0.1158E+00
     11.512  0.1170E-02  0.2362E-02  0.1182E+00  0.1162E+00
     11.679  0.1161E-02  0.1946E-02  0.1184E+00  0.1165E+00
     11.846  0.4243E-03  0.1737E-02  0.1185E+00  0.1168E+00
     12.013  0.9805E-03  0.2520E-02  0.1186E+00  0.1172E+00
     12.180  0.1431E-02  0.2169E-02  0.1189E+00  0.1176E+00
     12.347  0.1013E-02  0.1712E-02  0.1190E+00  0.1179E+00
     12.515  0.9705E-03  0.1179E-02  0.1192E+00  0.1181E+00
     12.682  0.8590E-03  0.1131E-02  0.1193E+00  0.1183E+00
     12.849  0.9013E-03  0.1034E-02  0.1195E+00  0.1184E+00
     13.016  0.6016E-03  0.1143E-02  0.1196E+00  0.1186E+00
     13.183  0.2946E-03  0.1809E-02  0.1196E+00  0.1189E+00
     13.350  0.1426E-02  0.1441E-02  0.1199E+00  0.1192E+00
     13.517  0.3613E-02  0.5832E-03  0.1205E+00  0.1193E+00
     13.684  0.5199E-02  0.5603E-03  0.1214E+00  0.1194E+00
     13.852  0.5584E-02  0.8943E-03  0.1223E+00  0.1195E+00
     14.019  0.4972E-02  0.5103E-03  0.1231E+00  0.1196E+00
     14.186  0.3908E-02  0.2439E-03  0.1238E+00  0.1196E+00
     14.353  0.3592E-02  0.1424E-03  0.1244E+00  0.1197E+00
     14.520  0.3754E-02  0.1286E-02  0.1250E+00  0.1199E+00
     14.687  0.3097E-02  0.4044E-02  0.1255E+00  0.1206E+00
     14.854  0.3062E-02  0.5956E-02  0.1260E+00  0.1216E+00
     15.021  0.3057E-02  0.7063E-02  0.1265E+00  0.1227E+00
     15.188  0.2747E-02  0.6055E-02  0.1270E+00  0.1237E+00
     15.356  0.3574E-02  0.3212E-02  0.1276E+00  0.1243E+00
     15.523  0.3488E-02  0.3193E-02  0.1282E+00  0.1248E+00
     15.690  0.2932E-02  0.4156E-02  0.1287E+00  0.1255E+00
     15.857  0.4312E-02  0.4369E-02  0.1294E+00  0.1262E+00
     16.024  0.4345E-02  0.4280E-02  0.1301E+00  0.1270E+00
     16.191  0.3805E-02  0.2647E-02  0.1308E+00  0.1274E+00
     16.358  0.3390E-02  0.3343E-02  0.1313E+00  0.1280E+00
     16.525  0.3578E-02  0.3728E-02  0.1319E+00  0.1286E+00
     16.692  0.4070E-02  0.4789E-02  0.1326E+00  0.1294E+00
     16.860  0.3718E-02  0.4762E-02  0.1332E+00  0.1302E+00
     17.027  0.3641E-02  0.3900E-02  0.1338E+00  0.1308E+00
     17.194  0.3487E-02  0.4392E-02  0.1344E+00  0.1316E+00
     17.361  0.4921E-02  0.4214E-02  0.1352E+00  0.1323E+00
     17.528  0.4569E-02  0.2790E-02  0.1360E+00  0.1327E+00
     17.695  0.2460E-02  0.3527E-02  0.1364E+00  0.1333E+00
     17.862  0.2365E-02  0.4356E-02  0.1368E+00  0.1341E+00
     18.029  0.3677E-02  0.4141E-02  0.1374E+00  0.1347E+00
     18.197  0.3364E-02  0.5326E-02  0.1380E+00  0.1356E+00
     18.364  0.3936E-02  0.4588E-02  0.1386E+00  0.1364E+00
     18.531  0.5750E-02  0.2238E-02  0.1396E+00  0.1368E+00
     18.698  0.4071E-02  0.2259E-02  0.1403E+00  0.1372E+00
     18.865  0.2529E-02  0.3243E-02  0.1407E+00  0.1377E+00
     19.032  0.3531E-02  0.4735E-02  0.1413E+00  0.1385E+00
     19.199  0.2262E-02  0.5069E-02  0.1417E+00  0.1393E+00
     19.366  0.1293E-02  0.4837E-02  0.1419E+00  0.1401E+00
     19.533  0.4211E-02  0.3658E-02  0.1426E+00  0.1408E+00
     19.701  0.5627E-02  0.2874E-02  0.1435E+00  0.1412E+00
     19.868  0.4555E-02  0.2420E-02  0.1443E+00  0.1416E+00
     20.035  0.4607E-02  0.2119E-02  0.1451E+00  0.1420E+00
     20.202  0.2492E-02  0.4113E-02  0.1455E+00  0.1427E+00
     20.369  0.1514E-02  0.4886E-02  0.1457E+00  0.1435E+00
     20.536  0.2539E-02  0.5147E-02  0.1462E+00  0.1444E+00
     20.703  0.3299E-02  0.4745E-02  0.1467E+00  0.1451E+00
     20.870  0.3062E-02  0.1950E-02  0.1472E+00  0.1455E+00
     21.038  0.3537E-02  0.2524E-02  0.1478E+00  0.1459E+00
     21.205  0.5151E-02  0.3067E-02  0.1487E+00  0.1464E+00
     21.372  0.4874E-02  0.2749E-02  0.1495E+00  0.1469E+00
     21.539  0.3459E-02  0.3311E-02  0.1501E+00  0.1474E+00
     21.706  0.1957E-02  0.4391E-02  0.1504E+00  0.1482E+00
     21.873  0.1404E-02  0.5496E-02  0.1506E+00  0.1491E+00
     22.040  0.3377E-02  0.4158E-02  0.1512E+00  0.1498E+00
     22.207  0.4013E-02  0.2926E-02  0.1519E+00  0.1503E+00
     22.374  0.3943E-02  0.1356E-02  0.1525E+00  0.1505E+00
     22.542  0.4967E-02  0.2464E-02  0.1533E+00  0.1509E+00
     22.709  0.5036E-02  0.3824E-02  0.1542E+00  0.1515E+00
     22.876  0.4900E-02  0.3752E-02  0.1550E+00  0.1522E+00
     23.043  0.4351E-02  0.4161E-02  0.1557E+00  0.1529E+00
     23.210  0.3218E-02  0.5255E-02  0.1563E+00  0.1537E+00
     23.377  0.2971E-02  0.5453E-02  0.1568E+00  0.1546E+00
     23.544  0.4249E-02  0.4293E-02  0.1575E+00  0.1554E+00
     23.711  0.5674E-02  0.3721E-02  0.1584E+00  0.1560E+00
     23.879  0.5074E-02  0.4402E-02  0.1593E+00  0.1567E+00
     24.046  0.5019E-02  0.4310E-02  0.1601E+00  0.1574E+00
     24.213  0.7022E-02  0.4790E-02  0.1613E+00  0.1582E+00
     24.380  0.5459E-02  0.6622E-02  0.1622E+00  0.1593E+00
     24.547  0.4032E-02  0.7103E-02  0.1629E+00  0.1605E+00
     24.714  0.3917E-02  0.5851E-02  0.1635E+00  0.1615E+00
     24.881  0.4203E-02  0.4274E-02  0.1642E+00  0.1622E+00
     25.048  0.4109E-02  0.4378E-02  0.1649E+00  0.1630E+00
     25.215  0.5385E-02  0.4526E-02  0.1658E+00  0.1637E+00
     25.383  0.5961E-02  0.3718E-02  0.1668E+00  0.1643E+00
     25.550  0.6080E-02  0.5101E-02  0.1678E+00  0.1652E+00
     25.717  0.6131E-02  0.5730E-02  0.1689E+00  0.1661E+00
     25.884  0.5650E-02  0.5368E-02  0.1698E+00  0.1670E+00
     26.051  0.3787E-02  0.7024E-02  0.1704E+00  0.1682E+00
     26.218  0.3038E-02  0.6700E-02  0.1709E+00  0.1693E+00
     26.385  0.4406E-02  0.4035E-02  0.1717E+00  0.1700E+00
     26.552  0.6096E-02  0.3275E-02  0.1727E+00  0.1706E+00
     26.719  0.6102E-02  0.4168E-02  0.1737E+00  0.1713E+00
     26.887  0.5805E-02  0.5206E-02  0.1747E+00  0.1721E+00
     27.054  0.4376E-02  0.5846E-02  0.1754E+00  0.1731E+00
     27.221  0.4153E-02  0.5929E-02  0.1761E+00  0.1741E+00
     27.388  0.3302E-02  0.5857E-02  0.1767E+00  0.1751E+00
     27.555  0.2832E-02  0.4750E-02  0.1771E+00  0.1759E+00
     27.722  0.3584E-02  0.2811E-02  0.1777E+00  0.1763E+00
     27.889  0.3249E-02  0.3342E-02  0.1783E+00  0.1769E+00
     28.056  0.3866E-02  0.4110E-02  0.1789E+00  0.1776E+00
     28.224  0.4323E-02  0.2578E-02  0.1796E+00  0.1780E+00
     28.391  0.3993E-02  0.2459E-02  0.1803E+00  0.1784E+00
     28.558  0.3548E-02  0.4484E-02  0.1809E+00  0.1792E+00
     28.725  0.2799E-02  0.5628E-02  0.1814E+00  0.1801E+00
     28.892  0.2906E-02  0.3233E-02  0.1819E+00  0.1807E+00
     29.059  0.2091E-02  0.2310E-02  0.1822E+00  0.1810E+00
     29.226  0.2181E-02  0.3191E-02  0.1826E+00  0.1816E+00
     29.393  0.2255E-02  0.3200E-02  0.1830E+00  0.1821E+00
     29.560  0.3188E-02  0.2361E-02  0.1835E+00  0.1825E+00
     29.728  0.3982E-02  0.2390E-02  0.1841E+00  0.1829E+00
     29.895  0.3160E-02  0.2379E-02  0.1847E+00  0.1833E+00
     30.062  0.3113E-02  0.3713E-02  0.1852E+00  0.1839E+00
     30.229  0.4076E-02  0.4247E-02  0.1859E+00  0.1846E+00
     30.396  0.4513E-02  0.2829E-02  0.1866E+00  0.1851E+00
     30.563  0.5503E-02  0.3615E-02  0.1876E+00  0.1857E+00
     30.730  0.5790E-02  0.5519E-02  0.1885E+00  0.1866E+00
     30.897  0.6692E-02  0.5230E-02  0.1896E+00  0.1875E+00
     31.065  0.6295E-02  0.5872E-02  0.1907E+00  0.1885E+00
     31.232  0.5826E-02  0.6614E-02  0.1917E+00  0.1896E+00
     31.399  0.4905E-02  0.5633E-02  0.1925E+00  0.1905E+00
     31.566  0.4288E-02  0.6123E-02  0.1932E+00  0.1916E+00
     31.733  0.3809E-02  0.5524E-02  0.1938E+00  0.1925E+00
     31.900  0.3056E-02  0.3727E-02  0.1943E+00  0.1931E+00
     32.067  0.3973E-02  0.4748E-02  0.1950E+00  0.1939E+00
     32.234  0.3199E-02  0.4876E-02  0.1955E+00  0.1947E+00
     32.401  0.1640E-02  0.2796E-02  0.1958E+00  0.1952E+00
     32.569  0.1148E-02  0.2199E-02  0.1960E+00  0.1955E+00
     32.736  0.1002E-02  0.1507E-02  0.1962E+00  0.1958E+00
     32.903  0.1915E-02  0.1529E-02  0.1965E+00  0.1960E+00
     33.070  0.1378E-02  0.2476E-02  0.1967E+00  0.1965E+00
     33.237  0.7476E-03  0.1249E-02  0.1969E+00  0.1967E+00
     33.404  0.1173E-02  0.6168E-03  0.1971E+00  0.1968E+00
     33.571  0.1426E-02  0.1633E-02  0.1973E+00  0.1970E+00
     33.738  0.1393E-02  0.2075E-02  0.1975E+00  0.1974E+00
     33.905  0.7742E-03  0.1150E-02  0.1977E+00  0.1976E+00
     34.073  0.7385E-03  0.5639E-03  0.1978E+00  0.1977E+00
     34.240  0.8442E-03  0.7319E-03  0.1979E+00  0.1978E+00
     34.407  0.3294E-03  0.6766E-03  0.1980E+00  0.1979E+00
     34.574  0.6458E-04  0.3409E-03  0.1980E+00  0.1980E+00
     34.741  0.5118E-04  0.6464E-04  0.1980E+00  0.1980E+00
     34.908  0.7874E-03  0.4703E-03  0.1981E+00  0.1981E+00
     35.075  0.1017E-02  0.9724E-03  0.1983E+00  0.1982E+00
     35.242  0.2815E-03  0.5809E-03  0.1983E+00  0.1983E+00
     35.410  0.5736E-04  0.1877E-03  0.1983E+00  0.1984E+00
     35.577  0.9300E-03  0.8122E-03  0.1985E+00  0.1985E+00
     35.744  0.1117E-02  0.1101E-02  0.1987E+00  0.1987E+00
     35.911  0.7825E-03  0.8705E-03  0.1988E+00  0.1988E+00
     36.078  0.5133E-03  0.5418E-03  0.1989E+00  0.1989E+00
     36.245  0.1397E-03  0.1207E-04  0.1989E+00  0.1989E+00
     36.412  0.5056E-03  0.3436E-03  0.1990E+00  0.1990E+00
     36.579  0.2976E-03  0.5602E-03  0.1991E+00  0.1991E+00
     36.746  0.2421E-03  0.3141E-03  0.1991E+00  0.1991E+00
     36.914  0.9859E-04  0.3913E-04  0.1991E+00  0.1991E+00
     37.081  0.8547E-04  0.5966E-04  0.1991E+00  0.1991E+00
     37.248  0.5195E-03  0.5040E-03  0.1992E+00  0.1992E+00
     37.415  0.2817E-03  0.3129E-03  0.1993E+00  0.1993E+00
     37.582 -0.5068E-04 -0.4809E-04  0.1993E+00  0.1993E+00
     37.749  0.5861E-04  0.1571E-03  0.1993E+00  0.1993E+00
     37.916  0.8232E-03  0.8607E-03  0.1994E+00  0.1994E+00
     38.083  0.7959E-03  0.7074E-03  0.1995E+00  0.1995E+00
     38.251  0.2148E-03  0.2773E-03  0.1996E+00  0.1996E+00
     38.418  0.2424E-03  0.1659E-03  0.1996E+00  0.1996E+00
     38.585  0.1975E-03  0.1412E-03  0.1997E+00  0.1996E+00
     38.752  0.1113E-03  0.1324E-03  0.1997E+00  0.1997E+00
     38.919 -0.5717E-05 -0.2104E-05  0.1997E+00  0.1997E+00
     39.086 -0.1364E-04 -0.2952E-05  0.1997E+00  0.1997E+00
     39.253  0.1376E-03  0.1935E-03  0.1997E+00  0.1997E+00
     39.420  0.2634E-03  0.2266E-03  0.1997E+00  0.1997E+00
     39.587  0.4708E-04  0.4896E-05  0.1997E+00  0.1997E+00
     39.755 -0.2158E-04  0.7479E-04  0.1997E+00  0.1998E+00
     39.922  0.1337E-03  0.2724E-03  0.1998E+00  0.1998E+00
     40.089  0.2619E-03  0.9050E-04  0.1998E+00  0.1998E+00
     40.256  0.4069E-04 -0.6409E-05  0.1998E+00  0.1998E+00
     40.423  0.8414E-04  0.1935E-03  0.1998E+00  0.1998E+00
     40.590  0.2595E-03  0.2519E-03  0.1999E+00  0.1999E+00
     40.757  0.1595E-03  0.2625E-03  0.1999E+00  0.1999E+00
     40.924  0.2598E-03  0.1542E-03  0.1999E+00  0.2000E+00
     41.092  0.1049E-03 -0.6150E-05  0.2000E+00  0.2000E+00
     41.259 -0.1200E-04 -0.5232E-05  0.2000E+00  0.2000E+00
     41.426 -0.2995E-05 -0.2107E-06  0.2000E+00  0.2000E+00
     41.593 -0.8184E-07 -0.1666E-08  0.2000E+00  0.2000E+00
     41.760 -0.4612E-09 -0.2967E-11  0.2000E+00  0.2000E+00
     41.927 -0.5937E-12 -0.2113E-13  0.2000E+00  0.2000E+00
     42.094 -0.6799E-12 -0.2684E-10  0.2000E+00  0.2000E+00
     42.261 -0.4743E-09 -0.8461E-08  0.2000E+00  0.2000E+00
     42.428 -0.7526E-07 -0.5849E-06  0.2000E+00  0.2000E+00
     42.596 -0.2427E-05 -0.6847E-05  0.2000E+00  0.2000E+00
     42.763 -0.7143E-05  0.1958E-04  0.2000E+00  0.2000E+00
     42.930  0.8336E-04  0.1629E-03  0.2000E+00  0.2000E+00
     43.097  0.1788E-03  0.1148E-03  0.2000E+00  0.2000E+00
     43.264  0.4047E-04 -0.2177E-05  0.2000E+00  0.2000E+00
     43.431 -0.8186E-05 -0.3819E-05  0.2000E+00  0.2000E+00
     43.598 -0.1071E-05 -0.1684E-06  0.2000E+00  0.2000E+00
     43.765 -0.2056E-07 -0.1446E-08  0.2000E+00  0.2000E+00
     43.932 -0.8419E-10 -0.2804E-11  0.2000E+00  0.2000E+00
     44.100 -0.7955E-13 -0.1283E-14  0.2000E+00  0.2000E+00
     44.267 -0.1786E-16 -0.1260E-18  0.2000E+00  0.2000E+00
     44.434  0.0000E+00  0.0000E+00  0.2000E+00  0.2000E+00
     44.601  0.0000E+00  0.0000E+00  0.2000E+00  0.2000E+00
     44.768  0.0000E+00  0.0000E+00  0.2000E+00  0.2000E+00
     44.935  0.0000E+00  0.0000E+00  0.2000E+00  0.2000E+00
     45.102  0.0000E+00  0.0000E+00  0.2000E+00  0.2000E+00
     45.269  0.0000E+00  0.0000E+00  0.2000E+00  0.2000E+00
     45.26942742     -4.86555625  301      5.87320971      1.00000000
     -4.866  0.0000E+00  0.0000E+00  0.0000E+00  0.0000E+00  0.0000E+00  0.0000E+00  0.0000E+00  0.0000E+00  0.0000E+00  0.0000E+00  0.0000E+00  0.0000E+00  0.0000E+00  0.0000E+00  0.0000E+00  0.0000E+00  0.0000E+00  0.0000E+00
     -4.698  0.0000E+00  0.0000E+00  0.0000E+00  0.0000E+00  0.0000E+00  0.0000E+00  0.0000E+00  0.0000E+00  0.0000E+00  0.0000E+00  0.0000E+00  0.0000E+00  0.0000E+00  0.0000E+00  0.0000E+00  0.0000E+00  0.0000E+00  0.0000E+00
     -4.531  0.0000E+00  0.0000E+00  0.0000E+00  0.0000E+00  0.0000E+00  0.0000E+00  0.0000E+00  0.0000E+00  0.0000E+00  0.0000E+00  0.0000E+00  0.0000E+00  0.0000E+00  0.0000E+00  0.0000E+00  0.0000E+00  0.0000E+00  0.0000E+00
     -4.364  0.0000E+00  0.0000E+00  0.0000E+00  0.0000E+00  0.0000E+00  0.0000E+00  0.0000E+00  0.0000E+00  0.0000E+00  0.0000E+00  0.0000E+00  0.0000E+00  0.0000E+00  0.0000E+00  0.0000E+00  0.0000E+00  0.0000E+00  0.0000E+00
     -4.197 -0.1034E-30  0.0000E+00 -0.9079E-36  0.0000E+00 -0.9079E-36  0.0000E+00 -0.9079E-36  0.0000E+00 -0.1337E-43  0.0000E+00 -0.1337E-43  0.0000E+00 -0.1007E-37  0.0000E+00 -0.1337E-43  0.0000E+00 -0.1007E-37  0.0000E+00
     -4.030 -0.3229E-25 -0.1888E-30 -0.6190E-30 -0.1668E-35 -0.6190E-30 -0.1668E-35 -0.6190E-30 -0.1668E-35 -0.2719E-34 -0.1408E-42 -0.2719E-34 -0.1408E-42 -0.6854E-32 -0.1300E-37 -0.2719E-34 -0.1408E-42 -0.6854E-32 -0.1300E-37
     -3.863 -0.2473E-20 -0.5533E-25 -0.1032E-24 -0.1071E-29 -0.1032E-24 -0.1071E-29 -0.1032E-24 -0.1071E-29 -0.9828E-29 -0.3335E-34 -0.9828E-29 -0.3335E-34 -0.1141E-26 -0.8330E-32 -0.9828E-29 -0.3335E-34 -0.1141E-26 -0.8330E-32
     -3.696 -0.4502E-16 -0.3975E-20 -0.4215E-20 -0.1681E-24 -0.4215E-20 -0.1681E-24 -0.4215E-20 -0.1681E-24 -0.8689E-24 -0.1139E-28 -0.8689E-24 -0.1139E-28 -0.4644E-22 -0.1306E-26 -0.8689E-24 -0.1139E-28 -0.4644E-22 -0.1306E-26
     -3.529 -0.2059E-12 -0.6787E-16 -0.4059E-16 -0.6461E-20 -0.4059E-16 -0.6461E-20 -0.4059E-16 -0.6461E-20 -0.1816E-19 -0.9515E-24 -0.1816E-19 -0.9515E-24 -0.4438E-18 -0.5001E-22 -0.1816E-19 -0.9515E-24 -0.4438E-18 -0.5001E-22
     -3.362 -0.2333E-09 -0.2911E-12 -0.9806E-13 -0.5852E-16 -0.9806E-13 -0.5852E-16 -0.9806E-13 -0.5852E-16 -0.9432E-16 -0.1881E-19 -0.9432E-16 -0.1881E-19 -0.1055E-14 -0.4495E-18 -0.9432E-16 -0.1881E-19 -0.1055E-14 -0.4495E-18
     -3.194 -0.6667E-07 -0.3094E-09 -0.5801E-10 -0.1330E-12 -0.5801E-10 -0.1330E-12 -0.5801E-10 -0.1330E-12 -0.1181E-12 -0.9219E-16 -0.1181E-12 -0.9219E-16 -0.6025E-12 -0.1005E-14 -0.1181E-12 -0.9219E-16 -0.6025E-12 -0.1005E-14
     -3.027 -0.4923E-05 -0.8301E-07 -0.8437E-08 -0.7401E-10 -0.8437E-08 -0.7401E-10 -0.8437E-08 -0.7401E-10 -0.3528E-10 -0.1090E-12 -0.3528E-10 -0.1090E-12 -0.8148E-10 -0.5390E-12 -0.3528E-10 -0.1090E-12 -0.8148E-10 -0.5390E-12
     -2.860 -0.9134E-04 -0.5756E-05 -0.2961E-06 -0.1012E-07 -0.2961E-06 -0.1012E-07 -0.2961E-06 -0.1012E-07 -0.2442E-08 -0.3072E-10 -0.2442E-08 -0.3072E-10 -0.2487E-08 -0.6834E-10 -0.2442E-08 -0.3072E-10 -0.2487E-08 -0.6834E-10
     -2.693 -0.2180E-03 -0.9972E-04 -0.2006E-05 -0.3331E-06 -0.2006E-05 -0.3331E-06 -0.2006E-05 -0.3331E-06 -0.3461E-07 -0.2002E-08 -0.3461E-07 -0.2002E-08 -0.1509E-07 -0.1942E-08 -0.3461E-07 -0.2002E-08 -0.1509E-07 -0.1942E-08
     -2.526  0.2360E-02 -0.1957E-03  0.4906E-05 -0.2058E-05  0.4906E-05 -0.2058E-05  0.4906E-05 -0.2058E-05 -0.2711E-07 -0.2634E-07 -0.2711E-07 -0.2634E-07 -0.4201E-07 -0.1065E-07 -0.2711E-07 -0.2634E-07 -0.4201E-07 -0.1065E-07
     -2.359  0.8342E-02  0.2586E-02  0.4151E-04  0.5902E-05  0.4151E-04  0.5902E-05  0.4151E-04  0.5902E-05  0.4278E-06 -0.1089E-07  0.4278E-06 -0.1089E-07  0.7612E-07 -0.2705E-07  0.4278E-06 -0.1089E-07  0.7612E-07 -0.2705E-07
     -2.192  0.1294E-01  0.8501E-02  0.1428E-03  0.4365E-04  0.1428E-03  0.4365E-04  0.1428E-03  0.4365E-04  0.2894E-05  0.3395E-06  0.2894E-05  0.3395E-06  0.3406E-05  0.7910E-07  0.2894E-05  0.3395E-06  0.3406E-05  0.7910E-07
     -2.025  0.1874E-01  0.1301E-01  0.2954E-03  0.1478E-03  0.2954E-03  0.1478E-03  0.2954E-03  0.1478E-03  0.9847E-05  0.2155E-05  0.9847E-05  0.2155E-05  0.6914E-05  0.2456E-05  0.9847E-05  0.2155E-05  0.6914E-05  0.2456E-05
     -1.857  0.1604E-01  0.1866E-01  0.3433E-03  0.2979E-03  0.3433E-03  0.2979E-03  0.3433E-03  0.2979E-03  0.1965E-04  0.7020E-05  0.1965E-04  0.7020E-05  0.9383E-05  0.4746E-05  0.1965E-04  0.7020E-05  0.9383E-05  0.4746E-05
     -1.690  0.2365E-01  0.1568E-01  0.6809E-03  0.3406E-03  0.6809E-03  0.3406E-03  0.6809E-03  0.3406E-03  0.3777E-04  0.1357E-04  0.3777E-04  0.1357E-04  0.4074E-04  0.6134E-05  0.3777E-04  0.1357E-04  0.4074E-04  0.6134E-05
     -1.523  0.2506E-01  0.2339E-01  0.8375E-03  0.6803E-03  0.8375E-03  0.6803E-03  0.8375E-03  0.6803E-03  0.5989E-04  0.2587E-04  0.5989E-04  0.2587E-04  0.5892E-04  0.2672E-04  0.5989E-04  0.2587E-04  0.5892E-04  0.2672E-04
     -1.356  0.2618E-01  0.2447E-01  0.1049E-02  0.8227E-03  0.1049E-02  0.8227E-03  0.1049E-02  0.8227E-03  0.1274E-03  0.3841E-04  0.1274E-03  0.3841E-04  0.6131E-04  0.3796E-04  0.1274E-03  0.3841E-04  0.6131E-04  0.3796E-04
     -1.189  0.2315E-01  0.2566E-01  0.1061E-02  0.1043E-02  0.1061E-02  0.1043E-02  0.1061E-02  0.1043E-02  0.1229E-03  0.8313E-04  0.1229E-03  0.8313E-04  0.9727E-04  0.3823E-04  0.1229E-03  0.8313E-04  0.9727E-04  0.3823E-04
     -1.022  0.3219E-01  0.2249E-01  0.1762E-02  0.1029E-02  0.1762E-02  0.1029E-02  0.1762E-02  0.1029E-02  0.2219E-03  0.7968E-04  0.2219E-03  0.7968E-04  0.2493E-03  0.5464E-04  0.2219E-03  0.7968E-04  0.2493E-03  0.5464E-04
     -0.855  0.3723E-01  0.2966E-01  0.2211E-02  0.1637E-02  0.2211E-02  0.1637E-02  0.2211E-02  0.1637E-02  0.3769E-03  0.1267E-03  0.3769E-03  0.1267E-03  0.3286E-03  0.1413E-03  0.3769E-03  0.1267E-03  0.3286E-03  0.1413E-03
     -0.688  0.2995E-01  0.3618E-01  0.1950E-02  0.2165E-02  0.1950E-02  0.2165E-02  0.1950E-02  0.2165E-02  0.4222E-03  0.2223E-03  0.4222E-03  0.2223E-03  0.2497E-03  0.1917E-03  0.4222E-03  0.2223E-03  0.2497E-03  0.1917E-03
     -0.521  0.2844E-01  0.3118E-01  0.2111E-02  0.2054E-02  0.2111E-02  0.2054E-02  0.2111E-02  0.2054E-02  0.5939E-03  0.2631E-03  0.5939E-03  0.2631E-03  0.3821E-03  0.1631E-03  0.5939E-03  0.2631E-03  0.3821E-03  0.1631E-03
     -0.353  0.4187E-01  0.2340E-01  0.3425E-02  0.1722E-02  0.3425E-02  0.1722E-02  0.3425E-02  0.1722E-02  0.8699E-03  0.2828E-03  0.8699E-03  0.2828E-03  0.9398E-03  0.1363E-03  0.8699E-03  0.2828E-03  0.9398E-03  0.1363E-03
     -0.186  0.4373E-01  0.3745E-01  0.3914E-02  0.3089E-02  0.3914E-02  0.3089E-02  0.3914E-02  0.3089E-02  0.1125E-02  0.4814E-03  0.1125E-02  0.4814E-03  0.1146E-02  0.4394E-03  0.1125E-02  0.4814E-03  0.1146E-02  0.4394E-03
     -0.019  0.3949E-01  0.4153E-01  0.3714E-02  0.3705E-02  0.3714E-02  0.3705E-02  0.3714E-02  0.3705E-02  0.1602E-02  0.5673E-03  0.1602E-02  0.5673E-03  0.1238E-02  0.5851E-03  0.1602E-02  0.5673E-03  0.1238E-02  0.5851E-03
      0.148  0.3878E-01  0.3834E-01  0.3935E-02  0.3683E-02  0.3935E-02  0.3683E-02  0.3935E-02  0.3683E-02  0.2224E-02  0.6946E-03  0.2224E-02  0.6946E-03  0.1405E-02  0.5994E-03  0.2224E-02  0.6946E-03  0.1405E-02  0.5994E-03
      0.315  0.4501E-01  0.3207E-01  0.5076E-02  0.3293E-02  0.5076E-02  0.3293E-02  0.5076E-02  0.3293E-02  0.2762E-02  0.9126E-03  0.2762E-02  0.9126E-03  0.2498E-02  0.5684E-03  0.2762E-02  0.9126E-03  0.2498E-02  0.5684E-03
      0.482  0.5348E-01  0.4032E-01  0.6489E-02  0.4459E-02  0.6489E-02  0.4459E-02  0.6489E-02  0.4459E-02  0.3995E-02  0.1365E-02  0.3995E-02  0.1365E-02  0.4482E-02  0.7663E-03  0.3995E-02  0.1365E-02  0.4482E-02  0.7663E-03
      0.649  0.5635E-01  0.3812E-01  0.7180E-02  0.4654E-02  0.7180E-02  0.4654E-02  0.7180E-02  0.4654E-02  0.5994E-02  0.1149E-02  0.5994E-02  0.1149E-02  0.4922E-02  0.1182E-02  0.5994E-02  0.1149E-02  0.4922E-02  0.1182E-02
      0.816  0.5735E-01  0.4562E-01  0.7047E-02  0.5967E-02  0.7047E-02  0.5967E-02  0.7047E-02  0.5967E-02  0.1100E-01  0.1807E-02  0.1100E-01  0.1807E-02  0.7149E-02  0.1958E-02  0.1100E-01  0.1807E-02  0.7149E-02  0.1958E-02
      0.984  0.7444E-01  0.4970E-01  0.8764E-02  0.6772E-02  0.8764E-02  0.6772E-02  0.8764E-02  0.6772E-02  0.2880E-01  0.2656E-02  0.2880E-01  0.2656E-02  0.2801E-01  0.2056E-02  0.2880E-01  0.2656E-02  0.2801E-01  0.2056E-02
      1.151  0.1052E+00  0.4329E-01  0.1307E-01  0.6203E-02  0.1307E-01  0.6203E-02  0.1307E-01  0.6203E-02  0.5173E-01  0.2922E-02  0.5173E-01  0.2922E-02  0.7269E-01  0.1952E-02  0.5173E-01  0.2922E-02  0.7269E-01  0.1952E-02
      1.318  0.8529E-01  0.3642E-01  0.1160E-01  0.5428E-02  0.1160E-01  0.5428E-02  0.1160E-01  0.5428E-02  0.5504E-01  0.3353E-02  0.5504E-01  0.3353E-02  0.1048E+00  0.2273E-02  0.5504E-01  0.3353E-02  0.1048E+00  0.2273E-02
      1.485  0.8143E-01  0.5334E-01  0.1541E-01  0.8801E-02  0.1541E-01  0.8801E-02  0.1541E-01  0.8801E-02  0.6025E-01  0.5174E-02  0.6025E-01  0.5174E-02  0.1489E+00  0.4327E-02  0.6025E-01  0.5174E-02  0.1489E+00  0.4327E-02
      1.652  0.7984E-01  0.5616E-01  0.2065E-01  0.9784E-02  0.2065E-01  0.9784E-02  0.2065E-01  0.9784E-02  0.6668E-01  0.6094E-02  0.6668E-01  0.6094E-02  0.2205E+00  0.6005E-02  0.6668E-01  0.6094E-02  0.2205E+00  0.6005E-02
      1.819  0.6252E-01  0.5278E-01  0.2102E-01  0.9306E-02  0.2102E-01  0.9306E-02  0.2102E-01  0.9306E-02  0.6916E-01  0.8066E-02  0.6916E-01  0.8066E-02  0.2260E+00  0.6914E-02  0.6916E-01  0.8066E-02  0.2260E+00  0.6914E-02
      1.986  0.4016E-01  0.5846E-01  0.1457E-01  0.1034E-01  0.1457E-01  0.1034E-01  0.1457E-01  0.1034E-01  0.7327E-01  0.1288E-01  0.7327E-01  0.1288E-01  0.1508E+00  0.8494E-02  0.7327E-01  0.1288E-01  0.1508E+00  0.8494E-02
      2.153  0.1932E-01  0.6224E-01  0.9279E-02  0.1010E-01  0.9279E-02  0.1010E-01  0.9279E-02  0.1010E-01  0.6212E-01  0.2030E-01  0.6212E-01  0.2030E-01  0.1012E+00  0.1472E-01  0.6212E-01  0.2030E-01  0.1012E+00  0.1472E-01
      2.320  0.1008E-01  0.7442E-01  0.8865E-02  0.1262E-01  0.8865E-02  0.1262E-01  0.8865E-02  0.1262E-01  0.5373E-01  0.3140E-01  0.5373E-01  0.3140E-01  0.9260E-01  0.2613E-01  0.5373E-01  0.3140E-01  0.9260E-01  0.2613E-01
      2.488  0.3017E-02  0.8535E-01  0.1579E-01  0.1525E-01  0.1579E-01  0.1525E-01  0.1579E-01  0.1525E-01  0.1916E+00  0.4119E-01  0.1916E+00  0.4119E-01  0.1179E+00  0.3368E-01  0.1916E+00  0.4119E-01  0.1179E+00  0.3368E-01
      2.655  0.3265E-02  0.6422E-01  0.2235E-01  0.1182E-01  0.2235E-01  0.1182E-01  0.2235E-01  0.1182E-01  0.3390E+00  0.3905E-01  0.3390E+00  0.3905E-01  0.1592E+00  0.2895E-01  0.3390E+00  0.3905E-01  0.1592E+00  0.2895E-01
      2.822  0.5863E-02  0.6055E-01  0.1637E-01  0.1397E-01  0.1637E-01  0.1397E-01  0.1637E-01  0.1397E-01  0.2700E+00  0.4124E-01  0.2700E+00  0.4124E-01  0.1286E+00  0.4059E-01  0.2700E+00  0.4124E-01  0.1286E+00  0.4059E-01
      2.989  0.9148E-02  0.5850E-01  0.1772E-01  0.1655E-01  0.1772E-01  0.1655E-01  0.1772E-01  0.1655E-01  0.2225E+00  0.4251E-01  0.2225E+00  0.4251E-01  0.1023E+00  0.7631E-01  0.2225E+00  0.4251E-01  0.1023E+00  0.7631E-01
      3.156  0.1276E-01  0.5044E-01  0.2588E-01  0.1880E-01  0.2588E-01  0.1880E-01  0.2588E-01  0.1880E-01  0.2435E+00  0.4656E-01  0.2435E+00  0.4656E-01  0.1053E+00  0.1222E+00  0.2435E+00  0.4656E-01  0.1053E+00  0.1222E+00
      3.323  0.1878E-01  0.4203E-01  0.3427E-01  0.1957E-01  0.3427E-01  0.1957E-01  0.3427E-01  0.1957E-01  0.3084E+00  0.4847E-01  0.3084E+00  0.4847E-01  0.1289E+00  0.1525E+00  0.3084E+00  0.4847E-01  0.1289E+00  0.1525E+00
      3.490  0.1862E-01  0.2894E-01  0.3097E-01  0.1570E-01  0.3097E-01  0.1570E-01  0.3097E-01  0.1570E-01  0.3004E+00  0.5180E-01  0.3004E+00  0.5180E-01  0.1271E+00  0.1236E+00  0.3004E+00  0.5180E-01  0.1271E+00  0.1236E+00