    2    2  100    2
  0.1173411E+02  0.2863035E-09  0.2863035E-09  0.2863035E-09  0.5000000E-15
  1.000000000000000E-004
  CAR 
 unknown system                          
     16    120     20
 
  0.0000000E+00  0.0000000E+00  0.0000000E+00  0.2962963E-03
    1       -2.586693     -2.427134   1.000000   1.000000
    2        1.001902      2.812542   1.000000   1.000000
    3        1.001902      2.812683   1.000000   1.000000
    4        3.564836      5.461080   1.000000   1.006540
    5        3.564837      5.461212   1.000000   1.006554
    6        3.564837      5.461223   1.000000   1.006556
    7        4.783008      7.526341   1.000000  -0.000000
    8        4.783009      7.526504   1.000000  -0.000000
    9        6.000070      8.170501   0.065188  -0.000000
   10        6.000071      8.170624   0.065184  -0.000000
   11        6.000071      8.170636   0.065184  -0.000000
   12       15.839569     16.102430   0.000000   0.000000
   13       15.839569     16.102431   0.000000   0.000000
   14       15.839569     16.102433   0.000000   0.000000
   15       21.569931     22.621147   0.000000   0.000000
   16       21.569932     22.621160   0.000000   0.000000
   17       26.734051     27.831374   0.000000   0.000000
   18       30.940114     30.681239   0.000000   0.000000
   19       30.940114     30.681239   0.000000   0.000000
   20       30.940114     30.681239   0.000000   0.000000
 
  0.6666667E-01  0.1540744E-32  0.0000000E+00  0.1777778E-02
    1       -2.493970     -2.334014   1.000000   1.000000
    2        1.041681      2.846320   1.000000   1.000000
    3        1.043428      2.859862   1.000000   1.000000
    4        3.564035      5.456819   1.000000   1.006080
    5        3.564036      5.456962   1.000000   1.006095
    6        3.590290      5.489245   1.000000   1.010269
    7        4.741491      7.472257   1.000000  -0.000000
    8        4.799433      7.547222   1.000000  -0.000000
    9        5.921631      8.066927   0.301618  -0.000000
   10        5.921633      8.067061   0.301612  -0.000000
   11        5.972617      8.139787   0.131535  -0.000000
   12       15.168629     15.548243   0.000000   0.000000
   13       16.015641     16.304433   0.000000   0.000000
   14       16.015641     16.304434   0.000000   0.000000
   15       21.596852     22.639753   0.000000   0.000000
   16       22.076957     23.029556   0.000000   0.000000
   17       27.034268     28.116758   0.000000   0.000000
   18       30.307461     30.130973   0.000000   0.000000
   19       30.860203     30.641010   0.000000   0.000000
   20       30.860203     30.641011   0.000000   0.000000
 
  0.1333333E+00  0.0000000E+00  0.0000000E+00  0.1777778E-02
    1       -2.219463     -2.057714   1.000000   1.000000
    2        1.159182      2.934785   1.000000   1.000000
    3        1.159970      2.999637   1.000000   1.000000
    4        3.564254      5.447360   1.000000   1.005150
    5        3.564255      5.447502   1.000000   1.005164
    6        3.665699      5.572342   1.000000   1.027457
    7        4.618525      7.312148   1.000000  -0.000000
    8        4.847664      7.606979   1.000000  -0.000000
    9        5.705046      7.788280   0.999766  -0.000000
   10        5.705048      7.788412   0.999764  -0.000000
   11        5.890825      8.047912   0.425782  -0.000000
   12       13.694745     14.277479   0.000000   0.000000
   13       16.523235     16.876135   0.000000   0.000000
   14       16.523235     16.876138   0.000000   0.000000
   15       21.678065     22.696514   0.000000   0.000000
   16       22.959143     23.779856   0.000000   0.000000
   17       28.042539     28.992778   0.000000   0.000000
   18       29.041872     29.068916   0.000000   0.000000
   19       30.504297     30.428028   0.000000   0.000000
   20       30.504297     30.428031   0.000000   0.000000
 
  0.2000000E+00 -0.6162976E-32  0.0000000E+00  0.1777778E-02
    1       -1.774977     -1.607900   1.000000   1.000000
    2        1.328462      3.041505   1.000000   1.000000
    3        1.350329      3.227879   1.000000   1.000000
    4        3.573207      5.442381   1.000000   1.004709
    5        3.573207      5.442522   1.000000   1.004721
    6        3.788189      5.707411   1.000000   0.997098
    7        4.418952      7.053153   1.000000  -0.000000
    8        4.925310      7.407325   1.000000  -0.000000
    9        5.397268      7.407456   1.001949  -0.000000
   10        5.397270      7.698308   1.001949  -0.000000
   11        5.758874      7.899823   0.906900  -0.000000
   12       12.003321     12.798261   0.000000   0.000000
   13       17.312750     17.741961   0.000000   0.000000
   14       17.312750     17.741965   0.000000   0.000000
   15       21.818794     22.796475   0.000000   0.000000
   16       23.601069     24.341363   0.000000   0.000000
   17       27.716664     27.787500   0.000000   0.000000
   18       29.668639     29.831442   0.000000   0.000000
   19       29.668639     29.831447   0.000000   0.000000
   20       29.818278     30.754267   0.000000   0.000000
 
  0.2666667E+00  0.0000000E+00  0.0000000E+00  0.1777778E-02
    1       -1.183070     -1.001908   1.000000   1.000000
    2        1.508314      3.101535   1.000000   1.000000
    3        1.608054      3.537312   1.000000   1.000000
    4        3.600976      5.454615   1.000000   1.005853
    5        3.600977      5.454754   1.000000   1.005867
    6        3.953039      5.889408   1.000000   0.431709
    7        4.150630      6.706449   1.000000  -0.000000
    8        5.032738      6.993629   1.000000  -0.000000
    9        5.049595      6.993759   1.000000  -0.000000
   10        5.049596      7.702744   1.000000  -0.000000
   11        5.583090      7.811651   1.029787  -0.000000
   12       10.331926     11.374745  -0.000000   0.000000
   13       18.327614     18.826627   0.000000   0.000000
   14       18.327614     18.826631   0.000000   0.000000
   15       22.026759     22.947558   0.000000   0.000000
   16       24.022800     24.695352   0.000000   0.000000
   17       26.498884     26.688628   0.000000   0.000000
   18       28.396795     28.775088   0.000000   0.000000
   19       28.396796     28.775095   0.000000   0.000000
   20       30.204867     30.623343   0.000000   0.000000
 
  0.3333333E+00  0.0000000E+00  0.0000000E+00  0.1777778E-02
    1       -0.482849     -0.267310   1.000000   1.000000
    2        1.639516      3.024064   1.000000   1.000000
    3        1.922474      3.917619   1.000000   1.000000
    4        3.660061      5.499819   1.000000   1.011994
    5        3.660062      5.499956   1.000000   1.012017
    6        3.825670      6.111361   1.000000  -0.035271
    7        4.153771      6.289451   1.000000  -0.006096
    8        4.704558      6.597402   1.000000  -0.000002
    9        4.704560      6.597532   1.000000  -0.000002
   10        5.181976      7.466462   1.000006  -0.000000
   11        5.371924      7.940789   1.001125  -0.000000
   12        8.794859     10.157120  -0.000000  -0.000000
   13       19.518559     20.072436   0.000000   0.000000
   14       19.518559     20.072440   0.000000   0.000000
   15       22.312890     23.161053   0.000000   0.000000
   16       24.401889     25.001889   0.000000   0.000000
   17       25.434880     25.745302   0.000000   0.000000
   18       26.905830     27.415691   0.000000   0.000000
   19       26.905830     27.415697   0.000000   0.000000
   20       28.704659     29.112250   0.000000   0.000000
 
  0.4000000E+00  0.0000000E+00  0.0000000E+00  0.1777778E-02
    1        0.258774      0.552944   1.000000   1.000000
    2        1.639422      2.717303   1.000000   1.000000
    3        2.280876      4.354978   1.000000   1.000000
    4        3.458557      5.592225   1.000000   1.031591
    5        3.761736      5.592361   1.000000   1.031616
    6        3.761736      5.822427   1.000000   0.707392
    7        4.382317      6.248026   1.000000  -0.011751
    8        4.390471      6.248157   1.000000  -0.011729
    9        4.390472      6.364528   1.000000  -0.001403
   10        5.135150      7.201988   1.000001  -0.000000
   11        5.411681      8.092747   1.002618  -0.000000
   12        7.480789      9.242436  -0.000000  -0.000000
   13       20.845971     21.437138   0.000000   0.000000
   14       20.845971     21.437140   0.000000   0.000000
   15       22.690623     23.451360   0.000000   0.000000
   16       24.531928     24.963462   0.000000   0.000000
   17       24.865059     25.393113   0.000000   0.000000
   18       25.344554     25.922810   0.000000   0.000000
   19       25.344555     25.922815   0.000000   0.000000
   20       27.403729     27.811069   0.000000   0.000000
 
  0.4666667E+00 -0.1232595E-31  0.0000000E+00  0.1777778E-02
    1        0.934979      1.391725   1.000000   1.000000
    2        1.417914      2.150952   1.000000   1.000000
    3        2.668120      4.832282   1.000000   1.000000
    4        3.066924      5.329173   1.000000   1.000410
    5        3.915121      5.743875   1.000000   0.939861
    6        3.915122      5.744009   1.000000   0.939591
    7        4.124937      5.961901   1.000000   0.162521
    8        4.124938      5.962033   1.000000   0.162121
    9        4.629320      6.638795   1.000000  -0.000000
   10        4.884020      6.922102   1.000000  -0.000000
   11        5.804355      8.302898   0.773089  -0.000000
   12        6.472529      8.649622  -0.000095  -0.000000
   13       22.278949     22.888566   0.000000   0.000000
   14       22.278950     22.888567   0.000000   0.000000
   15       23.175704     23.835819   0.000000   0.000000
   16       23.784547     24.333607   0.000000   0.000000
   17       23.788408     24.395598   0.000000   0.000000
   18       23.788409     24.395600   0.000000   0.000000
   19       25.492110     25.959421   0.000000   0.000000
   20       26.331296     26.757415   0.000000   0.000000
 
  0.6666667E-01  0.6666667E-01  0.0000000E+00  0.3555556E-02
    1       -2.401962     -2.241508   1.000000   1.000000
    2        1.080477      2.888136   1.000000   1.000000
    3        1.084917      2.897740   1.000000   1.000000
    4        3.514313      5.400359   1.000000   1.002078
    5        3.560771      5.450077   1.000000   1.005405
    6        3.664417      5.569498   1.000000   1.026817
    7        4.733185      7.459961   1.000000  -0.000000
    8        4.787104      7.531029   1.000000  -0.000000
    9        5.781433      7.896992   0.846685  -0.000000
   10        5.842823      7.963271   0.626946  -0.000000
   11        6.011945      8.183861   0.042353  -0.000000
   12       15.186385     15.606080   0.000000   0.000000
   13       15.483613     15.874084   0.000000   0.000000
   14       16.186267     16.497477   0.000000   0.000000
   15       21.857743     22.846858   0.000000   0.000000
   16       22.392257     23.288658   0.000000   0.000000
   17       27.309418     28.380995   0.000000   0.000000
   18       29.747488     29.672634   0.000000   0.000000
   19       30.664914     30.465040   0.000000   0.000000
   20       30.810955     30.620280   0.000000   0.000000
 
  0.1333333E+00  0.6666667E-01  0.0000000E+00  0.7111111E-02
    1       -2.129688     -1.967080   1.000000   1.000000
    2        1.192609      2.980547   1.000000   1.000000
    3        1.204676      3.031172   1.000000   1.000000
    4        3.474583      5.349011   1.000000   1.000663
    5        3.553761      5.433363   1.000000   1.003987
    6        3.778931      5.693958   1.000000   1.010744
    7        4.632097      7.325328   1.000000  -0.000000
    8        4.826469      7.579332   1.000000  -0.000000
    9        5.526789      7.583494   1.017171  -0.000000
   10        5.627453      7.687770   1.035455  -0.000000
   11        5.982627      8.149056   0.105144  -0.000000
   12       13.813023     14.419688   0.000000   0.000000
   13       15.845782     16.313316   0.000000   0.000000
   14       16.679839     17.047481   0.000000   0.000000
   15       22.026589     22.976079   0.000000   0.000000
   16       23.295580     24.066796   0.000000   0.000000
   17       28.250003     28.536761   0.000000   0.000000
   18       28.473044     29.274999   0.000000   0.000000
   19       30.212346     30.133707   0.000000   0.000000
   20       30.533258     30.460760   0.000000   0.000000
 
  0.2000000E+00  0.6666667E-01  0.0000000E+00  0.7111111E-02
    1       -1.689428     -1.520636   1.000000   1.000000
    2        1.362923      3.088056   1.000000   1.000000
    3        1.389528      3.252980   1.000000   1.000000
    4        3.457217      5.317702   1.000000   1.000307
    5        3.549279      5.415898   1.000000   1.002848
    6        3.926234      5.854419   1.000000   0.579122
    7        4.453747      7.086713   1.000000  -0.000000
    8        4.905706      7.197169   1.000000  -0.000000
    9        5.206563      7.316872   1.000013  -0.000000
   10        5.324218      7.673299   1.000362  -0.000000
   11        5.881612      8.032433   0.464483  -0.000000
   12       12.118633     12.930799   0.000000   0.000000
   13       16.569353     17.114962   0.000000   0.000000
   14       17.451406     17.887912   0.000000   0.000000
   15       22.205007     23.108054   0.000000   0.000000
   16       24.027882     24.718816   0.000000   0.000000
   17       27.079192     27.271562   0.000000   0.000000
   18       29.328207     29.442397   0.000000   0.000000
   19       29.755288     29.915597   0.000000   0.000000
   20       29.956630     30.896639   0.000000   0.000000
 
  0.2666667E+00  0.6666667E-01  0.0000000E+00  0.7111111E-02
    1       -1.104465     -0.919834   1.000000   1.000000
    2        1.544589      3.147316   1.000000   1.000000
    3        1.637770      3.552475   1.000000   1.000000
    4        3.467535      5.313198   1.000000   1.000273
    5        3.549411      5.408238   1.000000   1.002443
    6        4.106092      6.051355   1.000000  -0.009758
    7        4.225217      6.770767   1.000000  -0.000000
    8        4.859200      6.789784   1.000000  -0.000000
    9        4.987970      6.926555   1.000000  -0.000000
   10        5.014884      7.790394   1.000000  -0.000000
   11        5.724666      7.853758   0.973908  -0.000000
   12       10.440484     11.491278  -0.000000   0.000000
   13       17.488716     18.104306   0.000000   0.000000
   14       18.448378     18.949456   0.000000   0.000000
   15       22.455302     23.295884   0.000000   0.000000
   16       24.536437     25.164629   0.000000   0.000000
   17       25.739262     26.061792   0.000000   0.000000
   18       28.120768     28.385709   0.000000   0.000000
   19       28.488695     28.870278   0.000000   0.000000
   20       31.269776     31.674392   0.000000   0.000000
 
  0.3333333E+00  0.6666667E-01  0.0000000E+00  0.7111111E-02
    1       -0.415034     -0.192717   1.000000   1.000000
    2        1.672836      3.065552   1.000000   1.000000
    3        1.941305      3.917504   1.000000   1.000000
    4        3.514360      5.346990   1.000000   1.000632
    5        3.520219      5.411136   1.000000   1.002590
    6        4.004017      6.281613   1.000000  -0.006963
    7        4.315393      6.402704   1.000000  -0.000584
    8        4.519406      6.408665   1.000000  -0.000506
    9        4.665228      6.572640   1.000000  -0.000004
   10        5.166006      7.628376   1.000003  -0.000000
   11        5.525058      7.923017   1.016808  -0.000000
   12        8.891780     10.248096  -0.000000  -0.000000
   13       18.543054     19.210798   0.000000   0.000000
   14       19.623488     20.176466   0.000000   0.000000
   15       22.799536     23.561404   0.000000   0.000000
   16       24.475343     24.929231   0.000000   0.000000
   17       25.005023     25.569559   0.000000   0.000000
   18       26.841098     27.190872   0.000000   0.000000
   19       26.988963     27.501968   0.000000   0.000000
   20       29.786356     30.207565   0.000000   0.000000
 
  0.4000000E+00  0.6666667E-01  0.0000000E+00  0.7111111E-02
    1        0.311335      0.617483   1.000000   1.000000
    2        1.667263      2.755557   1.000000   1.000000
    3        2.285497      4.330622   1.000000   1.000000
    4        3.341594      5.379214   1.000000   1.001323
    5        3.606658      5.430720   1.000000   1.003794
    6        3.931743      6.062761   1.000000  -0.018822
    7        4.212509      6.078890   1.000000  -0.027829
    8        4.389262      6.284675   1.000000  -0.006614
    9        4.548134      6.538797   1.000000  -0.000013
   10        5.295746      7.371009   1.000173  -0.000000
   11        5.402588      8.079757   1.002176  -0.000000
   12        7.557012      9.297858  -0.000000  -0.000000
   13       19.682807     20.378995   0.000000   0.000000
   14       20.938441     21.527422   0.000000   0.000000
   15       23.261428     23.834103   0.000000   0.000000
   16       23.262153     23.931172   0.000000   0.000000
   17       25.422625     26.001596   0.000000   0.000000
   18       25.571222     26.070411   0.000000   0.000000
   19       25.660976     26.076996   0.000000   0.000000
   20       28.436401     28.864608   0.000000   0.000000
 
  0.4666667E+00  0.6666667E-01  0.0000000E+00  0.7111111E-02
    1        0.970671      1.444314   1.000000   1.000000
    2        1.443933      2.193002   1.000000   1.000000
    3        2.652851      4.764590   1.000000   1.000000
    4        3.019284      5.160241   1.000000   1.000003
    5        3.751908      5.574468   1.000000   1.027931
    6        3.954250      5.784870   1.000000   0.836417
    7        4.016675      5.962176   1.000000   0.161690
    8        4.174203      6.070590   1.000000  -0.023714
    9        4.795816      6.813460   1.000000  -0.000000
   10        5.048683      7.094931   1.000000  -0.000000
   11        5.815264      8.300381   0.734151  -0.000000
   12        6.516905      8.669912  -0.000026  -0.000000
   13       20.866778     21.561621   0.000000   0.000000
   14       22.064050     22.719505   0.000000   0.000000
   15       22.361959     22.969426   0.000000   0.000000
   16       23.866404     24.443368   0.000000   0.000000
   17       23.871913     24.472489   0.000000   0.000000
   18       24.664400     25.144972   0.000000   0.000000
   19       26.313945     26.776139   0.000000   0.000000
   20       27.269149     27.707190   0.000000   0.000000
 
  0.1333333E+00  0.1333333E+00  0.0000000E+00  0.3555556E-02
    1       -1.864692     -1.698594   1.000000   1.000000
    2        1.288555      3.114205   1.000000   1.000000
    3        1.333277      3.114590   1.000000   1.000000
    4        3.373235      5.230961   1.000000   1.000027
    5        3.527646      5.396772   1.000000   1.001929
    6        3.952468      5.883534   1.000000   0.456376
    7        4.632850      7.219812   1.000000  -0.000000
    8        4.800652      7.311605   1.000000  -0.000000
    9        5.218711      7.425674   1.000019  -0.000000
   10        5.417793      7.546857   1.002956  -0.000000
   11        6.044862      8.220558  -0.003488  -0.000000
   12       13.795737     14.466202   0.000000   0.000000
   13       14.773165     15.423669   0.000000   0.000000
   14       17.136507     17.542862   0.000000   0.000000
   15       22.369152     23.252476   0.000000   0.000000
   16       24.295765     24.948281   0.000000   0.000000
   17       27.159976     27.386167   0.000000   0.000000
   18       28.983173     29.647784   0.000000   0.000000
   19       29.693826     29.991362   0.000000   0.000000
   20       30.507981     30.472012   0.000000   0.000000
 
  0.2000000E+00  0.1333333E+00  0.0000000E+00  0.7111111E-02
    1       -1.438120     -1.262763   1.000000   1.000000
    2        1.434225      3.212507   1.000000   1.000000
    3        1.528595      3.327380   1.000000   1.000000
    4        3.300099      5.140198   1.000000   1.000001
    5        3.496436      5.349767   1.000000   1.000675
    6        4.150700      6.100089   1.000000  -0.034040
    7        4.533975      6.810743   1.000000  -0.000000
    8        4.856064      7.089634   1.000000  -0.000000
    9        4.867983      7.163222   1.000000  -0.000000
   10        5.131802      7.611681   1.000001  -0.000000
   11        6.025065      8.196329   0.021117  -0.000000
   12       12.379061     13.223635   0.000000   0.000000
   13       15.126791     15.857958   0.000000   0.000000
   14       17.859487     18.316343   0.000000   0.000000
   15       22.589658     23.417892   0.000000   0.000000
   16       25.295467     25.863133   0.000000   0.000000
   17       25.671438     26.027453   0.000000   0.000000
   18       28.881988     28.937066   0.000000   0.000000
   19       29.992096     30.137978   0.000000   0.000000
   20       30.438315     31.387522   0.000000   0.000000
 
  0.2666667E+00  0.1333333E+00  0.0000000E+00  0.7111111E-02
    1       -0.876137     -0.678542   1.000000   1.000000
    2        1.596858      3.257348   1.000000   1.000000
    3        1.771192      3.607501   1.000000   1.000000
    4        3.263488      5.086806   1.000000   1.000000
    5        3.461477      5.302648   1.000000   1.000208
    6        4.369702      6.339769   1.000000  -0.002365
    7        4.382115      6.401481   1.000000  -0.000602
    8        4.510174      6.768465   1.000000  -0.000000
    9        4.832030      6.924868   1.000000  -0.000000
   10        4.964462      7.731254   1.000000  -0.000000
   11        5.931239      8.086836   0.265541  -0.000000
   12       10.714187     11.774695  -0.000000   0.000000
   13       15.920340     16.702013   0.000000   0.000000
   14       18.806491     19.314097   0.000000   0.000000
   15       22.832067     23.594175   0.000000   0.000000
   16       24.202748     24.674626   0.000000   0.000000
   17       26.037328     26.558152   0.000000   0.000000
   18       27.822790     27.982780   0.000000   0.000000
   19       28.760860     29.151683   0.000000   0.000000
   20       32.546261     33.437567   0.000000   0.000000
 
  0.3333333E+00  0.1333333E+00  0.0000000E+00  0.7111111E-02
    1       -0.223127      0.024335   1.000000   1.000000
    2        1.711438      3.157477   1.000000   1.000000
    3        2.050041      3.939566   1.000000   1.000000
    4        3.271909      5.081383   1.000000   1.000000
    5        3.394221      5.250629   1.000000   1.000049
    6        4.173024      6.023846   1.000000   0.022918
    7        4.250857      6.527559   1.000000  -0.000019
    8        4.573967      6.599345   1.000000  -0.000002
    9        4.605922      6.658718   1.000000  -0.000000
   10        5.118695      7.871371   1.000001  -0.000000
   11        5.777730      7.910280   0.857433  -0.000000
   12        9.143906     10.477186  -0.000000  -0.000000
   13       16.862810     17.671277   0.000000   0.000000
   14       19.936490     20.487537   0.000000   0.000000
   15       22.799432     23.375962   0.000000   0.000000
   16       23.145581     23.827639   0.000000   0.000000
   17       26.687264     26.954811   0.000000   0.000000
   18       26.710784     27.169569   0.000000   0.000000
   19       27.233055     27.756018   0.000000   0.000000
   20       31.691064     32.101036   0.000000   0.000000
 
  0.4000000E+00  0.1333333E+00  0.0000000E+00  0.7111111E-02
    1        0.450485      0.801201   1.000000   1.000000
    2        1.694111      2.840047   1.000000   1.000000
    3        2.357887      4.301736   1.000000   1.000000
    4        3.238739      5.133655   1.000000   1.000001
    5        3.333075      5.157061   1.000000   1.000003
    6        3.876964      5.699278   1.000000   1.005785
    7        4.205339      6.385664   1.000000  -0.000873
    8        4.394745      6.432273   1.000000  -0.000280
    9        4.853758      6.873156   1.000000  -0.000000
   10        5.374637      7.685169   1.001195  -0.000000
   11        5.579735      8.040320   1.029079  -0.000000
   12        7.760034      9.441890  -0.000000  -0.000000
   13       17.903515     18.712465   0.000000   0.000000
   14       21.214277     21.797331   0.000000   0.000000
   15       21.468796     22.134502   0.000000   0.000000
   16       23.561511     24.152838   0.000000   0.000000
   17       25.651663     26.007531   0.000000   0.000000
   18       25.686269     26.233049   0.000000   0.000000
   19       27.396906     27.845357   0.000000   0.000000
   20       30.407460     30.814763   0.000000   0.000000
 
  0.4666667E+00  0.1333333E+00  0.0000000E+00  0.7111111E-02
    1        1.048698      1.587091   1.000000   1.000000
    2        1.478642      2.296784   1.000000   1.000000
    3        2.678753      4.660266   1.000000   1.000000
    4        2.985704      4.963034   1.000000   1.000000
    5        3.452940      5.251495   1.000000   1.000050
    6        3.634743      5.440057   1.000000   1.004513
    7        4.235391      6.316769   1.000000  -0.003718
    8        4.294045      6.317147   1.000000  -0.003691
    9        5.105323      7.152660   1.000000  -0.000000
   10        5.351287      7.427766   1.000700  -0.000000
   11        5.847121      8.290276   0.609356  -0.000000
   12        6.640059      8.722946  -0.000000  -0.000000
   13       19.021678     19.805521   0.000000   0.000000
   14       20.210177     20.945623   0.000000   0.000000
   15       22.610124     23.211359   0.000000   0.000000
   16       24.097904     24.605712   0.000000   0.000000
   17       24.109325     24.700618   0.000000   0.000000
   18       24.813433     25.218260   0.000000   0.000000
   19       28.241543     28.665590   0.000000   0.000000
   20       29.246791     29.657742   0.000000   0.000000
 
  0.2000000E+00  0.2000000E+00  0.0000000E+00  0.3555556E-02
    1       -1.038145     -0.846388   1.000000   1.000000
    2        1.531559      3.324544   1.000000   1.000000
    3        1.746076      3.491774   1.000000   1.000000
    4        3.170530      4.989150   1.000000   1.000000
    5        3.446521      5.269585   1.000000   1.000084
    6        4.396511      6.370207   1.000000  -0.001238
    7        4.499204      6.391377   1.000000  -0.000764
    8        4.588613      6.823036   1.000000  -0.000000
    9        4.826243      7.196289   1.000000  -0.000000
   10        4.883425      7.579044   1.000000  -0.000000
   11        6.093572      8.274924  -0.032722  -0.000000
   12       12.222593     13.104072   0.000000   0.000000
   13       14.137787     15.044469   0.000000   0.000000
   14       18.515624     19.001688   0.000000   0.000000
   15       22.809156     23.575311   0.000000   0.000000
   16       24.099525     24.576569   0.000000   0.000000
   17       26.743954     27.198135   0.000000   0.000000
   18       28.261280     28.322278   0.000000   0.000000
   19       30.171370     30.301296   0.000000   0.000000
   20       31.457811     32.397553   0.000000   0.000000
 
  0.2666667E+00  0.2000000E+00  0.0000000E+00  0.7111111E-02
    1       -0.522152     -0.293301   1.000000   1.000000
    2        1.627796      3.331917   1.000000   1.000000
    3        2.013243      3.755443   1.000000   1.000000
    4        3.082162      4.881088   1.000000   1.000000
    5        3.416135      5.195531   1.000000   1.000009
    6        4.137305      5.985035   1.000000   0.099171
    7        4.543065      6.612738   1.000000  -0.000001
    8        4.648775      6.653048   1.000000  -0.000000
    9        4.653384      7.094430   1.000000  -0.000000
   10        4.896331      7.655939   1.000000  -0.000000
   11        6.080314      8.258189  -0.028432  -0.000000
   12       10.957153     12.002726  -0.000000   0.000000
   13       14.444355     15.400651   0.000000   0.000000
   14       19.389995     19.908797   0.000000   0.000000
   15       22.554840     23.134480   0.000000   0.000000
   16       23.023285     23.717200   0.000000   0.000000
   17       27.416451     27.523032   0.000000   0.000000
   18       27.888634     28.288011   0.000000   0.000000
   19       29.202914     29.606982   0.000000   0.000000
   20       31.475923     32.037068   0.000000   0.000000
 
  0.3333333E+00  0.2000000E+00  0.0000000E+00  0.7111111E-02
    1        0.056487      0.362873   1.000000   1.000000
    2        1.676841      3.197428   1.000000   1.000000
    3        2.303222      4.061928   1.000000   1.000000
    4        3.044896      4.827966   1.000000   1.000000
    5        3.387179      5.129794   1.000000   1.000001
    6        3.807559      5.620454   1.000000   1.035235
    7        4.480971      6.518705   1.000000  -0.000025
    8        4.486559      6.925451   1.000000  -0.000000
    9        4.915114      6.942307   1.000000  -0.000000
   10        5.043887      7.793980   1.000000  -0.000000
   11        5.993351      8.156593   0.079669  -0.000000
   12        9.438564     10.720287  -0.000000  -0.000000
   13       15.235619     16.191684   0.000000   0.000000
   14       20.451145     21.000960   0.000000   0.000000
   15       21.087799     21.759794   0.000000   0.000000
   16       23.295486     23.903896   0.000000   0.000000
   17       26.475850     26.644298   0.000000   0.000000
   18       27.617717     28.160568   0.000000   0.000000
   19       28.775000     29.156556   0.000000   0.000000
   20       32.136538     32.597620   0.000000   0.000000
 
  0.4000000E+00  0.2000000E+00  0.0000000E+00  0.7111111E-02
    1        0.622752      1.073673   1.000000   1.000000
    2        1.624887      2.884736   1.000000   1.000000
    3        2.595933      4.378649   1.000000   1.000000
    4        3.066557      4.839204   1.000000   1.000000
    5        3.301245      5.047080   1.000000   1.000000
    6        3.526939      5.315376   1.000000   1.000289