PROCAR lm decomposed
# of k-points:  120         # of bands:   20         # of ions:    2

 k-point     1 :    0.00000000 0.00000000 0.00000000     weight = 0.00029630

band     1 # energy   -2.58669336 # occ.  1.00000000
 
ion      s     py     pz     px    dxy    dyz    dz2    dxz  x2-y2    tot
    1  0.368  0.000  0.000  0.000  0.000  0.000  0.000  0.000  0.000  0.368
    2  0.368  0.000  0.000  0.000  0.000  0.000  0.000  0.000  0.000  0.368
tot    0.735  0.000  0.000  0.000  0.000  0.000  0.000  0.000  0.000  0.735
 
band     2 # energy    1.00190213 # occ.  1.00000000
 
ion      s     py     pz     px    dxy    dyz    dz2    dxz  x2-y2    tot
    1  0.000  0.000  0.000  0.000  0.000  0.000  0.144  0.000  0.294  0.438
    2  0.000  0.000  0.000  0.000  0.000  0.000  0.144  0.000  0.294  0.438
tot    0.000  0.000  0.000  0.000  0.000  0.000  0.289  0.000  0.588  0.877
 
band     3 # energy    1.00190229 # occ.  1.00000000
 
ion      s     py     pz     px    dxy    dyz    dz2    dxz  x2-y2    tot
    1  0.000  0.000  0.000  0.000  0.000  0.000  0.294  0.000  0.144  0.438
    2  0.000  0.000  0.000  0.000  0.000  0.000  0.294  0.000  0.144  0.438
tot    0.000  0.000  0.000  0.000  0.000  0.000  0.588  0.000  0.289  0.877
 
band     4 # energy    3.56483617 # occ.  1.00000000
 
ion      s     py     pz     px    dxy    dyz    dz2    dxz  x2-y2    tot
    1  0.000  0.000  0.000  0.000  0.489  0.000  0.000  0.000  0.000  0.489
    2  0.000  0.000  0.000  0.000  0.489  0.000  0.000  0.000  0.000  0.489
tot    0.000  0.000  0.000  0.000  0.979  0.000  0.000  0.000  0.000  0.979
 
band     5 # energy    3.56483705 # occ.  1.00000000
 
ion      s     py     pz     px    dxy    dyz    dz2    dxz  x2-y2    tot
    1  0.000  0.000  0.000  0.000  0.000  0.001  0.000  0.489  0.000  0.489
    2  0.000  0.000  0.000  0.000  0.000  0.001  0.000  0.489  0.000  0.489
tot    0.000  0.000  0.000  0.000  0.000  0.001  0.000  0.977  0.000  0.979
 
band     6 # energy    3.56483707 # occ.  1.00000000
 
ion      s     py     pz     px    dxy    dyz    dz2    dxz  x2-y2    tot
    1  0.000  0.000  0.000  0.000  0.000  0.489  0.000  0.001  0.000  0.489
    2  0.000  0.000  0.000  0.000  0.000  0.489  0.000  0.001  0.000  0.489
tot    0.000  0.000  0.000  0.000  0.000  0.977  0.000  0.001  0.000  0.979
 
band     7 # energy    4.78300753 # occ.  1.00000000
 
ion      s     py     pz     px    dxy    dyz    dz2    dxz  x2-y2    tot
    1  0.000  0.000  0.000  0.000  0.000  0.000  0.482  0.000  0.003  0.485
    2  0.000  0.000  0.000  0.000  0.000  0.000  0.482  0.000  0.003  0.485
tot    0.000  0.000  0.000  0.000  0.000  0.000  0.964  0.000  0.006  0.970
 
band     8 # energy    4.78300852 # occ.  1.00000000
 
ion      s     py     pz     px    dxy    dyz    dz2    dxz  x2-y2    tot
    1  0.000  0.000  0.000  0.000  0.000  0.000  0.003  0.000  0.482  0.485
    2  0.000  0.000  0.000  0.000  0.000  0.000  0.003  0.000  0.482  0.485
tot    0.000  0.000  0.000  0.000  0.000  0.000  0.006  0.000  0.964  0.970
 
band     9 # energy    6.00006966 # occ.  0.06518777
 
ion      s     py     pz     px    dxy    dyz    dz2    dxz  x2-y2    tot
    1  0.000  0.000  0.000  0.000  0.494  0.000  0.000  0.000  0.000  0.494
    2  0.000  0.000  0.000  0.000  0.494  0.000  0.000  0.000  0.000  0.494
tot    0.000  0.000  0.000  0.000  0.988  0.000  0.000  0.000  0.000  0.988
 
band    10 # energy    6.00007129 # occ.  0.06518439
 
ion      s     py     pz     px    dxy    dyz    dz2    dxz  x2-y2    tot
    1  0.000  0.000  0.000  0.000  0.000  0.000  0.000  0.494  0.000  0.494
    2  0.000  0.000  0.000  0.000  0.000  0.000  0.000  0.494  0.000  0.494
tot    0.000  0.000  0.000  0.000  0.000  0.000  0.000  0.988  0.000  0.988
 
band    11 # energy    6.00007131 # occ.  0.06518434
 
ion      s     py     pz     px    dxy    dyz    dz2    dxz  x2-y2    tot
    1  0.000  0.000  0.000  0.000  0.000  0.494  0.000  0.000  0.000  0.494
    2  0.000  0.000  0.000  0.000  0.000  0.494  0.000  0.000  0.000  0.494
tot    0.000  0.000  0.000  0.000  0.000  0.988  0.000  0.000  0.000  0.988
 
band    12 # energy   15.83956901 # occ.  0.00000000
 
ion      s     py     pz     px    dxy    dyz    dz2    dxz  x2-y2    tot
    1  0.000  0.006  0.000  0.370  0.000  0.000  0.000  0.000  0.000  0.377
    2  0.000  0.006  0.000  0.370  0.000  0.000  0.000  0.000  0.000  0.377
tot    0.000  0.013  0.000  0.741  0.000  0.000  0.000  0.000  0.000  0.753
 
band    13 # energy   15.83956911 # occ.  0.00000000
 
ion      s     py     pz     px    dxy    dyz    dz2    dxz  x2-y2    tot
    1  0.000  0.370  0.000  0.006  0.000  0.000  0.000  0.000  0.000  0.377
    2  0.000  0.370  0.000  0.006  0.000  0.000  0.000  0.000  0.000  0.377
tot    0.000  0.741  0.000  0.013  0.000  0.000  0.000  0.000  0.000  0.753
 
band    14 # energy   15.83956920 # occ.  0.00000000
 
ion      s     py     pz     px    dxy    dyz    dz2    dxz  x2-y2    tot
    1  0.000  0.000  0.377  0.000  0.000  0.000  0.000  0.000  0.000  0.377
    2  0.000  0.000  0.377  0.000  0.000  0.000  0.000  0.000  0.000  0.377
tot    0.000  0.000  0.753  0.000  0.000  0.000  0.000  0.000  0.000  0.753
 
band    15 # energy   21.56993059 # occ.  0.00000000
 
ion      s     py     pz     px    dxy    dyz    dz2    dxz  x2-y2    tot
    1  0.000  0.000  0.000  0.000  0.000  0.000  0.477  0.000  0.000  0.477
    2  0.000  0.000  0.000  0.000  0.000  0.000  0.477  0.000  0.000  0.477
tot    0.000  0.000  0.000  0.000  0.000  0.000  0.953  0.000  0.000  0.953
 
band    16 # energy   21.56993233 # occ.  0.00000000
 
ion      s     py     pz     px    dxy    dyz    dz2    dxz  x2-y2    tot
    1  0.000  0.000  0.000  0.000  0.000  0.000  0.000  0.000  0.477  0.477
    2  0.000  0.000  0.000  0.000  0.000  0.000  0.000  0.000  0.477  0.477
tot    0.000  0.000  0.000  0.000  0.000  0.000  0.000  0.000  0.953  0.953
 
band    17 # energy   26.73405087 # occ.  0.00000000
 
ion      s     py     pz     px    dxy    dyz    dz2    dxz  x2-y2    tot
    1  0.391  0.000  0.000  0.000  0.000  0.000  0.000  0.000  0.000  0.391
    2  0.391  0.000  0.000  0.000  0.000  0.000  0.000  0.000  0.000  0.391
tot    0.782  0.000  0.000  0.000  0.000  0.000  0.000  0.000  0.000  0.782
 
band    18 # energy   30.94011417 # occ.  0.00000000
 
ion      s     py     pz     px    dxy    dyz    dz2    dxz  x2-y2    tot
    1  0.000  0.000  0.000  0.000  0.000  0.000  0.000  0.000  0.000  0.000
    2  0.000  0.000  0.000  0.000  0.000  0.000  0.000  0.000  0.000  0.000
tot    0.000  0.000  0.000  0.000  0.000  0.000  0.000  0.000  0.000  0.000
 
band    19 # energy   30.94011418 # occ.  0.00000000
 
ion      s     py     pz     px    dxy    dyz    dz2    dxz  x2-y2    tot
    1  0.000  0.000  0.000  0.000  0.000  0.000  0.000  0.000  0.000  0.000
    2  0.000  0.000  0.000  0.000  0.000  0.000  0.000  0.000  0.000  0.000
tot    0.000  0.000  0.000  0.000  0.000  0.000  0.000  0.000  0.000  0.000
 
band    20 # energy   30.94011422 # occ.  0.00000000
 
ion      s     py     pz     px    dxy    dyz    dz2    dxz  x2-y2    tot
    1  0.000  0.000  0.000  0.000  0.000  0.000  0.000  0.000  0.000  0.000
    2  0.000  0.000  0.000  0.000  0.000  0.000  0.000  0.000  0.000  0.000
tot    0.000  0.000  0.000  0.000  0.000  0.000  0.000  0.000  0.000  0.000
 

 k-point     2 :    0.06666667 0.00000000 0.00000000     weight = 0.00177778

band     1 # energy   -2.49396953 # occ.  1.00000000
 
ion      s     py     pz     px    dxy    dyz    dz2    dxz  x2-y2    tot
    1  0.364  0.000  0.000  0.003  0.000  0.000  0.000  0.000  0.000  0.368
    2  0.364  0.000  0.000  0.003  0.000  0.000  0.000  0.000  0.000  0.368
tot    0.729  0.000  0.000  0.007  0.000  0.000  0.000  0.000  0.000  0.735
 
band     2 # energy    1.04168079 # occ.  1.00000000
 
ion      s     py     pz     px    dxy    dyz    dz2    dxz  x2-y2    tot
    1  0.000  0.000  0.000  0.000  0.000  0.000  0.329  0.000  0.110  0.438
    2  0.000  0.000  0.000  0.000  0.000  0.000  0.329  0.000  0.110  0.438
tot    0.000  0.000  0.000  0.000  0.000  0.000  0.658  0.000  0.219  0.877
 
band     3 # energy    1.04342838 # occ.  1.00000000
 
ion      s     py     pz     px    dxy    dyz    dz2    dxz  x2-y2    tot
    1  0.000  0.000  0.000  0.002  0.000  0.000  0.109  0.000  0.327  0.438
    2  0.000  0.000  0.000  0.002  0.000  0.000  0.109  0.000  0.327  0.438
tot    0.000  0.000  0.000  0.005  0.000  0.000  0.218  0.000  0.653  0.876
 
band     4 # energy    3.56403545 # occ.  1.00000000
 
ion      s     py     pz     px    dxy    dyz    dz2    dxz  x2-y2    tot
    1  0.000  0.000  0.000  0.000  0.489  0.000  0.000  0.000  0.000  0.489
    2  0.000  0.000  0.000  0.000  0.489  0.000  0.000  0.000  0.000  0.489
tot    0.000  0.001  0.000  0.000  0.977  0.000  0.000  0.000  0.000  0.978
 
band     5 # energy    3.56403633 # occ.  1.00000000
 
ion      s     py     pz     px    dxy    dyz    dz2    dxz  x2-y2    tot
    1  0.000  0.000  0.000  0.000  0.000  0.000  0.000  0.489  0.000  0.489
    2  0.000  0.000  0.000  0.000  0.000  0.000  0.000  0.489  0.000  0.489
tot    0.000  0.000  0.001  0.000  0.000  0.000  0.000  0.977  0.000  0.978
 
band     6 # energy    3.59029007 # occ.  1.00000000
 
ion      s     py     pz     px    dxy    dyz    dz2    dxz  x2-y2    tot
    1  0.000  0.000  0.000  0.000  0.000  0.489  0.000  0.000  0.000  0.489
    2  0.000  0.000  0.000  0.000  0.000  0.489  0.000  0.000  0.000  0.489
tot    0.000  0.000  0.000  0.000  0.000  0.978  0.000  0.000  0.000  0.978
 
band     7 # energy    4.74149113 # occ.  1.00000000
 
ion      s     py     pz     px    dxy    dyz    dz2    dxz  x2-y2    tot
    1  0.000  0.000  0.000  0.000  0.000  0.000  0.363  0.000  0.121  0.484
    2  0.000  0.000  0.000  0.000  0.000  0.000  0.363  0.000  0.121  0.484
tot    0.000  0.000  0.000  0.000  0.000  0.000  0.726  0.000  0.242  0.969
 
band     8 # energy    4.79943330 # occ.  1.00000000
 
ion      s     py     pz     px    dxy    dyz    dz2    dxz  x2-y2    tot
    1  0.000  0.000  0.000  0.000  0.000  0.000  0.121  0.000  0.364  0.486
    2  0.000  0.000  0.000  0.000  0.000  0.000  0.121  0.000  0.364  0.486
tot    0.000  0.000  0.000  0.000  0.000  0.000  0.243  0.000  0.728  0.971
 
band     9 # energy    5.92163138 # occ.  0.30161837
 
ion      s     py     pz     px    dxy    dyz    dz2    dxz  x2-y2    tot
    1  0.000  0.002  0.000  0.000  0.490  0.000  0.000  0.000  0.000  0.493
    2  0.000  0.002  0.000  0.000  0.490  0.000  0.000  0.000  0.000  0.493
tot    0.000  0.004  0.000  0.000  0.981  0.000  0.000  0.000  0.000  0.985
 
band    10 # energy    5.92163299 # occ.  0.30161222
 
ion      s     py     pz     px    dxy    dyz    dz2    dxz  x2-y2    tot
    1  0.000  0.000  0.002  0.000  0.000  0.000  0.000  0.490  0.000  0.493
    2  0.000  0.000  0.002  0.000  0.000  0.000  0.000  0.490  0.000  0.493
tot    0.000  0.000  0.004  0.000  0.000  0.000  0.000  0.981  0.000  0.985
 
band    11 # energy    5.97261672 # occ.  0.13153503
 
ion      s     py     pz     px    dxy    dyz    dz2    dxz  x2-y2    tot
    1  0.000  0.000  0.000  0.000  0.000  0.494  0.000  0.000  0.000  0.494
    2  0.000  0.000  0.000  0.000  0.000  0.494  0.000  0.000  0.000  0.494
tot    0.000  0.000  0.000  0.000  0.000  0.987  0.000  0.000  0.000  0.987
 
band    12 # energy   15.16862855 # occ.  0.00000000
 
ion      s     py     pz     px    dxy    dyz    dz2    dxz  x2-y2    tot
    1  0.016  0.000  0.000  0.341  0.000  0.000  0.007  0.000  0.022  0.386
    2  0.016  0.000  0.000  0.341  0.000  0.000  0.007  0.000  0.022  0.386
tot    0.032  0.000  0.000  0.682  0.000  0.000  0.015  0.000  0.045  0.773
 
band    13 # energy   16.01564119 # occ.  0.00000000
 
ion      s     py     pz     px    dxy    dyz    dz2    dxz  x2-y2    tot
    1  0.000  0.373  0.000  0.000  0.007  0.000  0.000  0.000  0.000  0.380
    2  0.000  0.373  0.000  0.000  0.007  0.000  0.000  0.000  0.000  0.380
tot    0.000  0.745  0.000  0.000  0.014  0.000  0.000  0.000  0.000  0.759
 
band    14 # energy   16.01564132 # occ.  0.00000000
 
ion      s     py     pz     px    dxy    dyz    dz2    dxz  x2-y2    tot
    1  0.000  0.000  0.373  0.000  0.000  0.000  0.000  0.007  0.000  0.380
    2  0.000  0.000  0.373  0.000  0.000  0.000  0.000  0.007  0.000  0.380
tot    0.000  0.000  0.745  0.000  0.000  0.000  0.000  0.014  0.000  0.759
 
band    15 # energy   21.59685165 # occ.  0.00000000
 
ion      s     py     pz     px    dxy    dyz    dz2    dxz  x2-y2    tot
    1  0.000  0.000  0.000  0.000  0.000  0.000  0.356  0.000  0.119  0.474
    2  0.000  0.000  0.000  0.000  0.000  0.000  0.356  0.000  0.119  0.474
tot    0.000  0.000  0.000  0.000  0.000  0.000  0.712  0.000  0.237  0.949
 
band    16 # energy   22.07695719 # occ.  0.00000000
 
ion      s     py     pz     px    dxy    dyz    dz2    dxz  x2-y2    tot
    1  0.005  0.000  0.000  0.014  0.000  0.000  0.111  0.000  0.332  0.462
    2  0.005  0.000  0.000  0.014  0.000  0.000  0.111  0.000  0.332  0.462
tot    0.010  0.000  0.000  0.028  0.000  0.000  0.221  0.000  0.664  0.923
 
band    17 # energy   27.03426756 # occ.  0.00000000
 
ion      s     py     pz     px    dxy    dyz    dz2    dxz  x2-y2    tot
    1  0.369  0.000  0.000  0.020  0.000  0.000  0.001  0.000  0.002  0.392
    2  0.369  0.000  0.000  0.020  0.000  0.000  0.001  0.000  0.002  0.392
tot    0.738  0.000  0.000  0.040  0.000  0.000  0.001  0.000  0.004  0.783
 
band    18 # energy   30.30746080 # occ.  0.00000000
 
ion      s     py     pz     px    dxy    dyz    dz2    dxz  x2-y2    tot
    1  0.000  0.000  0.000  0.000  0.000  0.000  0.046  0.000  0.015  0.061
    2  0.000  0.000  0.000  0.000  0.000  0.000  0.046  0.000  0.015  0.061
tot    0.000  0.000  0.000  0.000  0.000  0.000  0.092  0.000  0.031  0.122
 
band    19 # energy   30.86020297 # occ.  0.00000000
 
ion      s     py     pz     px    dxy    dyz    dz2    dxz  x2-y2    tot
    1  0.000  0.001  0.000  0.000  0.036  0.000  0.000  0.000  0.000  0.037
    2  0.000  0.001  0.000  0.000  0.036  0.000  0.000  0.000  0.000  0.037
tot    0.000  0.002  0.000  0.000  0.073  0.000  0.000  0.000  0.000  0.075
 
band    20 # energy   30.86020304 # occ.  0.00000000
 
ion      s     py     pz     px    dxy    dyz    dz2    dxz  x2-y2    tot
    1  0.000  0.000  0.001  0.000  0.000  0.000  0.000  0.036  0.000  0.037
    2  0.000  0.000  0.001  0.000  0.000  0.000  0.000  0.036  0.000  0.037
tot    0.000  0.000  0.002  0.000  0.000  0.000  0.000  0.073  0.000  0.075
 

 k-point     3 :    0.13333333 0.00000000 0.00000000     weight = 0.00177778

band     1 # energy   -2.21946320 # occ.  1.00000000
 
ion      s     py     pz     px    dxy    dyz    dz2    dxz  x2-y2    tot
    1  0.354  0.000  0.000  0.013  0.000  0.000  0.000  0.000  0.000  0.368
    2  0.354  0.000  0.000  0.013  0.000  0.000  0.000  0.000  0.000  0.368
tot    0.709  0.000  0.000  0.026  0.000  0.000  0.000  0.000  0.001  0.736
 
band     2 # energy    1.15918223 # occ.  1.00000000
 
ion      s     py     pz     px    dxy    dyz    dz2    dxz  x2-y2    tot
    1  0.000  0.000  0.000  0.000  0.000  0.000  0.329  0.000  0.110  0.439
    2  0.000  0.000  0.000  0.000  0.000  0.000  0.329  0.000  0.110  0.439
tot    0.000  0.000  0.000  0.000  0.000  0.000  0.659  0.000  0.219  0.878
 
band     3 # energy    1.15997011 # occ.  1.00000000
 
ion      s     py     pz     px    dxy    dyz    dz2    dxz  x2-y2    tot
    1  0.001  0.000  0.000  0.010  0.000  0.000  0.107  0.000  0.320  0.438
    2  0.001  0.000  0.000  0.010  0.000  0.000  0.107  0.000  0.320  0.438
tot    0.001  0.000  0.000  0.019  0.000  0.000  0.214  0.000  0.641  0.875
 
band     4 # energy    3.56425440 # occ.  1.00000000
 
ion      s     py     pz     px    dxy    dyz    dz2    dxz  x2-y2    tot
    1  0.000  0.001  0.000  0.000  0.487  0.000  0.000  0.000  0.000  0.488
    2  0.000  0.001  0.000  0.000  0.487  0.000  0.000  0.000  0.000  0.488
tot    0.000  0.003  0.000  0.000  0.973  0.000  0.000  0.000  0.000  0.976
 
band     5 # energy    3.56425528 # occ.  1.00000000
 
ion      s     py     pz     px    dxy    dyz    dz2    dxz  x2-y2    tot
    1  0.000  0.000  0.001  0.000  0.000  0.000  0.000  0.487  0.000  0.488
    2  0.000  0.000  0.001  0.000  0.000  0.000  0.000  0.487  0.000  0.488
tot    0.000  0.000  0.003  0.000  0.000  0.000  0.000  0.973  0.000  0.976
 
band     6 # energy    3.66569850 # occ.  1.00000000
 
ion      s     py     pz     px    dxy    dyz    dz2    dxz  x2-y2    tot
    1  0.000  0.000  0.000  0.000  0.000  0.489  0.000  0.000  0.000  0.489
    2  0.000  0.000  0.000  0.000  0.000  0.489  0.000  0.000  0.000  0.489
tot    0.000  0.000  0.000  0.000  0.000  0.978  0.000  0.000  0.000  0.978
 
band     7 # energy    4.61852502 # occ.  1.00000000
 
ion      s     py     pz     px    dxy    dyz    dz2    dxz  x2-y2    tot
    1  0.000  0.000  0.000  0.000  0.000  0.000  0.361  0.000  0.120  0.482
    2  0.000  0.000  0.000  0.000  0.000  0.000  0.361  0.000  0.120  0.482
tot    0.000  0.000  0.000  0.000  0.000  0.000  0.723  0.000  0.241  0.963
 
band     8 # energy    4.84766403 # occ.  1.00000000
 
ion      s     py     pz     px    dxy    dyz    dz2    dxz  x2-y2    tot
    1  0.000  0.000  0.000  0.000  0.000  0.000  0.122  0.000  0.365  0.486
    2  0.000  0.000  0.000  0.000  0.000  0.000  0.122  0.000  0.365  0.486
tot    0.001  0.000  0.000  0.000  0.000  0.000  0.243  0.000  0.729  0.973
 
band     9 # energy    5.70504612 # occ.  0.99976565
 
ion      s     py     pz     px    dxy    dyz    dz2    dxz  x2-y2    tot
    1  0.000  0.007  0.000  0.000  0.482  0.000  0.000  0.000  0.000  0.489
    2  0.000  0.007  0.000  0.000  0.482  0.000  0.000  0.000  0.000  0.489
tot    0.000  0.015  0.000  0.000  0.964  0.000  0.000  0.000  0.000  0.979
 
band    10 # energy    5.70504763 # occ.  0.99976398
 
ion      s     py     pz     px    dxy    dyz    dz2    dxz  x2-y2    tot
    1  0.000  0.000  0.007  0.000  0.000  0.000  0.000  0.482  0.000  0.489
    2  0.000  0.000  0.007  0.000  0.000  0.000  0.000  0.482  0.000  0.489
tot    0.000  0.000  0.015  0.000  0.000  0.000  0.000  0.964  0.000  0.979
 
band    11 # energy    5.89082521 # occ.  0.42578156
 
ion      s     py     pz     px    dxy    dyz    dz2    dxz  x2-y2    tot
    1  0.000  0.000  0.000  0.000  0.000  0.493  0.000  0.000  0.000  0.493
    2  0.000  0.000  0.000  0.000  0.000  0.493  0.000  0.000  0.000  0.493
tot    0.000  0.000  0.000  0.000  0.000  0.986  0.000  0.000  0.000  0.986
 
band    12 # energy   13.69474535 # occ.  0.00000000
 
ion      s     py     pz     px    dxy    dyz    dz2    dxz  x2-y2    tot
    1  0.046  0.000  0.000  0.287  0.000  0.000  0.017  0.000  0.050  0.400
    2  0.046  0.000  0.000  0.287  0.000  0.000  0.017  0.000  0.050  0.400
tot    0.091  0.000  0.000  0.574  0.000  0.000  0.033  0.000  0.100  0.799
 
band    13 # energy   16.52323502 # occ.  0.00000000
 
ion      s     py     pz     px    dxy    dyz    dz2    dxz  x2-y2    tot
    1  0.000  0.361  0.000  0.000  0.026  0.000  0.000  0.000  0.000  0.387
    2  0.000  0.361  0.000  0.000  0.026  0.000  0.000  0.000  0.000  0.387
tot    0.000  0.723  0.000  0.000  0.052  0.000  0.000  0.000  0.000  0.775
 
band    14 # energy   16.52323525 # occ.  0.00000000
 
ion      s     py     pz     px    dxy    dyz    dz2    dxz  x2-y2    tot
    1  0.000  0.000  0.361  0.000  0.000  0.000  0.000  0.026  0.000  0.387
    2  0.000  0.000  0.361  0.000  0.000  0.000  0.000  0.026  0.000  0.387
tot    0.000  0.000  0.723  0.000  0.000  0.000  0.000  0.052  0.000  0.775
 
band    15 # energy   21.67806505 # occ.  0.00000000
 
ion      s     py     pz     px    dxy    dyz    dz2    dxz  x2-y2    tot
    1  0.000  0.000  0.000  0.000  0.000  0.000  0.351  0.000  0.117  0.469
    2  0.000  0.000  0.000  0.000  0.000  0.000  0.351  0.000  0.117  0.469
tot    0.000  0.000  0.000  0.000  0.000  0.000  0.703  0.000  0.234  0.937
 
band    16 # energy   22.95914334 # occ.  0.00000000
 
ion      s     py     pz     px    dxy    dyz    dz2    dxz  x2-y2    tot
    1  0.045  0.000  0.000  0.011  0.000  0.000  0.094  0.000  0.281  0.431
    2  0.045  0.000  0.000  0.011  0.000  0.000  0.094  0.000  0.281  0.431
tot    0.091  0.000  0.000  0.022  0.000  0.000  0.187  0.000  0.561  0.861
 
band    17 # energy   28.04253895 # occ.  0.00000000
 
ion      s     py     pz     px    dxy    dyz    dz2    dxz  x2-y2    tot
    1  0.296  0.000  0.000  0.072  0.000  0.000  0.007  0.000  0.022  0.398
    2  0.296  0.000  0.000  0.072  0.000  0.000  0.007  0.000  0.022  0.398
tot    0.593  0.000  0.000  0.144  0.000  0.000  0.015  0.000  0.045  0.796
 
band    18 # energy   29.04187247 # occ.  0.00000000
 
ion      s     py     pz     px    dxy    dyz    dz2    dxz  x2-y2    tot
    1  0.000  0.000  0.000  0.000  0.000  0.000  0.105  0.000  0.035  0.140
    2  0.000  0.000  0.000  0.000  0.000  0.000  0.105  0.000  0.035  0.140
tot    0.000  0.000  0.000  0.000  0.000  0.000  0.210  0.000  0.070  0.280
 
band    19 # energy   30.50429704 # occ.  0.00000000
 
ion      s     py     pz     px    dxy    dyz    dz2    dxz  x2-y2    tot
    1  0.000  0.016  0.000  0.000  0.142  0.000  0.000  0.000  0.000  0.157
    2  0.000  0.016  0.000  0.000  0.142  0.000  0.000  0.000  0.000  0.157
tot    0.000  0.031  0.000  0.000  0.284  0.000  0.000  0.000  0.000  0.315
 
band    20 # energy   30.50429734 # occ.  0.00000000
 
ion      s     py     pz     px    dxy    dyz    dz2    dxz  x2-y2    tot
    1  0.000  0.000  0.016  0.000  0.000  0.000  0.000  0.142  0.000  0.157
    2  0.000  0.000  0.016  0.000  0.000  0.000  0.000  0.142  0.000  0.157
tot    0.000  0.000  0.031  0.000  0.000  0.000  0.000  0.284  0.000  0.315
 

 k-point     4 :    0.20000000-0.00000000 0.00000000     weight = 0.00177778

band     1 # energy   -1.77497707 # occ.  1.00000000
 
ion      s     py     pz     px    dxy    dyz    dz2    dxz  x2-y2    tot
    1  0.338  0.000  0.000  0.029  0.000  0.000  0.001  0.000  0.002  0.368
    2  0.338  0.000  0.000  0.029  0.000  0.000  0.001  0.000  0.002  0.368
tot    0.675  0.000  0.000  0.057  0.000  0.000  0.001  0.000  0.003  0.737
 
band     2 # energy    1.32846160 # occ.  1.00000000
 
ion      s     py     pz     px    dxy    dyz    dz2    dxz  x2-y2    tot
    1  0.003  0.000  0.000  0.022  0.000  0.000  0.103  0.000  0.309  0.436
    2  0.003  0.000  0.000  0.022  0.000  0.000  0.103  0.000  0.309  0.436
tot    0.006  0.000  0.000  0.043  0.000  0.000  0.206  0.000  0.618  0.872
 
band     3 # energy    1.35032940 # occ.  1.00000000
 
ion      s     py     pz     px    dxy    dyz    dz2    dxz  x2-y2    tot
    1  0.000  0.000  0.000  0.000  0.000  0.000  0.330  0.000  0.110  0.440
    2  0.000  0.000  0.000  0.000  0.000  0.000  0.330  0.000  0.110  0.440
tot    0.000  0.000  0.000  0.000  0.000  0.000  0.660  0.000  0.220  0.880
 
band     4 # energy    3.57320651 # occ.  1.00000000
 
ion      s     py     pz     px    dxy    dyz    dz2    dxz  x2-y2    tot
    1  0.000  0.003  0.000  0.000  0.483  0.000  0.000  0.000  0.000  0.486
    2  0.000  0.003  0.000  0.000  0.483  0.000  0.000  0.000  0.000  0.486
tot    0.000  0.006  0.000  0.000  0.967  0.000  0.000  0.000  0.000  0.973
 
band     5 # energy    3.57320739 # occ.  1.00000000
 
ion      s     py     pz     px    dxy    dyz    dz2    dxz  x2-y2    tot
    1  0.000  0.000  0.003  0.000  0.000  0.000  0.000  0.483  0.000  0.486
    2  0.000  0.000  0.003  0.000  0.000  0.000  0.000  0.483  0.000  0.486
tot    0.000  0.000  0.006  0.000  0.000  0.000  0.000  0.967  0.000  0.973
 
band     6 # energy    3.78818941 # occ.  1.00000000
 
ion      s     py     pz     px    dxy    dyz    dz2    dxz  x2-y2    tot
    1  0.000  0.000  0.000  0.000  0.000  0.488  0.000  0.000  0.000  0.488
    2  0.000  0.000  0.000  0.000  0.000  0.488  0.000  0.000  0.000  0.488
tot    0.000  0.000  0.000  0.000  0.000  0.977  0.000  0.000  0.000  0.977
 
band     7 # energy    4.41895221 # occ.  1.00000000
 
ion      s     py     pz     px    dxy    dyz    dz2    dxz  x2-y2    tot
    1  0.000  0.000  0.000  0.000  0.000  0.000  0.358  0.000  0.119  0.478
    2  0.000  0.000  0.000  0.000  0.000  0.000  0.358  0.000  0.119  0.478
tot    0.000  0.000  0.000  0.000  0.000  0.000  0.717  0.000  0.239  0.956
 
band     8 # energy    4.92531011 # occ.  1.00000000
 
ion      s     py     pz     px    dxy    dyz    dz2    dxz  x2-y2    tot
    1  0.001  0.000  0.000  0.000  0.000  0.000  0.121  0.000  0.364  0.488
    2  0.001  0.000  0.000  0.000  0.000  0.000  0.121  0.000  0.364  0.488
tot    0.003  0.000  0.000  0.001  0.000  0.000  0.243  0.000  0.729  0.975
 
band     9 # energy    5.39726825 # occ.  1.00194866
 
ion      s     py     pz     px    dxy    dyz    dz2    dxz  x2-y2    tot
    1  0.000  0.013  0.000  0.000  0.473  0.000  0.000  0.000  0.000  0.486
    2  0.000  0.013  0.000  0.000  0.473  0.000  0.000  0.000  0.000  0.486
tot    0.000  0.025  0.000  0.000  0.946  0.000  0.000  0.000  0.000  0.972
 
band    10 # energy    5.39726965 # occ.  1.00194872
 
ion      s     py     pz     px    dxy    dyz    dz2    dxz  x2-y2    tot
    1  0.000  0.000  0.013  0.000  0.000  0.000  0.000  0.473  0.000  0.486
    2  0.000  0.000  0.013  0.000  0.000  0.000  0.000  0.473  0.000  0.486
tot    0.000  0.000  0.025  0.000  0.000  0.000  0.000  0.946  0.000  0.972
 
band    11 # energy    5.75887414 # occ.  0.90689997
 
ion      s     py     pz     px    dxy    dyz    dz2    dxz  x2-y2    tot
    1  0.000  0.000  0.000  0.000  0.000  0.492  0.000  0.000  0.000  0.492
    2  0.000  0.000  0.000  0.000  0.000  0.492  0.000  0.000  0.000  0.492
tot    0.000  0.000  0.000  0.000  0.000  0.984  0.000  0.000  0.000  0.984
 
band    12 # energy   12.00332071 # occ.  0.00000000
 
ion      s     py     pz     px    dxy    dyz    dz2    dxz  x2-y2    tot
    1  0.075  0.000  0.000  0.241  0.000  0.000  0.023  0.000  0.070  0.409
    2  0.075  0.000  0.000  0.241  0.000  0.000  0.023  0.000  0.070  0.409
tot    0.149  0.000  0.000  0.483  0.000  0.000  0.047  0.000  0.140  0.819
 
band    13 # energy   17.31274961 # occ.  0.00000000
 
ion      s     py     pz     px    dxy    dyz    dz2    dxz  x2-y2    tot
    1  0.000  0.346  0.000  0.000  0.053  0.000  0.000  0.000  0.000  0.399
    2  0.000  0.346  0.000  0.000  0.053  0.000  0.000  0.000  0.000  0.399
tot    0.000  0.692  0.000  0.000  0.105  0.000  0.000  0.000  0.000  0.797
 
band    14 # energy   17.31274997 # occ.  0.00000000
 
ion      s     py     pz     px    dxy    dyz    dz2    dxz  x2-y2    tot
    1  0.000  0.000  0.346  0.000  0.000  0.000  0.000  0.053  0.000  0.399
    2  0.000  0.000  0.346  0.000  0.000  0.000  0.000  0.053  0.000  0.399
tot    0.000  0.000  0.692  0.000  0.000  0.000  0.000  0.105  0.000  0.797
 
band    15 # energy   21.81879435 # occ.  0.00000000
 
ion      s     py     pz     px    dxy    dyz    dz2    dxz  x2-y2    tot
    1  0.000  0.000  0.000  0.000  0.000  0.000  0.344  0.000  0.115  0.459
    2  0.000  0.000  0.000  0.000  0.000  0.000  0.344  0.000  0.115  0.459
tot    0.000  0.000  0.000  0.000  0.000  0.000  0.688  0.000  0.229  0.917
 
band    16 # energy   23.60106871 # occ.  0.00000000
 
ion      s     py     pz     px    dxy    dyz    dz2    dxz  x2-y2    tot
    1  0.104  0.000  0.000  0.000  0.000  0.000  0.072  0.000  0.216  0.393
    2  0.104  0.000  0.000  0.000  0.000  0.000  0.072  0.000  0.216  0.393
tot    0.208  0.000  0.000  0.001  0.000  0.000  0.144  0.000  0.432  0.785
 
band    17 # energy   27.71666390 # occ.  0.00000000
 
ion      s     py     pz     px    dxy    dyz    dz2    dxz  x2-y2    tot
    1  0.000  0.000  0.000  0.000  0.000  0.000  0.149  0.000  0.050  0.198
    2  0.000  0.000  0.000  0.000  0.000  0.000  0.149  0.000  0.050  0.198
tot    0.000  0.000  0.000  0.000  0.000  0.000  0.298  0.000  0.099  0.397
 
band    18 # energy   29.66863889 # occ.  0.00000000
 
ion      s     py     pz     px    dxy    dyz    dz2    dxz  x2-y2    tot
    1  0.000  0.060  0.000  0.000  0.255  0.000  0.000  0.000  0.000  0.315
    2  0.000  0.060  0.000  0.000  0.255  0.000  0.000  0.000  0.000  0.315
tot    0.000  0.120  0.000  0.000  0.510  0.000  0.000  0.000  0.000  0.630
 
band    19 # energy   29.66863949 # occ.  0.00000000
 
ion      s     py     pz     px    dxy    dyz    dz2    dxz  x2-y2    tot
    1  0.000  0.000  0.060  0.000  0.000  0.000  0.000  0.255  0.000  0.315
    2  0.000  0.000  0.060  0.000  0.000  0.000  0.000  0.255  0.000  0.315
tot    0.000  0.000  0.120  0.000  0.000  0.000  0.000  0.510  0.000  0.630
 
band    20 # energy   29.81827825 # occ.  0.00000000
 
ion      s     py     pz     px    dxy    dyz    dz2    dxz  x2-y2    tot
    1  0.203  0.000  0.000  0.120  0.000  0.000  0.022  0.000  0.065  0.409
    2  0.203  0.000  0.000  0.120  0.000  0.000  0.022  0.000  0.065  0.409
tot    0.405  0.000  0.000  0.240  0.000  0.000  0.043  0.000  0.130  0.819
 

 k-point     5 :    0.26666667 0.00000000 0.00000000     weight = 0.00177778

band     1 # energy   -1.18306997 # occ.  1.00000000
 
ion      s     py     pz     px    dxy    dyz    dz2    dxz  x2-y2    tot
    1  0.313  0.000  0.000  0.049  0.000  0.000  0.002  0.000  0.006  0.369
    2  0.313  0.000  0.000  0.049  0.000  0.000  0.002  0.000  0.006  0.369
tot    0.626  0.000  0.000  0.098  0.000  0.000  0.004  0.000  0.012  0.739
 
band     2 # energy    1.50831353 # occ.  1.00000000
 
ion      s     py     pz     px    dxy    dyz    dz2    dxz  x2-y2    tot
    1  0.009  0.000  0.000  0.037  0.000  0.000  0.097  0.000  0.290  0.433
    2  0.009  0.000  0.000  0.037  0.000  0.000  0.097  0.000  0.290  0.433
tot    0.019  0.000  0.000  0.075  0.000  0.000  0.193  0.000  0.579  0.866
 
band     3 # energy    1.60805401 # occ.  1.00000000
 