 running on    4 total cores
 distrk:  each k-point on    4 cores,    1 groups
 distr:  one band on    1 cores,    4 groups
 vasp.6.2.0 18Jan21 (build Aug 12 2022 13:00:08) complex                        
  
 POSCAR found type information on POSCAR Fe
 POSCAR found :  1 types and       2 ions
 scaLAPACK will be used
 LDA part: xc-table for Pade appr. of Perdew
 -----------------------------------------------------------------------------
|                                                                             |
|           W    W    AA    RRRRR   N    N  II  N    N   GGGG   !!!           |
|           W    W   A  A   R    R  NN   N  II  NN   N  G    G  !!!           |
|           W    W  A    A  R    R  N N  N  II  N N  N  G       !!!           |
|           W WW W  AAAAAA  RRRRR   N  N N  II  N  N N  G  GGG   !            |
|           WW  WW  A    A  R   R   N   NN  II  N   NN  G    G                |
|           W    W  A    A  R    R  N    N  II  N    N   GGGG   !!!           |
|                                                                             |
|     The requested file  could not be found or opened for reading            |
|     k-point information. Automatic k-point generation is used as a          |
|     fallback, which may lead to unwanted results.                           |
|                                                                             |
 -----------------------------------------------------------------------------

 POSCAR, INCAR and KPOINTS ok, starting setup
 FFT: planning ...
 WAVECAR not read
 entering main loop
       N       E                     dE             d eps       ncg     rms          rms(c)
DAV:   1     0.634417920527E+02    0.63442E+02   -0.60883E+03 10704   0.821E+02
DAV:   2    -0.134056353736E+02   -0.76847E+02   -0.68719E+02  9796   0.167E+02
DAV:   3    -0.160665735883E+02   -0.26609E+01   -0.26104E+01 10904   0.398E+01
DAV:   4    -0.160865706083E+02   -0.19997E-01   -0.19992E-01 10444   0.323E+00
DAV:   5    -0.160868181418E+02   -0.24753E-03   -0.24753E-03 10792   0.345E-01    0.196E+01
DAV:   6    -0.165669903352E+02   -0.48017E+00   -0.51505E+00 10616   0.439E+01    0.616E+00
DAV:   7    -0.165060434230E+02    0.60947E-01   -0.37874E-01 11352   0.953E+00    0.441E+00
DAV:   8    -0.164890063966E+02    0.17037E-01   -0.10540E-02 12448   0.111E+00    0.162E+00
DAV:   9    -0.164777028555E+02    0.11304E-01   -0.32060E-03 14108   0.100E+00    0.433E-01
DAV:  10    -0.164772875714E+02    0.41528E-03   -0.18062E-03 11424   0.683E-01    0.647E-02
DAV:  11    -0.164773227409E+02   -0.35170E-04   -0.77074E-05 11536   0.719E-02    0.468E-02
DAV:  12    -0.164773125152E+02    0.10226E-04   -0.25764E-06  9988   0.135E-02    0.189E-02
DAV:  13    -0.164773137191E+02   -0.12039E-05   -0.11309E-06  7828   0.101E-02    0.102E-02
DAV:  14    -0.164773129505E+02    0.76865E-06   -0.29714E-07  5184   0.796E-03
   1 F= -.16477313E+02 E0= -.16476392E+02  d E =-.164773E+02  mag=     4.4671
 curvature:   0.00 expect dE= 0.000E+00 dE for cont linesearch  0.000E+00
 trial: gam= 0.00000 g(F)=  0.149E-61 g(S)=  0.648E-01 ort = 0.000E+00 (trialstep = 0.100E+01)
 search vector abs. value=  0.648E-01
 bond charge predicted
       N       E                     dE             d eps       ncg     rms          rms(c)
DAV:   1    -0.172416653972E+02   -0.76435E+00   -0.71407E+00 10556   0.441E+01    0.831E+00
DAV:   2    -0.165297270327E+02    0.71194E+00   -0.13195E+00 10508   0.257E+01    0.672E+00
DAV:   3    -0.164938414419E+02    0.35886E-01   -0.98007E-02 11328   0.567E+00    0.237E+00
DAV:   4    -0.164863738619E+02    0.74676E-02   -0.51824E-03 11936   0.794E-01    0.546E-01
DAV:   5    -0.164804184585E+02    0.59554E-02   -0.41401E-03 11856   0.510E-01    0.946E-02
DAV:   6    -0.164805284059E+02   -0.10995E-03   -0.29291E-04 10748   0.188E-01    0.512E-02
DAV:   7    -0.164805369096E+02   -0.85037E-05   -0.15687E-05 10228   0.461E-02    0.239E-02
DAV:   8    -0.164805342944E+02    0.26151E-05   -0.14281E-06  8200   0.158E-02    0.106E-02
DAV:   9    -0.164805330782E+02    0.12162E-05   -0.42967E-07  5048   0.103E-02    0.363E-03
DAV:  10    -0.164805330284E+02    0.49848E-07   -0.71446E-08  4972   0.292E-03
   2 F= -.16480533E+02 E0= -.16479620E+02  d E =-.322008E-02  mag=     4.2525
 trial-energy change:   -0.003220  1 .order   -0.000763   -0.064768    0.063241
 step:   0.5346(harm=  0.5060)  dis= 0.00000  next Energy=   -16.495001 (dE=-0.177E-01)
 bond charge predicted
       N       E                     dE             d eps       ncg     rms          rms(c)
DAV:   1    -0.166674835213E+02   -0.18695E+00   -0.15910E+00 10484   0.218E+01    0.406E+00
DAV:   2    -0.165137263640E+02    0.15376E+00   -0.42259E-01 10552   0.129E+01    0.373E+00
DAV:   3    -0.164984368615E+02    0.15290E-01   -0.29162E-02 11308   0.333E+00    0.111E+00
DAV:   4    -0.164966100625E+02    0.18268E-02   -0.20242E-03 12812   0.559E-01    0.323E-01
DAV:   5    -0.164951686090E+02    0.14415E-02   -0.10962E-03 10968   0.289E-01    0.567E-02
DAV:   6    -0.164951943029E+02   -0.25694E-04   -0.37486E-05 10192   0.509E-02    0.244E-02
DAV:   7    -0.164952000837E+02   -0.57808E-05   -0.34204E-06 10024   0.181E-02    0.149E-02
DAV:   8    -0.164952032854E+02   -0.32016E-05   -0.56945E-07  6132   0.803E-03    0.334E-03
DAV:   9    -0.164952033612E+02   -0.75840E-07   -0.92088E-08  4924   0.277E-03
   3 F= -.16495203E+02 E0= -.16494335E+02  d E =-.178904E-01  mag=     4.3505
 curvature:  -0.25 expect dE=-0.928E-07 dE for cont linesearch -0.928E-07
 trial: gam=-0.00238 g(F)=  0.231E-61 g(S)=  0.368E-06 ort = 0.154E-03 (trialstep = 0.907E+00)
 search vector abs. value=  0.102E-09
 reached required accuracy - stopping structural energy minimisation
 writing wavefunctions
