   1   1   0   0
  0.1408159E+02  0.2710538E-09  0.2710538E-09  0.2710538E-09  0.5000000E-15
  1.000000000000000E-004
  CAR 
 unknown system                          
     38.33287840     -6.30119807  301     10.18492004      1.00000000
     -6.301  0.0000E+00  0.0000E+00
     -6.152  0.0000E+00  0.0000E+00
     -6.004  0.0000E+00  0.0000E+00
     -5.855  0.0000E+00  0.0000E+00
     -5.706  0.0000E+00  0.0000E+00
     -5.557  0.0000E+00  0.0000E+00
     -5.409  0.0000E+00  0.0000E+00
     -5.260  0.0000E+00  0.0000E+00
     -5.111  0.0000E+00  0.0000E+00
     -4.962  0.0000E+00  0.0000E+00
     -4.813  0.0000E+00  0.0000E+00
     -4.665  0.0000E+00  0.0000E+00
     -4.516  0.1142E-15  0.1700E-16
     -4.367  0.1475E-06  0.2195E-07
     -4.218  0.4244E-04  0.6336E-05
     -4.069  0.5013E-03  0.8092E-04
     -3.921  0.3247E-03  0.1292E-03
     -3.772  0.1033E-02  0.2829E-03
     -3.623  0.4768E-03  0.3539E-03
     -3.474  0.4956E-03  0.4276E-03
     -3.326  0.1624E-02  0.6692E-03
     -3.177  0.9491E-03  0.8104E-03
     -3.028  0.1269E-02  0.9992E-03
     -2.879  0.3280E-03  0.1048E-02
     -2.730  0.2228E-02  0.1379E-02
     -2.582  0.1217E-02  0.1561E-02
     -2.433  0.1196E-02  0.1738E-02
     -2.284  0.1500E-02  0.1962E-02
     -2.135  0.4156E-03  0.2023E-02
     -1.987  0.2683E-02  0.2423E-02
     -1.838  0.1583E-02  0.2658E-02
     -1.689  0.3029E-02  0.3109E-02
     -1.540  0.3278E-03  0.3158E-02
     -1.391  0.9498E-03  0.3299E-02
     -1.243  0.2144E-02  0.3618E-02
     -1.094  0.1678E-02  0.3867E-02
     -0.945  0.2855E-02  0.4292E-02
     -0.796  0.9179E-03  0.4429E-02
     -0.648  0.4296E-02  0.5068E-02
     -0.499  0.1089E-02  0.5230E-02
     -0.350  0.1853E-02  0.5506E-02
     -0.201  0.6184E-03  0.5598E-02
     -0.052  0.1834E-02  0.5871E-02
      0.096  0.3070E-02  0.6328E-02
      0.245  0.2934E-02  0.6764E-02
      0.394  0.3932E-02  0.7349E-02
      0.543  0.1208E-03  0.7367E-02
      0.691  0.3612E-02  0.7904E-02
      0.840  0.1897E-02  0.8187E-02
      0.989  0.2460E-02  0.8552E-02
      1.138  0.6698E-03  0.8652E-02
      1.287  0.1655E-02  0.8898E-02
      1.435  0.5483E-02  0.9714E-02
      1.584  0.1985E-02  0.1001E-01
      1.733  0.4485E-02  0.1068E-01
      1.882  0.1226E-02  0.1086E-01
      2.030  0.2755E-02  0.1127E-01
      2.179  0.1903E-02  0.1155E-01
      2.328  0.4553E-02  0.1223E-01
      2.477  0.9265E-03  0.1237E-01
      2.626  0.2101E-02  0.1268E-01
      2.774  0.3562E-02  0.1321E-01
      2.923  0.2907E-02  0.1364E-01
      3.072  0.4720E-02  0.1434E-01
      3.221  0.1219E-02  0.1453E-01
      3.370  0.6001E-02  0.1542E-01
      3.518  0.2337E-02  0.1577E-01
      3.667  0.1723E-02  0.1602E-01
      3.816  0.8256E-03  0.1615E-01
      3.965  0.3138E-02  0.1661E-01
      4.113  0.2390E-02  0.1697E-01
      4.262  0.4979E-02  0.1771E-01
      4.411  0.5203E-02  0.1848E-01
      4.560  0.1215E-02  0.1866E-01
      4.709  0.3174E-02  0.1914E-01
      4.857  0.4183E-02  0.1976E-01
      5.006  0.4507E-02  0.2043E-01
      5.155  0.1738E-02  0.2069E-01
      5.304  0.3804E-02  0.2125E-01
      5.452  0.4962E-02  0.2199E-01
      5.601  0.2728E-02  0.2240E-01
      5.750  0.1319E-02  0.2259E-01
      5.899  0.1536E-02  0.2282E-01
      6.048  0.4868E-02  0.2355E-01
      6.196  0.4656E-02  0.2424E-01
      6.345  0.5486E-02  0.2506E-01
      6.494  0.2113E-02  0.2537E-01
      6.643  0.2279E-02  0.2571E-01
      6.791  0.4904E-02  0.2644E-01
      6.940  0.4988E-02  0.2718E-01
      7.089  0.2800E-02  0.2760E-01
      7.238  0.2678E-02  0.2800E-01
      7.387  0.6843E-02  0.2901E-01
      7.535  0.1508E-02  0.2924E-01
      7.684  0.1308E-02  0.2943E-01
      7.833  0.1622E-02  0.2967E-01
      7.982  0.4354E-02  0.3032E-01
      8.130  0.5358E-02  0.3112E-01
      8.279  0.8936E-02  0.3245E-01
      8.428  0.4241E-02  0.3308E-01
      8.577  0.1742E-02  0.3334E-01
      8.726  0.2645E-02  0.3373E-01
      8.874  0.5769E-02  0.3459E-01
      9.023  0.2315E-02  0.3494E-01
      9.172  0.2018E-02  0.3524E-01
      9.321  0.5769E-02  0.3609E-01
      9.470  0.4469E-02  0.3676E-01
      9.618  0.5089E-02  0.3752E-01
      9.767  0.8949E-03  0.3765E-01
      9.916  0.6450E-02  0.3861E-01
     10.065  0.3802E-02  0.3917E-01
     10.213  0.6856E-02  0.4019E-01
     10.362  0.3920E-02  0.4078E-01
     10.511  0.2737E-02  0.4118E-01
     10.660  0.1443E-02  0.4140E-01
     10.809  0.7314E-02  0.4249E-01
     10.957  0.6475E-02  0.4345E-01
     11.106  0.2646E-02  0.4384E-01
     11.255  0.5537E-02  0.4467E-01
     11.404  0.5436E-02  0.4548E-01
     11.552  0.2847E-02  0.4590E-01
     11.701  0.1722E-02  0.4616E-01
     11.850  0.5493E-02  0.4697E-01
     11.999  0.2748E-02  0.4738E-01
     12.148  0.9139E-02  0.4874E-01
     12.296  0.4588E-02  0.4943E-01
     12.445  0.6254E-02  0.5036E-01
     12.594  0.4397E-02  0.5101E-01
     12.743  0.3567E-02  0.5154E-01
     12.891  0.4425E-02  0.5220E-01
     13.040  0.5164E-02  0.5297E-01
     13.189  0.7283E-02  0.5405E-01
     13.338  0.6008E-02  0.5494E-01
     13.487  0.3623E-02  0.5548E-01
     13.635  0.4926E-02  0.5622E-01
     13.784  0.5081E-02  0.5697E-01
     13.933  0.6121E-02  0.5788E-01
     14.082  0.6592E-02  0.5886E-01
     14.230  0.3479E-02  0.5938E-01
     14.379  0.5998E-02  0.6027E-01
     14.528  0.5125E-02  0.6104E-01
     14.677  0.7686E-02  0.6218E-01
     14.826  0.4073E-02  0.6279E-01
     14.974  0.4022E-02  0.6338E-01
     15.123  0.5442E-02  0.6419E-01
     15.272  0.1147E-02  0.6436E-01
     15.421  0.4182E-02  0.6499E-01
     15.569  0.6094E-02  0.6589E-01
     15.718  0.5394E-02  0.6670E-01
     15.867  0.8174E-02  0.6791E-01
     16.016  0.3351E-02  0.6841E-01
     16.165  0.5785E-02  0.6927E-01
     16.313  0.1833E-02  0.6954E-01
     16.462  0.6069E-02  0.7045E-01
     16.611  0.3037E-02  0.7090E-01
     16.760  0.4043E-02  0.7150E-01
     16.909  0.4795E-02  0.7221E-01
     17.057  0.7086E-02  0.7327E-01
     17.206  0.4894E-02  0.7400E-01
     17.355  0.2802E-02  0.7441E-01
     17.504  0.4241E-02  0.7504E-01
     17.652  0.7219E-02  0.7612E-01
     17.801  0.4285E-02  0.7676E-01
     17.950  0.2999E-02  0.7720E-01
     18.099  0.5486E-02  0.7802E-01
     18.248  0.9260E-02  0.7940E-01
     18.396  0.7305E-02  0.8048E-01
     18.545  0.3186E-02  0.8096E-01
     18.694  0.3315E-02  0.8145E-01
     18.843  0.7034E-02  0.8250E-01
     18.991  0.4055E-02  0.8310E-01
     19.140  0.3829E-02  0.8367E-01
     19.289  0.8301E-02  0.8490E-01
     19.438  0.7193E-02  0.8597E-01
     19.587  0.1463E-02  0.8619E-01
     19.735  0.3531E-02  0.8672E-01
     19.884  0.3290E-02  0.8721E-01
     20.033  0.7326E-02  0.8830E-01
     20.182  0.7391E-02  0.8940E-01
     20.330  0.8067E-02  0.9060E-01
     20.479  0.5868E-02  0.9147E-01
     20.628  0.5072E-02  0.9222E-01
     20.777  0.5464E-02  0.9304E-01
     20.926  0.2335E-02  0.9338E-01
     21.074  0.1151E-01  0.9510E-01
     21.223  0.6035E-02  0.9600E-01
     21.372  0.6073E-02  0.9690E-01
     21.521  0.5903E-02  0.9778E-01
     21.669  0.3138E-02  0.9824E-01
     21.818  0.9617E-02  0.9968E-01
     21.967  0.5419E-02  0.1005E+00
     22.116  0.2574E-02  0.1009E+00
     22.265  0.3363E-02  0.1014E+00
     22.413  0.6145E-02  0.1023E+00
     22.562  0.6026E-02  0.1032E+00
     22.711  0.5817E-02  0.1040E+00
     22.860  0.3907E-02  0.1046E+00
     23.009  0.4788E-02  0.1053E+00
     23.157  0.8791E-02  0.1066E+00
     23.306  0.7595E-02  0.1078E+00
     23.455  0.1125E-01  0.1094E+00
     23.604  0.6537E-02  0.1104E+00
     23.752  0.8776E-02  0.1117E+00
     23.901  0.2150E-02  0.1120E+00
     24.050  0.5164E-02  0.1128E+00
     24.199  0.5474E-02  0.1136E+00
     24.348  0.3918E-02  0.1142E+00
     24.496  0.9520E-02  0.1156E+00
     24.645  0.5476E-02  0.1164E+00
     24.794  0.4302E-02  0.1171E+00
     24.943  0.4872E-02  0.1178E+00
     25.091  0.3274E-02  0.1183E+00
     25.240  0.1255E-01  0.1202E+00
     25.389  0.1209E-01  0.1220E+00
     25.538  0.4207E-02  0.1226E+00
     25.687  0.4460E-02  0.1232E+00
     25.835  0.7631E-02  0.1244E+00
     25.984  0.7316E-02  0.1255E+00
     26.133  0.5426E-02  0.1263E+00
     26.282  0.5877E-02  0.1272E+00
     26.430  0.7372E-02  0.1283E+00
     26.579  0.8039E-02  0.1294E+00
     26.728  0.5336E-02  0.1302E+00
     26.877  0.1011E-02  0.1304E+00
     27.026  0.5510E-02  0.1312E+00
     27.174  0.5418E-02  0.1320E+00
     27.323  0.9320E-02  0.1334E+00
     27.472  0.7689E-02  0.1345E+00
     27.621  0.8136E-02  0.1358E+00
     27.769  0.6325E-02  0.1367E+00
     27.918  0.2279E-02  0.1370E+00
     28.067  0.6154E-02  0.1380E+00
     28.216  0.9777E-02  0.1394E+00
     28.365  0.4849E-02  0.1401E+00
     28.513  0.3109E-02  0.1406E+00
     28.662  0.6159E-03  0.1407E+00
     28.811  0.3857E-02  0.1413E+00
     28.960  0.8686E-02  0.1426E+00
     29.109  0.4822E-02  0.1433E+00
     29.257  0.4101E-02  0.1439E+00
     29.406  0.3664E-02  0.1444E+00
     29.555  0.4938E-02  0.1452E+00
     29.704  0.1082E-01  0.1468E+00
     29.852  0.6683E-02  0.1478E+00
     30.001  0.5964E-02  0.1486E+00
     30.150  0.3919E-02  0.1492E+00
     30.299  0.4256E-02  0.1499E+00
     30.448  0.1606E-02  0.1501E+00
     30.596  0.4565E-02  0.1508E+00
     30.745  0.5382E-02  0.1516E+00
     30.894  0.3738E-02  0.1521E+00
     31.043  0.2643E-02  0.1525E+00
     31.191  0.3878E-02  0.1531E+00
     31.340  0.5482E-02  0.1539E+00
     31.489  0.3725E-02  0.1545E+00
     31.638  0.1250E-02  0.1547E+00
     31.787  0.3570E-04  0.1547E+00
     31.935  0.4383E-02  0.1553E+00
     32.084  0.2729E-02  0.1557E+00
     32.233  0.9493E-03  0.1559E+00
     32.382  0.1558E-02  0.1561E+00
     32.530  0.1303E-02  0.1563E+00
     32.679  0.1941E-02  0.1566E+00
     32.828  0.3534E-02  0.1571E+00
     32.977  0.2288E-02  0.1575E+00
     33.126  0.6382E-03  0.1575E+00
     33.274  0.1312E-02  0.1577E+00
     33.423  0.2673E-02  0.1581E+00
     33.572  0.1208E-02  0.1583E+00
     33.721  0.1738E-02  0.1586E+00
     33.869  0.1645E-02  0.1588E+00
     34.018  0.5045E-03  0.1589E+00
     34.167  0.2100E-04  0.1589E+00
     34.316  0.1838E-02  0.1592E+00
     34.465  0.4600E-03  0.1592E+00
     34.613  0.7048E-04  0.1593E+00
     34.762  0.8003E-03  0.1594E+00
     34.911  0.3945E-03  0.1594E+00
     35.060  0.1111E-02  0.1596E+00
     35.208  0.1040E-02  0.1598E+00
     35.357  0.4397E-03  0.1598E+00
     35.506  0.5163E-03  0.1599E+00
     35.655  0.1914E-07  0.1599E+00
     35.804  0.5300E-11  0.1599E+00
     35.952  0.3961E-04  0.1599E+00
     36.101  0.4372E-03  0.1600E+00
     36.250  0.1619E-04  0.1600E+00
     36.399  0.2230E-03  0.1600E+00
     36.548  0.8852E-06  0.1600E+00
     36.696  0.6854E-15  0.1600E+00
     36.845  0.0000E+00  0.1600E+00
     36.994  0.0000E+00  0.1600E+00
     37.143  0.0000E+00  0.1600E+00
     37.291  0.0000E+00  0.1600E+00
     37.440  0.0000E+00  0.1600E+00
     37.589  0.0000E+00  0.1600E+00
     37.738  0.0000E+00  0.1600E+00
     37.887  0.0000E+00  0.1600E+00
     38.035  0.0000E+00  0.1600E+00
     38.184  0.0000E+00  0.1600E+00
     38.333  0.0000E+00  0.1600E+00
