    1    1  100    1
  0.1408159E+02  0.2710538E-09  0.2710538E-09  0.2710538E-09  0.5000000E-15
  1.000000000000000E-004
  CAR 
 unknown system                          
      4    120      8
 
  0.0000000E+00  0.0000000E+00  0.0000000E+00  0.2962963E-03
    1       -4.272376   1.000000
    2       21.382308   0.000000
    3       21.382315   0.000000
    4       21.382323   0.000000
    5       22.180057   0.000000
    6       22.180066   0.000000
    7       22.180075   0.000000
    8       27.497634   0.000000
 
  0.6666667E-01 -0.6938894E-17  0.0000000E+00  0.2370370E-02
    1       -4.142662   1.000000
    2       19.230197   0.000000
    3       20.713047   0.000000
    4       20.713059   0.000000
    5       23.004426   0.000000
    6       23.004440   0.000000
    7       23.220464   0.000000
    8       28.416426   0.000000
 
  0.1333333E+00  0.0000000E+00  0.0000000E+00  0.2370370E-02
    1       -3.754030   1.000000
    2       16.394691   0.000000
    3       19.950066   0.000000
    4       19.950077   0.000000
    5       23.503233   0.000000
    6       24.099959   0.000000
    7       24.099974   0.000000
    8       27.377044   0.000000
 
  0.2000000E+00  0.0000000E+00  0.0000000E+00  0.2370370E-02
    1       -3.108062   1.000000
    2       13.561835   0.000000
    3       19.370135   0.000000
    4       19.370145   0.000000
    5       23.432312   0.000000
    6       24.319332   0.000000
    7       24.319342   0.000000
    8       27.346339   0.000000
 
  0.2666667E+00  0.0000000E+00  0.0000000E+00  0.2370370E-02
    1       -2.207458   1.000000
    2       10.856692   0.000000
    3       18.990331   0.000000
    4       18.990339   0.000000
    5       23.336182   0.000000
    6       23.425192   0.000000
    7       23.425201   0.000000
    8       28.725537   0.000000
 
  0.3333333E+00  0.0000000E+00  0.0000000E+00  0.2370370E-02
    1       -1.056315   1.000000
    2        8.330229   1.000000
    3       18.797392   0.000000
    4       18.797398   0.000000
    5       22.417141   0.000000
    6       22.417151   0.000000
    7       23.324684   0.000000
    8       27.560590   0.000000
 
  0.4000000E+00 -0.2775558E-16  0.0000000E+00  0.2370370E-02
    1        0.338376   1.000000
    2        6.010588   1.000000
    3       18.755658   0.000000
    4       18.755663   0.000000
    5       21.608780   0.000000
    6       21.608791   0.000000
    7       23.413819   0.000000
    8       26.638683   0.000000
 
  0.4666667E+00  0.0000000E+00  0.0000000E+00  0.2370370E-02
    1        1.947137   1.000000
    2        3.936821   1.000000
    3       18.786493   0.000000
    4       18.786497   0.000000
    5       21.145468   0.000000
    6       21.145481   0.000000
    7       23.524487   0.000000
    8       26.095401   0.000000
 
  0.6666667E-01  0.6666667E-01  0.0000000E+00  0.1777778E-02
    1       -4.099436   1.000000
    2       19.708595   0.000000
    3       19.708595   0.000000
    4       20.979323   0.000000
    5       21.256795   0.000000
    6       24.066701   0.000000
    7       24.066702   0.000000
    8       27.288475   0.000000
 
  0.1333333E+00  0.6666667E-01  0.0000000E+00  0.7111111E-02
    1       -3.797147   1.000000
    2       17.402967   0.000000
    3       18.864352   0.000000
    4       20.422458   0.000000
    5       21.793056   0.000000
    6       24.781347   0.000000
    7       25.215397   0.000000
    8       25.807547   0.000000
 
  0.2000000E+00  0.6666667E-01  0.0000000E+00  0.7111111E-02
    1       -3.237011   1.000000
    2       14.585316   0.000000
    3       18.227297   0.000000
    4       19.788497   0.000000
    5       22.481155   0.000000
    6       24.575541   0.000000
    7       25.337675   0.000000
    8       25.832887   0.000000
 
  0.2666667E+00  0.6666667E-01  0.0000000E+00  0.7111111E-02
    1       -2.421340   1.000000
    2       11.840505   0.000000
    3       17.805139   0.000000
    4       19.276382   0.000000
    5       21.915525   0.000000
    6       24.412773   0.000000
    7       25.175545   0.000000
    8       26.371888   0.000000
 
  0.3333333E+00  0.6666667E-01  0.0000000E+00  0.7111111E-02
    1       -1.353692   1.000000
    2        9.255522   1.000000
    3       17.598164   0.000000
    4       18.840036   0.000000
    5       21.043156   0.000000
    6       24.135230   0.000000
    7       24.389221   0.000000
    8       27.962936   0.000000
 
  0.4000000E+00  0.6666667E-01  0.0000000E+00  0.7111111E-02
    1       -0.039664   1.000000
    2        6.867089   1.000000
    3       17.604329   0.000000
    4       18.366530   0.000000
    5       20.522011   0.000000
    6       23.175678   0.000000
    7       24.410344   0.000000
    8       27.859917   0.000000
 
  0.4666667E+00  0.6666667E-01  0.0000000E+00  0.7111111E-02
    1        1.506085   1.000000
    2        4.703110   1.000000
    3       17.812844   0.000000
    4       17.826963   0.000000
    5       20.482261   0.000000
    6       22.405249   0.000000
    7       24.431419   0.000000
    8       27.319594   0.000000
 
 -0.4666667E+00  0.6666667E-01  0.0000000E+00  0.7111111E-02
    1        2.578146   1.000000
    2        3.476193   1.000000
    3       17.337891   0.000000
    4       18.202957   0.000000
    5       20.831812   0.000000
    6       21.880941   0.000000
    7       24.369568   0.000000
    8       27.231171   0.000000
 
 -0.4000000E+00  0.6666667E-01  0.0000000E+00  0.7111111E-02
    1        0.967348   1.000000
    2        5.396501   1.000000
    3       16.996029   0.000000
    4       18.730115   0.000000
    5       21.479210   0.000000
    6       21.653953   0.000000
    7       24.219531   0.000000
    8       27.627905   0.000000
 
 -0.3333333E+00  0.6666667E-01  0.0000000E+00  0.7111111E-02
    1       -0.504574   1.000000
    2        7.639450   1.000000
    3       16.845829   0.000000
    4       19.312742   0.000000
    5       21.801421   0.000000
    6       22.369124   0.000000
    7       24.086474   0.000000
    8       28.360919   0.000000
 
 -0.2666667E+00  0.6666667E-01  0.0000000E+00  0.7111111E-02
    1       -1.737308   1.000000
    2       10.095913   0.994091
    3       16.905404   0.000000
    4       19.866927   0.000000
    5       22.367652   0.000000
    6       23.449046   0.000000
    7       24.033726   0.000000
    8       28.028994   0.000000
 
 -0.2000000E+00  0.6666667E-01  0.0000000E+00  0.7111111E-02
    1       -2.721457   1.000000
    2       12.738306   0.000000
    3       17.182301   0.000000
    4       20.407511   0.000000
    5       23.175156   0.000000
    6       24.044606   0.000000
    7       24.600380   0.000000
    8       26.349818   0.000000
 
 -0.1333333E+00  0.6666667E-01  0.0000000E+00  0.7111111E-02
    1       -3.452276   1.000000
    2       15.519512   0.000000
    3       17.679253   0.000000
    4       21.002435   0.000000
    5       23.286577   0.000000
    6       23.997966   0.000000
    7       25.224179   0.000000
    8       25.914562   0.000000
 
 -0.6666667E-01  0.6666667E-01  0.0000000E+00  0.3555556E-02
    1       -3.926664   1.000000
    2       18.227554   0.000000
    3       18.486362   0.000000
    4       21.462468   0.000000
    5       22.509603   0.000000
    6       23.636171   0.000000
    7       24.529872   0.000000
    8       27.042240   0.000000
 
  0.1333333E+00  0.1333333E+00  0.0000000E+00  0.1777778E-02
    1       -3.581435   1.000000
    2       17.947958   0.000000
    3       17.947959   0.000000
    4       19.597736   0.000000
    5       19.907392   0.000000
    6       23.998041   0.000000
    7       26.441218   0.000000
    8       26.441219   0.000000
 
  0.2000000E+00  0.1333333E+00  0.0000000E+00  0.7111111E-02
    1       -3.107780   1.000000
    2       15.751255   0.000000
    3       17.239720   0.000000
    4       19.054616   0.000000
    5       20.165458   0.000000
    6       22.683859   0.000000
    7       27.160427   0.000000
    8       27.402557   0.000000
 
  0.2666667E+00  0.1333333E+00  0.0000000E+00  0.7111111E-02
    1       -2.378114   1.000000
    2       13.029372   0.000000
    3       16.749641   0.000000
    4       18.339729   0.000000
    5       20.055104   0.000000
    6       23.039983   0.000000
    7       27.138417   0.000000
    8       27.337750   0.000000
 
  0.3333333E+00  0.1333333E+00  0.0000000E+00  0.7111111E-02
    1       -1.395521   1.000000
    2       10.406607   0.000000
    3       16.480393   0.000000
    4       17.516276   0.000000
    5       19.453113   0.000000
    6       24.519256   0.000000
    7       26.173468   0.000000
    8       27.499353   0.000000
 
  0.4000000E+00  0.1333333E+00  0.0000000E+00  0.7111111E-02
    1       -0.164726   1.000000
    2        7.960059   1.000000
    3       16.432877   0.000000
    4       16.606185   0.000000
    5       19.207721   0.000000
    6       25.187794   0.000000
    7       25.783622   0.000000
    8       28.195246   0.000000
 
  0.4666667E+00  0.1333333E+00  0.0000000E+00  0.7111111E-02
    1        1.305051   1.000000
    2        5.722997   1.000000
    3       15.762960   0.000000
    4       16.603170   0.000000
    5       19.310946   0.000000
    6       24.340768   0.000000
    7       26.166026   0.000000
    8       29.690299   0.000000
 
 -0.4666667E+00  0.1333333E+00  0.0000000E+00  0.7111111E-02
    1        2.916958   1.000000
    2        3.802383   1.000000
    3       15.083169   0.000000
    4       16.987719   0.000000
    5       19.704538   0.000000
    6       23.693719   0.000000
    7       26.074009   0.000000
    8       29.815605   0.000000
 
 -0.4000000E+00  0.1333333E+00  0.0000000E+00  0.7111111E-02
    1        1.843154   1.000000
    2        5.029789   1.000000
    3       14.605793   0.000000
    4       17.576314   0.000000
    5       20.352876   0.000000
    6       23.271163   0.000000
    7       25.841768   0.000000
    8       30.120153   0.000000
 
 -0.3333333E+00  0.1333333E+00  0.0000000E+00  0.7111111E-02
    1        0.299263   1.000000
    2        7.187039   1.000000
    3       14.350206   0.000000
    4       18.350087   0.000000
    5       21.235609   0.000000
    6       23.096139   0.000000
    7       25.610656   0.000000
    8       29.663975   0.000000
 
 -0.2666667E+00  0.1333333E+00  0.0000000E+00  0.7111111E-02
    1       -1.012763   1.000000
    2        9.562468   1.000000
    3       14.324807   0.000000
    4       19.271801   0.000000
    5       22.327144   0.000000
    6       23.188632   0.000000
    7       25.419741   0.000000
    8       27.505168   0.000000
 
 -0.2000000E+00  0.1333333E+00  0.0000000E+00  0.7111111E-02
    1       -2.078714   1.000000
    2       12.114792   0.000000
    3       14.542508   0.000000
    4       20.260171   0.000000
    5       23.537893   0.000000
    6       23.571707   0.000000
    7       25.205470   0.000000
    8       25.629829   0.000000
 
 -0.1333333E+00  0.1333333E+00  0.0000000E+00  0.3555556E-02
    1       -2.893063   1.000000
    2       14.576885   0.000000
    3       15.224261   0.000000
    4       21.100490   0.000000
    5       23.507225   0.000000
    6       24.762751   0.000000
    7       24.790032   0.000000
    8       24.902697   0.000000
 
  0.2000000E+00  0.2000000E+00  0.0000000E+00  0.1777778E-02
    1       -2.720920   1.000000
    2       16.458452   0.000000
    3       16.458453   0.000000
    4       18.016778   0.000000
    5       18.155811   0.000000
    6       20.990471   0.000000
    7       28.863425   0.000000
    8       28.863426   0.000000
 
  0.2666667E+00  0.2000000E+00  0.0000000E+00  0.7111111E-02
    1       -2.077979   1.000000
    2       14.360420   0.000000
    3       15.894939   0.000000
    4       17.005894   0.000000
    5       18.274428   0.000000
    6       20.556078   0.000000
    7       29.190356   0.000000
    8       29.602660   0.000000
 
  0.3333333E+00  0.2000000E+00  0.0000000E+00  0.7111111E-02
    1       -1.181679   1.000000
    2       11.761774   0.000000
    3       15.553570   0.000000
    4       15.778164   0.000000
    5       18.175680   0.000000
    6       21.822648   0.000000
    7       28.387909   0.000000
    8       29.764335   0.000000
 
  0.4000000E+00  0.2000000E+00  0.0000000E+00  0.7111111E-02
    1       -0.036038   1.000000
    2        9.278045   1.000000
    3       14.607183   0.000000
    4       15.436286   0.000000
    5       18.059745   0.000000
    6       23.722178   0.000000
    7       27.419094   0.000000
    8       29.687764   0.000000
 
  0.4666667E+00  0.2000000E+00  0.0000000E+00  0.7111111E-02
    1        1.352048   1.000000
    2        6.981511   1.000000
    3       13.599299   0.000000
    4       15.542062   0.000000
    5       18.172337   0.000000
    6       25.735517   0.000000
    7       26.540965   0.000000
    8       29.567805   0.000000
 
 -0.4666667E+00  0.2000000E+00  0.0000000E+00  0.7111111E-02
    1        2.955683   1.000000
    2        4.918799   1.000000
    3       12.796247   0.000000
    4       15.868673   0.000000
    5       18.530956   0.000000
    6       25.829246   0.000000
    7       27.264055   0.000000
    8       29.871477   0.000000
 
 -0.4000000E+00  0.2000000E+00  0.0000000E+00  0.7111111E-02
    1        2.956256   1.000000
    2        4.915895   1.000000
    3       12.218581   0.000000
    4       16.412969   0.000000
    5       19.134840   0.000000
    6       25.324647   0.000000
    7       27.579516   0.000000
    8       31.059813   0.000000
 
 -0.3333333E+00  0.2000000E+00  0.0000000E+00  0.7111111E-02
    1        1.351599   1.000000
    2        6.971280   1.000000
    3       11.878068   0.000000
    4       17.165270   0.000000
    5       19.971704   0.000000
    6       25.036804   0.000000
    7       27.340743   0.000000
    8       29.485536   0.000000
 
 -0.2666667E+00  0.2000000E+00  0.0000000E+00  0.7111111E-02
    1       -0.036855   1.000000
    2        9.239770   1.000000
    3       11.796465   0.000000
    4       18.109515   0.000000
    5       21.025352   0.000000
    6       24.984331   0.000000
    7       26.928071   0.000000
    8       27.219017   0.000000
 
 -0.2000000E+00  0.2000000E+00  0.0000000E+00  0.3555556E-02
    1       -1.182518   1.000000
    2       11.396397   0.000000
    3       12.258008   0.000000
    4       19.200226   0.000000
    5       22.258237   0.000000
    6       25.156412   0.000000
    7       25.192148   0.000000
    8       26.254084   0.000000
 
  0.2666667E+00  0.2666667E+00  0.0000000E+00  0.1777778E-02
    1       -1.522203   1.000000
    2       15.257081   0.000000
    3       15.257082   0.000000
    4       15.423992   0.000000
    5       16.691475   0.000000
    6       19.136615   0.000000
    7       31.179509   0.000000
    8       31.179510   0.000000
 
  0.3333333E+00  0.2666667E+00  0.0000000E+00  0.7111111E-02
    1       -0.713075   1.000000
    2       13.221039   0.000000
    3       14.044278   0.000000
    4       14.842042   0.000000
    5       17.005919   0.000000
    6       19.325694   0.000000
    7       30.677120   0.000000
    8       31.857673   0.000000
 
  0.4000000E+00  0.2666667E+00  0.0000000E+00  0.7111111E-02
    1        0.345743   1.000000
    2       10.786915   0.000000
    3       12.697715   0.000000
    4       14.651649   0.000000
    5       17.102541   0.000000
    6       20.939514   0.000000
    7       29.795724   0.000000
    8       31.875707   0.000000
 
  0.4666667E+00  0.2666667E+00  0.0000000E+00  0.7111111E-02
    1        1.648483   1.000000
    2        8.459876   1.000000
    3       11.561408   0.000000
    4       14.685917   0.000000
    5       17.209111   0.000000
    6       23.069745   0.000000
    7       28.921214   0.000000
    8       31.510418   0.000000
 
 -0.4666667E+00  0.2666667E+00  0.0000000E+00  0.7111111E-02
    1        3.181168   1.000000
    2        6.327438   1.000000
    3       10.652951   0.000000
    4       14.943865   0.000000
    5       17.518410   0.000000
    6       25.382503   0.000000
    7       28.168307   0.000000
    8       30.959349   0.000000
 
 -0.4000000E+00  0.2666667E+00  0.0000000E+00  0.7111111E-02
    1        4.262906   1.000000
    2        5.087327   1.000000
    3        9.985257   1.000000
    4       15.423526   0.000000
    5       18.060883   0.000000
    6       27.596131   0.000000
    7       27.636262   0.000000
    8       30.367275   0.000000
 
 -0.3333333E+00  0.2666667E+00  0.0000000E+00  0.7111111E-02
    1        2.646688   1.000000
    2        6.971975   1.000000
    3        9.584100   1.000000
    4       16.120415   0.000000
    5       18.836894   0.000000
    6       27.216988   0.000000
    7       28.957041   0.000000
    8       29.552744   0.000000
 
 -0.2666667E+00  0.2666667E+00  0.0000000E+00  0.3555556E-02
    1        1.185799   1.000000
    2        8.815488   1.000000
    3        9.760596   1.000000
    4       17.023910   0.000000
    5       19.834422   0.000000
    6       26.850667   0.000000
    7       27.420984   0.000000
    8       28.249607   0.000000
 
  0.3333333E+00  0.3333333E+00  0.0000000E+00  0.1777778E-02
    1        0.008180   1.000000
    2       12.321006   0.000000
    3       14.352427   0.000000
    4       14.352428   0.000000
    5       15.675463   0.000000
    6       18.063373   0.000000
    7       32.610211   0.000000
    8       33.283288   0.000000
 
  0.4000000E+00  0.3333333E+00  0.0000000E+00  0.7111111E-02
    1        0.978891   1.000000
    2       10.862407   0.000000
    3       12.534906   0.000000
    4       14.087907   0.000000
    5       16.162191   0.000000
    6       18.526088   0.000000
    7       32.166837   0.000000
    8       33.816123   0.000000
 
  0.4666667E+00  0.3333333E+00  0.0000000E+00  0.7111111E-02
    1        2.192982   1.000000
    2        9.555246   1.000000
    3       10.299237   0.000612
    4       14.048525   0.000000
    5       16.425631   0.000000
    6       20.348214   0.000000
    7       31.373645   0.000000
    8       33.592543   0.000000
 
 -0.4666667E+00  0.3333333E+00  0.0000000E+00  0.7111111E-02
    1        3.638981   1.000000
    2        7.893261   1.000000
    3        8.785157   1.000000
    4       14.234257   0.000000
    5       16.709566   0.000000
    6       22.661758   0.000000
    7       30.619582   0.000000
    8       32.923685   0.000000
 
 -0.4000000E+00  0.3333333E+00  0.0000000E+00  0.7111111E-02
    1        5.239937   1.000000
    2        6.016294   1.000000
    3        7.999168   1.000000
    4       14.643701   0.000000
    5       17.192419   0.000000
    6       25.165350   0.000000
    7       29.960500   0.000000
    8       31.957726   0.000000
 
 -0.3333333E+00  0.3333333E+00  0.0000000E+00  0.3555556E-02
    1        4.172136   1.000000
    2        6.869374   1.000000
    3        7.841909   1.000000
    4       15.274679   0.000000
    5       17.902891   0.000000
    6       27.680699   0.000000
    7       29.195039   0.000000
    8       30.223459   0.000000
 
  0.4000000E+00  0.4000000E+00  0.0000000E+00  0.1777778E-02
    1        1.859469   1.000000
    2        9.330628   1.000000
    3       13.748274   0.000000
    4       13.748275   0.000000
    5       14.995869   0.000000
    6       17.401156   0.000000
    7       33.854036   0.000000
    8       35.089515   0.000000
 
  0.4666667E+00  0.4000000E+00  0.0000000E+00  0.7111111E-02
    1        2.980240   1.000000
    2        8.005548   1.000000
    3       12.044548   0.000000
    4       13.634618   0.000000
    5       15.659615   0.000000
    6       18.053009   0.000000
    7       33.618834   0.000000
    8       35.360840   0.000000
 
 -0.4666667E+00  0.4000000E+00  0.0000000E+00  0.7111111E-02
    1        4.317887   1.000000
    2        6.928491   1.000000
    3        9.893243   1.000000
    4       13.746491   0.000000
    5       16.089998   0.000000
    6       20.049539   0.000000
    7       32.931464   0.000000
    8       34.746166   0.000000
 
 -0.4000000E+00  0.4000000E+00  0.0000000E+00  0.3555556E-02
    1        5.569615   1.000000
    2        6.365880   1.000000
    3        7.925875   1.000000
    4       14.083471   0.000000
    5       16.543399   0.000000
    6       22.522110   0.000000
    7       31.953859   0.000000
    8       33.334154   0.000000
 
  0.4666667E+00  0.4666667E+00  0.0000000E+00  0.1777778E-02
    1        3.990047   1.000000
    2        6.614184   1.000000
    3       13.445857   0.000000
    4       13.445858   0.000000
    5       14.654433   0.000000
    6       17.073388   0.000000
    7       34.748364   0.000000
    8       36.304057   0.000000
 
 -0.4666667E+00  0.4666667E+00  0.0000000E+00  0.3555556E-02
    1        4.919264   1.000000
    2        5.773683   1.000000
    3       11.883650   0.000000
    4       13.483397   0.000000
    5       15.491268   0.000000
    6       17.894181   0.000000
    7       34.427528   0.000000
    8       36.001395   0.000000
 
  0.2000000E+00  0.1333333E+00  0.6666667E-01  0.7111111E-02
    1       -3.409143   1.000000
    2       16.422449   0.000000
    3       16.843994   0.000000
    4       20.750699   0.000000
    5       21.370232   0.000000
    6       24.331714   0.000000
    7       25.698107   0.000000
    8       26.067286   0.000000
 
  0.2666667E+00  0.1333333E+00  0.6666667E-01  0.1422222E-01
    1       -2.764202   1.000000
    2       13.830333   0.000000
    3       16.108592   0.000000
    4       20.101282   0.000000
    5       21.800644   0.000000
    6       23.878235   0.000000
    7       25.915925   0.000000
    8       26.146671   0.000000
 
  0.3333333E+00  0.1333333E+00  0.6666667E-01  0.1422222E-01
    1       -1.865014   1.000000
    2       11.158638   0.000000
    3       15.750765   0.000000
    4       19.228737   0.000000
    5       21.360409   0.000000
    6       24.451811   0.000000
    7       25.376225   0.000000
    8       26.536687   0.000000
 
  0.4000000E+00  0.1333333E+00  0.6666667E-01  0.1422222E-01
    1       -0.715661   1.000000
    2        8.646636   1.000000
    3       15.620641   0.000000
    4       18.289940   0.000000
    5       21.032366   0.000000
    6       23.680529   0.000000
    7       25.640724   0.000000
    8       27.918360   0.000000
 
  0.4666667E+00  0.1333333E+00  0.6666667E-01  0.1422222E-01
    1        0.676934   1.000000
    2        6.334795   1.000000
    3       15.704438   0.000000
    4       17.425081   0.000000
    5       20.991728   0.000000
    6       22.802771   0.000000
    7       25.792401   0.000000
    8       29.329432   0.000000
 
 -0.4666667E+00  0.1333333E+00  0.6666667E-01  0.1422222E-01
    1        2.284424   1.000000
    2        4.264896   1.000000
    3       15.948925   0.000000
    4       16.774199   0.000000
    5       21.133382   0.000000
    6       22.196418   0.000000
    7       25.883568   0.000000
    8       29.068481   0.000000
 
  0.2666667E+00  0.2000000E+00  0.6666667E-01  0.7111111E-02
    1       -2.549428   1.000000
    2       14.868750   0.000000
    3       15.372858   0.000000
    4       18.754040   0.000000
    5       19.890595   0.000000
    6       21.768183   0.000000
    7       27.643904   0.000000
    8       28.292661   0.000000
 
  0.3333333E+00  0.2000000E+00  0.6666667E-01  0.1422222E-01
    1       -1.736344   1.000000
    2       12.415527   0.000000
    3       14.747369   0.000000
    4       17.581957   0.000000
    5       20.107721   0.000000
    6       22.459058   0.000000
    7       26.917480   0.000000
    8       28.752256   0.000000
 
  0.4000000E+00  0.2000000E+00  0.6666667E-01  0.1422222E-01
    1       -0.672085   1.000000
    2        9.876867   1.000000
    3       14.521868   0.000000
    4       16.391995   0.000000
    5       19.963832   0.000000
    6       24.096120   0.000000
    7       26.001561   0.000000
    8       28.893022   0.000000
 
  0.4666667E+00  0.2000000E+00  0.6666667E-01  0.1422222E-01
    1        0.637827   1.000000
    2        7.509335   1.000000
    3       14.479602   0.000000
    4       15.401563   0.000000
    5       19.987190   0.000000
    6       24.650815   0.000000
    7       26.362626   0.000000
    8       29.105562   0.000000
 
 -0.4666667E+00  0.2000000E+00  0.6666667E-01  0.1422222E-01
    1        2.179328   1.000000
    2        5.356632   1.000000
    3       14.230097   0.000000
    4       15.045550   0.000000
    5       20.233453   0.000000
    6       23.975149   0.000000
    7       27.516961   0.000000
    8       29.893754   0.000000
 
 -0.4000000E+00  0.2000000E+00  0.6666667E-01  0.1422222E-01
    1        3.254980   1.000000
    2        4.126964   1.000000
    3       13.677799   0.000000
    4       15.436965   0.000000
    5       20.699180   0.000000
    6       23.413712   0.000000
    7       27.718330   0.000000
    8       31.033688   0.000000
 
 -0.3333333E+00  0.2000000E+00  0.6666667E-01  0.1422222E-01
    1        1.641770   1.000000
    2        6.045101   1.000000
    3       13.279060   0.000000
    4       16.125594   0.000000
    5       21.351228   0.000000
    6       23.091227   0.000000
    7       27.463021   0.000000
    8       29.846907   0.000000
 
 -0.2666667E+00  0.2000000E+00  0.6666667E-01  0.1422222E-01
    1        0.174081   1.000000
    2        8.270037   1.000000
    3       13.102926   0.000000
    4       17.034943   0.000000
    5       22.068757   0.000000
    6       23.111390   0.000000
    7       26.664750   0.000000
    8       28.330846   0.000000
 
 -0.2000000E+00  0.2000000E+00  0.6666667E-01  0.1422222E-01
    1       -1.054778   1.000000
    2       10.682938   0.000000
    3       13.174626   0.000000
    4       18.128277   0.000000
    5       22.570817   0.000000
    6       23.580127   0.000000
    7       25.198311   0.000000
    8       27.684030   0.000000
 
 -0.1333333E+00  0.2000000E+00  0.6666667E-01  0.7111111E-02
    1       -2.035758   1.000000
    2       12.994484   0.000000
    3       13.748938   0.000000
    4       19.317058   0.000000
    5       22.612041   0.000000
    6       23.356649   0.000000
    7       25.158365   0.000000
    8       27.093911   0.000000
 
  0.3333333E+00  0.2666667E+00  0.6666667E-01  0.7111111E-02
    1       -1.351835   1.000000
    2       13.609363   0.000000
    3       14.123166   0.000000
    4       15.802535   0.000000
    5       18.641278   0.000000
    6       20.257554   0.000000
    7       29.022233   0.000000
    8       30.831038   0.000000
 
  0.4000000E+00  0.2666667E+00  0.6666667E-01  0.1422222E-01
    1       -0.374069   1.000000
    2       11.296682   0.000000
    3       13.579649   0.000000
    4       14.519434   0.000000
    5       18.961181   0.000000
    6       21.443553   0.000000
    7       28.156748   0.000000
    8       31.274898   0.000000
 
  0.4666667E+00  0.2666667E+00  0.6666667E-01  0.1422222E-01
    1        0.850603   1.000000
    2        8.904484   1.000000
    3       13.025523   0.000000
    4       13.828948   0.000000
    5       19.019219   0.000000
    6       23.416531   0.000000
    7       27.248332   0.000000
    8       31.199801   0.000000
 
 -0.4666667E+00  0.2666667E+00  0.6666667E-01  0.1422222E-01
    1        2.312915   1.000000
    2        6.692613   1.000000
    3       12.150372   0.000000
    4       13.915616   0.000000
    5       19.238646   0.000000
    6       25.378916   0.000000
    7       26.683009   0.000000
    8       30.853538   0.000000
 
 -0.4000000E+00  0.2666667E+00  0.6666667E-01  0.1422222E-01
    1        3.926374   1.000000
    2        4.774276   1.000000
    3       11.426174   0.000000
    4       14.314357   0.000000
    5       19.671962   0.000000
    6       25.512348   0.000000
    7       28.067263   0.000000
    8       30.243653   0.000000
 
 -0.3333333E+00  0.2666667E+00  0.6666667E-01  0.1422222E-01
    1        2.849008   1.000000
    2        5.996188   1.000000
    3       10.929097   0.000000
    4       14.955676   0.000000
    5       20.324065   0.000000
    6       25.115878   0.000000
    7       28.812976   0.000000
    8       29.695778   0.000000
 
 -0.2666667E+00  0.2666667E+00  0.6666667E-01  0.1422222E-01
    1        1.311631   1.000000
    2        8.107224   1.000000
    3       10.691751   0.000000
    4       15.822551   0.000000
    5       21.180440   0.000000
    6       24.870277   0.000000
    7       26.941399   0.000000
    8       29.651547   0.000000
 
 -0.2000000E+00  0.2666667E+00  0.6666667E-01  0.7111111E-02
    1        0.005893   1.000000
    2       10.108521   0.984649
    3       11.014271   0.000000
    4       16.895817   0.000000
    5       22.185334   0.000000
    6       24.502898   0.000000
    7       25.243004   0.000000
    8       28.900600   0.000000
 
  0.4000000E+00  0.3333333E+00  0.6666667E-01  0.7111111E-02
    1        0.177165   1.000000
    2       12.376296   0.000000
    3       12.658317   0.000000
    4       13.462796   0.000000
    5       17.684390   0.000000
    6       19.297557   0.000000
    7       30.459239   0.000000
    8       33.125485   0.000000
 
  0.4666667E+00  0.3333333E+00  0.6666667E-01  0.1422222E-01
    1        1.314447   1.000000
    2       10.439149   0.000000
    3       11.264033   0.000000
    4       13.011890   0.000000
    5       18.162957   0.000000
    6       20.719968   0.000000
    7       29.640806   0.000000
    8       33.360713   0.000000
 
 -0.4666667E+00  0.3333333E+00  0.6666667E-01  0.1422222E-01
    1        2.691115   1.000000
    2        8.236011   1.000000
    3       10.181430   0.539322
    4       13.083615   0.000000
    5       18.392577   0.000000
    6       22.900325   0.000000
    7       28.825989   0.000000
    8       32.774036   0.000000
 