   2   2   0   0
  0.2016476E+02  0.3849278E-09  0.3849279E-09  0.3849278E-09  0.5000000E-15
  1.000000000000000E-004
  CAR 
 unknown system                          
     15.20213095     -7.20674479  301      5.86976791      1.00000000
     -7.207  0.0000E+00  0.0000E+00
     -7.132  0.0000E+00  0.0000E+00
     -7.057  0.0000E+00  0.0000E+00
     -6.983  0.0000E+00  0.0000E+00
     -6.908  0.0000E+00  0.0000E+00
     -6.833  0.0000E+00  0.0000E+00
     -6.759  0.0000E+00  0.0000E+00
     -6.684  0.0000E+00  0.0000E+00
     -6.609  0.0000E+00  0.0000E+00
     -6.534  0.0000E+00  0.0000E+00
     -6.460  0.1665E-16  0.1243E-17
     -6.385  0.2729E-10  0.2039E-11
     -6.310  0.5846E-06  0.4367E-07
     -6.236  0.1909E-03  0.1430E-04
     -6.161  0.1477E-02  0.1246E-03
     -6.086  0.4695E-03  0.1597E-03
     -6.012  0.4245E-05  0.1600E-03
     -5.937  0.6343E-09  0.1600E-03
     -5.862  0.2406E-08  0.1600E-03
     -5.788  0.2143E-04  0.1616E-03
     -5.713  0.3085E-02  0.3921E-03
     -5.638  0.1207E-01  0.1293E-02
     -5.563  0.2616E-02  0.1489E-02
     -5.489  0.8148E-02  0.2097E-02
     -5.414  0.3990E-02  0.2395E-02
     -5.339  0.6098E-04  0.2400E-02
     -5.265  0.1619E-07  0.2400E-02
     -5.190  0.5881E-13  0.2400E-02
     -5.115  0.2221E-13  0.2400E-02
     -5.041  0.9932E-08  0.2400E-02
     -4.966  0.5993E-04  0.2404E-02
     -4.891  0.6027E-02  0.2855E-02
     -4.816  0.1753E-01  0.4164E-02
     -4.742  0.2085E-02  0.4320E-02
     -4.667  0.5785E-05  0.4320E-02
     -4.592  0.4295E-09  0.4320E-02
     -4.518  0.6190E-05  0.4320E-02
     -4.443  0.3114E-02  0.4553E-02
     -4.368  0.3835E-01  0.7418E-02
     -4.294  0.2586E-01  0.9349E-02
     -4.219  0.1211E-02  0.9440E-02
     -4.144  0.2092E-05  0.9440E-02
     -4.070  0.6167E-10  0.9440E-02
     -3.995  0.2283E-16  0.9440E-02
     -3.920  0.0000E+00  0.9440E-02
     -3.845  0.0000E+00  0.9440E-02
     -3.771  0.2033E-12  0.9440E-02
     -3.696  0.6239E-07  0.9440E-02
     -3.621  0.2611E-03  0.9460E-02
     -3.547  0.1880E-01  0.1086E-01
     -3.472  0.4152E-01  0.1397E-01
     -3.397  0.3668E-02  0.1424E-01
     -3.323  0.7163E-05  0.1424E-01
     -3.248  0.8963E-06  0.1424E-01
     -3.173  0.1097E-02  0.1432E-01
     -3.098  0.2637E-01  0.1629E-01
     -3.024  0.2322E-01  0.1803E-01
     -2.949  0.7161E-03  0.1808E-01
     -2.874  0.4163E-06  0.1808E-01
     -2.800  0.3401E-11  0.1808E-01
     -2.725  0.0000E+00  0.1808E-01
     -2.650  0.0000E+00  0.1808E-01
     -2.576  0.4131E-11  0.1808E-01
     -2.501  0.3824E-06  0.1808E-01
     -2.426  0.5028E-03  0.1812E-01
     -2.351  0.1286E-01  0.1908E-01
     -2.277  0.1195E-01  0.1997E-01
     -2.202  0.3924E-03  0.2000E-01
     -2.127  0.2450E-06  0.2000E-01
     -2.053  0.2156E-11  0.2000E-01
     -1.978  0.1569E-11  0.2000E-01
     -1.903  0.1969E-06  0.2000E-01
     -1.829  0.3470E-03  0.2003E-01
     -1.754  0.1150E-01  0.2088E-01
     -1.679  0.1330E-01  0.2188E-01
     -1.605  0.5649E-03  0.2192E-01
     -1.530  0.4725E-06  0.2192E-01
     -1.455  0.5637E-11  0.2192E-01
     -1.380  0.0000E+00  0.2192E-01
     -1.306  0.0000E+00  0.2192E-01
     -1.231  0.1447E-11  0.2192E-01
     -1.156  0.2307E-06  0.2192E-01
     -1.082  0.5119E-03  0.2196E-01
     -1.007  0.2085E-01  0.2352E-01
     -0.932  0.3524E-01  0.2615E-01
     -0.858  0.3788E-01  0.2898E-01
     -0.783  0.8290E-02  0.2960E-01
     -0.708  0.5054E-04  0.2960E-01
     -0.633  0.4868E-03  0.2964E-01
     -0.559  0.1087E-01  0.3045E-01
     -0.484  0.1603E-01  0.3165E-01
     -0.409  0.2575E-02  0.3184E-01
     -0.335  0.1755E-04  0.3184E-01
     -0.260  0.2064E-08  0.3184E-01
     -0.185  0.3259E-14  0.3184E-01
     -0.111  0.0000E+00  0.3184E-01
     -0.036  0.0000E+00  0.3184E-01
      0.039  0.0000E+00  0.3184E-01
      0.113  0.1232E-12  0.3184E-01
      0.188  0.4103E-07  0.3184E-01
      0.263  0.1858E-03  0.3185E-01
      0.338  0.1437E-01  0.3293E-01
      0.412  0.3367E-01  0.3544E-01
      0.487  0.3173E-02  0.3568E-01
      0.562  0.6685E-05  0.3568E-01
      0.636  0.2101E-09  0.3568E-01
      0.711  0.8561E-16  0.3568E-01
      0.786  0.0000E+00  0.3568E-01
      0.860  0.0000E+00  0.3568E-01
      0.935  0.1771E-12  0.3568E-01
      1.010  0.4319E-07  0.3568E-01
      1.085  0.1446E-03  0.3569E-01
      1.159  0.8505E-02  0.3633E-01
      1.234  0.1589E-01  0.3751E-01
      1.309  0.1166E-02  0.3760E-01
      1.383  0.1834E-05  0.3760E-01
      1.458  0.5659E-09  0.3760E-01
      1.533  0.9490E-05  0.3760E-01
      1.607  0.2660E-02  0.3780E-01
      1.682  0.2200E-01  0.3944E-01
      1.757  0.3994E-01  0.4243E-01
      1.832  0.1237E-01  0.4335E-01
      1.906  0.1267E-03  0.4336E-01
      1.981  0.2177E-07  0.4336E-01
      2.056  0.8033E-09  0.4336E-01
      2.130  0.1600E-04  0.4336E-01
      2.205  0.4883E-02  0.4373E-01
      2.280  0.3568E-01  0.4639E-01
      2.354  0.1074E-01  0.4719E-01
      2.429  0.9094E-04  0.4720E-01
      2.504  0.1230E-05  0.4720E-01
      2.578  0.8189E-03  0.4726E-01
      2.653  0.1996E-01  0.4875E-01
      2.728  0.5967E-01  0.5321E-01
      2.803  0.1371E-01  0.5423E-01
      2.877  0.1565E-03  0.5424E-01
      2.952  0.7722E-02  0.5482E-01
      3.027  0.4363E-01  0.5808E-01
      3.101  0.5009E-01  0.6182E-01
      3.176  0.1385E-01  0.6286E-01
      3.251  0.3267E-03  0.6288E-01
      3.325  0.1728E-06  0.6288E-01
      3.400  0.1298E-11  0.6288E-01
      3.475  0.1729E-08  0.6288E-01
      3.550  0.2616E-04  0.6288E-01
      3.624  0.6165E-02  0.6334E-01
      3.699  0.3629E-01  0.6605E-01
      3.774  0.8868E-02  0.6672E-01
      3.848  0.2966E-03  0.6674E-01
      3.923  0.1582E-01  0.6792E-01
      3.998  0.3266E-01  0.7036E-01
      4.072  0.2785E-02  0.7057E-01
      4.147  0.7547E-02  0.7113E-01
      4.222  0.1659E-01  0.7237E-01
      4.296  0.1460E-02  0.7248E-01
      4.371  0.3902E-05  0.7248E-01
      4.446  0.1001E-02  0.7255E-01
      4.521  0.1913E-01  0.7398E-01
      4.595  0.1381E-01  0.7501E-01
      4.670  0.3456E-03  0.7504E-01
      4.745  0.2652E-02  0.7524E-01
      4.819  0.1797E-01  0.7658E-01
      4.894  0.5034E-02  0.7696E-01
      4.969  0.3324E-03  0.7698E-01
      5.043  0.1318E-01  0.7797E-01
      5.118  0.1968E-01  0.7944E-01
      5.193  0.1122E-02  0.7952E-01
      5.268  0.1316E-05  0.7952E-01
      5.342  0.2235E-10  0.7952E-01
      5.417  0.2357E-10  0.7952E-01
      5.492  0.7784E-06  0.7952E-01
      5.566  0.3827E-03  0.7955E-01
      5.641  0.4183E-02  0.7986E-01
      5.716  0.1835E-02  0.8000E-01
      5.790  0.2452E-04  0.8000E-01
      5.865  0.5615E-08  0.8000E-01
      5.940  0.1751E-13  0.8000E-01
      6.014  0.2537E-11  0.8000E-01
      6.089  0.2200E-06  0.8000E-01
      6.164  0.2716E-03  0.8002E-01
      6.239  0.6575E-02  0.8051E-01
      6.313  0.5824E-02  0.8095E-01
      6.388  0.1809E-03  0.8096E-01
      6.463  0.1061E-06  0.8096E-01
      6.537  0.6055E-06  0.8096E-01
      6.612  0.6468E-03  0.8101E-01
      6.687  0.1380E-01  0.8204E-01
      6.761  0.1096E-01  0.8286E-01
      6.836  0.3005E-03  0.8288E-01
      6.911  0.7090E-03  0.8293E-01
      6.986  0.8268E-02  0.8355E-01
      7.060  0.6162E-02  0.8401E-01
      7.135  0.1278E-01  0.8497E-01
      7.210  0.1333E-01  0.8596E-01
      7.284  0.1599E-02  0.8608E-01
      7.359  0.5271E-02  0.8647E-01
      7.434  0.3592E-01  0.8916E-01
      7.508  0.1013E-01  0.8991E-01
      7.583  0.3347E-03  0.8994E-01
      7.658  0.1626E-01  0.9115E-01
      7.733  0.3531E-01  0.9379E-01
      7.807  0.1465E-01  0.9489E-01
      7.882  0.2058E-02  0.9504E-01
      7.957  0.8712E-05  0.9504E-01
      8.031  0.2662E-06  0.9504E-01
      8.106  0.2188E-03  0.9506E-01
      8.181  0.3724E-02  0.9533E-01
      8.255  0.2430E-02  0.9552E-01
      8.330  0.5434E-04  0.9552E-01
      8.405  0.1196E-02  0.9561E-01
      8.479  0.1597E-01  0.9680E-01
      8.554  0.8398E-02  0.9743E-01
      8.629  0.1430E-03  0.9744E-01
      8.704  0.1329E-02  0.9754E-01
      8.778  0.1688E-01  0.9880E-01
      8.853  0.9505E-02  0.9951E-01
      8.928  0.7727E-02  0.1001E+00
      9.002  0.5638E-01  0.1043E+00
      9.077  0.5109E-01  0.1081E+00
      9.152  0.4875E-02  0.1085E+00
      9.226  0.1828E-04  0.1085E+00
      9.301  0.1569E-03  0.1085E+00
      9.376  0.1351E-01  0.1095E+00
      9.451  0.3833E-01  0.1124E+00
      9.525  0.1328E-01  0.1134E+00
      9.600  0.1801E-01  0.1147E+00
      9.675  0.2634E-01  0.1167E+00
      9.749  0.2998E-01  0.1189E+00
      9.824  0.2680E-02  0.1191E+00
      9.899  0.1544E-01  0.1203E+00
      9.973  0.2889E-01  0.1224E+00
     10.048  0.3013E-01  0.1247E+00
     10.123  0.8412E-02  0.1253E+00
     10.197  0.3640E-01  0.1280E+00
     10.272  0.8310E-02  0.1286E+00
     10.347  0.4455E-02  0.1290E+00
     10.422  0.4269E-01  0.1322E+00
     10.496  0.6379E-01  0.1369E+00
     10.571  0.1744E-01  0.1382E+00
     10.646  0.1885E-03  0.1382E+00
     10.720  0.3752E-07  0.1382E+00
     10.795  0.2584E-10  0.1382E+00
     10.870  0.1653E-05  0.1382E+00
     10.944  0.1530E-02  0.1384E+00
     11.019  0.2883E-01  0.1405E+00
     11.094  0.2055E-01  0.1420E+00
     11.169  0.5518E-03  0.1421E+00
     11.243  0.5973E-02  0.1425E+00
     11.318  0.1755E-01  0.1438E+00
     11.393  0.2170E-02  0.1440E+00
     11.467  0.4664E-02  0.1444E+00
     11.542  0.1131E-01  0.1452E+00
     11.617  0.1108E-02  0.1453E+00
     11.691  0.2444E-05  0.1453E+00
     11.766  0.8060E-10  0.1453E+00
     11.841  0.3424E-16  0.1453E+00
     11.915  0.0000E+00  0.1453E+00
     11.990  0.0000E+00  0.1453E+00
     12.065  0.0000E+00  0.1453E+00
     12.140  0.0000E+00  0.1453E+00
     12.214  0.0000E+00  0.1453E+00
     12.289  0.0000E+00  0.1453E+00
     12.364  0.0000E+00  0.1453E+00
     12.438  0.0000E+00  0.1453E+00
     12.513  0.0000E+00  0.1453E+00
     12.588  0.0000E+00  0.1453E+00
     12.662  0.0000E+00  0.1453E+00
     12.737  0.0000E+00  0.1453E+00
     12.812  0.0000E+00  0.1453E+00
     12.887  0.8180E-11  0.1453E+00
     12.961  0.7596E-06  0.1453E+00
     13.036  0.1002E-02  0.1454E+00
     13.111  0.2570E-01  0.1473E+00
     13.185  0.2393E-01  0.1491E+00
     13.260  0.3678E-02  0.1493E+00
     13.335  0.3327E-01  0.1518E+00
     13.409  0.2169E-01  0.1534E+00
     13.484  0.1012E-01  0.1542E+00
     13.559  0.2644E-02  0.1544E+00
     13.634  0.1751E-01  0.1557E+00
     13.708  0.6061E-02  0.1562E+00
     13.783  0.6077E-04  0.1562E+00
     13.858  0.1373E-06  0.1562E+00
     13.932  0.2706E-03  0.1562E+00
     14.007  0.1060E-01  0.1570E+00
     14.082  0.1417E-01  0.1580E+00
     14.156  0.6340E-02  0.1585E+00
     14.231  0.1772E-01  0.1598E+00
     14.306  0.2291E-02  0.1600E+00
     14.380  0.7015E-05  0.1600E+00
     14.455  0.3275E-09  0.1600E+00
     14.530  0.1998E-15  0.1600E+00
     14.605  0.0000E+00  0.1600E+00
     14.679  0.0000E+00  0.1600E+00
     14.754  0.0000E+00  0.1600E+00
     14.829  0.0000E+00  0.1600E+00
     14.903  0.0000E+00  0.1600E+00
     14.978  0.0000E+00  0.1600E+00
     15.053  0.0000E+00  0.1600E+00
     15.127  0.0000E+00  0.1600E+00
     15.202  0.0000E+00  0.1600E+00
