    2    2  100    1
  0.2016476E+02  0.3849278E-09  0.3849279E-09  0.3849278E-09  0.5000000E-15
  1.000000000000000E-004
  CAR 
 unknown system                          
      8     10      8
 
  0.0000000E+00  0.0000000E+00  0.0000000E+00  0.8000000E-02
    1       -6.188160   1.000000
    2        5.621381   1.000000
    3        5.621382   1.000000
    4        5.621384   1.000000
    5        8.170463   0.000000
    6        8.170470   0.000000
    7        8.170471   0.000000
    8        8.739430   0.000000
 
  0.2000000E+00  0.0000000E+00  0.0000000E+00  0.6400000E-01
    1       -5.680630   1.000000
    2        2.638306   1.000000
    3        5.053032   1.000000
    4        5.053034   1.000000
    5        7.765727   0.000000
    6        8.958928   0.000000
    7        8.958936   0.000000
    8       11.488429   0.000000
 
  0.4000000E+00 -0.2775558E-16  0.0000000E+00  0.6400000E-01
    1       -4.348787   1.000000
    2       -0.565976   1.000000
    3        4.512761   1.000000
    4        4.512764   1.000000
    5        7.162697   0.000000
    6        9.035792   0.000000
    7        9.035801   0.000000
    8       13.419431   0.000000
 
  0.2000000E+00  0.2000000E+00  0.0000000E+00  0.4800000E-01
    1       -5.505739   1.000000
    2        2.985157   1.000000
    3        4.165878   1.000000
    4        4.165879   1.000000
    5        7.092623   0.000000
    6        9.466911   0.000000
    7       10.456639   0.000000
    8       10.456641   0.000000
 
  0.4000000E+00  0.2000000E+00  0.0000000E+00  0.1920000E+00
    1       -4.387839   1.000000
    2        0.357848   1.000000
    3        3.043448   1.000000
    4        3.665677   1.000000
    5        7.403776   0.000000
    6        9.685032   0.000000
    7       10.475143   0.000000
    8       11.011045   0.000000
 
 -0.4000000E+00  0.2000000E+00  0.0000000E+00  0.1920000E+00
    1       -3.527805   1.000000
    2       -0.999352   1.000000
    3        2.251257   1.000000
    4        3.940290   1.000000
    5        7.674249   0.000000
    6       10.162666   0.000000
    7       10.395319   0.000000
    8       13.108919   0.000000
 
 -0.2000000E+00  0.2000000E+00  0.0000000E+00  0.9600000E-01
    1       -4.865823   1.000000
    2        1.174156   1.000000
    3        2.687206   1.000000
    4        4.789263   1.000000
    5        8.464126   0.000000
    6        9.578890   0.000000
    7        9.887913   0.000000
    8       11.268813   0.000000
 
  0.4000000E+00  0.4000000E+00  0.0000000E+00  0.4800000E-01
    1       -3.527534   1.000000
    2       -0.515378   1.000000
    3        2.980935   1.000000
    4        2.980937   1.000000
    5        6.235677   0.000000
    6        6.967269   0.000000
    7       14.013852   0.000000
    8       14.013853   0.000000
 
 -0.4000000E+00  0.4000000E+00  0.0000000E+00  0.9600000E-01
    1       -2.353260   1.000000
    2       -1.750434   1.000000
    3        1.652037   1.000000
    4        3.096834   1.000000
    5        6.681244   0.000000
    6        8.765916   0.000000
    7       13.608330   0.000000
    8       14.183546   0.000000
 
 -0.4000000E+00  0.4000000E+00  0.2000000E+00  0.1920000E+00
    1       -3.101503   1.000000
    2       -0.892405   1.000000
    3        1.732099   1.000000
    4        2.698613   1.000000
    5        8.999128   0.000000
    6        9.398077   0.000000
    7        9.983846   0.000000
    8       13.316117   0.000000
