 vasp.6.2.0 18Jan21 (build Aug 12 2022 13:00:08) complex                        
  
 executed on             LinuxIFC date 2024.11.03  21:52:54
 running on    4 total cores
 distrk:  each k-point on    4 cores,    1 groups
 distr:  one band on NCORE=   1 cores,    4 groups


--------------------------------------------------------------------------------------------------------


 INCAR:
   ISTART = 0            (Read existing wavefunction, if there)
   ISPIN = 1            (Non-Spin polarised DFT)
   LREAL = .FALSE.       (Projection operators: automatic)
   LWAVE = .FALSE.        (Write WAVECAR or not)
   LCHARG = .FALSE.        (Write CHGCAR or not)
   ADDGRID = .TRUE.        (Increase grid, helps GGA convergence)
   LASPH = .TRUE.        (Give more accurate total energies and band structure calculations)
   PREC = Accurate      (Accurate strictly avoids any aliasing or wrap around errors)
   ENCUT = 350          (Cut-off energy for plane wave basis set, in eV)
   ISMEAR = 0            (Gaussian smearing, metals:1)
   SIGMA = 0.05         (Smearing value in eV, metals:0.2)
   NELM = 90           (Max electronic SCF steps)
   NELMIN = 6            (Min electronic SCF steps)
   EDIFF = 1E-06        (SCF energy convergence, in eV)
   NSW = 100          (Max ionic steps)
   IBRION = 2            (Algorithm: 0-MD, 1-Quasi-New, 2-CG)
   ISIF = 3            (Stress/relaxation: 2-Ions, 3-Shape/Ions/V, 4-Shape/Ions)
   EDIFFG = -2E-03        (Ionic convergence, eV/AA)
   ISYM = 2              (Symmetry: 0\=none, 2\=GGA, 3\=hybrids)

 POTCAR:    PAW_PBE Si 05Jan2001                  
 POTCAR:    PAW_PBE Si 05Jan2001                  
   VRHFIN =Si: s2p2                                                                                 
   LEXCH  = PE                                                                                      
   EATOM  =   103.0669 eV,    7.5752 Ry                                                             
                                                                                                    
   TITEL  = PAW_PBE Si 05Jan2001                                                                    
   LULTRA =        F    use ultrasoft PP ?                                                          
   IUNSCR =        1    unscreen: 0-lin 1-nonlin 2-no                                               
   RPACOR =    1.500    partial core radius                                                         
   POMASS =   28.085; ZVAL   =    4.000    mass and valenz                                          
   RCORE  =    1.900    outmost cutoff radius                                                       
   RWIGS  =    2.480; RWIGS  =    1.312    wigner-seitz radius (au A)                               
   ENMAX  =  245.345; ENMIN  =  184.009 eV                                                          
   ICORE  =        2    local potential                                                             
   LCOR   =        T    correct aug charges                                                         
   LPAW   =        T    paw PP                                                                      
   EAUG   =  322.069                                                                                
   DEXC   =    0.000                                                                                
   RMAX   =    1.950    core radius for proj-oper                                                   
   RAUG   =    1.300    factor for augmentation sphere                                              
   RDEP   =    1.993    radius for radial grids                                                     
   RDEPT  =    1.837    core radius for aug-charge                                                  
                                                                                                    
   Atomic configuration                                                                             
    6 entries                                                                                       
     n  l   j            E        occ.                                                              
     1  0  0.50     -1785.8828   2.0000                                                             
     2  0  0.50      -139.4969   2.0000                                                             
     2  1  1.50       -95.5546   6.0000                                                             
     3  0  0.50       -10.8127   2.0000                                                             
     3  1  0.50        -4.0811   2.0000                                                             
     3  2  1.50        -4.0817   0.0000                                                             
   Description                                                                                      
     l       E           TYP  RCUT    TYP  RCUT                                                     
     0    -10.8127223     23  1.900                                                                 
     0     -7.6451159     23  1.900                                                                 
     1     -4.0811372     23  1.900                                                                 
     1      2.4879257     23  1.900                                                                 
     2     -4.0817478      7  1.900                                                                 
  local pseudopotential read in
  partial core-charges read in
  partial kinetic energy density read in
  atomic valenz-charges read in
  non local Contribution for L=           0  read in
    real space projection operators read in
  non local Contribution for L=           0  read in
    real space projection operators read in
  non local Contribution for L=           1  read in
    real space projection operators read in
  non local Contribution for L=           1  read in
    real space projection operators read in
    PAW grid and wavefunctions read in
 
   number of l-projection  operators is LMAX  =           4
   number of lm-projection operators is LMMAX =           8
 
  PAW_PBE Si 05Jan2001                  :
 energy of atom  1       EATOM= -103.0669
 kinetic energy error for atom=    0.0013 (will be added to EATOM!!)
 
 
 POSCAR: Si2
  positions in direct lattice
  No initial velocities read in
 exchange correlation table for  LEXCH =        8
   RHO(1)=    0.500       N(1)  =     2000
   RHO(2)=  100.500       N(2)  =     4000
 


--------------------------------------------------------------------------------------------------------


 ion  position               nearest neighbor table
   1  0.875  0.875  0.875-   2 2.36   2 2.36   2 2.36   2 2.36
   2  0.125  0.125  0.125-   1 2.36   1 2.36   1 2.36   1 2.36
 
  LATTYP: Found a face centered cubic cell.
 ALAT       =     5.4437031493
  
  Lattice vectors:
  
 A1 = (   3.3335730000,   0.0000000000,   1.9246390000)
 A2 = (   1.1111910000,   3.1429240000,   1.9246390000)
 A3 = (   0.0000000000,   0.0000000000,   3.8492780000)


Analysis of symmetry for initial positions (statically):
=====================================================================
 Subroutine PRICEL returns:
 Original cell was already a primitive cell.
 

 Routine SETGRP: Setting up the symmetry group for a 
 face centered cubic supercell.


 Subroutine GETGRP returns: Found 48 space group operations
 (whereof 12 operations were pure point group operations)
 out of a pool of 48 trial point group operations.


The static configuration has the point symmetry D_3d.
 The point group associated with its full space group is O_h .


Analysis of symmetry for dynamics (positions and initial velocities):
=====================================================================
 Subroutine PRICEL returns:
 Original cell was already a primitive cell.
 

 Routine SETGRP: Setting up the symmetry group for a 
 face centered cubic supercell.


 Subroutine GETGRP returns: Found 48 space group operations
 (whereof 12 operations were pure point group operations)
 out of a pool of 48 trial point group operations.


The dynamic configuration has the point symmetry D_3d.
 The point group associated with its full space group is O_h .


 Subroutine INISYM returns: Found 48 space group operations
 (whereof 12 operations are pure point group operations),
 and found     1 'primitive' translations


----------------------------------------------------------------------------------------

                                     Primitive cell                                     

  volume of cell :      40.3295

  direct lattice vectors                    reciprocal lattice vectors
     3.333573000  0.000000000  1.924639000     0.299978432 -0.106058350  0.000000000
     1.111191000  3.142924000  1.924639000     0.000000000  0.318175050  0.000000000
     0.000000000  0.000000000  3.849278000    -0.149989216 -0.106058350  0.259788979

  length of vectors
     3.849278403  3.849279412  3.849278000     0.318175161  0.318175050  0.318175190

  position of ions in fractional coordinates (direct lattice)
     0.875000000  0.875000000  0.875000000
     0.125000000  0.125000000  0.125000000

  ion indices of the primitive-cell ions
   primitive index   ion index
                 1           1
                 2           2

----------------------------------------------------------------------------------------

 
 
 KPOINTS: Automatic                               

Automatic generation of k-mesh.
 Grid dimensions read from file:
 generate k-points for:    5    5    5

 Generating k-lattice:

  Cartesian coordinates                     Fractional coordinates (reciprocal lattice)
     0.059995686 -0.021211670  0.000000000     0.200000000  0.000000000  0.000000000
     0.000000000  0.063635010  0.000000000     0.000000000  0.200000000  0.000000000
    -0.029997843 -0.021211670  0.051957796     0.000000000  0.000000000  0.200000000

  Length of vectors
     0.063635032  0.063635010  0.063635038

  Shift w.r.t. Gamma in fractional coordinates (k-lattice)
     0.000000000  0.000000000  0.000000000

 
 Subroutine IBZKPT returns following result:
 ===========================================
 
 Found     10 irreducible k-points:
 
 Following reciprocal coordinates:
            Coordinates               Weight
  0.000000  0.000000  0.000000      1.000000
  0.200000  0.000000  0.000000      8.000000
  0.400000 -0.000000  0.000000      8.000000
  0.200000  0.200000  0.000000      6.000000
  0.400000  0.200000  0.000000     24.000000
 -0.400000  0.200000  0.000000     24.000000
 -0.200000  0.200000  0.000000     12.000000
  0.400000  0.400000  0.000000      6.000000
 -0.400000  0.400000  0.000000     12.000000
 -0.400000  0.400000  0.200000     24.000000
 
 Following cartesian coordinates:
            Coordinates               Weight
  0.000000  0.000000  0.000000      1.000000
  0.059996 -0.021212  0.000000      8.000000
  0.119991 -0.042423  0.000000      8.000000
  0.059996  0.042423  0.000000      6.000000
  0.119991  0.021212  0.000000     24.000000
 -0.119991  0.106058  0.000000     24.000000
 -0.059996  0.084847  0.000000     12.000000
  0.119991  0.084847  0.000000      6.000000
 -0.119991  0.169693  0.000000     12.000000
 -0.149989  0.148482  0.051958     24.000000
 


--------------------------------------------------------------------------------------------------------




 Dimension of arrays:
   k-points           NKPTS =     10   k-points in BZ     NKDIM =     10   number of bands    NBANDS=      8
   number of dos      NEDOS =    301   number of ions     NIONS =      2
   non local maximal  LDIM  =      4   non local SUM 2l+1 LMDIM =      8
   total plane-waves  NPLWV =  13824
   max r-space proj   IRMAX =      1   max aug-charges    IRDMAX=  91874
   dimension x,y,z NGX =    24 NGY =   24 NGZ =   24
   dimension x,y,z NGXF=    48 NGYF=   48 NGZF=   48
   support grid    NGXF=    96 NGYF=   96 NGZF=   96
   ions per type =               2
   NGX,Y,Z   is equivalent  to a cutoff of  10.37, 10.37, 10.37 a.u.
   NGXF,Y,Z  is equivalent  to a cutoff of  20.73, 20.73, 20.73 a.u.

 SYSTEM =  unknown system                          
 POSCAR =  Si2                                     

 Startparameter for this run:
   NWRITE =      2    write-flag & timer
   PREC   = accura    normal or accurate (medium, high low for compatibility)
   ISTART =      0    job   : 0-new  1-cont  2-samecut
   ICHARG =      2    charge: 1-file 2-atom 10-const
   ISPIN  =      1    spin polarized calculation?
   LNONCOLLINEAR =      F non collinear calculations
   LSORBIT =      F    spin-orbit coupling
   INIWAV =      1    electr: 0-lowe 1-rand  2-diag
   LASPH  =      T    aspherical Exc in radial PAW
   METAGGA=      F    non-selfconsistent MetaGGA calc.

 Electronic Relaxation 1
   ENCUT  =  350.0 eV  25.72 Ry    5.07 a.u.   5.87  5.87  5.87*2*pi/ulx,y,z
   ENINI  =  350.0     initial cutoff
   ENAUG  =  322.1 eV  augmentation charge cutoff
   NELM   =     90;   NELMIN=  6; NELMDL= -5     # of ELM steps 
   EDIFF  = 0.1E-05   stopping-criterion for ELM
   LREAL  =      F    real-space projection
   NLSPLINE    = F    spline interpolate recip. space projectors
   LCOMPAT=      F    compatible to vasp.4.4
   GGA_COMPAT  = T    GGA compatible to vasp.4.4-vasp.4.6
   LMAXPAW     = -100 max onsite density
   LMAXMIX     =    2 max onsite mixed and CHGCAR
   VOSKOWN=      0    Vosko Wilk Nusair interpolation
   ROPT   =    0.00000
 Ionic relaxation
   EDIFFG = -.2E-02   stopping-criterion for IOM
   NSW    =    100    number of steps for IOM
   NBLOCK =      1;   KBLOCK =    100    inner block; outer block 
   IBRION =      2    ionic relax: 0-MD 1-quasi-New 2-CG
   NFREE  =      1    steps in history (QN), initial steepest desc. (CG)
   ISIF   =      3    stress and relaxation
   IWAVPR =     11    prediction:  0-non 1-charg 2-wave 3-comb
   ISYM   =      2    0-nonsym 1-usesym 2-fastsym
   LCORR  =      T    Harris-Foulkes like correction to forces

   POTIM  = 0.5000    time-step for ionic-motion
   TEIN   =    0.0    initial temperature
   TEBEG  =    0.0;   TEEND  =   0.0 temperature during run
   SMASS  =  -3.00    Nose mass-parameter (am)
   estimated Nose-frequenzy (Omega)   =  0.10E-29 period in steps = 0.13E+47 mass=  -0.339E-27a.u.
   SCALEE = 1.0000    scale energy and forces
   NPACO  =    256;   APACO  = 16.0  distance and # of slots for P.C.
   PSTRESS=    0.0 pullay stress

  Mass of Ions in am
   POMASS =  28.09
  Ionic Valenz
   ZVAL   =   4.00
  Atomic Wigner-Seitz radii
   RWIGS  =  -1.00
  virtual crystal weights 
   VCA    =   1.00
   NELECT =       8.0000    total number of electrons
   NUPDOWN=      -1.0000    fix difference up-down

 DOS related values:
   EMIN   =  10.00;   EMAX   =-10.00  energy-range for DOS
   EFERMI =   0.00
   ISMEAR =     0;   SIGMA  =   0.05  broadening in eV -4-tet -1-fermi 0-gaus

 Electronic relaxation 2 (details)
   IALGO  =     38    algorithm
   LDIAG  =      T    sub-space diagonalisation (order eigenvalues)
   LSUBROT=      F    optimize rotation matrix (better conditioning)
   TURBO    =      0    0=normal 1=particle mesh
   IRESTART =      0    0=no restart 2=restart with 2 vectors
   NREBOOT  =      0    no. of reboots
   NMIN     =      0    reboot dimension
   EREF     =   0.00    reference energy to select bands
   IMIX   =      4    mixing-type and parameters
     AMIX     =   0.40;   BMIX     =  1.00
     AMIX_MAG =   1.60;   BMIX_MAG =  1.00
     AMIN     =   0.10
     WC   =   100.;   INIMIX=   1;  MIXPRE=   1;  MAXMIX= -45

 Intra band minimization:
   WEIMIN = 0.0010     energy-eigenvalue tresh-hold
   EBREAK =  0.31E-07  absolut break condition
   DEPER  =   0.30     relativ break condition  

   TIME   =   0.40     timestep for ELM

  volume/ion in A,a.u.               =      20.16       136.08
  Fermi-wavevector in a.u.,A,eV,Ry     =   0.954766  1.804247 12.402783  0.911579
  Thomas-Fermi vector in A             =   2.083543
 
 Write flags
   LWAVE        =      F    write WAVECAR
   LDOWNSAMPLE  =      F    k-point downsampling of WAVECAR
   LCHARG       =      F    write CHGCAR
   LVTOT        =      F    write LOCPOT, total local potential
   LVHAR        =      F    write LOCPOT, Hartree potential only
   LELF         =      F    write electronic localiz. function (ELF)
   LORBIT       =      0    0 simple, 1 ext, 2 COOP (PROOUT), +10 PAW based schemes


 Dipole corrections
   LMONO  =      F    monopole corrections only (constant potential shift)
   LDIPOL =      F    correct potential (dipole corrections)
   IDIPOL =      0    1-x, 2-y, 3-z, 4-all directions 
   EPSILON=  1.0000000 bulk dielectric constant

 Exchange correlation treatment:
   GGA     =    --    GGA type
   LEXCH   =     8    internal setting for exchange type
   VOSKOWN=      0    Vosko Wilk Nusair interpolation
   LHFCALC =     F    Hartree Fock is set to
   LHFONE  =     F    Hartree Fock one center treatment
   AEXX    =    0.0000 exact exchange contribution

 Linear response parameters
   LEPSILON=     F    determine dielectric tensor
   LRPA    =     F    only Hartree local field effects (RPA)
   LNABLA  =     F    use nabla operator in PAW spheres
   LVEL    =     F    velocity operator in full k-point grid
   LINTERFAST=   F  fast interpolation
   KINTER  =     0    interpolate to denser k-point grid
   CSHIFT  =0.1000    complex shift for real part using Kramers Kronig
   OMEGAMAX=  -1.0    maximum frequency
   DEG_THRESHOLD= 0.2000000E-02 threshold for treating states as degnerate
   RTIME   =   -0.100 relaxation time in fs
  (WPLASMAI=    0.000 imaginary part of plasma frequency in eV, 0.658/RTIME)
   DFIELD  = 0.0000000 0.0000000 0.0000000 field for delta impulse in time
 
 Orbital magnetization related:
   ORBITALMAG=     F  switch on orbital magnetization
   LCHIMAG   =     F  perturbation theory with respect to B field
   DQ        =  0.001000  dq finite difference perturbation B field
   LLRAUG    =     F  two centre corrections for induced B field



--------------------------------------------------------------------------------------------------------


 conjugate gradient relaxation of ions
 charge density and potential will be updated during run
 non-spin polarized calculation
 Variant of blocked Davidson
 Davidson routine will perform the subspace rotation
 perform sub-space diagonalisation
    after iterative eigenvector-optimisation
 modified Broyden-mixing scheme, WC =      100.0
 initial mixing is a Kerker type mixing with AMIX =  0.4000 and BMIX =      1.0000
 Hartree-type preconditioning will be used
 using additional bands            4
 reciprocal scheme for non local part
 use partial core corrections
 calculate Harris-corrections to forces 
   (improved forces if not selfconsistent)
 use gradient corrections 
 use of overlap-Matrix (Vanderbilt PP)
 Gauss-broadening in eV      SIGMA  =   0.05


--------------------------------------------------------------------------------------------------------


  energy-cutoff  :      350.00
  volume of cell :       40.33
      direct lattice vectors                 reciprocal lattice vectors
     3.333573000  0.000000000  1.924639000     0.299978432 -0.106058350  0.000000000
     1.111191000  3.142924000  1.924639000     0.000000000  0.318175050  0.000000000
     0.000000000  0.000000000  3.849278000    -0.149989216 -0.106058350  0.259788979

  length of vectors
     3.849278403  3.849279412  3.849278000     0.318175161  0.318175050  0.318175190


 
 k-points in units of 2pi/SCALE and weight: Automatic                               
   0.00000000  0.00000000  0.00000000       0.008
   0.05999569 -0.02121167  0.00000000       0.064
   0.11999137 -0.04242334  0.00000000       0.064
   0.05999569  0.04242334  0.00000000       0.048
   0.11999137  0.02121167  0.00000000       0.192
  -0.11999137  0.10605835  0.00000000       0.192
  -0.05999569  0.08484668  0.00000000       0.096
   0.11999137  0.08484668  0.00000000       0.048
  -0.11999137  0.16969336  0.00000000       0.096
  -0.14998922  0.14848169  0.05195780       0.192
 
 k-points in reciprocal lattice and weights: Automatic                               
   0.00000000  0.00000000  0.00000000       0.008
   0.20000000  0.00000000  0.00000000       0.064
   0.40000000 -0.00000000  0.00000000       0.064
   0.20000000  0.20000000  0.00000000       0.048
   0.40000000  0.20000000  0.00000000       0.192
  -0.40000000  0.20000000  0.00000000       0.192
  -0.20000000  0.20000000  0.00000000       0.096
   0.40000000  0.40000000  0.00000000       0.048
  -0.40000000  0.40000000  0.00000000       0.096
  -0.40000000  0.40000000  0.20000000       0.192
 
 position of ions in fractional coordinates (direct lattice) 
   0.87500000  0.87500000  0.87500000
   0.12500000  0.12500000  0.12500000
 
 position of ions in cartesian coordinates  (Angst):
   3.88916850  2.75005850  6.73623650
   0.55559550  0.39286550  0.96231950
 


--------------------------------------------------------------------------------------------------------


 k-point   1 :   0.0000 0.0000 0.0000  plane waves:     609
 k-point   2 :   0.2000 0.0000 0.0000  plane waves:     591
 k-point   3 :   0.4000-0.0000 0.0000  plane waves:     601
 k-point   4 :   0.2000 0.2000 0.0000  plane waves:     584
 k-point   5 :   0.4000 0.2000 0.0000  plane waves:     600
 k-point   6 :  -0.4000 0.2000 0.0000  plane waves:     597
 k-point   7 :  -0.2000 0.2000 0.0000  plane waves:     600
 k-point   8 :   0.4000 0.4000 0.0000  plane waves:     608
 k-point   9 :  -0.4000 0.4000 0.0000  plane waves:     604
 k-point  10 :  -0.4000 0.4000 0.2000  plane waves:     609

 maximum and minimum number of plane-waves per node :       609      584

 maximum number of plane-waves:       609
 maximum index in each direction: 
   IXMAX=    6   IYMAX=    5   IZMAX=    5
   IXMIN=   -6   IYMIN=   -6   IZMIN=   -6


 serial   3D FFT for wavefunctions
 parallel 3D FFT for charge:
    minimum data exchange during FFTs selected (reduces bandwidth)


 total amount of memory used by VASP MPI-rank0    36720. kBytes
=======================================================================

   base      :      30000. kBytes
   nonl-proj :        411. kBytes
   fftplans  :       4177. kBytes
   grid      :       1926. kBytes
   one-center:          6. kBytes
   wavefun   :        200. kBytes
 
     INWAV:  cpu time    0.0000: real time    0.0008
 Broyden mixing: mesh for mixing (old mesh)
   NGX = 11   NGY = 11   NGZ = 11
  (NGX  = 48   NGY  = 48   NGZ  = 48)
  gives a total of   1331 points

 initial charge density was supplied:
 charge density of overlapping atoms calculated
 number of electron       8.0000000 magnetization 
 keeping initial charge density in first step


--------------------------------------------------------------------------------------------------------


 Maximum index for augmentation-charges        22271 (set IRDMAX)


--------------------------------------------------------------------------------------------------------


 First call to EWALD:  gamma=   0.517
 Maximum number of real-space cells 3x 3x 3
 Maximum number of reciprocal cells 3x 3x 3

    FEWALD:  cpu time    0.0030: real time    0.0035


--------------------------------------- Iteration      1(   1)  ---------------------------------------


    POTLOK:  cpu time    0.0310: real time    0.0345
    SETDIJ:  cpu time    0.1790: real time    0.1787
     EDDAV:  cpu time    0.0870: real time    0.0866
       DOS:  cpu time    0.0000: real time    0.0009
    --------------------------------------------
      LOOP:  cpu time    0.2970: real time    0.3009

 eigenvalue-minimisations  :   168
 total energy-change (2. order) : 0.1105071E+01  (-0.2533735E+03)
 number of electron       8.0000000 magnetization 
 augmentation part        8.0000000 magnetization 

 Free energy of the ion-electron system (eV)
  ---------------------------------------------------
  alpha Z        PSCENC =         3.33880741
  Ewald energy   TEWEN  =      -227.98820643
  -Hartree energ DENC   =       -11.11484531
  -exchange      EXHF   =         0.00000000
  -V(xc)+E(xc)   XCENC  =       -18.63153637
  PAW double counting   =       176.24759923     -141.06103558
  entropy T*S    EENTRO =        -0.00145228
  eigenvalues    EBANDS =        14.18448614
  atomic energy  EATOM  =       206.13125414
  Solvation  Ediel_sol  =         0.00000000
  ---------------------------------------------------
  free energy    TOTEN  =         1.10507095 eV

  energy without entropy =        1.10652323  energy(sigma->0) =        1.10579709


--------------------------------------------------------------------------------------------------------




--------------------------------------- Iteration      1(   2)  ---------------------------------------


     EDDAV:  cpu time    0.1200: real time    0.1316
       DOS:  cpu time    0.0010: real time    0.0004
    --------------------------------------------
      LOOP:  cpu time    0.1210: real time    0.1320

 eigenvalue-minimisations  :   248
 total energy-change (2. order) :-0.1191043E+02  (-0.1152785E+02)
 number of electron       8.0000000 magnetization 
 augmentation part        8.0000000 magnetization 

 Free energy of the ion-electron system (eV)
  ---------------------------------------------------
  alpha Z        PSCENC =         3.33880741
  Ewald energy   TEWEN  =      -227.98820643
  -Hartree energ DENC   =       -11.11484531
  -exchange      EXHF   =         0.00000000
  -V(xc)+E(xc)   XCENC  =       -18.63153637
  PAW double counting   =       176.24759923     -141.06103558
  entropy T*S    EENTRO =        -0.00000000
  eigenvalues    EBANDS =         2.27260886
  atomic energy  EATOM  =       206.13125414
  Solvation  Ediel_sol  =         0.00000000
  ---------------------------------------------------
  free energy    TOTEN  =       -10.80535405 eV

  energy without entropy =      -10.80535405  energy(sigma->0) =      -10.80535405


--------------------------------------------------------------------------------------------------------




--------------------------------------- Iteration      1(   3)  ---------------------------------------


     EDDAV:  cpu time    0.1130: real time    0.1195
       DOS:  cpu time    0.0010: real time    0.0004
    --------------------------------------------
      LOOP:  cpu time    0.1140: real time    0.1200

 eigenvalue-minimisations  :   224
 total energy-change (2. order) :-0.1609654E+00  (-0.1609654E+00)
 number of electron       8.0000000 magnetization 
 augmentation part        8.0000000 magnetization 

 Free energy of the ion-electron system (eV)
  ---------------------------------------------------
  alpha Z        PSCENC =         3.33880741
  Ewald energy   TEWEN  =      -227.98820643
  -Hartree energ DENC   =       -11.11484531
  -exchange      EXHF   =         0.00000000
  -V(xc)+E(xc)   XCENC  =       -18.63153637
  PAW double counting   =       176.24759923     -141.06103558
  entropy T*S    EENTRO =        -0.00000000
  eigenvalues    EBANDS =         2.11164351
  atomic energy  EATOM  =       206.13125414
  Solvation  Ediel_sol  =         0.00000000
  ---------------------------------------------------
  free energy    TOTEN  =       -10.96631941 eV

  energy without entropy =      -10.96631941  energy(sigma->0) =      -10.96631941


--------------------------------------------------------------------------------------------------------




--------------------------------------- Iteration      1(   4)  ---------------------------------------


     EDDAV:  cpu time    0.1190: real time    0.1308
       DOS:  cpu time    0.0000: real time    0.0006
    --------------------------------------------
      LOOP:  cpu time    0.1200: real time    0.1313

 eigenvalue-minimisations  :   240
 total energy-change (2. order) :-0.4750986E-03  (-0.4750986E-03)
 number of electron       8.0000000 magnetization 
 augmentation part        8.0000000 magnetization 

 Free energy of the ion-electron system (eV)
  ---------------------------------------------------
  alpha Z        PSCENC =         3.33880741
  Ewald energy   TEWEN  =      -227.98820643
  -Hartree energ DENC   =       -11.11484531
  -exchange      EXHF   =         0.00000000
  -V(xc)+E(xc)   XCENC  =       -18.63153637
  PAW double counting   =       176.24759923     -141.06103558
  entropy T*S    EENTRO =        -0.00000000
  eigenvalues    EBANDS =         2.11116841
  atomic energy  EATOM  =       206.13125414
  Solvation  Ediel_sol  =         0.00000000
  ---------------------------------------------------
  free energy    TOTEN  =       -10.96679451 eV

  energy without entropy =      -10.96679451  energy(sigma->0) =      -10.96679451


--------------------------------------------------------------------------------------------------------




--------------------------------------- Iteration      1(   5)  ---------------------------------------


     EDDAV:  cpu time    0.1200: real time    0.1264
       DOS:  cpu time    0.0010: real time    0.0007
    CHARGE:  cpu time    0.0300: real time    0.0316
    MIXING:  cpu time    0.0020: real time    0.0014
    --------------------------------------------
      LOOP:  cpu time    0.1530: real time    0.1602

 eigenvalue-minimisations  :   248
 total energy-change (2. order) :-0.5973140E-06  (-0.5973116E-06)
 number of electron       8.0000000 magnetization 
 augmentation part       -0.4686048 magnetization 

 Broyden mixing:
  rms(total) = 0.48976E+00    rms(broyden)= 0.48976E+00
  rms(prec ) = 0.96449E+00
  weight for this iteration     100.00

 Free energy of the ion-electron system (eV)
  ---------------------------------------------------
  alpha Z        PSCENC =         3.33880741
  Ewald energy   TEWEN  =      -227.98820643
  -Hartree energ DENC   =       -11.11484531
  -exchange      EXHF   =         0.00000000
  -V(xc)+E(xc)   XCENC  =       -18.63153637
  PAW double counting   =       176.24759923     -141.06103558
  entropy T*S    EENTRO =        -0.00000000
  eigenvalues    EBANDS =         2.11116781
  atomic energy  EATOM  =       206.13125414
  Solvation  Ediel_sol  =         0.00000000
  ---------------------------------------------------
  free energy    TOTEN  =       -10.96679510 eV

  energy without entropy =      -10.96679510  energy(sigma->0) =      -10.96679510


--------------------------------------------------------------------------------------------------------




--------------------------------------- Iteration      1(   6)  ---------------------------------------


    POTLOK:  cpu time    0.0340: real time    0.0412
    SETDIJ:  cpu time    0.1760: real time    0.1759
     EDDAV:  cpu time    0.1010: real time    0.1021
       DOS:  cpu time    0.0010: real time    0.0006
    CHARGE:  cpu time    0.0250: real time    0.0258
    MIXING:  cpu time    0.0020: real time    0.0015
    --------------------------------------------
      LOOP:  cpu time    0.3379: real time    0.3472

 eigenvalue-minimisations  :   208
 total energy-change (2. order) : 0.1280573E+00  (-0.8309755E-02)
 number of electron       8.0000000 magnetization 
 augmentation part       -0.4625706 magnetization 

 Broyden mixing:
  rms(total) = 0.30024E+00    rms(broyden)= 0.30024E+00
  rms(prec ) = 0.57470E+00
  weight for this iteration     100.00

 eigenvalues of (default mixing * dielectric matrix)
  average eigenvalue GAMMA=   2.5739
  2.5739

 Free energy of the ion-electron system (eV)
  ---------------------------------------------------
  alpha Z        PSCENC =         3.33880741
  Ewald energy   TEWEN  =      -227.98820643
  -Hartree energ DENC   =       -12.64301857
  -exchange      EXHF   =         0.00000000
  -V(xc)+E(xc)   XCENC  =       -18.39117993
  PAW double counting   =       379.50610486     -344.42939060
  entropy T*S    EENTRO =        -0.00000000
  eigenvalues    EBANDS =         3.63689130
  atomic energy  EATOM  =       206.13125414
  Solvation  Ediel_sol  =         0.00000000
  ---------------------------------------------------
  free energy    TOTEN  =       -10.83873781 eV

  energy without entropy =      -10.83873781  energy(sigma->0) =      -10.83873781


--------------------------------------------------------------------------------------------------------




--------------------------------------- Iteration      1(   7)  ---------------------------------------


    POTLOK:  cpu time    0.0320: real time    0.0391
    SETDIJ:  cpu time    0.1730: real time    0.1743
     EDDAV:  cpu time    0.0950: real time    0.0948
       DOS:  cpu time    0.0010: real time    0.0006
    CHARGE:  cpu time    0.0250: real time    0.0253
    MIXING:  cpu time    0.0010: real time    0.0014
    --------------------------------------------
      LOOP:  cpu time    0.3269: real time    0.3355

 eigenvalue-minimisations  :   192
 total energy-change (2. order) : 0.5856588E-01  (-0.1593055E-01)
 number of electron       8.0000000 magnetization 
 augmentation part       -0.4551259 magnetization 

 Broyden mixing:
  rms(total) = 0.19180E-01    rms(broyden)= 0.19179E-01
  rms(prec ) = 0.42351E-01
  weight for this iteration     100.00

 eigenvalues of (default mixing * dielectric matrix)
  average eigenvalue GAMMA=   2.0656
  1.7359  2.3954

 Free energy of the ion-electron system (eV)
  ---------------------------------------------------
  alpha Z        PSCENC =         3.33880741
  Ewald energy   TEWEN  =      -227.98820643
  -Hartree energ DENC   =       -15.16179646
  -exchange      EXHF   =         0.00000000
  -V(xc)+E(xc)   XCENC  =       -17.98753527
  PAW double counting   =       869.08675789     -834.15267005
  entropy T*S    EENTRO =        -0.00000000
  eigenvalues    EBANDS =         5.95321685
  atomic energy  EATOM  =       206.13125414
  Solvation  Ediel_sol  =         0.00000000
  ---------------------------------------------------
  free energy    TOTEN  =       -10.78017193 eV

  energy without entropy =      -10.78017193  energy(sigma->0) =      -10.78017193


--------------------------------------------------------------------------------------------------------




--------------------------------------- Iteration      1(   8)  ---------------------------------------


    POTLOK:  cpu time    0.0330: real time    0.0479
    SETDIJ:  cpu time    0.1750: real time    0.1748
     EDDAV:  cpu time    0.1060: real time    0.1057
       DOS:  cpu time    0.0000: real time    0.0007
    CHARGE:  cpu time    0.0250: real time    0.0252
    MIXING:  cpu time    0.0010: real time    0.0016
    --------------------------------------------
      LOOP:  cpu time    0.3409: real time    0.3560

 eigenvalue-minimisations  :   208
 total energy-change (2. order) :-0.1259810E-02  (-0.4102215E-03)
 number of electron       8.0000000 magnetization 
 augmentation part       -0.4561481 magnetization 

 Broyden mixing:
  rms(total) = 0.77621E-02    rms(broyden)= 0.77618E-02
  rms(prec ) = 0.13590E-01
  weight for this iteration     100.00

 eigenvalues of (default mixing * dielectric matrix)
  average eigenvalue GAMMA=   2.2561
  2.8166  1.9758  1.9758

 Free energy of the ion-electron system (eV)
  ---------------------------------------------------
  alpha Z        PSCENC =         3.33880741
  Ewald energy   TEWEN  =      -227.98820643
  -Hartree energ DENC   =       -15.09426125
  -exchange      EXHF   =         0.00000000
  -V(xc)+E(xc)   XCENC  =       -17.98704798
  PAW double counting   =       879.72467534     -844.76309980
  entropy T*S    EENTRO =        -0.00000000
  eigenvalues    EBANDS =         5.85644683
  atomic energy  EATOM  =       206.13125414
  Solvation  Ediel_sol  =         0.00000000
  ---------------------------------------------------
  free energy    TOTEN  =       -10.78143174 eV

  energy without entropy =      -10.78143174  energy(sigma->0) =      -10.78143174


--------------------------------------------------------------------------------------------------------




--------------------------------------- Iteration      1(   9)  ---------------------------------------


    POTLOK:  cpu time    0.0320: real time    0.0389
    SETDIJ:  cpu time    0.1760: real time    0.1754
     EDDAV:  cpu time    0.0980: real time    0.0983
       DOS:  cpu time    0.0000: real time    0.0006
    CHARGE:  cpu time    0.0250: real time    0.0253
    MIXING:  cpu time    0.0010: real time    0.0016
    --------------------------------------------
      LOOP:  cpu time    0.3319: real time    0.3403

 eigenvalue-minimisations  :   200
 total energy-change (2. order) :-0.2240815E-03  (-0.2000195E-04)
 number of electron       8.0000000 magnetization 
 augmentation part       -0.4562644 magnetization 

 Broyden mixing:
  rms(total) = 0.54683E-02    rms(broyden)= 0.54682E-02
  rms(prec ) = 0.64104E-02
  weight for this iteration     100.00

 eigenvalues of (default mixing * dielectric matrix)
  average eigenvalue GAMMA=   2.1021
  0.9493  2.5360  2.5055  2.4177

 Free energy of the ion-electron system (eV)
  ---------------------------------------------------
  alpha Z        PSCENC =         3.33880741
  Ewald energy   TEWEN  =      -227.98820643
  -Hartree energ DENC   =       -15.13572049
  -exchange      EXHF   =         0.00000000
  -V(xc)+E(xc)   XCENC  =       -17.97901505
  PAW double counting   =       880.64802039     -845.68374241
  entropy T*S    EENTRO =        -0.00000000
  eigenvalues    EBANDS =         5.88694661
  atomic energy  EATOM  =       206.13125414
  Solvation  Ediel_sol  =         0.00000000
  ---------------------------------------------------
  free energy    TOTEN  =       -10.78165582 eV

  energy without entropy =      -10.78165582  energy(sigma->0) =      -10.78165582


--------------------------------------------------------------------------------------------------------




--------------------------------------- Iteration      1(  10)  ---------------------------------------


    POTLOK:  cpu time    0.0340: real time    0.0466
    SETDIJ:  cpu time    0.1750: real time    0.1749
     EDDAV:  cpu time    0.1040: real time    0.1038
       DOS:  cpu time    0.0000: real time    0.0007
    CHARGE:  cpu time    0.0260: real time    0.0259
    MIXING:  cpu time    0.0010: real time    0.0015
    --------------------------------------------
      LOOP:  cpu time    0.3389: real time    0.3532

 eigenvalue-minimisations  :   208
 total energy-change (2. order) :-0.2990009E-04  (-0.3442558E-05)
 number of electron       8.0000000 magnetization 
 augmentation part       -0.4562489 magnetization 

 Broyden mixing:
  rms(total) = 0.67991E-03    rms(broyden)= 0.67990E-03
  rms(prec ) = 0.83187E-03
  weight for this iteration     100.00

 eigenvalues of (default mixing * dielectric matrix)
  average eigenvalue GAMMA=   1.9263
  2.9208  2.4523  2.0625  1.0375  1.1586

 Free energy of the ion-electron system (eV)
  ---------------------------------------------------
  alpha Z        PSCENC =         3.33880741
  Ewald energy   TEWEN  =      -227.98820643
  -Hartree energ DENC   =       -15.14508448
  -exchange      EXHF   =         0.00000000
  -V(xc)+E(xc)   XCENC  =       -17.97840355
  PAW double counting   =       870.01410898     -835.04971436
  entropy T*S    EENTRO =        -0.00000000
  eigenvalues    EBANDS =         5.89555256
  atomic energy  EATOM  =       206.13125414
  Solvation  Ediel_sol  =         0.00000000
  ---------------------------------------------------
  free energy    TOTEN  =       -10.78168572 eV

  energy without entropy =      -10.78168572  energy(sigma->0) =      -10.78168572


--------------------------------------------------------------------------------------------------------




--------------------------------------- Iteration      1(  11)  ---------------------------------------


    POTLOK:  cpu time    0.0320: real time    0.0433
    SETDIJ:  cpu time    0.1760: real time    0.1751
     EDDAV:  cpu time    0.1100: real time    0.1102
       DOS:  cpu time    0.0000: real time    0.0005
    --------------------------------------------
      LOOP:  cpu time    0.3180: real time    0.3290

 eigenvalue-minimisations  :   224
 total energy-change (2. order) : 0.4639901E-08  (-0.7364136E-07)
 number of electron       8.0000000 magnetization 
 augmentation part       -0.4562489 magnetization 

 Free energy of the ion-electron system (eV)
  ---------------------------------------------------
  alpha Z        PSCENC =         3.33880741
  Ewald energy   TEWEN  =      -227.98820643
  -Hartree energ DENC   =       -15.14399283
  -exchange      EXHF   =         0.00000000
  -V(xc)+E(xc)   XCENC  =       -17.97849713
  PAW double counting   =       870.89611988     -835.93129800
  entropy T*S    EENTRO =        -0.00000000
  eigenvalues    EBANDS =         5.89412723
  atomic energy  EATOM  =       206.13125414
  Solvation  Ediel_sol  =         0.00000000
  ---------------------------------------------------
  free energy    TOTEN  =       -10.78168572 eV

  energy without entropy =      -10.78168572  energy(sigma->0) =      -10.78168572


--------------------------------------------------------------------------------------------------------




 average (electrostatic) potential at core
  the test charge radii are     0.9892
  (the norm of the test charge is              1.0000)
       1 -83.3005       2 -83.3005
 
 
 
 E-fermi :   6.0291     XC(G=0):  -9.3703     alpha+bet :-11.8943

 Fermi energy:         6.0291032600

 k-point     1 :       0.0000    0.0000    0.0000
  band No.  band energies     occupation 
      1      -6.1399      2.00000
      2       5.7728      2.00000
      3       5.7728      2.00000
      4       5.7728      2.00000
      5       8.3283      0.00000
      6       8.3283      0.00000
      7       8.3283      0.00000
      8       9.0642      0.00000

 k-point     2 :       0.2000    0.0000    0.0000
  band No.  band energies     occupation 
      1      -5.6255      2.00000
      2       2.7726      2.00000
      3       5.1966      2.00000
      4       5.1966      2.00000
      5       7.9687      0.00000
      6       9.1254      0.00000
      7       9.1254      0.00000
      8      11.7684      0.00000

 k-point     3 :       0.4000   -0.0000    0.0000
  band No.  band energies     occupation 
      1      -4.2725      2.00000
      2      -0.4720      2.00000
      3       4.6514      2.00000
      4       4.6514      2.00000
      5       7.3673      0.00000
      6       9.1844      0.00000
      7       9.1844      0.00000
      8      13.5974      0.00000

 k-point     4 :       0.2000    0.2000    0.0000
  band No.  band energies     occupation 
      1      -5.4484      2.00000
      2       3.1469      2.00000
      3       4.2942      2.00000
      4       4.2942      2.00000
      5       7.2347      0.00000
      6       9.6467      0.00000
      7      10.6473      0.00000
      8      10.6473      0.00000

 k-point     5 :       0.4000    0.2000    0.0000
  band No.  band energies     occupation 
      1      -4.3144      2.00000
      2       0.4796      2.00000
      3       3.1627      2.00000
      4       3.7887      2.00000
      5       7.5471      0.00000
      6       9.8503      0.00000
      7      10.6808      0.00000
      8      11.1921      0.00000

 k-point     6 :      -0.4000    0.2000    0.0000
  band No.  band energies     occupation 
      1      -3.4376      2.00000
      2      -0.9027      2.00000
      3       2.3591      2.00000
      4       4.0688      2.00000
      5       7.8262      0.00000
      6      10.3576      0.00000
      7      10.5629      0.00000
      8      13.3149      0.00000

 k-point     7 :      -0.2000    0.2000    0.0000
  band No.  band energies     occupation 
      1      -4.7992      2.00000
      2       1.3072      2.00000
      3       2.7920      2.00000
      4       4.9313      2.00000
      5       8.6486      0.00000
      6       9.7523      0.00000
      7      10.0693      0.00000
      8      11.4838      0.00000

 k-point     8 :       0.4000    0.4000    0.0000
  band No.  band energies     occupation 
      1      -3.4435      2.00000
      2      -0.3907      2.00000
      3       3.0946      2.00000
      4       3.0946      2.00000
      5       6.3607      0.00000
      6       7.0911      0.00000
      7      14.2470      0.00000
      8      14.2470      0.00000

 k-point     9 :      -0.4000    0.4000    0.0000
  band No.  band energies     occupation 
      1      -2.2479      2.00000
      2      -1.6437      2.00000
      3       1.7372      2.00000
      4       3.2125      2.00000
      5       6.8082      0.00000
      6       8.9199      0.00000
      7      13.8354      0.00000
      8      14.4195      0.00000

 k-point    10 :      -0.4000    0.4000    0.2000
  band No.  band energies     occupation 
      1      -3.0083      2.00000
      2      -0.7722      2.00000
      3       1.8205      2.00000
      4       2.8013      2.00000
      5       9.1604      0.00000
      6       9.5423      0.00000
      7      10.1826      0.00000
      8      13.5308      0.00000


--------------------------------------------------------------------------------------------------------


 soft charge-density along one line, spin component           1
         0         1         2         3         4         5         6         7         8         9
 total charge-density along one line
 
 pseudopotential strength for first ion, spin component:           1
 18.419  25.698   0.000   0.000   0.000   0.000   0.000   0.000
 25.698  35.858   0.000   0.000   0.000   0.000   0.000   0.000
  0.000   0.000   4.179  -0.000  -0.000   7.787  -0.000  -0.000
  0.000   0.000  -0.000   4.179  -0.000  -0.000   7.787  -0.000
  0.000   0.000  -0.000  -0.000   4.179  -0.000  -0.000   7.787
  0.000   0.000   7.787  -0.000  -0.000  14.522  -0.000  -0.000
  0.000   0.000  -0.000   7.787  -0.000  -0.000  14.522  -0.000
  0.000   0.000  -0.000  -0.000   7.787  -0.000  -0.000  14.522
 total augmentation occupancy for first ion, spin component:           1
  5.657  -2.130  -0.000   0.000   0.000  -0.000   0.000   0.000
 -2.130   0.907   0.000   0.000   0.000   0.000  -0.000  -0.000
  0.000  -0.000   3.003   0.000   0.000  -0.679  -0.000  -0.000
  0.000   0.000   0.000   3.003   0.000  -0.000  -0.679  -0.000
  0.000   0.000   0.000   0.000   3.003  -0.000  -0.000  -0.679
  0.000   0.000  -0.679  -0.000  -0.000   0.162   0.000   0.000
  0.000  -0.000  -0.000  -0.679  -0.000   0.000   0.162   0.000
  0.000  -0.000  -0.000  -0.000  -0.679   0.000   0.000   0.162


------------------------ aborting loop because EDIFF is reached ----------------------------------------


    CHARGE:  cpu time    0.0260: real time    0.0262
    FORLOC:  cpu time    0.0010: real time    0.0018
    FORNL :  cpu time    0.1000: real time    0.0992
    STRESS:  cpu time    0.3589: real time    0.3603
    FORCOR:  cpu time    0.0320: real time    0.0311
    FORHAR:  cpu time    0.0050: real time    0.0059
    MIXING:  cpu time    0.0010: real time    0.0012
    OFIELD:  cpu time    0.0000: real time    0.0002

  FORCE on cell =-STRESS in cart. coord.  units (eV):
  Direction    XX          YY          ZZ          XY          YZ          ZX
  --------------------------------------------------------------------------------------
  Alpha Z     3.33881     3.33881     3.33881
  Ewald     -75.99608   -75.99616   -75.99607     0.00001     0.00000    -0.00000
  Hartree     5.04865     5.04865     5.04865     0.00000     0.00000     0.00000
  E(xc)     -25.34950   -25.34950   -25.34950    -0.00000     0.00000     0.00000
  Local     -29.41587   -29.41586   -29.41585    -0.00000     0.00001     0.00001
  n-local    73.67919    77.11840    81.96510    -1.00360    -0.31643     0.01755
  augment   -11.59057   -11.59057   -11.59058    -0.00000    -0.00001    -0.00001
  Kinetic    53.09304    55.54390    61.56848     0.71457     0.60551    -0.49672
  Fock        0.00000     0.00000     0.00000     0.00000     0.00000     0.00000
  -------------------------------------------------------------------------------------
  Total       0.35812     0.35812     0.35812     0.00000     0.00000     0.00000
  in kB      14.22710    14.22711    14.22710     0.00000     0.00000     0.00000
  external pressure =       14.23 kB  Pullay stress =        0.00 kB


 VOLUME and BASIS-vectors are now :
 -----------------------------------------------------------------------------
  energy-cutoff  :      350.00
  volume of cell :       40.33
      direct lattice vectors                 reciprocal lattice vectors
     3.333573000  0.000000000  1.924639000     0.299978432 -0.106058350  0.000000000
     1.111191000  3.142924000  1.924639000     0.000000000  0.318175050  0.000000000
     0.000000000  0.000000000  3.849278000    -0.149989216 -0.106058350  0.259788979

  length of vectors
     3.849278403  3.849279412  3.849278000     0.318175161  0.318175050  0.318175190


 FORCES acting on ions
    electron-ion (+dipol)            ewald-force                    non-local-force                 convergence-correction
 -----------------------------------------------------------------------------------------------
   0.526E-05 0.245E-04 0.450E-07   -.892E-05 -.418E-04 0.782E-16   -.208E-16 -.625E-16 0.208E-15   0.666E-07 0.482E-07 0.115E-06
   -.526E-05 -.245E-04 -.450E-07   0.892E-05 0.418E-04 -.194E-15   -.347E-16 0.208E-16 0.139E-16   -.666E-07 -.482E-07 -.115E-06
 -----------------------------------------------------------------------------------------------
   0.408E-13 -.369E-13 0.119E-12   -.365E-15 -.270E-16 -.116E-15   -.555E-16 -.416E-16 0.222E-15   0.976E-15 -.342E-15 0.108E-15
 
 
 POSITION                                       TOTAL-FORCE (eV/Angst)
 -----------------------------------------------------------------------------------
      3.88917      2.75006      6.73624        -0.000000     -0.000000      0.000000
      0.55560      0.39287      0.96232         0.000000      0.000000     -0.000000
 -----------------------------------------------------------------------------------
    total drift:                                0.000000     -0.000000      0.000000


--------------------------------------------------------------------------------------------------------



  FREE ENERGIE OF THE ION-ELECTRON SYSTEM (eV)
  ---------------------------------------------------
  free  energy   TOTEN  =       -10.78168572 eV

  energy  without entropy=      -10.78168572  energy(sigma->0) =      -10.78168572
 


--------------------------------------------------------------------------------------------------------


    POTLOK:  cpu time    0.2090: real time    0.2182


--------------------------------------------------------------------------------------------------------




--------------------------------------------------------------------------------------------------------


    WAVPRE:  cpu time    0.0090: real time    0.0204
    FEWALD:  cpu time    0.0000: real time    0.0005
    GENKIN:  cpu time    0.0060: real time    0.0056
    ORTHCH:  cpu time    0.0020: real time    0.0028
     LOOP+:  cpu time    3.7364: real time    3.8947


--------------------------------------- Iteration      2(   1)  ---------------------------------------


    POTLOK:  cpu time    0.0310: real time    0.0358
    SETDIJ:  cpu time    0.1780: real time    0.1787
     EDDAV:  cpu time    0.1080: real time    0.1081
       DOS:  cpu time    0.0010: real time    0.0006
    CHARGE:  cpu time    0.0250: real time    0.0251
    MIXING:  cpu time    0.0010: real time    0.0014
    --------------------------------------------
      LOOP:  cpu time    0.3439: real time    0.3500

 eigenvalue-minimisations  :   168
 total energy-change (2. order) :-0.5059358E-02  (-0.1417022E-01)
 number of electron       8.0000000 magnetization 
 augmentation part       -0.4579130 magnetization 

 Broyden mixing:
  rms(total) = 0.34904E-01    rms(broyden)= 0.34902E-01
  rms(prec ) = 0.89980E-01
  weight for this iteration     100.00

 Free energy of the ion-electron system (eV)
  ---------------------------------------------------
  alpha Z        PSCENC =         3.25375578
  Ewald energy   TEWEN  =      -226.03563401
  -Hartree energ DENC   =       -15.01597027
  -exchange      EXHF   =         0.00000000
  -V(xc)+E(xc)   XCENC  =       -18.10472605
  PAW double counting   =       870.75906885     -835.79429616
  entropy T*S    EENTRO =        -0.00000000
  eigenvalues    EBANDS =         4.01980262
  atomic energy  EATOM  =       206.13125414
  Solvation  Ediel_sol  =         0.00000000
  ---------------------------------------------------
  free energy    TOTEN  =       -10.78674508 eV

  energy without entropy =      -10.78674508  energy(sigma->0) =      -10.78674508


--------------------------------------------------------------------------------------------------------




--------------------------------------- Iteration      2(   2)  ---------------------------------------


    POTLOK:  cpu time    0.0330: real time    0.0430
    SETDIJ:  cpu time    0.1730: real time    0.1735
     EDDAV:  cpu time    0.1110: real time    0.1109
       DOS:  cpu time    0.0000: real time    0.0005
    CHARGE:  cpu time    0.0240: real time    0.0247
    MIXING:  cpu time    0.0020: real time    0.0013
    --------------------------------------------
      LOOP:  cpu time    0.3429: real time    0.3539

 eigenvalue-minimisations  :   224
 total energy-change (2. order) : 0.2370751E-02  (-0.2032709E-03)
 number of electron       8.0000000 magnetization 
 augmentation part       -0.4571979 magnetization 

 Broyden mixing:
  rms(total) = 0.21598E-01    rms(broyden)= 0.21598E-01
  rms(prec ) = 0.52391E-01
  weight for this iteration     100.00

 eigenvalues of (default mixing * dielectric matrix)
  average eigenvalue GAMMA=   2.5759
  2.5759

 Free energy of the ion-electron system (eV)
  ---------------------------------------------------
  alpha Z        PSCENC =         3.25375578
  Ewald energy   TEWEN  =      -226.03563401
  -Hartree energ DENC   =       -15.20388364
  -exchange      EXHF   =         0.00000000
  -V(xc)+E(xc)   XCENC  =       -18.09872513
  PAW double counting   =       847.04091127     -812.07047677
  entropy T*S    EENTRO =        -0.00000000
  eigenvalues    EBANDS =         4.19842402
  atomic energy  EATOM  =       206.13125414
  Solvation  Ediel_sol  =         0.00000000
  ---------------------------------------------------
  free energy    TOTEN  =       -10.78437433 eV

  energy without entropy =      -10.78437433  energy(sigma->0) =      -10.78437433


--------------------------------------------------------------------------------------------------------




--------------------------------------- Iteration      2(   3)  ---------------------------------------


    POTLOK:  cpu time    0.0320: real time    0.0412
    SETDIJ:  cpu time    0.1730: real time    0.1729
     EDDAV:  cpu time    0.0870: real time    0.0880
       DOS:  cpu time    0.0010: real time    0.0007
    CHARGE:  cpu time    0.0250: real time    0.0262
    MIXING:  cpu time    0.0010: real time    0.0014
    --------------------------------------------
      LOOP:  cpu time    0.3200: real time    0.3304

 eigenvalue-minimisations  :   176
 total energy-change (2. order) : 0.1270746E-02  (-0.2606156E-03)
 number of electron       8.0000000 magnetization 
 augmentation part       -0.4556647 magnetization 

 Broyden mixing:
  rms(total) = 0.72087E-02    rms(broyden)= 0.72087E-02
  rms(prec ) = 0.79724E-02
  weight for this iteration     100.00

 eigenvalues of (default mixing * dielectric matrix)
  average eigenvalue GAMMA=   1.3847
  2.2914  0.4780

 Free energy of the ion-electron system (eV)
  ---------------------------------------------------
  alpha Z        PSCENC =         3.25375578
  Ewald energy   TEWEN  =      -226.03563401
  -Hartree energ DENC   =       -15.45772789
  -exchange      EXHF   =         0.00000000
  -V(xc)+E(xc)   XCENC  =       -18.09335645
  PAW double counting   =       810.44771311     -775.46586336
  entropy T*S    EENTRO =        -0.00000000
  eigenvalues    EBANDS =         4.43675508
  atomic energy  EATOM  =       206.13125414
  Solvation  Ediel_sol  =         0.00000000
  ---------------------------------------------------
  free energy    TOTEN  =       -10.78310358 eV

  energy without entropy =      -10.78310358  energy(sigma->0) =      -10.78310358


--------------------------------------------------------------------------------------------------------




--------------------------------------- Iteration      2(   4)  ---------------------------------------


    POTLOK:  cpu time    0.0330: real time    0.0464
    SETDIJ:  cpu time    0.1730: real time    0.1732
     EDDAV:  cpu time    0.1000: real time    0.1001
       DOS:  cpu time    0.0000: real time    0.0008
    CHARGE:  cpu time    0.0250: real time    0.0255
    MIXING:  cpu time    0.0020: real time    0.0016
    --------------------------------------------
      LOOP:  cpu time    0.3319: real time    0.3477

 eigenvalue-minimisations  :   200
 total energy-change (2. order) :-0.7671263E-06  (-0.2928510E-05)
 number of electron       8.0000000 magnetization 
 augmentation part       -0.4556689 magnetization 

 Broyden mixing:
  rms(total) = 0.64449E-02    rms(broyden)= 0.64449E-02
  rms(prec ) = 0.70244E-02
  weight for this iteration     100.00

 eigenvalues of (default mixing * dielectric matrix)
  average eigenvalue GAMMA=   1.7893
  2.4333  1.4673  1.4673

 Free energy of the ion-electron system (eV)
  ---------------------------------------------------
  alpha Z        PSCENC =         3.25375578
  Ewald energy   TEWEN  =      -226.03563401
  -Hartree energ DENC   =       -15.45271918
  -exchange      EXHF   =         0.00000000
  -V(xc)+E(xc)   XCENC  =       -18.09406234
  PAW double counting   =       813.43872867     -778.45588230
  entropy T*S    EENTRO =        -0.00000000
  eigenvalues    EBANDS =         4.43145489
  atomic energy  EATOM  =       206.13125414
  Solvation  Ediel_sol  =         0.00000000
  ---------------------------------------------------
  free energy    TOTEN  =       -10.78310435 eV

  energy without entropy =      -10.78310435  energy(sigma->0) =      -10.78310435


--------------------------------------------------------------------------------------------------------




--------------------------------------- Iteration      2(   5)  ---------------------------------------


    POTLOK:  cpu time    0.0330: real time    0.0430
    SETDIJ:  cpu time    0.1720: real time    0.1738
     EDDAV:  cpu time    0.0930: real time    0.0921
       DOS:  cpu time    0.0000: real time    0.0006
    CHARGE:  cpu time    0.0240: real time    0.0248
    MIXING:  cpu time    0.0010: real time    0.0014
    --------------------------------------------
      LOOP:  cpu time    0.3240: real time    0.3356

 eigenvalue-minimisations  :   184
 total energy-change (2. order) : 0.5953263E-05  (-0.7142213E-06)
 number of electron       8.0000000 magnetization 
 augmentation part       -0.4556512 magnetization 

 Broyden mixing:
  rms(total) = 0.12497E-02    rms(broyden)= 0.12497E-02
  rms(prec ) = 0.12864E-02
  weight for this iteration     100.00

 eigenvalues of (default mixing * dielectric matrix)
  average eigenvalue GAMMA=   1.7419
  2.6974  2.2640  1.0030  1.0030

 Free energy of the ion-electron system (eV)
  ---------------------------------------------------
  alpha Z        PSCENC =         3.25375578
  Ewald energy   TEWEN  =      -226.03563401
  -Hartree energ DENC   =       -15.45309224
  -exchange      EXHF   =         0.00000000
  -V(xc)+E(xc)   XCENC  =       -18.09604163
  PAW double counting   =       826.72316117     -791.73593207
  entropy T*S    EENTRO =        -0.00000000
  eigenvalues    EBANDS =         4.42943045
  atomic energy  EATOM  =       206.13125414
  Solvation  Ediel_sol  =         0.00000000
  ---------------------------------------------------
  free energy    TOTEN  =       -10.78309840 eV

  energy without entropy =      -10.78309840  energy(sigma->0) =      -10.78309840


--------------------------------------------------------------------------------------------------------




--------------------------------------- Iteration      2(   6)  ---------------------------------------


    POTLOK:  cpu time    0.0330: real time    0.0425
    SETDIJ:  cpu time    0.1730: real time    0.1729
     EDDAV:  cpu time    0.0810: real time    0.0809
       DOS:  cpu time    0.0000: real time    0.0006
    --------------------------------------------
      LOOP:  cpu time    0.2860: real time    0.2968

 eigenvalue-minimisations  :   152
 total energy-change (2. order) : 0.2406512E-07  (-0.1295383E-07)
 number of electron       8.0000000 magnetization 
 augmentation part       -0.4556512 magnetization 

 Free energy of the ion-electron system (eV)
  ---------------------------------------------------
  alpha Z        PSCENC =         3.25375578
  Ewald energy   TEWEN  =      -226.03563401
  -Hartree energ DENC   =       -15.45238380
  -exchange      EXHF   =         0.00000000
  -V(xc)+E(xc)   XCENC  =       -18.09610119
  PAW double counting   =       826.12102011     -791.13379242
  entropy T*S    EENTRO =        -0.00000000
  eigenvalues    EBANDS =         4.42878301
  atomic energy  EATOM  =       206.13125414
  Solvation  Ediel_sol  =         0.00000000
  ---------------------------------------------------
  free energy    TOTEN  =       -10.78309837 eV

  energy without entropy =      -10.78309837  energy(sigma->0) =      -10.78309837


--------------------------------------------------------------------------------------------------------




 average (electrostatic) potential at core
  the test charge radii are     0.9892
  (the norm of the test charge is              1.0000)
       1 -83.5871       2 -83.5871
 
 
 
 E-fermi :   5.7550     XC(G=0):  -9.2695     alpha+bet :-11.5913

 Fermi energy:         5.7550317067

 k-point     1 :       0.0000    0.0000    0.0000
  band No.  band energies     occupation 
      1      -6.2218      2.00000
      2       5.5164      2.00000
      3       5.5164      2.00000
      4       5.5164      2.00000
      5       8.0610      0.00000
      6       8.0610      0.00000
      7       8.0610      0.00000
      8       8.5140      0.00000

 k-point     2 :       0.2000    0.0000    0.0000
  band No.  band energies     occupation 
      1      -5.7191      2.00000
      2       2.5446      2.00000
      3       4.9535      2.00000
      4       4.9535      2.00000
      5       7.6239      0.00000
      6       8.8434      0.00000
      7       8.8434      0.00000
      8      11.2950      0.00000

 k-point     3 :       0.4000   -0.0000    0.0000
  band No.  band energies     occupation 
      1      -4.4019      2.00000
      2      -0.6316      2.00000
      3       4.4167      2.00000
      4       4.4167      2.00000
      5       7.0203      0.00000
      6       8.9325      0.00000
      7       8.9325      0.00000
      8      13.2942      0.00000

 k-point     4 :       0.2000    0.2000    0.0000
  band No.  band energies     occupation 
      1      -5.5457      2.00000
      2       2.8725      2.00000
      3       4.0769      2.00000
      4       4.0769      2.00000
      5       6.9938      0.00000
      6       9.3392      0.00000
      7      10.3243      0.00000
      8      10.3243      0.00000

 k-point     5 :       0.4000    0.2000    0.0000
  band No.  band energies     occupation 
      1      -4.4390      2.00000
      2       0.2730      2.00000
      3       2.9609      2.00000
      4       3.5804      2.00000
      5       7.3037      0.00000
      6       9.5679      0.00000
      7      10.3343      0.00000
      8      10.8851      0.00000

 k-point     6 :      -0.4000    0.2000    0.0000
  band No.  band energies     occupation 
      1      -3.5905      2.00000
      2      -1.0669      2.00000
      3       2.1766      2.00000
      4       3.8512      2.00000
      5       7.5679      0.00000
      6      10.0272      0.00000
      7      10.2787      0.00000
      8      12.9657      0.00000

 k-point     7 :      -0.2000    0.2000    0.0000
  band No.  band energies     occupation 
      1      -4.9122      2.00000
      2       1.0815      2.00000
      3       2.6145      2.00000
      4       4.6908      2.00000
      5       8.3351      0.00000
      6       9.4585      0.00000
      7       9.7616      0.00000
      8      11.1195      0.00000

 k-point     8 :       0.4000    0.4000    0.0000
  band No.  band energies     occupation 
      1      -3.5860      2.00000
      2      -0.6021      2.00000
      3       2.9022      2.00000
      4       2.9022      2.00000
      5       6.1485      0.00000
      6       6.8806      0.00000
      7      13.8515      0.00000
      8      13.8515      0.00000

 k-point     9 :      -0.4000    0.4000    0.0000
  band No.  band energies     occupation 
      1      -2.4264      2.00000
      2      -1.8247      2.00000
      3       1.5928      2.00000
      4       3.0167      2.00000
      5       6.5926      0.00000
      6       8.6585      0.00000
      7      13.4504      0.00000
      8      14.0129      0.00000

 k-point    10 :      -0.4000    0.4000    0.2000
  band No.  band energies     occupation 
      1      -3.1663      2.00000
      2      -0.9759      2.00000
      3       1.6707      2.00000
      4       2.6273      2.00000
      5       8.8868      0.00000
      6       9.2971      0.00000
      7       9.8457      0.00000
      8      13.1654      0.00000


--------------------------------------------------------------------------------------------------------


 soft charge-density along one line, spin component           1
         0         1         2         3         4         5         6         7         8         9
 total charge-density along one line
 
 pseudopotential strength for first ion, spin component:           1
 18.448  25.739   0.000   0.000   0.000   0.000   0.000   0.000
 25.739  35.915   0.000   0.000   0.000   0.000   0.000   0.000
  0.000   0.000   4.182  -0.000  -0.000   7.793  -0.000  -0.000
  0.000   0.000  -0.000   4.182  -0.000  -0.000   7.793  -0.000
  0.000   0.000  -0.000  -0.000   4.182  -0.000  -0.000   7.793
  0.000   0.000   7.793  -0.000  -0.000  14.533  -0.000  -0.000
  0.000   0.000  -0.000   7.793  -0.000  -0.000  14.533  -0.000
  0.000   0.000  -0.000  -0.000   7.793  -0.000  -0.000  14.533
 total augmentation occupancy for first ion, spin component:           1
  5.438  -2.009   0.000   0.000  -0.000   0.000  -0.000   0.000
 -2.009   0.848  -0.000   0.000   0.000   0.000   0.000  -0.000
  0.000   0.000   2.913  -0.000   0.000  -0.652   0.000  -0.000
  0.000   0.000  -0.000   2.913  -0.000   0.000  -0.652   0.000
  0.000   0.000   0.000  -0.000   2.913  -0.000   0.000  -0.652
 -0.000   0.000  -0.652   0.000  -0.000   0.155  -0.000   0.000
 -0.000   0.000   0.000  -0.652   0.000  -0.000   0.155  -0.000
  0.000  -0.000  -0.000   0.000  -0.652   0.000  -0.000   0.155


------------------------ aborting loop because EDIFF is reached ----------------------------------------


    CHARGE:  cpu time    0.0240: real time    0.0248
    FORLOC:  cpu time    0.0010: real time    0.0017
    FORNL :  cpu time    0.0980: real time    0.0976
    STRESS:  cpu time    0.3539: real time    0.3544
    FORCOR:  cpu time    0.0310: real time    0.0316
    FORHAR:  cpu time    0.0070: real time    0.0062
    MIXING:  cpu time    0.0000: real time    0.0012
    OFIELD:  cpu time    0.0010: real time    0.0002

  FORCE on cell =-STRESS in cart. coord.  units (eV):
  Direction    XX          YY          ZZ          XY          YZ          ZX
  --------------------------------------------------------------------------------------
  Alpha Z     3.25376     3.25376     3.25376
  Ewald     -75.34522   -75.34530   -75.34521     0.00001    -0.00000    -0.00000
  Hartree     5.15105     5.15104     5.15105     0.00000     0.00000     0.00000
  E(xc)     -25.20139   -25.20139   -25.20139     0.00000     0.00000     0.00000
  Local     -29.77637   -29.77636   -29.77636    -0.00000     0.00001     0.00001
  n-local    73.28164    76.65913    81.41592    -1.02086    -0.31390     0.02012
  augment   -11.58390   -11.58390   -11.58391    -0.00000    -0.00001    -0.00001
  Kinetic    52.39314    54.97870    61.06262     0.59784     0.56075    -0.47484
  Fock        0.00000     0.00000     0.00000     0.00000     0.00000     0.00000
  -------------------------------------------------------------------------------------
  Total      -0.23838    -0.23838    -0.23838    -0.00000     0.00000    -0.00000
  in kB      -9.22891    -9.22892    -9.22891    -0.00000     0.00000    -0.00000
  external pressure =       -9.23 kB  Pullay stress =        0.00 kB


 VOLUME and BASIS-vectors are now :
 -----------------------------------------------------------------------------
  energy-cutoff  :      350.00
  volume of cell :       41.38
      direct lattice vectors                 reciprocal lattice vectors
     3.362369529  0.000000000  1.941264677     0.297409310 -0.105150028 -0.000000000
     1.120789843  3.170073660  1.941264677    -0.000000000  0.315450083 -0.000000000
     0.000000000  0.000000000  3.882529353    -0.148704655 -0.105150028  0.257564054

  length of vectors
     3.882529767  3.882530801  3.882529353     0.315450195  0.315450083  0.315450225


 FORCES acting on ions
    electron-ion (+dipol)            ewald-force                    non-local-force                 convergence-correction
 -----------------------------------------------------------------------------------------------
   0.532E-05 0.248E-04 0.718E-07   -.892E-05 -.418E-04 0.102E-13   0.102E-15 -.348E-16 -.201E-15   0.123E-06 0.859E-07 0.212E-06
   -.532E-05 -.248E-04 -.718E-07   0.892E-05 0.418E-04 -.103E-13   -.466E-16 0.348E-16 0.319E-15   -.123E-06 -.859E-07 -.212E-06
 -----------------------------------------------------------------------------------------------
   0.448E-13 -.505E-13 0.135E-12   0.130E-15 0.102E-16 -.900E-16   0.555E-16 0.840E-25 0.118E-15   0.796E-15 -.652E-15 -.411E-15
 
 
 POSITION                                       TOTAL-FORCE (eV/Angst)
 -----------------------------------------------------------------------------------
      3.92276      2.77381      6.79443         0.000000      0.000000      0.000000
      0.56039      0.39626      0.97063        -0.000000     -0.000000     -0.000000
 -----------------------------------------------------------------------------------
    total drift:                                0.000000     -0.000000      0.000000


--------------------------------------------------------------------------------------------------------



  FREE ENERGIE OF THE ION-ELECTRON SYSTEM (eV)
  ---------------------------------------------------
  free  energy   TOTEN  =       -10.78309837 eV

  energy  without entropy=      -10.78309837  energy(sigma->0) =      -10.78309837
 
 d Force = 0.0000000E+00[ 0.000E+00, 0.000E+00]  d Energy = 0.1412655E-02-0.141E-02
 d Force = 0.0000000E+00[ 0.000E+00, 0.000E+00]  d Ewald  =-0.1952572E+01 0.195E+01


--------------------------------------------------------------------------------------------------------


    POTLOK:  cpu time    0.2060: real time    0.2138


--------------------------------------------------------------------------------------------------------


 Steepest descent step on ions:
 trial-energy change:   -0.001413  1 .order   -0.001552   -0.009281    0.006178
  (g-gl).g = 0.928E-02      g.g   = 0.928E-02  gl.gl    = 0.000E+00
 g(Force)  = 0.585E-43   g(Stress)= 0.928E-02 ortho     = 0.000E+00
 gamma     =   0.00000
 trial     =   1.00000
 opt step  =   0.58730  (harmonic =   0.60037) maximal distance =0.00000000
 next E    =   -10.784383   (d E  =  -0.00270)


--------------------------------------------------------------------------------------------------------


    WAVPRE:  cpu time    0.0090: real time    0.0187
    FEWALD:  cpu time    0.0000: real time    0.0003
    GENKIN:  cpu time    0.0060: real time    0.0055
    ORTHCH:  cpu time    0.0030: real time    0.0026
     LOOP+:  cpu time    2.8736: real time    3.0015


--------------------------------------- Iteration      3(   1)  ---------------------------------------


    POTLOK:  cpu time    0.0310: real time    0.0347
    SETDIJ:  cpu time    0.1740: real time    0.1739
     EDDAV:  cpu time    0.0840: real time    0.0840
       DOS:  cpu time    0.0000: real time    0.0006
    CHARGE:  cpu time    0.0250: real time    0.0251
    MIXING:  cpu time    0.0010: real time    0.0012
    --------------------------------------------
      LOOP:  cpu time    0.3160: real time    0.3211

 eigenvalue-minimisations  :   168
 total energy-change (2. order) :-0.1883476E-02  (-0.2447404E-02)
 number of electron       8.0000000 magnetization 
 augmentation part       -0.4549336 magnetization 

 Broyden mixing:
  rms(total) = 0.14865E-01    rms(broyden)= 0.14864E-01
  rms(prec ) = 0.37522E-01
  weight for this iteration     100.00

 Free energy of the ion-electron system (eV)
  ---------------------------------------------------
  alpha Z        PSCENC =         3.28850212
  Ewald energy   TEWEN  =      -226.83738630
  -Hartree energ DENC   =       -15.50810977
  -exchange      EXHF   =         0.00000000
  -V(xc)+E(xc)   XCENC  =       -18.04448351
  PAW double counting   =       823.86143361     -788.87433287
  entropy T*S    EENTRO =        -0.00000000
  eigenvalues    EBANDS =         5.19814069
  atomic energy  EATOM  =       206.13125414
  Solvation  Ediel_sol  =         0.00000000
  ---------------------------------------------------
  free energy    TOTEN  =       -10.78498187 eV

  energy without entropy =      -10.78498187  energy(sigma->0) =      -10.78498187


--------------------------------------------------------------------------------------------------------




--------------------------------------- Iteration      3(   2)  ---------------------------------------


    POTLOK:  cpu time    0.0330: real time    0.0513
    SETDIJ:  cpu time    0.1720: real time    0.1734
     EDDAV:  cpu time    0.1030: real time    0.1029
       DOS:  cpu time    0.0010: real time    0.0007
    CHARGE:  cpu time    0.0250: real time    0.0247
    MIXING:  cpu time    0.0000: real time    0.0014
    --------------------------------------------
      LOOP:  cpu time    0.3339: real time    0.3531

 eigenvalue-minimisations  :   208
 total energy-change (2. order) : 0.4016585E-03  (-0.3483288E-04)
 number of electron       8.0000000 magnetization 
 augmentation part       -0.4552368 magnetization 

 Broyden mixing:
  rms(total) = 0.91125E-02    rms(broyden)= 0.91125E-02
  rms(prec ) = 0.21801E-01
  weight for this iteration     100.00

 eigenvalues of (default mixing * dielectric matrix)
  average eigenvalue GAMMA=   2.5482
  2.5482

 Free energy of the ion-electron system (eV)
  ---------------------------------------------------
  alpha Z        PSCENC =         3.28850212
  Ewald energy   TEWEN  =      -226.83738630
  -Hartree energ DENC   =       -15.42893594
  -exchange      EXHF   =         0.00000000
  -V(xc)+E(xc)   XCENC  =       -18.04697566
  PAW double counting   =       833.85854372     -798.87369356
  entropy T*S    EENTRO =        -0.00000000
  eigenvalues    EBANDS =         5.12411126
  atomic energy  EATOM  =       206.13125414
  Solvation  Ediel_sol  =         0.00000000
  ---------------------------------------------------
  free energy    TOTEN  =       -10.78458021 eV

  energy without entropy =      -10.78458021  energy(sigma->0) =      -10.78458021


--------------------------------------------------------------------------------------------------------




--------------------------------------- Iteration      3(   3)  ---------------------------------------


    POTLOK:  cpu time    0.0320: real time    0.0392
    SETDIJ:  cpu time    0.1730: real time    0.1728
     EDDAV:  cpu time    0.0950: real time    0.0945
       DOS:  cpu time    0.0000: real time    0.0006
    CHARGE:  cpu time    0.0240: real time    0.0250
    MIXING:  cpu time    0.0020: real time    0.0015
    --------------------------------------------
      LOOP:  cpu time    0.3250: real time    0.3337

 eigenvalue-minimisations  :   192
 total energy-change (2. order) : 0.2082684E-03  (-0.4457223E-04)
 number of electron       8.0000000 magnetization 
 augmentation part       -0.4558702 magnetization 

 Broyden mixing:
  rms(total) = 0.30668E-02    rms(broyden)= 0.30668E-02
  rms(prec ) = 0.33802E-02
  weight for this iteration     100.00

 eigenvalues of (default mixing * dielectric matrix)
  average eigenvalue GAMMA=   1.3682
  2.2869  0.4494

 Free energy of the ion-electron system (eV)
  ---------------------------------------------------
  alpha Z        PSCENC =         3.28850212
  Ewald energy   TEWEN  =      -226.83738630
  -Hartree energ DENC   =       -15.32410807
  -exchange      EXHF   =         0.00000000
  -V(xc)+E(xc)   XCENC  =       -18.04897719
  PAW double counting   =       849.37886973     -814.39861992
  entropy T*S    EENTRO =        -0.00000000
  eigenvalues    EBANDS =         5.02609354
  atomic energy  EATOM  =       206.13125414
  Solvation  Ediel_sol  =         0.00000000
  ---------------------------------------------------
  free energy    TOTEN  =       -10.78437195 eV

  energy without entropy =      -10.78437195  energy(sigma->0) =      -10.78437195


--------------------------------------------------------------------------------------------------------




--------------------------------------- Iteration      3(   4)  ---------------------------------------


    POTLOK:  cpu time    0.0320: real time    0.0393
    SETDIJ:  cpu time    0.1730: real time    0.1732
     EDDAV:  cpu time    0.0890: real time    0.0897
       DOS:  cpu time    0.0010: real time    0.0006
    CHARGE:  cpu time    0.0250: real time    0.0251
    MIXING:  cpu time    0.0010: real time    0.0017
    --------------------------------------------
      LOOP:  cpu time    0.3210: real time    0.3296

 eigenvalue-minimisations  :   176
 total energy-change (2. order) :-0.8628685E-06  (-0.4590604E-06)
 number of electron       8.0000000 magnetization 
 augmentation part       -0.4558675 magnetization 

 Broyden mixing:
  rms(total) = 0.27302E-02    rms(broyden)= 0.27302E-02
  rms(prec ) = 0.29736E-02
  weight for this iteration     100.00

 eigenvalues of (default mixing * dielectric matrix)
  average eigenvalue GAMMA=   1.8387
  2.4693  1.5234  1.5234

 Free energy of the ion-electron system (eV)
  ---------------------------------------------------
  alpha Z        PSCENC =         3.28850212
  Ewald energy   TEWEN  =      -226.83738630
  -Hartree energ DENC   =       -15.32614914
  -exchange      EXHF   =         0.00000000
  -V(xc)+E(xc)   XCENC  =       -18.04869329
  PAW double counting   =       848.13526417     -813.15540545
  entropy T*S    EENTRO =        -0.00000000
  eigenvalues    EBANDS =         5.02824093
  atomic energy  EATOM  =       206.13125414
  Solvation  Ediel_sol  =         0.00000000
  ---------------------------------------------------
  free energy    TOTEN  =       -10.78437281 eV

  energy without entropy =      -10.78437281  energy(sigma->0) =      -10.78437281


--------------------------------------------------------------------------------------------------------




--------------------------------------- Iteration      3(   5)  ---------------------------------------


    POTLOK:  cpu time    0.0330: real time    0.0504
    SETDIJ:  cpu time    0.1720: real time    0.1730
     EDDAV:  cpu time    0.0860: real time    0.0864
       DOS:  cpu time    0.0010: real time    0.0005
    CHARGE:  cpu time    0.0250: real time    0.0251
    MIXING:  cpu time    0.0010: real time    0.0016
    --------------------------------------------
      LOOP:  cpu time    0.3190: real time    0.3370

 eigenvalue-minimisations  :   168
 total energy-change (2. order) :-0.1966642E-05  (-0.1210720E-06)
 number of electron       8.0000000 magnetization 
 augmentation part       -0.4558746 magnetization 

 Broyden mixing:
  rms(total) = 0.56189E-03    rms(broyden)= 0.56188E-03
  rms(prec ) = 0.57560E-03
  weight for this iteration     100.00

 eigenvalues of (default mixing * dielectric matrix)
  average eigenvalue GAMMA=   1.7374
  2.6896  2.2592  1.0004  1.0004

 Free energy of the ion-electron system (eV)
  ---------------------------------------------------
  alpha Z        PSCENC =         3.28850212
  Ewald energy   TEWEN  =      -226.83738630
  -Hartree energ DENC   =       -15.32618847
  -exchange      EXHF   =         0.00000000
  -V(xc)+E(xc)   XCENC  =       -18.04779731
  PAW double counting   =       842.36974052     -807.39174210
  entropy T*S    EENTRO =        -0.00000000
  eigenvalues    EBANDS =         5.02924262
  atomic energy  EATOM  =       206.13125414
  Solvation  Ediel_sol  =         0.00000000
  ---------------------------------------------------
  free energy    TOTEN  =       -10.78437478 eV

  energy without entropy =      -10.78437478  energy(sigma->0) =      -10.78437478


--------------------------------------------------------------------------------------------------------




--------------------------------------- Iteration      3(   6)  ---------------------------------------


    POTLOK:  cpu time    0.0320: real time    0.0407
    SETDIJ:  cpu time    0.1730: real time    0.1730
     EDDAV:  cpu time    0.0560: real time    0.0565
       DOS:  cpu time    0.0010: real time    0.0006
    --------------------------------------------
      LOOP:  cpu time    0.2610: real time    0.2707

 eigenvalue-minimisations  :    88
 total energy-change (2. order) :-0.4046501E-07  (-0.1936814E-08)
 number of electron       8.0000000 magnetization 
 augmentation part       -0.4558746 magnetization 

 Free energy of the ion-electron system (eV)
  ---------------------------------------------------
  alpha Z        PSCENC =         3.28850212
  Ewald energy   TEWEN  =      -226.83738630
  -Hartree energ DENC   =       -15.32642652
  -exchange      EXHF   =         0.00000000
  -V(xc)+E(xc)   XCENC  =       -18.04778662
  PAW double counting   =       842.70398083     -807.72595989
  entropy T*S    EENTRO =        -0.00000000
  eigenvalues    EBANDS =         5.02944742
  atomic energy  EATOM  =       206.13125414
  Solvation  Ediel_sol  =         0.00000000
  ---------------------------------------------------
  free energy    TOTEN  =       -10.78437482 eV

  energy without entropy =      -10.78437482  energy(sigma->0) =      -10.78437482


--------------------------------------------------------------------------------------------------------




 average (electrostatic) potential at core
  the test charge radii are     0.9892
  (the norm of the test charge is              1.0000)
       1 -83.4693       2 -83.4693
 
 
 
 E-fermi :   5.8698     XC(G=0):  -9.3106     alpha+bet :-11.7151

 Fermi energy:         5.8697679095

 k-point     1 :       0.0000    0.0000    0.0000
  band No.  band energies     occupation 
      1      -6.1882      2.00000
      2       5.6214      2.00000
      3       5.6214      2.00000
      4       5.6214      2.00000
      5       8.1705      0.00000
      6       8.1705      0.00000
      7       8.1705      0.00000
      8       8.7394      0.00000

 k-point     2 :       0.2000    0.0000    0.0000
  band No.  band energies     occupation 
      1      -5.6806      2.00000
      2       2.6383      2.00000
      3       5.0530      2.00000
      4       5.0530      2.00000
      5       7.7657      0.00000
      6       8.9589      0.00000
      7       8.9589      0.00000
      8      11.4884      0.00000

 k-point     3 :       0.4000   -0.0000    0.0000
  band No.  band energies     occupation 
      1      -4.3488      2.00000
      2      -0.5660      2.00000
      3       4.5128      2.00000
      4       4.5128      2.00000
      5       7.1627      0.00000
      6       9.0358      0.00000
      7       9.0358      0.00000
      8      13.4194      0.00000

 k-point     4 :       0.2000    0.2000    0.0000
  band No.  band energies     occupation 
      1      -5.5057      2.00000
      2       2.9852      2.00000
      3       4.1659      2.00000
      4       4.1659      2.00000
      5       7.0926      0.00000
      6       9.4669      0.00000
      7      10.4566      0.00000
      8      10.4566      0.00000

 k-point     5 :       0.4000    0.2000    0.0000
  band No.  band energies     occupation 
      1      -4.3878      2.00000
      2       0.3578      2.00000
      3       3.0434      2.00000
      4       3.6657      2.00000
      5       7.4038      0.00000
      6       9.6850      0.00000
      7      10.4751      0.00000
      8      11.0110      0.00000

 k-point     6 :      -0.4000    0.2000    0.0000
  band No.  band energies     occupation 
      1      -3.5278      2.00000
      2      -0.9994      2.00000
      3       2.2513      2.00000
      4       3.9403      2.00000
      5       7.6742      0.00000
      6      10.1627      0.00000
      7      10.3953      0.00000
      8      13.1089      0.00000

 k-point     7 :      -0.2000    0.2000    0.0000
  band No.  band energies     occupation 
      1      -4.8658      2.00000
      2       1.1742      2.00000
      3       2.6872      2.00000
      4       4.7893      2.00000
      5       8.4641      0.00000
      6       9.5789      0.00000
      7       9.8879      0.00000
      8      11.2688      0.00000

 k-point     8 :       0.4000    0.4000    0.0000
  band No.  band energies     occupation 
      1      -3.5275      2.00000
      2      -0.5154      2.00000
      3       2.9809      2.00000
      4       2.9809      2.00000
      5       6.2357      0.00000
      6       6.9673      0.00000
      7      14.0139      0.00000
      8      14.0139      0.00000

 k-point     9 :      -0.4000    0.4000    0.0000
  band No.  band energies     occupation 
      1      -2.3533      2.00000
      2      -1.7504      2.00000
      3       1.6520      2.00000
      4       3.0968      2.00000
      5       6.6812      0.00000
      6       8.7659      0.00000
      7      13.6083      0.00000
      8      14.1835      0.00000

 k-point    10 :      -0.4000    0.4000    0.2000
  band No.  band energies     occupation 
      1      -3.1015      2.00000
      2      -0.8924      2.00000
      3       1.7321      2.00000
      4       2.6986      2.00000
      5       8.9991      0.00000
      6       9.3981      0.00000
      7       9.9838      0.00000
      8      13.3161      0.00000


--------------------------------------------------------------------------------------------------------


 soft charge-density along one line, spin component           1
         0         1         2         3         4         5         6         7         8         9
 total charge-density along one line
 
 pseudopotential strength for first ion, spin component:           1
 18.436  25.722   0.000  -0.000   0.000   0.000  -0.000   0.000
 25.722  35.892   0.000  -0.000   0.000   0.000  -0.000   0.000
  0.000   0.000   4.181  -0.000  -0.000   7.791  -0.000  -0.000
 -0.000  -0.000  -0.000   4.181  -0.000  -0.000   7.791  -0.000
  0.000   0.000  -0.000  -0.000   4.181  -0.000  -0.000   7.791
  0.000   0.000   7.791  -0.000  -0.000  14.528  -0.000  -0.000
 -0.000  -0.000  -0.000   7.791  -0.000  -0.000  14.528  -0.000
  0.000   0.000  -0.000  -0.000   7.791  -0.000  -0.000  14.528
 total augmentation occupancy for first ion, spin component:           1
  5.527  -2.058  -0.000  -0.000   0.000  -0.000  -0.000  -0.000
 -2.058   0.872  -0.000  -0.000   0.000  -0.000   0.000  -0.000
 -0.000  -0.000   2.950   0.000   0.000  -0.663   0.000  -0.000
  0.000  -0.000  -0.000   2.950  -0.000   0.000  -0.663   0.000
 -0.000   0.000   0.000   0.000   2.950  -0.000   0.000  -0.663
  0.000  -0.000  -0.663   0.000  -0.000   0.158  -0.000   0.000
  0.000   0.000   0.000  -0.663  -0.000  -0.000   0.158  -0.000
 -0.000  -0.000  -0.000   0.000  -0.663   0.000  -0.000   0.158


------------------------ aborting loop because EDIFF is reached ----------------------------------------


    CHARGE:  cpu time    0.0250: real time    0.0247
    FORLOC:  cpu time    0.0010: real time    0.0017
    FORNL :  cpu time    0.0940: real time    0.0944
    STRESS:  cpu time    0.3589: real time    0.3588
    FORCOR:  cpu time    0.0300: real time    0.0311
    FORHAR:  cpu time    0.0060: real time    0.0060
    MIXING:  cpu time    0.0010: real time    0.0012
    OFIELD:  cpu time    0.0010: real time    0.0002

  FORCE on cell =-STRESS in cart. coord.  units (eV):
  Direction    XX          YY          ZZ          XY          YZ          ZX
  --------------------------------------------------------------------------------------
  Alpha Z     3.28850     3.28850     3.28850
  Ewald     -75.61248   -75.61255   -75.61246     0.00001    -0.00000     0.00000
  Hartree     5.10870     5.10870     5.10870     0.00000     0.00000     0.00000
  E(xc)     -25.26220   -25.26220   -25.26220    -0.00000    -0.00000    -0.00000
  Local     -29.62646   -29.62644   -29.62644    -0.00000     0.00001     0.00001
  n-local    73.43999    76.84260    81.63559    -1.01381    -0.31490     0.01906
  augment   -11.58587   -11.58587   -11.58588    -0.00000    -0.00001    -0.00001
  Kinetic    52.67876    55.20905    61.26858     0.64554     0.57900    -0.48377
  Fock        0.00000     0.00000     0.00000     0.00000     0.00000     0.00000
  -------------------------------------------------------------------------------------
  Total       0.00171     0.00171     0.00171     0.00000     0.00000     0.00000
  in kB       0.06702     0.06702     0.06702     0.00000     0.00000     0.00000
  external pressure =        0.07 kB  Pullay stress =        0.00 kB


 VOLUME and BASIS-vectors are now :
 -----------------------------------------------------------------------------
  energy-cutoff  :      350.00
  volume of cell :       40.95
      direct lattice vectors                 reciprocal lattice vectors
     3.350485302  0.000000000  1.934403318     0.298464225 -0.105522997 -0.000000000
     1.116828434  3.158869090  1.934403318    -0.000000000  0.316568991 -0.000000000
     0.000000000  0.000000000  3.868806636    -0.149232113 -0.105522997  0.258477638

  length of vectors
     3.868807045  3.868808069  3.868806636     0.316569103  0.316568991  0.316569132


 FORCES acting on ions
    electron-ion (+dipol)            ewald-force                    non-local-force                 convergence-correction
 -----------------------------------------------------------------------------------------------
   0.530E-05 0.247E-04 0.632E-07   -.892E-05 -.418E-04 0.111E-14   -.175E-15 0.208E-16 0.243E-15   -.501E-07 -.351E-07 -.869E-07
   -.530E-05 -.247E-04 -.632E-07   0.892E-05 0.418E-04 -.123E-14   0.816E-16 0.209E-16 -.146E-15   0.501E-07 0.351E-07 0.869E-07
 -----------------------------------------------------------------------------------------------
   0.417E-13 -.477E-13 0.127E-12   0.288E-15 -.409E-16 -.118E-15   -.937E-16 0.416E-16 0.971E-16   0.116E-14 -.289E-15 -.163E-15
 
 
 POSITION                                       TOTAL-FORCE (eV/Angst)
 -----------------------------------------------------------------------------------
      3.90890      2.76401      6.77041         0.000000      0.000000      0.000000
      0.55841      0.39486      0.96720        -0.000000     -0.000000     -0.000000
 -----------------------------------------------------------------------------------
    total drift:                                0.000000     -0.000000      0.000000


--------------------------------------------------------------------------------------------------------



  FREE ENERGIE OF THE ION-ELECTRON SYSTEM (eV)
  ---------------------------------------------------
  free  energy   TOTEN  =       -10.78437482 eV

  energy  without entropy=      -10.78437482  energy(sigma->0) =      -10.78437482
 
 d Force = 0.0000000E+00[ 0.000E+00, 0.000E+00]  d Energy = 0.1276443E-02-0.128E-02
 d Force = 0.0000000E+00[ 0.000E+00, 0.000E+00]  d Ewald  = 0.8017523E+00-0.802E+00


--------------------------------------------------------------------------------------------------------


    POTLOK:  cpu time    0.2060: real time    0.2137


--------------------------------------------------------------------------------------------------------




--------------------------------------------------------------------------------------------------------


  
 reached required accuracy - stopping structural energy minimisation
     LOOP+:  cpu time    2.7816: real time    2.9008
    4ORBIT:  cpu time    0.0000: real time    0.0000

 total amount of memory used by VASP MPI-rank0    36720. kBytes
=======================================================================

   base      :      30000. kBytes
   nonl-proj :        411. kBytes
   fftplans  :       4177. kBytes
   grid      :       1926. kBytes
   one-center:          6. kBytes
   wavefun   :        200. kBytes
 
  
  
 General timing and accounting informations for this job:
 ========================================================
  
                  Total CPU time used (sec):        9.979
                            User time (sec):        9.684
                          System time (sec):        0.296
                         Elapsed time (sec):       10.910
  
                   Maximum memory used (kb):       57920.
                   Average memory used (kb):          N/A
  
                          Minor page faults:        13382
                          Major page faults:            1
                 Voluntary context switches:         9097
