<?xml version="1.0" encoding="ISO-8859-1"?>
<modeling>
 <generator>
  <i name="program" type="string">vasp </i>
  <i name="version" type="string">6.2.0  </i>
  <i name="subversion" type="string">18Jan21 (build Aug 12 2022 13:00:08) complex                          parallel </i>
  <i name="platform" type="string">LinuxIFC </i>
  <i name="date" type="string">2024 11 03 </i>
  <i name="time" type="string">21:52:54 </i>
 </generator>
 <incar>
  <i type="int" name="ISTART">     0</i>
  <i type="string" name="PREC">Accurate      (Accurate strictly avoids</i>
  <i type="logical" name="ADDGRID"> T  </i>
  <i type="int" name="ISPIN">     1</i>
  <i type="int" name="NELM">    90</i>
  <i type="int" name="NELMIN">     6</i>
  <i type="int" name="IBRION">     2</i>
  <i name="EDIFF">      0.00000100</i>
  <i name="EDIFFG">     -0.00200000</i>
  <i type="int" name="NSW">   100</i>
  <i type="int" name="ISIF">     3</i>
  <i type="int" name="ISYM">     2</i>
  <i name="ENCUT">    350.00000000</i>
  <i type="logical" name="LREAL"> F  </i>
  <i type="int" name="ISMEAR">     0</i>
  <i name="SIGMA">      0.05000000</i>
  <i type="logical" name="LWAVE"> F  </i>
  <i type="logical" name="LCHARG"> F  </i>
  <i type="logical" name="LASPH"> T  </i>
 </incar>
 <primitive_cell>
  <structure name="primitive_cell" >
   <crystal>
    <varray name="basis" >
     <v>       3.33357300       0.00000000       1.92463900 </v>
     <v>       1.11119100       3.14292400       1.92463900 </v>
     <v>       0.00000000       0.00000000       3.84927800 </v>
    </varray>
    <i name="volume">     40.32952685 </i>
    <varray name="rec_basis" >
     <v>       0.29997843      -0.10605835       0.00000000 </v>
     <v>       0.00000000       0.31817505       0.00000000 </v>
     <v>      -0.14998922      -0.10605835       0.25978898 </v>
    </varray>
   </crystal>
   <varray name="positions" >
    <v>       0.87500000       0.87500000       0.87500000 </v>
    <v>       0.12500000       0.12500000       0.12500000 </v>
   </varray>
  </structure>
  <varray name="primitive_index" >
   <v type="int" >        1 </v>
   <v type="int" >        2 </v>
  </varray>
 </primitive_cell>
 <kpoints>
  <generation param="Monkhorst-Pack">
   <v type="int" name="divisions">       5        5        5 </v>
   <v name="usershift">      0.00000000       0.00000000       0.00000000 </v>
   <v name="genvec1">      0.20000000       0.00000000       0.00000000 </v>
   <v name="genvec2">      0.00000000       0.20000000       0.00000000 </v>
   <v name="genvec3">      0.00000000       0.00000000       0.20000000 </v>
   <v name="shift">      0.00000000       0.00000000       0.00000000 </v>
  </generation>
  <varray name="kpointlist" >
   <v>       0.00000000       0.00000000       0.00000000 </v>
   <v>       0.20000000       0.00000000       0.00000000 </v>
   <v>       0.40000000      -0.00000000       0.00000000 </v>
   <v>       0.20000000       0.20000000       0.00000000 </v>
   <v>       0.40000000       0.20000000       0.00000000 </v>
   <v>      -0.40000000       0.20000000       0.00000000 </v>
   <v>      -0.20000000       0.20000000       0.00000000 </v>
   <v>       0.40000000       0.40000000       0.00000000 </v>
   <v>      -0.40000000       0.40000000       0.00000000 </v>
   <v>      -0.40000000       0.40000000       0.20000000 </v>
  </varray>
  <varray name="weights" >
   <v>       0.00800000 </v>
   <v>       0.06400000 </v>
   <v>       0.06400000 </v>
   <v>       0.04800000 </v>
   <v>       0.19200000 </v>
   <v>       0.19200000 </v>
   <v>       0.09600000 </v>
   <v>       0.04800000 </v>
   <v>       0.09600000 </v>
   <v>       0.19200000 </v>
  </varray>
 </kpoints>
 <parameters>
  <separator name="general" >
   <i type="string" name="SYSTEM">unknown system</i>
   <i type="logical" name="LCOMPAT"> F  </i>
  </separator>
  <separator name="electronic" >
   <i type="string" name="PREC">accura</i>
   <i name="ENMAX">    350.00000000</i>
   <i name="ENAUG">    322.06900000</i>
   <i name="EDIFF">      0.00000100</i>
   <i type="int" name="IALGO">    38</i>
   <i type="int" name="IWAVPR">    11</i>
   <i type="int" name="NBANDS">     8</i>
   <i type="int" name="NBANDSLOW">    -1</i>
   <i type="int" name="NBANDSHIGH">    -1</i>
   <i name="NELECT">      8.00000000</i>
   <i type="int" name="TURBO">     0</i>
   <i type="int" name="IRESTART">     0</i>
   <i type="int" name="NREBOOT">     0</i>
   <i type="int" name="NMIN">     0</i>
   <i name="EREF">      0.00000000</i>
   <separator name="electronic smearing" >
    <i type="int" name="ISMEAR">     0</i>
    <i name="SIGMA">      0.05000000</i>
    <i name="KSPACING">      0.50000000</i>
    <i type="logical" name="KGAMMA"> T  </i>
    <i type="logical" name="KBLOWUP"> T  </i>
   </separator>
   <separator name="electronic projectors" >
    <i type="logical" name="LREAL"> F  </i>
    <v name="ROPT">      0.00000000</v>
    <i type="int" name="LMAXPAW">  -100</i>
    <i type="int" name="LMAXMIX">     2</i>
    <i type="logical" name="NLSPLINE"> F  </i>
   </separator>
   <separator name="electronic startup" >
    <i type="int" name="ISTART">     0</i>
    <i type="int" name="ICHARG">     2</i>
    <i type="int" name="INIWAV">     1</i>
   </separator>
   <separator name="electronic spin" >
    <i type="int" name="ISPIN">     1</i>
    <i type="logical" name="LNONCOLLINEAR"> F  </i>
    <v name="MAGMOM">      1.00000000      1.00000000</v>
    <i name="NUPDOWN">     -1.00000000</i>
    <i type="logical" name="LSORBIT"> F  </i>
    <v name="SAXIS">      0.00000000      0.00000000      1.00000000</v>
    <i type="logical" name="LSPIRAL"> F  </i>
    <v name="QSPIRAL">      0.00000000      0.00000000      0.00000000</v>
    <i type="logical" name="LZEROZ"> F  </i>
   </separator>
   <separator name="electronic exchange-correlation" >
    <i type="logical" name="LASPH"> T  </i>
    <i type="logical" name="LMETAGGA"> F  </i>
   </separator>
   <separator name="electronic convergence" >
    <i type="int" name="NELM">    90</i>
    <i type="int" name="NELMDL">    -5</i>
    <i type="int" name="NELMIN">     6</i>
    <i name="ENINI">    350.00000000</i>
    <separator name="electronic convergence detail" >
     <i type="logical" name="LDIAG"> T  </i>
     <i type="logical" name="LSUBROT"> F  </i>
     <i name="WEIMIN">      0.00100000</i>
     <i name="EBREAK">      0.00000003</i>
     <i name="DEPER">      0.30000000</i>
     <i type="int" name="NRMM">     4</i>
     <i name="TIME">      0.40000000</i>
    </separator>
   </separator>
   <separator name="electronic mixer" >
    <i name="AMIX">      0.40000000</i>
    <i name="BMIX">      1.00000000</i>
    <i name="AMIN">      0.10000000</i>
    <i name="AMIX_MAG">      1.60000000</i>
    <i name="BMIX_MAG">      1.00000000</i>
    <separator name="electronic mixer details" >
     <i type="int" name="IMIX">     4</i>
     <i type="logical" name="MIXFIRST"> F  </i>
     <i type="int" name="MAXMIX">   -45</i>
     <i name="WC">    100.00000000</i>
     <i type="int" name="INIMIX">     1</i>
     <i type="int" name="MIXPRE">     1</i>
     <i type="int" name="MREMOVE">     5</i>
    </separator>
   </separator>
   <separator name="electronic dipolcorrection" >
    <i type="logical" name="LDIPOL"> F  </i>
    <i type="logical" name="LMONO"> F  </i>
    <i type="int" name="IDIPOL">     0</i>
    <i name="EPSILON">      1.00000000</i>
    <v name="DIPOL">   -100.00000000   -100.00000000   -100.00000000</v>
    <i name="EFIELD">      0.00000000</i>
   </separator>
  </separator>
  <separator name="grids" >
   <i type="int" name="NGX">    24</i>
   <i type="int" name="NGY">    24</i>
   <i type="int" name="NGZ">    24</i>
   <i type="int" name="NGXF">    48</i>
   <i type="int" name="NGYF">    48</i>
   <i type="int" name="NGZF">    48</i>
   <i type="logical" name="ADDGRID"> T  </i>
  </separator>
  <separator name="ionic" >
   <i type="int" name="NSW">   100</i>
   <i type="int" name="IBRION">     2</i>
   <i type="int" name="MDALGO">     0</i>
   <i type="int" name="ISIF">     3</i>
   <i name="PSTRESS">      0.00000000</i>
   <i name="EDIFFG">     -0.00200000</i>
   <i type="int" name="NFREE">     1</i>
   <i name="POTIM">      0.50000000</i>
   <i name="SMASS">     -3.00000000</i>
   <i name="SCALEE">      1.00000000</i>
  </separator>
  <separator name="ionic md" >
   <i name="TEBEG">      0.00010000</i>
   <i name="TEEND">      0.00010000</i>
   <i type="int" name="NBLOCK">     1</i>
   <i type="int" name="KBLOCK">   100</i>
   <i type="int" name="NPACO">   256</i>
   <i name="APACO">     16.00000000</i>
  </separator>
  <separator name="symmetry" >
   <i type="int" name="ISYM">     2</i>
   <i name="SYMPREC">      0.00001000</i>
  </separator>
  <separator name="dos" >
   <i type="int" name="LORBIT">     0</i>
   <v name="RWIGS">     -1.00000000</v>
   <i type="int" name="NEDOS">   301</i>
   <i name="EMIN">     10.00000000</i>
   <i name="EMAX">    -10.00000000</i>
   <i name="EFERMI">      0.00000000</i>
  </separator>
  <separator name="writing" >
   <i type="int" name="NWRITE">     2</i>
   <i type="logical" name="LWAVE"> F  </i>
   <i type="logical" name="LDOWNSAMPLE"> F  </i>
   <i type="logical" name="LCHARG"> F  </i>
   <i type="logical" name="LPARD"> F  </i>
   <i type="logical" name="LVTOT"> F  </i>
   <i type="logical" name="LVHAR"> F  </i>
   <i type="logical" name="LELF"> F  </i>
   <i type="logical" name="LOPTICS"> F  </i>
   <v name="STM">      0.00000000      0.00000000      0.00000000      0.00000000      0.00000000      0.00000000      0.00000000</v>
  </separator>
  <separator name="performance" >
   <i type="int" name="NPAR">     4</i>
   <i type="int" name="NSIM">     4</i>
   <i type="int" name="NBLK">    -1</i>
   <i type="logical" name="LPLANE"> T  </i>
   <i type="logical" name="LSCALAPACK"> T  </i>
   <i type="logical" name="LSCAAWARE"> F  </i>
   <i type="logical" name="LSCALU"> F  </i>
   <i type="logical" name="LASYNC"> F  </i>
   <i type="logical" name="LORBITALREAL"> F  </i>
  </separator>
  <separator name="miscellaneous" >
   <i type="int" name="IDIOT">     3</i>
   <i type="int" name="PHON_NSTRUCT">    -1</i>
   <i type="logical" name="LMUSIC"> F  </i>
   <v name="POMASS">     28.08500000</v>
   <v name="DARWINR">      0.00000000</v>
   <v name="DARWINV">      1.00000000</v>
   <i type="logical" name="LCORR"> T  </i>
  </separator>
  <i type="logical" name="GGA_COMPAT"> T  </i>
  <i type="logical" name="LBERRY"> F  </i>
  <i type="int" name="ICORELEVEL">     0</i>
  <i type="logical" name="LDAU"> F  </i>
  <i type="int" name="I_CONSTRAINED_M">     0</i>
  <separator name="electronic exchange-correlation" >
   <i type="string" name="GGA">--</i>
   <i type="int" name="VOSKOWN">     0</i>
   <i type="logical" name="LHFCALC"> F  </i>
   <i type="string" name="PRECFOCK"></i>
   <i type="logical" name="LSYMGRAD"> F  </i>
   <i type="logical" name="LHFONE"> F  </i>
   <i type="logical" name="LRHFCALC"> F  </i>
   <i type="logical" name="LTHOMAS"> F  </i>
   <i type="logical" name="LMODELHF"> F  </i>
   <i type="logical" name="LFOCKACE"> F  </i>
   <i name="ENCUT4O">     -1.00000000</i>
   <i type="int" name="EXXOEP">     0</i>
   <i type="int" name="FOURORBIT">     0</i>
   <i name="AEXX">      0.00000000</i>
   <i name="HFALPHA">      0.00000000</i>
   <i name="MCALPHA">      0.00000000</i>
   <i name="ALDAX">      1.00000000</i>
   <i name="AGGAX">      1.00000000</i>
   <i name="ALDAC">      1.00000000</i>
   <i name="AGGAC">      1.00000000</i>
   <i type="int" name="NKREDX">     1</i>
   <i type="int" name="NKREDY">     1</i>
   <i type="int" name="NKREDZ">     1</i>
   <i type="logical" name="SHIFTRED"> F  </i>
   <i type="logical" name="ODDONLY"> F  </i>
   <i type="logical" name="EVENONLY"> F  </i>
   <i type="int" name="LMAXFOCK">     0</i>
   <i type="int" name="NMAXFOCKAE">     0</i>
   <i type="logical" name="LFOCKAEDFT"> F  </i>
   <i name="HFSCREEN">      0.00000000</i>
   <i name="HFSCREENC">      0.00000000</i>
   <i type="int" name="NBANDSGWLOW">     0</i>
  </separator>
  <separator name="vdW DFT" >
   <i type="logical" name="LUSE_VDW"> F  </i>
   <i name="Zab_VDW">     -0.84910000</i>
   <i name="PARAM1">      0.12340000</i>
   <i name="PARAM2">      1.00000000</i>
   <i name="PARAM3">      0.00000000</i>
  </separator>
  <separator name="model GW" >
   <i type="int" name="MODEL_GW">     0</i>
   <i name="MODEL_EPS0">     12.09885805</i>
   <i name="MODEL_ALPHA">      1.00000000</i>
  </separator>
  <separator name="linear response parameters" >
   <i type="logical" name="LEPSILON"> F  </i>
   <i type="logical" name="LRPA"> F  </i>
   <i type="logical" name="LNABLA"> F  </i>
   <i type="logical" name="LVEL"> F  </i>
   <i type="int" name="KINTER">     0</i>
   <i name="CSHIFT">      0.10000000</i>
   <i name="OMEGAMAX">     -1.00000000</i>
   <i name="DEG_THRESHOLD">      0.00200000</i>
   <i name="RTIME">     -0.10000000</i>
   <i name="WPLASMAI">      0.00000000</i>
   <v name="DFIELD">      0.00000000      0.00000000      0.00000000</v>
   <v name="WPLASMA">      0.00000000      0.00000000      0.00000000      0.00000000      0.00000000      0.00000000      0.00000000      0.00000000      0.00000000</v>
  </separator>
  <separator name="orbital magnetization" >
   <i type="logical" name="NUCIND"> F  </i>
   <v name="MAGPOS">      0.00000000      0.00000000      0.00000000</v>
   <i type="logical" name="LNICSALL"> T  </i>
   <i type="logical" name="ORBITALMAG"> F  </i>
   <i type="logical" name="LMAGBLOCH"> F  </i>
   <i type="logical" name="LCHIMAG"> F  </i>
   <i type="logical" name="LGAUGE"> T  </i>
   <i type="int" name="MAGATOM">     0</i>
   <v name="MAGDIPOL">      0.00000000      0.00000000      0.00000000</v>
   <v name="AVECCONST">      0.00000000      0.00000000      0.00000000</v>
  </separator>
  <separator name="response functions" >
   <i type="logical" name="LFINITE_TEMPERATURE"> F  </i>
   <i type="logical" name="LADDER"> F  </i>
   <i type="logical" name="LRPAFORCE"> F  </i>
   <i type="logical" name="LFXC"> F  </i>
   <i type="logical" name="LHARTREE"> T  </i>
   <i type="int" name="IBSE">     0</i>
   <v type="int" name="KPOINT">    -1     0     0     0</v>
   <i type="logical" name="LTCTC"> F  </i>
   <i type="logical" name="LTCTE"> F  </i>
   <i type="logical" name="LTETE"> F  </i>
   <i type="logical" name="LTRIPLET"> F  </i>
   <i type="logical" name="LFXCEPS"> F  </i>
   <i type="logical" name="LFXHEG"> F  </i>
   <i type="int" name="NATURALO">     2</i>
   <i type="logical" name="LHOLEGF"> F  </i>
   <i type="logical" name="L2ORDER"> F  </i>
   <i type="logical" name="LDMP1"> F  </i>
   <i type="logical" name="LMP2LT"> F  </i>
   <i type="logical" name="LSMP2LT"> F  </i>
   <i type="logical" name="LGWLF"> F  </i>
   <i name="ENCUTGW">     -2.00000000</i>
   <i name="ENCUTGWSOFT">     -2.00000000</i>
   <i name="ENCUTLF">     -1.00000000</i>
   <i type="logical" name="LESF_SPLINES"> F  </i>
   <i type="int" name="LMAXMP2">    -1</i>
   <i name="SCISSOR">      0.00000000</i>
   <i type="int" name="NOMEGA">     0</i>
   <i type="int" name="NOMEGAR">     0</i>
   <i type="int" name="NBANDSGW">    -1</i>
   <i type="int" name="NBANDSO">    -1</i>
   <i type="int" name="NBANDSV">    -1</i>
   <i type="int" name="NELM">    90</i>
   <i type="int" name="NELMHF">     1</i>
   <i type="int" name="DIM">     3</i>
   <i type="int" name="IESPILON">     4</i>
   <i type="int" name="ANTIRES">     0</i>
   <i name="OMEGAMAX">    -30.00000000</i>
   <i name="OMEGAMIN">    -30.00000000</i>
   <i name="OMEGATL">   -200.00000000</i>
   <i type="int" name="OMEGAGRID">     0</i>
   <i name="CSHIFT">     -0.10000000</i>
   <i type="logical" name="LSELFENERGY"> F  </i>
   <i type="logical" name="LSPECTRAL"> F  </i>
   <i type="logical" name="LSPECTRALGW"> F  </i>
   <i type="logical" name="LSINGLES"> F  </i>
   <i type="logical" name="LFERMIGW"> F  </i>
   <i type="logical" name="ODDONLYGW"> F  </i>
   <i type="logical" name="EVENONLYGW"> F  </i>
   <i type="int" name="NKREDLFX">     1</i>
   <i type="int" name="NKREDLFY">     1</i>
   <i type="int" name="NKREDLFZ">     1</i>
   <i type="int" name="MAXMEM">  2800</i>
   <i type="int" name="TELESCOPE">     0</i>
   <i type="int" name="NTAUPAR">    -1</i>
   <i type="int" name="NOMEGAPAR">    -1</i>
   <i name="DAMP_NEWTON">      0.80000001</i>
   <i name="LAMBDA">      1.00000000</i>
  </separator>
  <separator name="External order field" >
   <i name="OFIELD_KAPPA">      0.00000000</i>
   <v name="OFIELD_K">      0.00000000      0.00000000      0.00000000</v>
   <i name="OFIELD_Q6_NEAR">      0.00000000</i>
   <i name="OFIELD_Q6_FAR">      0.00000000</i>
   <i name="OFIELD_A">      0.00000000</i>
  </separator>
 </parameters>
 <atominfo>
  <atoms>       2 </atoms>
  <types>       1 </types>
  <array name="atoms" >
   <dimension dim="1">ion</dimension>
   <field type="string">element</field>
   <field type="int">atomtype</field>
   <set>
    <rc><c>Si</c><c>   1</c></rc>
    <rc><c>Si</c><c>   1</c></rc>
   </set>
  </array>
  <array name="atomtypes" >
   <dimension dim="1">type</dimension>
   <field type="int">atomspertype</field>
   <field type="string">element</field>
   <field>mass</field>
   <field>valence</field>
   <field type="string">pseudopotential</field>
   <set>
    <rc><c>   2</c><c>Si</c><c>     28.08500000</c><c>      4.00000000</c><c>  PAW_PBE Si 05Jan2001                  </c></rc>
   </set>
  </array>
 </atominfo>
 <structure name="initialpos" >
  <crystal>
   <varray name="basis" >
    <v>       3.33357300       0.00000000       1.92463900 </v>
    <v>       1.11119100       3.14292400       1.92463900 </v>
    <v>       0.00000000       0.00000000       3.84927800 </v>
   </varray>
   <i name="volume">     40.32952685 </i>
   <varray name="rec_basis" >
    <v>       0.29997843      -0.10605835       0.00000000 </v>
    <v>       0.00000000       0.31817505       0.00000000 </v>
    <v>      -0.14998922      -0.10605835       0.25978898 </v>
   </varray>
  </crystal>
  <varray name="positions" >
   <v>       0.87500000       0.87500000       0.87500000 </v>
   <v>       0.12500000       0.12500000       0.12500000 </v>
  </varray>
 </structure>
 <calculation>
  <scstep>
   <time name="dav">    0.09    0.09</time>
   <time name="total">    0.30    0.30</time>
   <energy>
    <i name="alphaZ">      3.33880741 </i>
    <i name="ewald">   -227.98820643 </i>
    <i name="hartreedc">    -11.11484531 </i>
    <i name="XCdc">    -18.63153637 </i>
    <i name="pawpsdc">    176.24759923 </i>
    <i name="pawaedc">   -141.06103558 </i>
    <i name="eentropy">     -0.00145228 </i>
    <i name="bandstr">     14.18448614 </i>
    <i name="atom">    206.13125414 </i>
    <i name="e_fr_energy">      1.10507095 </i>
    <i name="e_wo_entrp">      1.10652323 </i>
    <i name="e_0_energy">      1.10579709 </i>
   </energy>
  </scstep>
  <scstep>
   <time name="dav">    0.12    0.13</time>
   <time name="total">    0.12    0.13</time>
   <energy>
    <i name="e_fr_energy">    -10.80535405 </i>
    <i name="e_wo_entrp">    -10.80535405 </i>
    <i name="e_0_energy">    -10.80535405 </i>
   </energy>
  </scstep>
  <scstep>
   <time name="dav">    0.11    0.12</time>
   <time name="total">    0.11    0.12</time>
   <energy>
    <i name="e_fr_energy">    -10.96631941 </i>
    <i name="e_wo_entrp">    -10.96631941 </i>
    <i name="e_0_energy">    -10.96631941 </i>
   </energy>
  </scstep>
  <scstep>
   <time name="dav">    0.12    0.13</time>
   <time name="total">    0.12    0.13</time>
   <energy>
    <i name="e_fr_energy">    -10.96679451 </i>
    <i name="e_wo_entrp">    -10.96679451 </i>
    <i name="e_0_energy">    -10.96679451 </i>
   </energy>
  </scstep>
  <scstep>
   <time name="dav">    0.12    0.13</time>
   <time name="total">    0.15    0.16</time>
   <energy>
    <i name="e_fr_energy">    -10.96679510 </i>
    <i name="e_wo_entrp">    -10.96679510 </i>
    <i name="e_0_energy">    -10.96679510 </i>
   </energy>
  </scstep>
  <scstep>
   <time name="dav">    0.10    0.10</time>
   <time name="total">    0.34    0.35</time>
   <energy>
    <i name="e_fr_energy">    -10.83873781 </i>
    <i name="e_wo_entrp">    -10.83873781 </i>
    <i name="e_0_energy">    -10.83873781 </i>
   </energy>
  </scstep>
  <scstep>
   <time name="dav">    0.09    0.09</time>
   <time name="total">    0.33    0.34</time>
   <energy>
    <i name="e_fr_energy">    -10.78017193 </i>
    <i name="e_wo_entrp">    -10.78017193 </i>
    <i name="e_0_energy">    -10.78017193 </i>
   </energy>
  </scstep>
  <scstep>
   <time name="dav">    0.11    0.11</time>
   <time name="total">    0.34    0.36</time>
   <energy>
    <i name="e_fr_energy">    -10.78143174 </i>
    <i name="e_wo_entrp">    -10.78143174 </i>
    <i name="e_0_energy">    -10.78143174 </i>
   </energy>
  </scstep>
  <scstep>
   <time name="dav">    0.10    0.10</time>
   <time name="total">    0.33    0.34</time>
   <energy>
    <i name="e_fr_energy">    -10.78165582 </i>
    <i name="e_wo_entrp">    -10.78165582 </i>
    <i name="e_0_energy">    -10.78165582 </i>
   </energy>
  </scstep>
  <scstep>
   <time name="dav">    0.10    0.10</time>
   <time name="total">    0.34    0.35</time>
   <energy>
    <i name="e_fr_energy">    -10.78168572 </i>
    <i name="e_wo_entrp">    -10.78168572 </i>
    <i name="e_0_energy">    -10.78168572 </i>
   </energy>
  </scstep>
  <scstep>
   <time name="dav">    0.11    0.11</time>
   <time name="total">    0.32    0.33</time>
   <energy>
    <i name="alphaZ">      3.33880741 </i>
    <i name="ewald">   -227.98820643 </i>
    <i name="hartreedc">    -15.14399283 </i>
    <i name="XCdc">    -17.97849713 </i>
    <i name="pawpsdc">    870.89611988 </i>
    <i name="pawaedc">   -835.93129800 </i>
    <i name="eentropy">     -0.00000000 </i>
    <i name="bandstr">      5.89412723 </i>
    <i name="atom">    206.13125414 </i>
    <i name="e_fr_energy">    -10.78168572 </i>
    <i name="e_wo_entrp">    -10.78168572 </i>
    <i name="e_0_energy">    -10.78168572 </i>
   </energy>
  </scstep>
  <structure>
   <crystal>
    <varray name="basis" >
     <v>       3.33357300       0.00000000       1.92463900 </v>
     <v>       1.11119100       3.14292400       1.92463900 </v>
     <v>       0.00000000       0.00000000       3.84927800 </v>
    </varray>
    <i name="volume">     40.32952685 </i>
    <varray name="rec_basis" >
     <v>       0.29997843      -0.10605835       0.00000000 </v>
     <v>       0.00000000       0.31817505       0.00000000 </v>
     <v>      -0.14998922      -0.10605835       0.25978898 </v>
    </varray>
   </crystal>
   <varray name="positions" >
    <v>       0.87500000       0.87500000       0.87500000 </v>
    <v>       0.12500000       0.12500000       0.12500000 </v>
   </varray>
  </structure>
  <varray name="forces" >
   <v>      -0.00000000      -0.00000000       0.00000000 </v>
   <v>       0.00000000       0.00000000      -0.00000000 </v>
  </varray>
  <varray name="stress" >
   <v>      14.22710141       0.00000000       0.00000000 </v>
   <v>       0.00000000      14.22711259      -0.00000000 </v>
   <v>       0.00000000       0.00000000      14.22709743 </v>
  </varray>
  <energy>
   <i name="e_fr_energy">    -10.78168572 </i>
   <i name="e_wo_entrp">    -10.78168572 </i>
   <i name="e_0_energy">    -10.78168572 </i>
  </energy>
  <time name="totalsc">    3.74    3.89</time>
 </calculation>
 <calculation>
  <scstep>
   <time name="dav">    0.11    0.11</time>
   <time name="total">    0.34    0.35</time>
   <energy>
    <i name="alphaZ">      3.25375578 </i>
    <i name="ewald">   -226.03563401 </i>
    <i name="hartreedc">    -15.01597027 </i>
    <i name="XCdc">    -18.10472605 </i>
    <i name="pawpsdc">    870.75906885 </i>
    <i name="pawaedc">   -835.79429616 </i>
    <i name="eentropy">     -0.00000000 </i>
    <i name="bandstr">      4.01980262 </i>
    <i name="atom">    206.13125414 </i>
    <i name="e_fr_energy">    -10.78674508 </i>
    <i name="e_wo_entrp">    -10.78674508 </i>
    <i name="e_0_energy">    -10.78674508 </i>
   </energy>
  </scstep>
  <scstep>
   <time name="dav">    0.11    0.11</time>
   <time name="total">    0.34    0.35</time>
   <energy>
    <i name="e_fr_energy">    -10.78437433 </i>
    <i name="e_wo_entrp">    -10.78437433 </i>
    <i name="e_0_energy">    -10.78437433 </i>
   </energy>
  </scstep>
  <scstep>
   <time name="dav">    0.09    0.09</time>
   <time name="total">    0.32    0.33</time>
   <energy>
    <i name="e_fr_energy">    -10.78310358 </i>
    <i name="e_wo_entrp">    -10.78310358 </i>
    <i name="e_0_energy">    -10.78310358 </i>
   </energy>
  </scstep>
  <scstep>
   <time name="dav">    0.10    0.10</time>
   <time name="total">    0.33    0.35</time>
   <energy>
    <i name="e_fr_energy">    -10.78310435 </i>
    <i name="e_wo_entrp">    -10.78310435 </i>
    <i name="e_0_energy">    -10.78310435 </i>
   </energy>
  </scstep>
  <scstep>
   <time name="dav">    0.09    0.09</time>
   <time name="total">    0.32    0.34</time>
   <energy>
    <i name="e_fr_energy">    -10.78309840 </i>
    <i name="e_wo_entrp">    -10.78309840 </i>
    <i name="e_0_energy">    -10.78309840 </i>
   </energy>
  </scstep>
  <scstep>
   <time name="dav">    0.08    0.08</time>
   <time name="total">    0.29    0.30</time>
   <energy>
    <i name="alphaZ">      3.25375578 </i>
    <i name="ewald">   -226.03563401 </i>
    <i name="hartreedc">    -15.45238380 </i>
    <i name="XCdc">    -18.09610119 </i>
    <i name="pawpsdc">    826.12102011 </i>
    <i name="pawaedc">   -791.13379242 </i>
    <i name="eentropy">     -0.00000000 </i>
    <i name="bandstr">      4.42878301 </i>
    <i name="atom">    206.13125414 </i>
    <i name="e_fr_energy">    -10.78309837 </i>
    <i name="e_wo_entrp">    -10.78309837 </i>
    <i name="e_0_energy">    -10.78309837 </i>
   </energy>
  </scstep>
  <structure>
   <crystal>
    <varray name="basis" >
     <v>       3.36236953       0.00000000       1.94126468 </v>
     <v>       1.12078984       3.17007366       1.94126468 </v>
     <v>       0.00000000       0.00000000       3.88252935 </v>
    </varray>
    <i name="volume">     41.38372149 </i>
    <varray name="rec_basis" >
     <v>       0.29740931      -0.10515003      -0.00000000 </v>
     <v>      -0.00000000       0.31545008      -0.00000000 </v>
     <v>      -0.14870465      -0.10515003       0.25756405 </v>
    </varray>
   </crystal>
   <varray name="positions" >
    <v>       0.87500000       0.87500000       0.87500000 </v>
    <v>       0.12500000       0.12500000       0.12500000 </v>
   </varray>
  </structure>
  <varray name="forces" >
   <v>       0.00000000       0.00000000       0.00000000 </v>
   <v>      -0.00000000      -0.00000000      -0.00000000 </v>
  </varray>
  <varray name="stress" >
   <v>      -9.22891305      -0.00000000      -0.00000000 </v>
   <v>      -0.00000000      -9.22892043       0.00000000 </v>
   <v>      -0.00000000       0.00000000      -9.22891043 </v>
  </varray>
  <energy>
   <i name="e_fr_energy">    -10.78309837 </i>
   <i name="e_wo_entrp">    -10.78309837 </i>
   <i name="e_0_energy">    -10.78309837 </i>
  </energy>
  <time name="totalsc">    2.87    3.00</time>
 </calculation>
 <calculation>
  <scstep>
   <time name="dav">    0.08    0.08</time>
   <time name="total">    0.32    0.32</time>
   <energy>
    <i name="alphaZ">      3.28850212 </i>
    <i name="ewald">   -226.83738630 </i>
    <i name="hartreedc">    -15.50810977 </i>
    <i name="XCdc">    -18.04448351 </i>
    <i name="pawpsdc">    823.86143361 </i>
    <i name="pawaedc">   -788.87433287 </i>
    <i name="eentropy">     -0.00000000 </i>
    <i name="bandstr">      5.19814069 </i>
    <i name="atom">    206.13125414 </i>
    <i name="e_fr_energy">    -10.78498187 </i>
    <i name="e_wo_entrp">    -10.78498187 </i>
    <i name="e_0_energy">    -10.78498187 </i>
   </energy>
  </scstep>
  <scstep>
   <time name="dav">    0.10    0.10</time>
   <time name="total">    0.33    0.35</time>
   <energy>
    <i name="e_fr_energy">    -10.78458021 </i>
    <i name="e_wo_entrp">    -10.78458021 </i>
    <i name="e_0_energy">    -10.78458021 </i>
   </energy>
  </scstep>
  <scstep>
   <time name="dav">    0.09    0.09</time>
   <time name="total">    0.32    0.33</time>
   <energy>
    <i name="e_fr_energy">    -10.78437195 </i>
    <i name="e_wo_entrp">    -10.78437195 </i>
    <i name="e_0_energy">    -10.78437195 </i>
   </energy>
  </scstep>
  <scstep>
   <time name="dav">    0.09    0.09</time>
   <time name="total">    0.32    0.33</time>
   <energy>
    <i name="e_fr_energy">    -10.78437281 </i>
    <i name="e_wo_entrp">    -10.78437281 </i>
    <i name="e_0_energy">    -10.78437281 </i>
   </energy>
  </scstep>
  <scstep>
   <time name="dav">    0.09    0.09</time>
   <time name="total">    0.32    0.34</time>
   <energy>
    <i name="e_fr_energy">    -10.78437478 </i>
    <i name="e_wo_entrp">    -10.78437478 </i>
    <i name="e_0_energy">    -10.78437478 </i>
   </energy>
  </scstep>
  <scstep>
   <time name="dav">    0.06    0.06</time>
   <time name="total">    0.26    0.27</time>
   <energy>
    <i name="alphaZ">      3.28850212 </i>
    <i name="ewald">   -226.83738630 </i>
    <i name="hartreedc">    -15.32642652 </i>
    <i name="XCdc">    -18.04778662 </i>
    <i name="pawpsdc">    842.70398083 </i>
    <i name="pawaedc">   -807.72595989 </i>
    <i name="eentropy">     -0.00000000 </i>
    <i name="bandstr">      5.02944742 </i>
    <i name="atom">    206.13125414 </i>
    <i name="e_fr_energy">    -10.78437482 </i>
    <i name="e_wo_entrp">    -10.78437482 </i>
    <i name="e_0_energy">    -10.78437482 </i>
   </energy>
  </scstep>
  <structure>
   <crystal>
    <varray name="basis" >
     <v>       3.35048530       0.00000000       1.93440332 </v>
     <v>       1.11682843       3.15886909       1.93440332 </v>
     <v>       0.00000000       0.00000000       3.86880664 </v>
    </varray>
    <i name="volume">     40.94646077 </i>
    <varray name="rec_basis" >
     <v>       0.29846423      -0.10552300      -0.00000000 </v>
     <v>      -0.00000000       0.31656899      -0.00000000 </v>
     <v>      -0.14923211      -0.10552300       0.25847764 </v>
    </varray>
   </crystal>
   <varray name="positions" >
    <v>       0.87500000       0.87500000       0.87500000 </v>
    <v>       0.12500000       0.12500000       0.12500000 </v>
   </varray>
  </structure>
  <varray name="forces" >
   <v>       0.00000000       0.00000000       0.00000000 </v>
   <v>      -0.00000000      -0.00000000      -0.00000000 </v>
  </varray>
  <varray name="stress" >
   <v>       0.06702457       0.00000000       0.00000000 </v>
   <v>       0.00000000       0.06702462      -0.00000000 </v>
   <v>       0.00000000       0.00000000       0.06702455 </v>
  </varray>
  <energy>
   <i name="e_fr_energy">    -10.78437482 </i>
   <i name="e_wo_entrp">    -10.78437482 </i>
   <i name="e_0_energy">    -10.78437482 </i>
  </energy>
  <time name="totalsc">    2.78    2.90</time>
  <eigenvalues>
   <array>
    <dimension dim="1">band</dimension>
    <dimension dim="2">kpoint</dimension>
    <dimension dim="3">spin</dimension>
    <field>eigene</field>
    <field>occ</field>
    <set>
     <set comment="spin 1">
      <set comment="kpoint 1">
       <r>   -6.1882    1.0000 </r>
       <r>    5.6214    1.0000 </r>
       <r>    5.6214    1.0000 </r>
       <r>    5.6214    1.0000 </r>
       <r>    8.1705    0.0000 </r>
       <r>    8.1705    0.0000 </r>
       <r>    8.1705    0.0000 </r>
       <r>    8.7394    0.0000 </r>
      </set>
      <set comment="kpoint 2">
       <r>   -5.6806    1.0000 </r>
       <r>    2.6383    1.0000 </r>
       <r>    5.0530    1.0000 </r>
       <r>    5.0530    1.0000 </r>
       <r>    7.7657    0.0000 </r>
       <r>    8.9589    0.0000 </r>
       <r>    8.9589    0.0000 </r>
       <r>   11.4884    0.0000 </r>
      </set>
      <set comment="kpoint 3">
       <r>   -4.3488    1.0000 </r>
       <r>   -0.5660    1.0000 </r>
       <r>    4.5128    1.0000 </r>
       <r>    4.5128    1.0000 </r>
       <r>    7.1627    0.0000 </r>
       <r>    9.0358    0.0000 </r>
       <r>    9.0358    0.0000 </r>
       <r>   13.4194    0.0000 </r>
      </set>
      <set comment="kpoint 4">
       <r>   -5.5057    1.0000 </r>
       <r>    2.9852    1.0000 </r>
       <r>    4.1659    1.0000 </r>
       <r>    4.1659    1.0000 </r>
       <r>    7.0926    0.0000 </r>
       <r>    9.4669    0.0000 </r>
       <r>   10.4566    0.0000 </r>
       <r>   10.4566    0.0000 </r>
      </set>
      <set comment="kpoint 5">
       <r>   -4.3878    1.0000 </r>
       <r>    0.3578    1.0000 </r>
       <r>    3.0434    1.0000 </r>
       <r>    3.6657    1.0000 </r>
       <r>    7.4038    0.0000 </r>
       <r>    9.6850    0.0000 </r>
       <r>   10.4751    0.0000 </r>
       <r>   11.0110    0.0000 </r>
      </set>
      <set comment="kpoint 6">
       <r>   -3.5278    1.0000 </r>
       <r>   -0.9994    1.0000 </r>
       <r>    2.2513    1.0000 </r>
       <r>    3.9403    1.0000 </r>
       <r>    7.6742    0.0000 </r>
       <r>   10.1627    0.0000 </r>
       <r>   10.3953    0.0000 </r>
       <r>   13.1089    0.0000 </r>
      </set>
      <set comment="kpoint 7">
       <r>   -4.8658    1.0000 </r>
       <r>    1.1742    1.0000 </r>
       <r>    2.6872    1.0000 </r>
       <r>    4.7893    1.0000 </r>
       <r>    8.4641    0.0000 </r>
       <r>    9.5789    0.0000 </r>
       <r>    9.8879    0.0000 </r>
       <r>   11.2688    0.0000 </r>
      </set>
      <set comment="kpoint 8">
       <r>   -3.5275    1.0000 </r>
       <r>   -0.5154    1.0000 </r>
       <r>    2.9809    1.0000 </r>
       <r>    2.9809    1.0000 </r>
       <r>    6.2357    0.0000 </r>
       <r>    6.9673    0.0000 </r>
       <r>   14.0139    0.0000 </r>
       <r>   14.0139    0.0000 </r>
      </set>
      <set comment="kpoint 9">
       <r>   -2.3533    1.0000 </r>
       <r>   -1.7504    1.0000 </r>
       <r>    1.6520    1.0000 </r>
       <r>    3.0968    1.0000 </r>
       <r>    6.6812    0.0000 </r>
       <r>    8.7659    0.0000 </r>
       <r>   13.6083    0.0000 </r>
       <r>   14.1835    0.0000 </r>
      </set>
      <set comment="kpoint 10">
       <r>   -3.1015    1.0000 </r>
       <r>   -0.8924    1.0000 </r>
       <r>    1.7321    1.0000 </r>
       <r>    2.6986    1.0000 </r>
       <r>    8.9991    0.0000 </r>
       <r>    9.3981    0.0000 </r>
       <r>    9.9838    0.0000 </r>
       <r>   13.3161    0.0000 </r>
      </set>
     </set>
    </set>
   </array>
  </eigenvalues>
  <separator name="orbital magnetization" >
   <v name="MAGDIPOLOUT">      0.00000000      0.00000000      0.00000000</v>
  </separator>
  <dos>
   <i name="efermi">      5.86976791 </i>
   <total>
    <array>
     <dimension dim="1">gridpoints</dimension>
     <dimension dim="2">spin</dimension>
     <field>energy</field>
     <field>total</field>
     <field>integrated</field>
     <set>
      <set comment="spin 1">
       <r>    -7.2067     0.0000     0.0000 </r>
       <r>    -7.1320     0.0000     0.0000 </r>
       <r>    -7.0574     0.0000     0.0000 </r>
       <r>    -6.9827     0.0000     0.0000 </r>
       <r>    -6.9080     0.0000     0.0000 </r>
       <r>    -6.8333     0.0000     0.0000 </r>
       <r>    -6.7586     0.0000     0.0000 </r>
       <r>    -6.6839     0.0000     0.0000 </r>
       <r>    -6.6092     0.0000     0.0000 </r>
       <r>    -6.5345     0.0000     0.0000 </r>
       <r>    -6.4598     0.0000     0.0000 </r>
       <r>    -6.3851     0.0000     0.0000 </r>
       <r>    -6.3104     0.0001     0.0000 </r>
       <r>    -6.2357     0.0191     0.0014 </r>
       <r>    -6.1610     0.1477     0.0125 </r>
       <r>    -6.0863     0.0469     0.0160 </r>
       <r>    -6.0116     0.0004     0.0160 </r>
       <r>    -5.9369     0.0000     0.0160 </r>
       <r>    -5.8622     0.0000     0.0160 </r>
       <r>    -5.7875     0.0021     0.0162 </r>
       <r>    -5.7128     0.3085     0.0392 </r>
       <r>    -5.6381     1.2066     0.1293 </r>
       <r>    -5.5634     0.2616     0.1489 </r>
       <r>    -5.4887     0.8148     0.2097 </r>
       <r>    -5.4140     0.3990     0.2395 </r>
       <r>    -5.3393     0.0061     0.2400 </r>
       <r>    -5.2646     0.0000     0.2400 </r>
       <r>    -5.1899     0.0000     0.2400 </r>
       <r>    -5.1152     0.0000     0.2400 </r>
       <r>    -5.0406     0.0000     0.2400 </r>
       <r>    -4.9659     0.0060     0.2404 </r>
       <r>    -4.8912     0.6027     0.2855 </r>
       <r>    -4.8165     1.7527     0.4164 </r>
       <r>    -4.7418     0.2085     0.4320 </r>
       <r>    -4.6671     0.0006     0.4320 </r>
       <r>    -4.5924     0.0000     0.4320 </r>
       <r>    -4.5177     0.0006     0.4320 </r>
       <r>    -4.4430     0.3114     0.4553 </r>
       <r>    -4.3683     3.8353     0.7418 </r>
       <r>    -4.2936     2.5858     0.9349 </r>
       <r>    -4.2189     0.1211     0.9440 </r>
       <r>    -4.1442     0.0002     0.9440 </r>
       <r>    -4.0695     0.0000     0.9440 </r>
       <r>    -3.9948     0.0000     0.9440 </r>
       <r>    -3.9201     0.0000     0.9440 </r>
       <r>    -3.8454     0.0000     0.9440 </r>
       <r>    -3.7707     0.0000     0.9440 </r>
       <r>    -3.6960     0.0000     0.9440 </r>
       <r>    -3.6213     0.0261     0.9460 </r>
       <r>    -3.5466     1.8804     1.0864 </r>
       <r>    -3.4719     4.1519     1.3965 </r>
       <r>    -3.3972     0.3668     1.4239 </r>
       <r>    -3.3225     0.0007     1.4240 </r>
       <r>    -3.2478     0.0001     1.4240 </r>
       <r>    -3.1731     0.1097     1.4322 </r>
       <r>    -3.0985     2.6374     1.6292 </r>
       <r>    -3.0238     2.3219     1.8026 </r>
       <r>    -2.9491     0.0716     1.8080 </r>
       <r>    -2.8744     0.0000     1.8080 </r>
       <r>    -2.7997     0.0000     1.8080 </r>
       <r>    -2.7250     0.0000     1.8080 </r>
       <r>    -2.6503     0.0000     1.8080 </r>
       <r>    -2.5756     0.0000     1.8080 </r>
       <r>    -2.5009     0.0000     1.8080 </r>
       <r>    -2.4262     0.0503     1.8118 </r>
       <r>    -2.3515     1.2863     1.9078 </r>
       <r>    -2.2768     1.1946     1.9971 </r>
       <r>    -2.2021     0.0392     2.0000 </r>
       <r>    -2.1274     0.0000     2.0000 </r>
       <r>    -2.0527     0.0000     2.0000 </r>
       <r>    -1.9780     0.0000     2.0000 </r>
       <r>    -1.9033     0.0000     2.0000 </r>
       <r>    -1.8286     0.0347     2.0026 </r>
       <r>    -1.7539     1.1496     2.0885 </r>
       <r>    -1.6792     1.3296     2.1878 </r>
       <r>    -1.6045     0.0565     2.1920 </r>
       <r>    -1.5298     0.0000     2.1920 </r>
       <r>    -1.4551     0.0000     2.1920 </r>
       <r>    -1.3804     0.0000     2.1920 </r>
       <r>    -1.3057     0.0000     2.1920 </r>
       <r>    -1.2310     0.0000     2.1920 </r>
       <r>    -1.1563     0.0000     2.1920 </r>
       <r>    -1.0817     0.0512     2.1958 </r>
       <r>    -1.0070     2.0846     2.3515 </r>
       <r>    -0.9323     3.5240     2.6148 </r>
       <r>    -0.8576     3.7879     2.8977 </r>
       <r>    -0.7829     0.8290     2.9596 </r>
       <r>    -0.7082     0.0051     2.9600 </r>
       <r>    -0.6335     0.0487     2.9636 </r>
       <r>    -0.5588     1.0874     3.0449 </r>
       <r>    -0.4841     1.6034     3.1646 </r>
       <r>    -0.4094     0.2575     3.1839 </r>
       <r>    -0.3347     0.0018     3.1840 </r>
       <r>    -0.2600     0.0000     3.1840 </r>
       <r>    -0.1853     0.0000     3.1840 </r>
       <r>    -0.1106     0.0000     3.1840 </r>
       <r>    -0.0359     0.0000     3.1840 </r>
       <r>     0.0388     0.0000     3.1840 </r>
       <r>     0.1135     0.0000     3.1840 </r>
       <r>     0.1882     0.0000     3.1840 </r>
       <r>     0.2629     0.0186     3.1854 </r>
       <r>     0.3376     1.4373     3.2928 </r>
       <r>     0.4123     3.3669     3.5442 </r>
       <r>     0.4870     0.3173     3.5680 </r>
       <r>     0.5617     0.0007     3.5680 </r>
       <r>     0.6364     0.0000     3.5680 </r>
       <r>     0.7111     0.0000     3.5680 </r>
       <r>     0.7858     0.0000     3.5680 </r>
       <r>     0.8605     0.0000     3.5680 </r>
       <r>     0.9351     0.0000     3.5680 </r>
       <r>     1.0098     0.0000     3.5680 </r>
       <r>     1.0845     0.0145     3.5691 </r>
       <r>     1.1592     0.8505     3.6326 </r>
       <r>     1.2339     1.5886     3.7513 </r>
       <r>     1.3086     0.1166     3.7600 </r>
       <r>     1.3833     0.0002     3.7600 </r>
       <r>     1.4580     0.0000     3.7600 </r>
       <r>     1.5327     0.0009     3.7601 </r>
       <r>     1.6074     0.2660     3.7799 </r>
       <r>     1.6821     2.2003     3.9443 </r>
       <r>     1.7568     3.9942     4.2427 </r>
       <r>     1.8315     1.2370     4.3351 </r>
       <r>     1.9062     0.0127     4.3360 </r>
       <r>     1.9809     0.0000     4.3360 </r>
       <r>     2.0556     0.0000     4.3360 </r>
       <r>     2.1303     0.0016     4.3361 </r>
       <r>     2.2050     0.4883     4.3726 </r>
       <r>     2.2797     3.5676     4.6391 </r>
       <r>     2.3544     1.0742     4.7193 </r>
       <r>     2.4291     0.0091     4.7200 </r>
       <r>     2.5038     0.0001     4.7200 </r>
       <r>     2.5785     0.0819     4.7261 </r>
       <r>     2.6532     1.9955     4.8752 </r>
       <r>     2.7279     5.9669     5.3209 </r>
       <r>     2.8026     1.3706     5.4233 </r>
       <r>     2.8772     0.0156     5.4244 </r>
       <r>     2.9519     0.7722     5.4821 </r>
       <r>     3.0266     4.3625     5.8080 </r>
       <r>     3.1013     5.0089     6.1821 </r>
       <r>     3.1760     1.3848     6.2856 </r>
       <r>     3.2507     0.0327     6.2880 </r>
       <r>     3.3254     0.0000     6.2880 </r>
       <r>     3.4001     0.0000     6.2880 </r>
       <r>     3.4748     0.0000     6.2880 </r>
       <r>     3.5495     0.0026     6.2882 </r>
       <r>     3.6242     0.6165     6.3342 </r>
       <r>     3.6989     3.6291     6.6053 </r>
       <r>     3.7736     0.8868     6.6716 </r>
       <r>     3.8483     0.0297     6.6738 </r>
       <r>     3.9230     1.5821     6.7920 </r>
       <r>     3.9977     3.2664     7.0359 </r>
       <r>     4.0724     0.2785     7.0568 </r>
       <r>     4.1471     0.7547     7.1131 </r>
       <r>     4.2218     1.6594     7.2371 </r>
       <r>     4.2965     0.1460     7.2480 </r>
       <r>     4.3712     0.0004     7.2480 </r>
       <r>     4.4459     0.1001     7.2555 </r>
       <r>     4.5206     1.9127     7.3984 </r>
       <r>     4.5953     1.3806     7.5015 </r>
       <r>     4.6700     0.0346     7.5041 </r>
       <r>     4.7447     0.2652     7.5239 </r>
       <r>     4.8194     1.7970     7.6581 </r>
       <r>     4.8940     0.5034     7.6957 </r>
       <r>     4.9687     0.0332     7.6982 </r>
       <r>     5.0434     1.3178     7.7966 </r>
       <r>     5.1181     1.9677     7.9436 </r>
       <r>     5.1928     0.1122     7.9520 </r>
       <r>     5.2675     0.0001     7.9520 </r>
       <r>     5.3422     0.0000     7.9520 </r>
       <r>     5.4169     0.0000     7.9520 </r>
       <r>     5.4916     0.0001     7.9520 </r>
       <r>     5.5663     0.0383     7.9549 </r>
       <r>     5.6410     0.4183     7.9861 </r>
       <r>     5.7157     0.1835     7.9998 </r>
       <r>     5.7904     0.0025     8.0000 </r>
       <r>     5.8651     0.0000     8.0000 </r>
       <r>     5.9398     0.0000     8.0000 </r>
       <r>     6.0145     0.0000     8.0000 </r>
       <r>     6.0892     0.0000     8.0000 </r>
       <r>     6.1639     0.0272     8.0020 </r>
       <r>     6.2386     0.6575     8.0511 </r>
       <r>     6.3133     0.5824     8.0946 </r>
       <r>     6.3880     0.0181     8.0960 </r>
       <r>     6.4627     0.0000     8.0960 </r>
       <r>     6.5374     0.0001     8.0960 </r>
       <r>     6.6121     0.0647     8.1008 </r>
       <r>     6.6868     1.3798     8.2039 </r>
       <r>     6.7615     1.0960     8.2858 </r>
       <r>     6.8362     0.0300     8.2880 </r>
       <r>     6.9108     0.0709     8.2933 </r>
       <r>     6.9855     0.8268     8.3551 </r>
       <r>     7.0602     0.6162     8.4011 </r>
       <r>     7.1349     1.2781     8.4966 </r>
       <r>     7.2096     1.3333     8.5962 </r>
       <r>     7.2843     0.1599     8.6081 </r>
       <r>     7.3590     0.5271     8.6475 </r>
       <r>     7.4337     3.5919     8.9158 </r>
       <r>     7.5084     1.0126     8.9914 </r>
       <r>     7.5831     0.0335     8.9939 </r>
       <r>     7.6578     1.6264     9.1154 </r>
       <r>     7.7325     3.5310     9.3791 </r>
       <r>     7.8072     1.4647     9.4886 </r>
       <r>     7.8819     0.2058     9.5039 </r>
       <r>     7.9566     0.0009     9.5040 </r>
       <r>     8.0313     0.0000     9.5040 </r>
       <r>     8.1060     0.0219     9.5056 </r>
       <r>     8.1807     0.3724     9.5335 </r>
       <r>     8.2554     0.2430     9.5516 </r>
       <r>     8.3301     0.0054     9.5520 </r>
       <r>     8.4048     0.1196     9.5609 </r>
       <r>     8.4795     1.5968     9.6802 </r>
       <r>     8.5542     0.8398     9.7430 </r>
       <r>     8.6289     0.0143     9.7440 </r>
       <r>     8.7036     0.1329     9.7539 </r>
       <r>     8.7783     1.6878     9.8800 </r>
       <r>     8.8529     0.9505     9.9510 </r>
       <r>     8.9276     0.7727    10.0087 </r>
       <r>     9.0023     5.6377    10.4298 </r>
       <r>     9.0770     5.1087    10.8114 </r>
       <r>     9.1517     0.4875    10.8479 </r>
       <r>     9.2264     0.0018    10.8480 </r>
       <r>     9.3011     0.0157    10.8492 </r>
       <r>     9.3758     1.3506    10.9501 </r>
       <r>     9.4505     3.8333    11.2364 </r>
       <r>     9.5252     1.3277    11.3356 </r>
       <r>     9.5999     1.8008    11.4701 </r>
       <r>     9.6746     2.6341    11.6668 </r>
       <r>     9.7493     2.9977    11.8907 </r>
       <r>     9.8240     0.2680    11.9108 </r>
       <r>     9.8987     1.5438    12.0261 </r>
       <r>     9.9734     2.8887    12.2419 </r>
       <r>    10.0481     3.0133    12.4669 </r>
       <r>    10.1228     0.8412    12.5298 </r>
       <r>    10.1975     3.6397    12.8016 </r>
       <r>    10.2722     0.8310    12.8637 </r>
       <r>    10.3469     0.4455    12.8970 </r>
       <r>    10.4216     4.2687    13.2158 </r>
       <r>    10.4963     6.3792    13.6923 </r>
       <r>    10.5710     1.7436    13.8226 </r>
       <r>    10.6457     0.0189    13.8240 </r>
       <r>    10.7204     0.0000    13.8240 </r>
       <r>    10.7951     0.0000    13.8240 </r>
       <r>    10.8697     0.0002    13.8240 </r>
       <r>    10.9444     0.1530    13.8354 </r>
       <r>    11.0191     2.8828    14.0508 </r>
       <r>    11.0938     2.0555    14.2043 </r>
       <r>    11.1685     0.0552    14.2084 </r>
       <r>    11.2432     0.5973    14.2531 </r>
       <r>    11.3179     1.7555    14.3842 </r>
       <r>    11.3926     0.2170    14.4004 </r>
       <r>    11.4673     0.4664    14.4352 </r>
       <r>    11.5420     1.1309    14.5197 </r>
       <r>    11.6167     0.1108    14.5280 </r>
       <r>    11.6914     0.0002    14.5280 </r>
       <r>    11.7661     0.0000    14.5280 </r>
       <r>    11.8408     0.0000    14.5280 </r>
       <r>    11.9155     0.0000    14.5280 </r>
       <r>    11.9902     0.0000    14.5280 </r>
       <r>    12.0649     0.0000    14.5280 </r>
       <r>    12.1396     0.0000    14.5280 </r>
       <r>    12.2143     0.0000    14.5280 </r>
       <r>    12.2890     0.0000    14.5280 </r>
       <r>    12.3637     0.0000    14.5280 </r>
       <r>    12.4384     0.0000    14.5280 </r>
       <r>    12.5131     0.0000    14.5280 </r>
       <r>    12.5878     0.0000    14.5280 </r>
       <r>    12.6625     0.0000    14.5280 </r>
       <r>    12.7372     0.0000    14.5280 </r>
       <r>    12.8119     0.0000    14.5280 </r>
       <r>    12.8865     0.0000    14.5280 </r>
       <r>    12.9612     0.0001    14.5280 </r>
       <r>    13.0359     0.1002    14.5355 </r>
       <r>    13.1106     2.5697    14.7274 </r>
       <r>    13.1853     2.3926    14.9062 </r>
       <r>    13.2600     0.3678    14.9336 </r>
       <r>    13.3347     3.3267    15.1821 </r>
       <r>    13.4094     2.1691    15.3441 </r>
       <r>    13.4841     1.0121    15.4197 </r>
       <r>    13.5588     0.2644    15.4395 </r>
       <r>    13.6335     1.7509    15.5703 </r>
       <r>    13.7082     0.6061    15.6155 </r>
       <r>    13.7829     0.0061    15.6160 </r>
       <r>    13.8576     0.0000    15.6160 </r>
       <r>    13.9323     0.0271    15.6180 </r>
       <r>    14.0070     1.0604    15.6972 </r>
       <r>    14.0817     1.4174    15.8031 </r>
       <r>    14.1564     0.6340    15.8505 </r>
       <r>    14.2311     1.7722    15.9828 </r>
       <r>    14.3058     0.2291    15.9999 </r>
       <r>    14.3805     0.0007    16.0000 </r>
       <r>    14.4552     0.0000    16.0000 </r>
       <r>    14.5299     0.0000    16.0000 </r>
       <r>    14.6046     0.0000    16.0000 </r>
       <r>    14.6793     0.0000    16.0000 </r>
       <r>    14.7540     0.0000    16.0000 </r>
       <r>    14.8286     0.0000    16.0000 </r>
       <r>    14.9033     0.0000    16.0000 </r>
       <r>    14.9780     0.0000    16.0000 </r>
       <r>    15.0527     0.0000    16.0000 </r>
       <r>    15.1274     0.0000    16.0000 </r>
       <r>    15.2021     0.0000    16.0000 </r>
      </set>
     </set>
    </array>
   </total>
  </dos>
 </calculation>
 <structure name="finalpos" >
  <crystal>
   <varray name="basis" >
    <v>       3.35048530       0.00000000       1.93440332 </v>
    <v>       1.11682843       3.15886909       1.93440332 </v>
    <v>       0.00000000       0.00000000       3.86880664 </v>
   </varray>
   <i name="volume">     40.94646077 </i>
   <varray name="rec_basis" >
    <v>       0.29846423      -0.10552300      -0.00000000 </v>
    <v>      -0.00000000       0.31656899      -0.00000000 </v>
    <v>      -0.14923211      -0.10552300       0.25847764 </v>
   </varray>
  </crystal>
  <varray name="positions" >
   <v>       0.87500000       0.87500000       0.87500000 </v>
   <v>       0.12500000       0.12500000       0.12500000 </v>
  </varray>
 </structure>
</modeling>
