   1   1   0   0
  0.1408159E+02  0.2710538E-09  0.2710538E-09  0.2710538E-09  0.5000000E-15
  1.000000000000000E-004
  CAR 
 unknown system                          
     37.87747112     -6.01505954  301     10.44184749      1.00000000
     -6.015  0.0000E+00  0.0000E+00
     -5.869  0.0000E+00  0.0000E+00
     -5.722  0.0000E+00  0.0000E+00
     -5.576  0.0000E+00  0.0000E+00
     -5.430  0.0000E+00  0.0000E+00
     -5.284  0.0000E+00  0.0000E+00
     -5.137  0.0000E+00  0.0000E+00
     -4.991  0.0000E+00  0.0000E+00
     -4.845  0.0000E+00  0.0000E+00
     -4.698  0.0000E+00  0.0000E+00
     -4.552  0.0000E+00  0.0000E+00
     -4.406  0.0000E+00  0.0000E+00
     -4.259  0.8058E-14  0.1179E-14
     -4.113  0.5350E-05  0.7827E-06
     -3.967  0.1177E-02  0.1729E-03
     -3.820  0.8377E-04  0.1852E-03
     -3.674  0.4912E-10  0.1852E-03
     -3.528  0.2682E-03  0.2244E-03
     -3.382  0.3514E-02  0.7386E-03
     -3.235  0.1453E-04  0.7407E-03
     -3.089  0.2032E-07  0.7407E-03
     -2.943  0.1503E-02  0.9606E-03
     -2.796  0.2294E-02  0.1296E-02
     -2.650  0.2033E-06  0.1296E-02
     -2.504  0.3980E-05  0.1297E-02
     -2.357  0.4227E-02  0.1915E-02
     -2.211  0.8317E-03  0.2037E-02
     -2.065  0.8007E-09  0.2037E-02
     -1.918  0.2341E-03  0.2071E-02
     -1.772  0.7272E-02  0.3135E-02
     -1.626  0.8825E-04  0.3148E-02
     -1.479  0.6114E-08  0.3148E-02
     -1.333  0.1148E-02  0.3316E-02
     -1.187  0.2649E-02  0.3704E-02
     -1.041  0.5589E-06  0.3704E-02
     -0.894  0.3517E-05  0.3704E-02
     -0.748  0.6037E-02  0.4588E-02
     -0.602  0.1554E-02  0.4815E-02
     -0.455  0.2650E-08  0.4815E-02
     -0.309  0.3469E-03  0.4866E-02
     -0.163  0.1091E-01  0.6462E-02
     -0.016  0.1351E-03  0.6481E-02
      0.130  0.1086E-07  0.6481E-02
      0.276  0.1311E-02  0.6673E-02
      0.423  0.2486E-02  0.7037E-02
      0.569  0.3493E-06  0.7037E-02
      0.715  0.1160E-04  0.7039E-02
      0.861  0.7683E-02  0.8163E-02
      1.008  0.1166E-02  0.8333E-02
      1.154  0.8453E-09  0.8333E-02
      1.300  0.8951E-03  0.8464E-02
      1.447  0.1046E-01  0.9994E-02
      1.593  0.3880E-04  0.1000E-01
      1.739  0.1848E-06  0.1000E-01
      1.886  0.4028E-02  0.1059E-01
      2.032  0.3566E-02  0.1111E-01
      2.178  0.9512E-07  0.1111E-01
      2.325  0.4194E-03  0.1117E-01
      2.471  0.1070E-01  0.1274E-01
      2.617  0.2708E-03  0.1278E-01
      2.763  0.1691E-06  0.1278E-01
      2.910  0.4191E-02  0.1339E-01
      3.056  0.7198E-02  0.1444E-01
      3.202  0.1820E-05  0.1444E-01
      3.349  0.8727E-04  0.1446E-01
      3.495  0.7271E-02  0.1552E-01
      3.641  0.2364E-03  0.1556E-01
      3.788  0.3157E-08  0.1556E-01
      3.934  0.9763E-03  0.1570E-01
      4.080  0.5562E-02  0.1651E-01
      4.227  0.1056E-02  0.1667E-01
      4.373  0.2661E-04  0.1667E-01
      4.519  0.1368E-01  0.1867E-01
      4.665  0.5262E-02  0.1944E-01
      4.812  0.1887E-04  0.1944E-01
      4.958  0.1203E-02  0.1962E-01
      5.104  0.7663E-02  0.2074E-01
      5.251  0.2525E-02  0.2111E-01
      5.397  0.2477E-04  0.2111E-01
      5.543  0.7087E-02  0.2215E-01
      5.690  0.1745E-02  0.2241E-01
      5.836  0.3425E-05  0.2241E-01
      5.982  0.3097E-04  0.2241E-01
      6.129  0.1279E-01  0.2428E-01
      6.275  0.2364E-02  0.2463E-01
      6.421  0.9990E-08  0.2463E-01
      6.567  0.1098E-02  0.2479E-01
      6.714  0.2699E-02  0.2519E-01
      6.860  0.6469E-06  0.2519E-01
      7.006  0.3312E-03  0.2523E-01
      7.153  0.1408E-01  0.2729E-01
      7.299  0.4543E-02  0.2796E-01
      7.445  0.2638E-04  0.2796E-01
      7.592  0.3557E-02  0.2848E-01
      7.738  0.1465E-01  0.3063E-01
      7.884  0.7838E-03  0.3074E-01
      8.031  0.1099E-05  0.3074E-01
      8.177  0.2874E-02  0.3116E-01
      8.323  0.3271E-02  0.3164E-01
      8.469  0.1448E-02  0.3185E-01
      8.616  0.3183E-02  0.3232E-01
      8.762  0.8956E-02  0.3363E-01
      8.908  0.3050E-02  0.3407E-01
      9.055  0.1625E-05  0.3407E-01
      9.201  0.5554E-02  0.3489E-01
      9.347  0.8998E-02  0.3620E-01
      9.494  0.6390E-03  0.3630E-01
      9.640  0.6640E-02  0.3727E-01
      9.786  0.4740E-02  0.3796E-01
      9.933  0.6497E-05  0.3796E-01
     10.079  0.9244E-04  0.3798E-01
     10.225  0.3676E-02  0.3851E-01
     10.371  0.4824E-02  0.3922E-01
     10.518  0.6591E-02  0.4018E-01
     10.664  0.5939E-02  0.4105E-01
     10.810  0.1268E-01  0.4291E-01
     10.957  0.3738E-03  0.4296E-01
     11.103  0.1207E-06  0.4296E-01
     11.249  0.3730E-02  0.4351E-01
     11.396  0.3864E-02  0.4407E-01
     11.542  0.1039E-03  0.4409E-01
     11.688  0.4234E-02  0.4471E-01
     11.835  0.1105E-01  0.4633E-01
     11.981  0.1064E-02  0.4648E-01
     12.127  0.3476E-02  0.4699E-01
     12.273  0.1191E-01  0.4873E-01
     12.420  0.1062E-01  0.5029E-01
     12.566  0.5680E-03  0.5037E-01
     12.712  0.3965E-02  0.5095E-01
     12.859  0.1067E-01  0.5251E-01
     13.005  0.7829E-03  0.5263E-01
     13.151  0.3549E-02  0.5315E-01
     13.298  0.3069E-02  0.5359E-01
     13.444  0.7438E-03  0.5370E-01
     13.590  0.4476E-03  0.5377E-01
     13.737  0.1485E-01  0.5594E-01
     13.883  0.7472E-02  0.5703E-01
     14.029  0.2695E-04  0.5704E-01
     14.176  0.3565E-02  0.5756E-01
     14.322  0.1120E-01  0.5920E-01
     14.468  0.4423E-03  0.5926E-01
     14.614  0.3774E-02  0.5982E-01
     14.761  0.6691E-02  0.6079E-01
     14.907  0.9020E-03  0.6093E-01
     15.053  0.2893E-02  0.6135E-01
     15.200  0.1495E-01  0.6354E-01
     15.346  0.1222E-01  0.6532E-01
     15.492  0.3238E-03  0.6537E-01
     15.639  0.3451E-02  0.6588E-01
     15.785  0.3373E-03  0.6593E-01
     15.931  0.2801E-02  0.6634E-01
     16.078  0.1421E-02  0.6654E-01
     16.224  0.1084E-01  0.6813E-01
     16.370  0.2504E-03  0.6817E-01
     16.516  0.1011E-01  0.6965E-01
     16.663  0.1467E-01  0.7179E-01
     16.809  0.1671E-02  0.7204E-01
     16.955  0.1084E-02  0.7220E-01
     17.102  0.6197E-02  0.7310E-01
     17.248  0.2117E-02  0.7341E-01
     17.394  0.5774E-02  0.7426E-01
     17.541  0.4975E-02  0.7498E-01
     17.687  0.2676E-02  0.7538E-01
     17.833  0.3638E-02  0.7591E-01
     17.980  0.3585E-02  0.7643E-01
     18.126  0.3457E-03  0.7648E-01
     18.272  0.3494E-02  0.7699E-01
     18.418  0.3093E-03  0.7704E-01
     18.565  0.3960E-02  0.7762E-01
     18.711  0.1090E-01  0.7921E-01
     18.857  0.6653E-02  0.8019E-01
     19.004  0.2969E-02  0.8062E-01
     19.150  0.1344E-01  0.8259E-01
     19.296  0.1255E-01  0.8443E-01
     19.443  0.1047E-01  0.8596E-01
     19.589  0.2316E-02  0.8630E-01
     19.735  0.4512E-03  0.8636E-01
     19.882  0.3340E-02  0.8685E-01
     20.028  0.2455E-03  0.8689E-01
     20.174  0.1296E-01  0.8878E-01
     20.320  0.9549E-02  0.9018E-01
     20.467  0.3635E-04  0.9019E-01
     20.613  0.5382E-02  0.9097E-01
     20.759  0.6715E-02  0.9196E-01
     20.906  0.5548E-02  0.9277E-01
     21.052  0.7567E-04  0.9278E-01
     21.198  0.3277E-02  0.9326E-01
     21.345  0.9990E-03  0.9340E-01
     21.491  0.7086E-02  0.9444E-01
     21.637  0.7191E-02  0.9549E-01
     21.784  0.1300E-01  0.9739E-01
     21.930  0.3617E-02  0.9792E-01
     22.076  0.1701E-02  0.9817E-01
     22.222  0.1136E-01  0.9984E-01
     22.369  0.8530E-02  0.1011E+00
     22.515  0.1411E-01  0.1031E+00
     22.661  0.5797E-04  0.1032E+00
     22.808  0.1014E-01  0.1046E+00
     22.954  0.2151E-02  0.1050E+00
     23.100  0.1124E-01  0.1066E+00
     23.247  0.3004E-02  0.1070E+00
     23.393  0.5558E-07  0.1070E+00
     23.539  0.2111E-02  0.1073E+00
     23.686  0.6592E-02  0.1083E+00
     23.832  0.1417E-02  0.1085E+00
     23.978  0.7082E-02  0.1096E+00
     24.124  0.5747E-02  0.1104E+00
     24.271  0.6291E-02  0.1113E+00
     24.417  0.9973E-02  0.1128E+00
     24.563  0.1569E-02  0.1130E+00
     24.710  0.7622E-02  0.1141E+00
     24.856  0.1383E-01  0.1161E+00
     25.002  0.8539E-02  0.1174E+00
     25.149  0.1206E-01  0.1192E+00
     25.295  0.9400E-02  0.1205E+00
     25.441  0.1683E-03  0.1206E+00
     25.588  0.1489E-06  0.1206E+00
     25.734  0.2902E-02  0.1210E+00
     25.880  0.1381E-01  0.1230E+00
     26.026  0.2275E-02  0.1233E+00
     26.173  0.4255E-02  0.1240E+00
     26.319  0.7356E-02  0.1250E+00
     26.465  0.7232E-02  0.1261E+00
     26.612  0.5450E-02  0.1269E+00
     26.758  0.3417E-02  0.1274E+00
     26.904  0.6425E-02  0.1283E+00
     27.051  0.1049E-01  0.1299E+00
     27.197  0.2487E-01  0.1335E+00
     27.343  0.1128E-03  0.1335E+00
     27.490  0.3257E-02  0.1340E+00
     27.636  0.4337E-02  0.1346E+00
     27.782  0.2205E-02  0.1350E+00
     27.928  0.1599E-02  0.1352E+00
     28.075  0.3360E-02  0.1357E+00
     28.221  0.2618E-02  0.1361E+00
     28.367  0.3395E-02  0.1366E+00
     28.514  0.1443E-01  0.1387E+00
     28.660  0.4790E-02  0.1394E+00
     28.806  0.3157E-02  0.1398E+00
     28.953  0.9124E-02  0.1412E+00
     29.099  0.7465E-02  0.1423E+00
     29.245  0.3551E-02  0.1428E+00
     29.392  0.1896E-05  0.1428E+00
     29.538  0.1682E-10  0.1428E+00
     29.684  0.3815E-03  0.1428E+00
     29.831  0.2411E-01  0.1464E+00
     29.977  0.2096E-02  0.1467E+00
     30.123  0.5891E-02  0.1475E+00
     30.269  0.1701E-02  0.1478E+00
     30.416  0.2933E-02  0.1482E+00
     30.562  0.1192E-01  0.1500E+00
     30.708  0.3340E-03  0.1500E+00
     30.855  0.3869E-02  0.1506E+00
     31.001  0.3749E-02  0.1511E+00
     31.147  0.9245E-02  0.1525E+00
     31.294  0.2122E-02  0.1528E+00
     31.440  0.5918E-08  0.1528E+00
     31.586  0.9689E-07  0.1528E+00
     31.733  0.3229E-02  0.1533E+00
     31.879  0.1193E-01  0.1550E+00
     32.025  0.2491E-04  0.1550E+00
     32.171  0.5378E-06  0.1550E+00
     32.318  0.2636E-02  0.1554E+00
     32.464  0.1165E-02  0.1556E+00
     32.610  0.3282E-02  0.1560E+00
     32.757  0.5107E-03  0.1561E+00
     32.903  0.2990E-09  0.1561E+00
     33.049  0.2717E-14  0.1561E+00
     33.196  0.9037E-05  0.1561E+00
     33.342  0.6555E-02  0.1571E+00
     33.488  0.3820E-02  0.1576E+00
     33.635  0.4804E-02  0.1583E+00
     33.781  0.5510E-06  0.1583E+00
     33.927  0.1387E-09  0.1583E+00
     34.073  0.4103E-03  0.1584E+00
     34.220  0.6724E-02  0.1594E+00
     34.366  0.4596E-03  0.1594E+00
     34.512  0.1996E-09  0.1594E+00
     34.659  0.0000E+00  0.1594E+00
     34.805  0.0000E+00  0.1594E+00
     34.951  0.0000E+00  0.1594E+00
     35.098  0.0000E+00  0.1594E+00
     35.244  0.0000E+00  0.1594E+00
     35.390  0.0000E+00  0.1594E+00
     35.537  0.0000E+00  0.1594E+00
     35.683  0.3172E-10  0.1594E+00
     35.829  0.2513E-03  0.1595E+00
     35.975  0.3530E-02  0.1600E+00
     36.122  0.1605E-04  0.1600E+00
     36.268  0.2417E-13  0.1600E+00
     36.414  0.0000E+00  0.1600E+00
     36.561  0.0000E+00  0.1600E+00
     36.707  0.0000E+00  0.1600E+00
     36.853  0.0000E+00  0.1600E+00
     37.000  0.0000E+00  0.1600E+00
     37.146  0.0000E+00  0.1600E+00
     37.292  0.0000E+00  0.1600E+00
     37.439  0.0000E+00  0.1600E+00
     37.585  0.0000E+00  0.1600E+00
     37.731  0.0000E+00  0.1600E+00
     37.877  0.0000E+00  0.1600E+00
