    1    1  100    1
  0.1408159E+02  0.2710538E-09  0.2710538E-09  0.2710538E-09  0.5000000E-15
  1.000000000000000E-004
  CAR 
 unknown system                          
      4     28      8
 
  0.8333333E-01  0.8333333E-01  0.8333333E-01  0.9259259E-02
    1       -4.019945   1.000000
    2       18.777880   0.000000
    3       20.783137   0.000000
    4       20.783144   0.000000
    5       23.556792   0.000000
    6       23.556801   0.000000
    7       23.636778   0.000000
    8       28.425964   0.000000
 
  0.2500000E+00  0.8333333E-01  0.8333333E-01  0.2777778E-01
    1       -2.933241   1.000000
    2       14.128724   0.000000
    3       16.975721   0.000000
    4       21.159455   0.000000
    5       23.553092   0.000000
    6       24.576093   0.000000
    7       25.234366   0.000000
    8       25.871974   0.000000
 
  0.4166667E+00  0.8333333E-01  0.8333333E-01  0.2777778E-01
    1       -0.244440   1.000000
    2        7.646950   1.000000
    3       16.467724   0.000000
    4       19.435891   0.000000
    5       22.221459   0.000000
    6       22.379055   0.000000
    7       24.728265   0.000000
    8       29.128923   0.000000
 
 -0.4166667E+00  0.8333333E-01  0.8333333E-01  0.2777778E-01
    1        2.371921   1.000000
    2        4.059380   1.000000
    3       17.304593   0.000000
    4       17.931609   0.000000
    5       20.575412   0.000000
    6       22.780448   0.000000
    7       25.144415   0.000000
    8       28.032103   0.000000
 
 -0.2500000E+00  0.8333333E-01  0.8333333E-01  0.2777778E-01
    1       -1.314874   1.000000
    2        9.682761   1.000000
    3       17.543909   0.000000
    4       18.860941   0.000000
    5       20.832001   0.000000
    6       24.891384   0.000000
    7       25.121386   0.000000
    8       27.774998   0.000000
 
 -0.8333333E-01  0.8333333E-01  0.8333333E-01  0.2777778E-01
    1       -3.475802   1.000000
    2       16.489792   0.000000
    3       18.509430   0.000000
    4       20.235488   0.000000
    5       21.921239   0.000000
    6       24.918993   0.000000
    7       25.727237   0.000000
    8       26.304529   0.000000
 
  0.2500000E+00  0.2500000E+00  0.8333333E-01  0.2777778E-01
    1       -2.391733   1.000000
    2       14.555949   0.000000
    3       16.635427   0.000000
    4       18.221596   0.000000
    5       19.410840   0.000000
    6       21.767704   0.000000
    7       28.607534   0.000000
    8       28.788319   0.000000
 
  0.4166667E+00  0.2500000E+00  0.8333333E-01  0.5555556E-01
    1       -0.241871   1.000000
    2       10.641714   0.000000
    3       13.645606   0.000000
    4       15.284572   0.000000
    5       20.094128   0.000000
    6       22.994737   0.000000
    7       27.109878   0.000000
    8       30.853823   0.000000
 
 -0.4166667E+00  0.2500000E+00  0.8333333E-01  0.5555556E-01
    1        3.429069   1.000000
    2        5.089068   1.000000
    3       12.710779   0.000000
    4       14.252615   0.000000
    5       20.633584   0.000000
    6       24.764672   0.000000
    7       28.448543   0.000000
    8       30.501684   0.000000
 
 -0.2500000E+00  0.2500000E+00  0.8333333E-01  0.5555556E-01
    1        0.822742   1.000000
    2        8.623007   1.000000
    3       11.793403   0.000000
    4       16.137176   0.000000
    5       22.392021   0.000000
    6       23.965009   0.000000
    7       26.593329   0.000000
    8       29.784747   0.000000
 
 -0.8333333E-01  0.2500000E+00  0.8333333E-01  0.5555556E-01
    1       -1.852352   1.000000
    2       12.152280   0.000000
    3       15.127732   0.000000
    4       19.159989   0.000000
    5       21.598287   0.000000
    6       24.137591   0.000000
    7       25.833877   0.000000
    8       27.495910   0.000000
 
  0.4166667E+00  0.4166667E+00  0.8333333E-01  0.2777778E-01
    1        1.355158   1.000000
    2       10.714831   0.000000
    3       12.132749   0.000000
    4       14.266745   0.000000
    5       16.436329   0.000000
    6       19.148639   0.000000
    7       32.299787   0.000000
    8       34.178063   0.000000
 
 -0.4166667E+00  0.4166667E+00  0.8333333E-01  0.5555556E-01
    1        4.474434   1.000000
    2        7.692755   1.000000
    3        9.179494   1.000000
    4       12.271437   0.000000
    5       18.622297   0.000000
    6       21.706243   0.000000
    7       31.123739   0.000000
    8       33.303017   0.000000
 
 -0.2500000E+00  0.4166667E+00  0.8333333E-01  0.5555556E-01
    1        4.477958   1.000000
    2        6.076675   1.000000
    3        9.298474   1.000000
    4       13.725129   0.000000
    5       20.194994   0.000000
    6       26.878505   0.000000
    7       28.395206   0.000000
    8       29.772891   0.000000
 
 -0.8333333E-01  0.4166667E+00  0.8333333E-01  0.5555556E-01
    1        1.348299   1.000000
    2        6.103586   1.000000
    3       15.065718   0.000000
    4       16.616536   0.000000
    5       21.398544   0.000000
    6       23.090828   0.000000
    7       27.051366   0.000000
    8       30.096295   0.000000
 
 -0.4166667E+00 -0.4166667E+00  0.8333333E-01  0.2777778E-01
    1        3.956995   1.000000
    2        7.212002   1.000000
    3       11.609901   0.000000
    4       13.790932   0.000000
    5       15.908679   0.000000
    6       18.661405   0.000000
    7       34.117480   0.000000
    8       35.882356   0.000000
 
 -0.2500000E+00 -0.4166667E+00  0.8333333E-01  0.5555556E-01
    1        1.882898   1.000000
    2        9.607778   1.000000
    3       11.250117   0.000000
    4       12.807200   0.000000
    5       19.114956   0.000000
    6       22.147302   0.000000
    7       28.936704   0.000000
    8       33.500201   0.000000
 
 -0.2500000E+00 -0.2500000E+00  0.8333333E-01  0.2777778E-01
    1       -0.776419   1.000000
    2       13.059661   0.000000
    3       14.672889   0.000000
    4       15.216489   0.000000
    5       17.505040   0.000000
    6       20.128148   0.000000
    7       30.420371   0.000000
    8       31.729471   0.000000
 
  0.2500000E+00  0.2500000E+00  0.2500000E+00  0.9259259E-02
    1       -2.392378   1.000000
    2       11.694583   0.000000
    3       19.329399   0.000000
    4       19.329405   0.000000
    5       23.637652   0.000000
    6       23.939927   0.000000
    7       23.939933   0.000000
    8       28.630502   0.000000
 
  0.4166667E+00  0.2500000E+00  0.2500000E+00  0.2777778E-01
    1       -0.777867   1.000000
    2       10.148564   1.000000
    3       13.267374   0.000000
    4       19.220505   0.000000
    5       22.217270   0.000000
    6       24.324468   0.000000
    7       26.402568   0.000000
    8       27.086466   0.000000
 
 -0.4166667E+00  0.2500000E+00  0.2500000E+00  0.2777778E-01
    1        2.406725   1.000000
    2        7.089487   1.000000
    3       10.311025   0.999892
    4       16.595773   0.000000
    5       19.326332   0.000000
    6       26.945655   0.000000
    7       28.928925   0.000000
    8       29.805125   0.000000
 
 -0.2500000E+00  0.2500000E+00  0.2500000E+00  0.2777778E-01
    1        2.406235   1.000000
    2        7.122387   1.000000
    3       11.770887   0.000000
    4       15.207875   0.000000
    5       17.768944   0.000000
    6       25.185720   0.000000
    7       28.214335   0.000000
    8       31.090278   0.000000
 
  0.4166667E+00  0.4166667E+00  0.2500000E+00  0.2777778E-01
    1        0.290281   1.000000
    2        8.152221   1.000000
    3       15.590877   0.000000
    4       16.149579   0.000000
    5       18.815399   0.000000
    6       25.765548   0.000000
    7       26.329083   0.000000
    8       29.059835   0.000000
 
 -0.4166667E+00  0.4166667E+00  0.2500000E+00  0.5555556E-01
    1        2.932464   1.000000
    2        7.597249   1.000000
    3       10.751382   0.000000
    4       12.368848   0.000000
    5       22.748959   0.000000
    6       24.307197   0.000000
    7       26.167438   0.000000
    8       31.780623   0.000000
 
 -0.2500000E+00  0.4166667E+00  0.2500000E+00  0.5555556E-01
    1        5.493183   1.000000
    2        7.068842   1.000000
    3        8.753278   1.000000
    4       10.407636   0.833387
    5       22.399405   0.000000
    6       25.037890   0.000000
    7       27.102160   0.000000
    8       29.745373   0.000000
 
 -0.4166667E+00 -0.4166667E+00  0.2500000E+00  0.2777778E-01
    1        4.974941   1.000000
    2        6.587125   1.000000
    3        8.312489   1.000000
    4       14.734739   0.000000
    5       17.255112   0.000000
    6       24.816217   0.000000
    7       30.433331   0.000000
    8       32.571287   0.000000
 
  0.4166667E+00  0.4166667E+00  0.4166667E+00  0.9259259E-02
    1        0.816057   1.000000
    2        5.591276   1.000000
    3       19.036342   0.000000
    4       19.036346   0.000000
    5       21.672366   0.000000
    6       21.672374   0.000000
    7       23.744200   0.000000
    8       26.714564   0.000000
 
 -0.4166667E+00  0.4166667E+00  0.4166667E+00  0.2777778E-01
    1        2.902330   1.000000
    2        4.574309   1.000000
    3       13.715816   0.000000
    4       17.052594   0.000000
    5       19.776976   0.000000
    6       24.622555   0.000000
    7       27.111225   0.000000
    8       31.770308   0.000000
