<?xml version="1.0" encoding="ISO-8859-1"?>
<modeling>
 <generator>
  <i name="program" type="string">vasp </i>
  <i name="version" type="string">6.2.0  </i>
  <i name="subversion" type="string">18Jan21 (build Aug 12 2022 13:00:08) complex                          parallel </i>
  <i name="platform" type="string">LinuxIFC </i>
  <i name="date" type="string">2024 11 03 </i>
  <i name="time" type="string">21:53:12 </i>
 </generator>
 <incar>
  <i type="int" name="ISTART">     0</i>
  <i type="string" name="PREC">Accurate      (Accurate strictly avoids</i>
  <i type="logical" name="ADDGRID"> T  </i>
  <i type="int" name="ISPIN">     1</i>
  <i type="int" name="NELM">    90</i>
  <i type="int" name="NELMIN">     6</i>
  <i type="int" name="IBRION">     2</i>
  <i name="EDIFF">      0.00000100</i>
  <i name="EDIFFG">     -0.00200000</i>
  <i type="int" name="NSW">   100</i>
  <i type="int" name="ISIF">     3</i>
  <i type="int" name="ISYM">     2</i>
  <i name="ENCUT">    350.00000000</i>
  <i type="logical" name="LREAL"> F  </i>
  <i type="int" name="ISMEAR">     0</i>
  <i name="SIGMA">      0.05000000</i>
  <i type="logical" name="LWAVE"> F  </i>
  <i type="logical" name="LCHARG"> F  </i>
  <i type="logical" name="LASPH"> T  </i>
 </incar>
 <primitive_cell>
  <structure name="primitive_cell" >
   <crystal>
    <varray name="basis" >
     <v>       2.34739500       0.00000000       1.35526800 </v>
     <v>       0.78246500       2.21314500       1.35526800 </v>
     <v>       0.00000000       0.00000000       2.71053800 </v>
    </varray>
    <i name="volume">     14.08158510 </i>
    <varray name="rec_basis" >
     <v>       0.42600415      -0.15061523       0.00000000 </v>
     <v>       0.00000000       0.45184568       0.00000000 </v>
     <v>      -0.21300192      -0.15061511       0.36893045 </v>
    </varray>
   </crystal>
   <varray name="positions" >
    <v>       0.00000000       0.00000000       0.00000000 </v>
   </varray>
  </structure>
  <varray name="primitive_index" >
   <v type="int" >        1 </v>
  </varray>
 </primitive_cell>
 <kpoints>
  <generation param="Monkhorst-Pack">
   <v type="int" name="divisions">       6        6        6 </v>
   <v name="usershift">      0.00000000       0.00000000       0.00000000 </v>
   <v name="genvec1">      0.16666667      -0.00000000       0.00000000 </v>
   <v name="genvec2">      0.00000000       0.16666667       0.00000000 </v>
   <v name="genvec3">      0.00000000       0.00000000       0.16666667 </v>
   <v name="shift">      0.50000000       0.50000000       0.50000000 </v>
  </generation>
  <varray name="kpointlist" >
   <v>       0.08333333       0.08333333       0.08333333 </v>
   <v>       0.25000000       0.08333333       0.08333333 </v>
   <v>       0.41666667       0.08333333       0.08333333 </v>
   <v>      -0.41666667       0.08333333       0.08333333 </v>
   <v>      -0.25000000       0.08333333       0.08333333 </v>
   <v>      -0.08333333       0.08333333       0.08333333 </v>
   <v>       0.25000000       0.25000000       0.08333333 </v>
   <v>       0.41666667       0.25000000       0.08333333 </v>
   <v>      -0.41666667       0.25000000       0.08333333 </v>
   <v>      -0.25000000       0.25000000       0.08333333 </v>
   <v>      -0.08333333       0.25000000       0.08333333 </v>
   <v>       0.41666667       0.41666667       0.08333333 </v>
   <v>      -0.41666667       0.41666667       0.08333333 </v>
   <v>      -0.25000000       0.41666667       0.08333333 </v>
   <v>      -0.08333333       0.41666667       0.08333333 </v>
   <v>      -0.41666667      -0.41666667       0.08333333 </v>
   <v>      -0.25000000      -0.41666667       0.08333333 </v>
   <v>      -0.25000000      -0.25000000       0.08333333 </v>
   <v>       0.25000000       0.25000000       0.25000000 </v>
   <v>       0.41666667       0.25000000       0.25000000 </v>
   <v>      -0.41666667       0.25000000       0.25000000 </v>
   <v>      -0.25000000       0.25000000       0.25000000 </v>
   <v>       0.41666667       0.41666667       0.25000000 </v>
   <v>      -0.41666667       0.41666667       0.25000000 </v>
   <v>      -0.25000000       0.41666667       0.25000000 </v>
   <v>      -0.41666667      -0.41666667       0.25000000 </v>
   <v>       0.41666667       0.41666667       0.41666667 </v>
   <v>      -0.41666667       0.41666667       0.41666667 </v>
  </varray>
  <varray name="weights" >
   <v>       0.00925926 </v>
   <v>       0.02777778 </v>
   <v>       0.02777778 </v>
   <v>       0.02777778 </v>
   <v>       0.02777778 </v>
   <v>       0.02777778 </v>
   <v>       0.02777778 </v>
   <v>       0.05555556 </v>
   <v>       0.05555556 </v>
   <v>       0.05555556 </v>
   <v>       0.05555556 </v>
   <v>       0.02777778 </v>
   <v>       0.05555556 </v>
   <v>       0.05555556 </v>
   <v>       0.05555556 </v>
   <v>       0.02777778 </v>
   <v>       0.05555556 </v>
   <v>       0.02777778 </v>
   <v>       0.00925926 </v>
   <v>       0.02777778 </v>
   <v>       0.02777778 </v>
   <v>       0.02777778 </v>
   <v>       0.02777778 </v>
   <v>       0.05555556 </v>
   <v>       0.05555556 </v>
   <v>       0.02777778 </v>
   <v>       0.00925926 </v>
   <v>       0.02777778 </v>
  </varray>
 </kpoints>
 <parameters>
  <separator name="general" >
   <i type="string" name="SYSTEM">unknown system</i>
   <i type="logical" name="LCOMPAT"> F  </i>
  </separator>
  <separator name="electronic" >
   <i type="string" name="PREC">accura</i>
   <i name="ENMAX">    350.00000000</i>
   <i name="ENAUG">    322.06900000</i>
   <i name="EDIFF">      0.00000100</i>
   <i type="int" name="IALGO">    38</i>
   <i type="int" name="IWAVPR">    11</i>
   <i type="int" name="NBANDS">     8</i>
   <i type="int" name="NBANDSLOW">    -1</i>
   <i type="int" name="NBANDSHIGH">    -1</i>
   <i name="NELECT">      4.00000000</i>
   <i type="int" name="TURBO">     0</i>
   <i type="int" name="IRESTART">     0</i>
   <i type="int" name="NREBOOT">     0</i>
   <i type="int" name="NMIN">     0</i>
   <i name="EREF">      0.00000000</i>
   <separator name="electronic smearing" >
    <i type="int" name="ISMEAR">     0</i>
    <i name="SIGMA">      0.05000000</i>
    <i name="KSPACING">      0.50000000</i>
    <i type="logical" name="KGAMMA"> T  </i>
    <i type="logical" name="KBLOWUP"> T  </i>
   </separator>
   <separator name="electronic projectors" >
    <i type="logical" name="LREAL"> F  </i>
    <v name="ROPT">      0.00000000</v>
    <i type="int" name="LMAXPAW">  -100</i>
    <i type="int" name="LMAXMIX">     2</i>
    <i type="logical" name="NLSPLINE"> F  </i>
   </separator>
   <separator name="electronic startup" >
    <i type="int" name="ISTART">     0</i>
    <i type="int" name="ICHARG">     2</i>
    <i type="int" name="INIWAV">     1</i>
   </separator>
   <separator name="electronic spin" >
    <i type="int" name="ISPIN">     1</i>
    <i type="logical" name="LNONCOLLINEAR"> F  </i>
    <v name="MAGMOM">      1.00000000</v>
    <i name="NUPDOWN">     -1.00000000</i>
    <i type="logical" name="LSORBIT"> F  </i>
    <v name="SAXIS">      0.00000000      0.00000000      1.00000000</v>
    <i type="logical" name="LSPIRAL"> F  </i>
    <v name="QSPIRAL">      0.00000000      0.00000000      0.00000000</v>
    <i type="logical" name="LZEROZ"> F  </i>
   </separator>
   <separator name="electronic exchange-correlation" >
    <i type="logical" name="LASPH"> T  </i>
    <i type="logical" name="LMETAGGA"> F  </i>
   </separator>
   <separator name="electronic convergence" >
    <i type="int" name="NELM">    90</i>
    <i type="int" name="NELMDL">    -5</i>
    <i type="int" name="NELMIN">     6</i>
    <i name="ENINI">    350.00000000</i>
    <separator name="electronic convergence detail" >
     <i type="logical" name="LDIAG"> T  </i>
     <i type="logical" name="LSUBROT"> F  </i>
     <i name="WEIMIN">      0.00100000</i>
     <i name="EBREAK">      0.00000003</i>
     <i name="DEPER">      0.30000000</i>
     <i type="int" name="NRMM">     4</i>
     <i name="TIME">      0.40000000</i>
    </separator>
   </separator>
   <separator name="electronic mixer" >
    <i name="AMIX">      0.40000000</i>
    <i name="BMIX">      1.00000000</i>
    <i name="AMIN">      0.10000000</i>
    <i name="AMIX_MAG">      1.60000000</i>
    <i name="BMIX_MAG">      1.00000000</i>
    <separator name="electronic mixer details" >
     <i type="int" name="IMIX">     4</i>
     <i type="logical" name="MIXFIRST"> F  </i>
     <i type="int" name="MAXMIX">   -45</i>
     <i name="WC">    100.00000000</i>
     <i type="int" name="INIMIX">     1</i>
     <i type="int" name="MIXPRE">     1</i>
     <i type="int" name="MREMOVE">     5</i>
    </separator>
   </separator>
   <separator name="electronic dipolcorrection" >
    <i type="logical" name="LDIPOL"> F  </i>
    <i type="logical" name="LMONO"> F  </i>
    <i type="int" name="IDIPOL">     0</i>
    <i name="EPSILON">      1.00000000</i>
    <v name="DIPOL">   -100.00000000   -100.00000000   -100.00000000</v>
    <i name="EFIELD">      0.00000000</i>
   </separator>
  </separator>
  <separator name="grids" >
   <i type="int" name="NGX">    18</i>
   <i type="int" name="NGY">    18</i>
   <i type="int" name="NGZ">    18</i>
   <i type="int" name="NGXF">    36</i>
   <i type="int" name="NGYF">    36</i>
   <i type="int" name="NGZF">    36</i>
   <i type="logical" name="ADDGRID"> T  </i>
  </separator>
  <separator name="ionic" >
   <i type="int" name="NSW">   100</i>
   <i type="int" name="IBRION">     2</i>
   <i type="int" name="MDALGO">     0</i>
   <i type="int" name="ISIF">     3</i>
   <i name="PSTRESS">      0.00000000</i>
   <i name="EDIFFG">     -0.00200000</i>
   <i type="int" name="NFREE">     1</i>
   <i name="POTIM">      0.50000000</i>
   <i name="SMASS">     -3.00000000</i>
   <i name="SCALEE">      1.00000000</i>
  </separator>
  <separator name="ionic md" >
   <i name="TEBEG">      0.00010000</i>
   <i name="TEEND">      0.00010000</i>
   <i type="int" name="NBLOCK">     1</i>
   <i type="int" name="KBLOCK">   100</i>
   <i type="int" name="NPACO">   256</i>
   <i name="APACO">     16.00000000</i>
  </separator>
  <separator name="symmetry" >
   <i type="int" name="ISYM">     2</i>
   <i name="SYMPREC">      0.00001000</i>
  </separator>
  <separator name="dos" >
   <i type="int" name="LORBIT">     0</i>
   <v name="RWIGS">     -1.00000000</v>
   <i type="int" name="NEDOS">   301</i>
   <i name="EMIN">     10.00000000</i>
   <i name="EMAX">    -10.00000000</i>
   <i name="EFERMI">      0.00000000</i>
  </separator>
  <separator name="writing" >
   <i type="int" name="NWRITE">     2</i>
   <i type="logical" name="LWAVE"> F  </i>
   <i type="logical" name="LDOWNSAMPLE"> F  </i>
   <i type="logical" name="LCHARG"> F  </i>
   <i type="logical" name="LPARD"> F  </i>
   <i type="logical" name="LVTOT"> F  </i>
   <i type="logical" name="LVHAR"> F  </i>
   <i type="logical" name="LELF"> F  </i>
   <i type="logical" name="LOPTICS"> F  </i>
   <v name="STM">      0.00000000      0.00000000      0.00000000      0.00000000      0.00000000      0.00000000      0.00000000</v>
  </separator>
  <separator name="performance" >
   <i type="int" name="NPAR">     4</i>
   <i type="int" name="NSIM">     4</i>
   <i type="int" name="NBLK">    -1</i>
   <i type="logical" name="LPLANE"> T  </i>
   <i type="logical" name="LSCALAPACK"> T  </i>
   <i type="logical" name="LSCAAWARE"> F  </i>
   <i type="logical" name="LSCALU"> F  </i>
   <i type="logical" name="LASYNC"> F  </i>
   <i type="logical" name="LORBITALREAL"> F  </i>
  </separator>
  <separator name="miscellaneous" >
   <i type="int" name="IDIOT">     3</i>
   <i type="int" name="PHON_NSTRUCT">    -1</i>
   <i type="logical" name="LMUSIC"> F  </i>
   <v name="POMASS">     28.08500000</v>
   <v name="DARWINR">      0.00000000</v>
   <v name="DARWINV">      1.00000000</v>
   <i type="logical" name="LCORR"> T  </i>
  </separator>
  <i type="logical" name="GGA_COMPAT"> T  </i>
  <i type="logical" name="LBERRY"> F  </i>
  <i type="int" name="ICORELEVEL">     0</i>
  <i type="logical" name="LDAU"> F  </i>
  <i type="int" name="I_CONSTRAINED_M">     0</i>
  <separator name="electronic exchange-correlation" >
   <i type="string" name="GGA">--</i>
   <i type="int" name="VOSKOWN">     0</i>
   <i type="logical" name="LHFCALC"> F  </i>
   <i type="string" name="PRECFOCK"></i>
   <i type="logical" name="LSYMGRAD"> F  </i>
   <i type="logical" name="LHFONE"> F  </i>
   <i type="logical" name="LRHFCALC"> F  </i>
   <i type="logical" name="LTHOMAS"> F  </i>
   <i type="logical" name="LMODELHF"> F  </i>
   <i type="logical" name="LFOCKACE"> F  </i>
   <i name="ENCUT4O">     -1.00000000</i>
   <i type="int" name="EXXOEP">     0</i>
   <i type="int" name="FOURORBIT">     0</i>
   <i name="AEXX">      0.00000000</i>
   <i name="HFALPHA">      0.00000000</i>
   <i name="MCALPHA">      0.00000000</i>
   <i name="ALDAX">      1.00000000</i>
   <i name="AGGAX">      1.00000000</i>
   <i name="ALDAC">      1.00000000</i>
   <i name="AGGAC">      1.00000000</i>
   <i type="int" name="NKREDX">     1</i>
   <i type="int" name="NKREDY">     1</i>
   <i type="int" name="NKREDZ">     1</i>
   <i type="logical" name="SHIFTRED"> F  </i>
   <i type="logical" name="ODDONLY"> F  </i>
   <i type="logical" name="EVENONLY"> F  </i>
   <i type="int" name="LMAXFOCK">     0</i>
   <i type="int" name="NMAXFOCKAE">     0</i>
   <i type="logical" name="LFOCKAEDFT"> F  </i>
   <i name="HFSCREEN">      0.00000000</i>
   <i name="HFSCREENC">      0.00000000</i>
   <i type="int" name="NBANDSGWLOW">     0</i>
  </separator>
  <separator name="vdW DFT" >
   <i type="logical" name="LUSE_VDW"> F  </i>
   <i name="Zab_VDW">     -0.84910000</i>
   <i name="PARAM1">      0.12340000</i>
   <i name="PARAM2">      1.00000000</i>
   <i name="PARAM3">      0.00000000</i>
  </separator>
  <separator name="model GW" >
   <i type="int" name="MODEL_GW">     0</i>
   <i name="MODEL_EPS0">      8.44895106</i>
   <i name="MODEL_ALPHA">      1.00000000</i>
  </separator>
  <separator name="linear response parameters" >
   <i type="logical" name="LEPSILON"> F  </i>
   <i type="logical" name="LRPA"> F  </i>
   <i type="logical" name="LNABLA"> F  </i>
   <i type="logical" name="LVEL"> F  </i>
   <i type="int" name="KINTER">     0</i>
   <i name="CSHIFT">      0.10000000</i>
   <i name="OMEGAMAX">     -1.00000000</i>
   <i name="DEG_THRESHOLD">      0.00200000</i>
   <i name="RTIME">     -0.10000000</i>
   <i name="WPLASMAI">      0.00000000</i>
   <v name="DFIELD">      0.00000000      0.00000000      0.00000000</v>
   <v name="WPLASMA">      0.00000000      0.00000000      0.00000000      0.00000000      0.00000000      0.00000000      0.00000000      0.00000000      0.00000000</v>
  </separator>
  <separator name="orbital magnetization" >
   <i type="logical" name="NUCIND"> F  </i>
   <v name="MAGPOS">      0.00000000      0.00000000      0.00000000</v>
   <i type="logical" name="LNICSALL"> T  </i>
   <i type="logical" name="ORBITALMAG"> F  </i>
   <i type="logical" name="LMAGBLOCH"> F  </i>
   <i type="logical" name="LCHIMAG"> F  </i>
   <i type="logical" name="LGAUGE"> T  </i>
   <i type="int" name="MAGATOM">     0</i>
   <v name="MAGDIPOL">      0.00000000      0.00000000      0.00000000</v>
   <v name="AVECCONST">      0.00000000      0.00000000      0.00000000</v>
  </separator>
  <separator name="response functions" >
   <i type="logical" name="LFINITE_TEMPERATURE"> F  </i>
   <i type="logical" name="LADDER"> F  </i>
   <i type="logical" name="LRPAFORCE"> F  </i>
   <i type="logical" name="LFXC"> F  </i>
   <i type="logical" name="LHARTREE"> T  </i>
   <i type="int" name="IBSE">     0</i>
   <v type="int" name="KPOINT">    -1     0     0     0</v>
   <i type="logical" name="LTCTC"> F  </i>
   <i type="logical" name="LTCTE"> F  </i>
   <i type="logical" name="LTETE"> F  </i>
   <i type="logical" name="LTRIPLET"> F  </i>
   <i type="logical" name="LFXCEPS"> F  </i>
   <i type="logical" name="LFXHEG"> F  </i>
   <i type="int" name="NATURALO">     2</i>
   <i type="logical" name="LHOLEGF"> F  </i>
   <i type="logical" name="L2ORDER"> F  </i>
   <i type="logical" name="LDMP1"> F  </i>
   <i type="logical" name="LMP2LT"> F  </i>
   <i type="logical" name="LSMP2LT"> F  </i>
   <i type="logical" name="LGWLF"> F  </i>
   <i name="ENCUTGW">     -2.00000000</i>
   <i name="ENCUTGWSOFT">     -2.00000000</i>
   <i name="ENCUTLF">     -1.00000000</i>
   <i type="logical" name="LESF_SPLINES"> F  </i>
   <i type="int" name="LMAXMP2">    -1</i>
   <i name="SCISSOR">      0.00000000</i>
   <i type="int" name="NOMEGA">     0</i>
   <i type="int" name="NOMEGAR">     0</i>
   <i type="int" name="NBANDSGW">    -1</i>
   <i type="int" name="NBANDSO">    -1</i>
   <i type="int" name="NBANDSV">    -1</i>
   <i type="int" name="NELM">    90</i>
   <i type="int" name="NELMHF">     1</i>
   <i type="int" name="DIM">     3</i>
   <i type="int" name="IESPILON">     4</i>
   <i type="int" name="ANTIRES">     0</i>
   <i name="OMEGAMAX">    -30.00000000</i>
   <i name="OMEGAMIN">    -30.00000000</i>
   <i name="OMEGATL">   -200.00000000</i>
   <i type="int" name="OMEGAGRID">     0</i>
   <i name="CSHIFT">     -0.10000000</i>
   <i type="logical" name="LSELFENERGY"> F  </i>
   <i type="logical" name="LSPECTRAL"> F  </i>
   <i type="logical" name="LSPECTRALGW"> F  </i>
   <i type="logical" name="LSINGLES"> F  </i>
   <i type="logical" name="LFERMIGW"> F  </i>
   <i type="logical" name="ODDONLYGW"> F  </i>
   <i type="logical" name="EVENONLYGW"> F  </i>
   <i type="int" name="NKREDLFX">     1</i>
   <i type="int" name="NKREDLFY">     1</i>
   <i type="int" name="NKREDLFZ">     1</i>
   <i type="int" name="MAXMEM">  2800</i>
   <i type="int" name="TELESCOPE">     0</i>
   <i type="int" name="NTAUPAR">    -1</i>
   <i type="int" name="NOMEGAPAR">    -1</i>
   <i name="DAMP_NEWTON">      0.80000001</i>
   <i name="LAMBDA">      1.00000000</i>
  </separator>
  <separator name="External order field" >
   <i name="OFIELD_KAPPA">      0.00000000</i>
   <v name="OFIELD_K">      0.00000000      0.00000000      0.00000000</v>
   <i name="OFIELD_Q6_NEAR">      0.00000000</i>
   <i name="OFIELD_Q6_FAR">      0.00000000</i>
   <i name="OFIELD_A">      0.00000000</i>
  </separator>
 </parameters>
 <atominfo>
  <atoms>       1 </atoms>
  <types>       1 </types>
  <array name="atoms" >
   <dimension dim="1">ion</dimension>
   <field type="string">element</field>
   <field type="int">atomtype</field>
   <set>
    <rc><c>Si</c><c>   1</c></rc>
   </set>
  </array>
  <array name="atomtypes" >
   <dimension dim="1">type</dimension>
   <field type="int">atomspertype</field>
   <field type="string">element</field>
   <field>mass</field>
   <field>valence</field>
   <field type="string">pseudopotential</field>
   <set>
    <rc><c>   1</c><c>Si</c><c>     28.08500000</c><c>      4.00000000</c><c>  PAW_PBE Si 05Jan2001                  </c></rc>
   </set>
  </array>
 </atominfo>
 <structure name="initialpos" >
  <crystal>
   <varray name="basis" >
    <v>       2.34739500       0.00000000       1.35526800 </v>
    <v>       0.78246500       2.21314500       1.35526800 </v>
    <v>       0.00000000       0.00000000       2.71053800 </v>
   </varray>
   <i name="volume">     14.08158510 </i>
   <varray name="rec_basis" >
    <v>       0.42600415      -0.15061523       0.00000000 </v>
    <v>       0.00000000       0.45184568       0.00000000 </v>
    <v>      -0.21300192      -0.15061511       0.36893045 </v>
   </varray>
  </crystal>
  <varray name="positions" >
   <v>       0.00000000       0.00000000       0.00000000 </v>
  </varray>
 </structure>
 <calculation>
  <scstep>
   <time name="dav">    0.14    0.14</time>
   <time name="total">    0.32    0.32</time>
   <energy>
    <i name="alphaZ">      2.39057823 </i>
    <i name="ewald">   -137.78496289 </i>
    <i name="hartreedc">     -0.54229904 </i>
    <i name="XCdc">     -8.73348015 </i>
    <i name="pawpsdc">     88.12379961 </i>
    <i name="pawaedc">    -70.53051779 </i>
    <i name="eentropy">     -0.00090494 </i>
    <i name="bandstr">     20.65630180 </i>
    <i name="atom">    103.06562707 </i>
    <i name="e_fr_energy">     -3.35585810 </i>
    <i name="e_wo_entrp">     -3.35495316 </i>
    <i name="e_0_energy">     -3.35540563 </i>
   </energy>
  </scstep>
  <scstep>
   <time name="dav">    0.19    0.20</time>
   <time name="total">    0.19    0.20</time>
   <energy>
    <i name="e_fr_energy">     -4.89326488 </i>
    <i name="e_wo_entrp">     -4.89227154 </i>
    <i name="e_0_energy">     -4.89276821 </i>
   </energy>
  </scstep>
  <scstep>
   <time name="dav">    0.14    0.15</time>
   <time name="total">    0.14    0.15</time>
   <energy>
    <i name="e_fr_energy">     -4.89977622 </i>
    <i name="e_wo_entrp">     -4.89878365 </i>
    <i name="e_0_energy">     -4.89927993 </i>
   </energy>
  </scstep>
  <scstep>
   <time name="dav">    0.23    0.23</time>
   <time name="total">    0.23    0.24</time>
   <energy>
    <i name="e_fr_energy">     -4.89978079 </i>
    <i name="e_wo_entrp">     -4.89878823 </i>
    <i name="e_0_energy">     -4.89928451 </i>
   </energy>
  </scstep>
  <scstep>
   <time name="dav">    0.13    0.14</time>
   <time name="total">    0.15    0.16</time>
   <energy>
    <i name="e_fr_energy">     -4.89978079 </i>
    <i name="e_wo_entrp">     -4.89878823 </i>
    <i name="e_0_energy">     -4.89928451 </i>
   </energy>
  </scstep>
  <scstep>
   <time name="dav">    0.16    0.16</time>
   <time name="total">    0.36    0.37</time>
   <energy>
    <i name="e_fr_energy">     -4.88546763 </i>
    <i name="e_wo_entrp">     -4.88447950 </i>
    <i name="e_0_energy">     -4.88497356 </i>
   </energy>
  </scstep>
  <scstep>
   <time name="dav">    0.16    0.16</time>
   <time name="total">    0.36    0.37</time>
   <energy>
    <i name="e_fr_energy">     -4.87722605 </i>
    <i name="e_wo_entrp">     -4.87624161 </i>
    <i name="e_0_energy">     -4.87673383 </i>
   </energy>
  </scstep>
  <scstep>
   <time name="dav">    0.17    0.17</time>
   <time name="total">    0.37    0.38</time>
   <energy>
    <i name="e_fr_energy">     -4.87718407 </i>
    <i name="e_wo_entrp">     -4.87619966 </i>
    <i name="e_0_energy">     -4.87669186 </i>
   </energy>
  </scstep>
  <scstep>
   <time name="dav">    0.18    0.18</time>
   <time name="total">    0.36    0.36</time>
   <energy>
    <i name="alphaZ">      2.39057823 </i>
    <i name="ewald">   -137.78496289 </i>
    <i name="hartreedc">     -0.39682212 </i>
    <i name="XCdc">     -8.67216353 </i>
    <i name="pawpsdc">    315.21677370 </i>
    <i name="pawaedc">   -297.63309674 </i>
    <i name="eentropy">     -0.00098440 </i>
    <i name="bandstr">     18.93786637 </i>
    <i name="atom">    103.06562707 </i>
    <i name="e_fr_energy">     -4.87718431 </i>
    <i name="e_wo_entrp">     -4.87619991 </i>
    <i name="e_0_energy">     -4.87669211 </i>
   </energy>
  </scstep>
  <structure>
   <crystal>
    <varray name="basis" >
     <v>       2.34739500       0.00000000       1.35526800 </v>
     <v>       0.78246500       2.21314500       1.35526800 </v>
     <v>       0.00000000       0.00000000       2.71053800 </v>
    </varray>
    <i name="volume">     14.08158510 </i>
    <varray name="rec_basis" >
     <v>       0.42600415      -0.15061523       0.00000000 </v>
     <v>       0.00000000       0.45184568       0.00000000 </v>
     <v>      -0.21300192      -0.15061511       0.36893045 </v>
    </varray>
   </crystal>
   <varray name="positions" >
    <v>       0.00000000       0.00000000       0.00000000 </v>
   </varray>
  </structure>
  <varray name="forces" >
   <v>       0.00000000       0.00000000      -0.00000000 </v>
  </varray>
  <varray name="stress" >
   <v>      11.36350921       0.00000000      -0.00000484 </v>
   <v>      -0.00000000      11.36350685      -0.00000342 </v>
   <v>      -0.00000484      -0.00000342      11.36350695 </v>
  </varray>
  <energy>
   <i name="e_fr_energy">     -4.87718431 </i>
   <i name="e_wo_entrp">     -4.87619991 </i>
   <i name="e_0_energy">     -4.87669211 </i>
  </energy>
  <time name="totalsc">    3.16    3.29</time>
 </calculation>
 <calculation>
  <scstep>
   <time name="dav">    0.15    0.15</time>
   <time name="total">    0.35    0.35</time>
   <energy>
    <i name="alphaZ">      2.35635373 </i>
    <i name="ewald">   -137.12427112 </i>
    <i name="hartreedc">     -0.39487692 </i>
    <i name="XCdc">     -8.70982399 </i>
    <i name="pawpsdc">    315.26993383 </i>
    <i name="pawaedc">   -297.68599089 </i>
    <i name="eentropy">     -0.00098182 </i>
    <i name="bandstr">     18.34594568 </i>
    <i name="atom">    103.06562707 </i>
    <i name="e_fr_energy">     -4.87808445 </i>
    <i name="e_wo_entrp">     -4.87710263 </i>
    <i name="e_0_energy">     -4.87759354 </i>
   </energy>
  </scstep>
  <scstep>
   <time name="dav">    0.17    0.17</time>
   <time name="total">    0.37    0.39</time>
   <energy>
    <i name="e_fr_energy">     -4.87785634 </i>
    <i name="e_wo_entrp">     -4.87687449 </i>
    <i name="e_0_energy">     -4.87736542 </i>
   </energy>
  </scstep>
  <scstep>
   <time name="dav">    0.15    0.15</time>
   <time name="total">    0.35    0.36</time>
   <energy>
    <i name="e_fr_energy">     -4.87772017 </i>
    <i name="e_wo_entrp">     -4.87673826 </i>
    <i name="e_0_energy">     -4.87722922 </i>
   </energy>
  </scstep>
  <scstep>
   <time name="dav">    0.16    0.16</time>
   <time name="total">    0.36    0.37</time>
   <energy>
    <i name="e_fr_energy">     -4.87771989 </i>
    <i name="e_wo_entrp">     -4.87673798 </i>
    <i name="e_0_energy">     -4.87722894 </i>
   </energy>
  </scstep>
  <scstep>
   <time name="dav">    0.09    0.09</time>
   <time name="total">    0.29    0.30</time>
   <energy>
    <i name="e_fr_energy">     -4.87771863 </i>
    <i name="e_wo_entrp">     -4.87673672 </i>
    <i name="e_0_energy">     -4.87722768 </i>
   </energy>
  </scstep>
  <scstep>
   <time name="dav">    0.09    0.09</time>
   <time name="total">    0.27    0.28</time>
   <energy>
    <i name="alphaZ">      2.35635373 </i>
    <i name="ewald">   -137.12427112 </i>
    <i name="hartreedc">     -0.41538145 </i>
    <i name="XCdc">     -8.71515713 </i>
    <i name="pawpsdc">    305.17422732 </i>
    <i name="pawaedc">   -287.58735906 </i>
    <i name="eentropy">     -0.00098191 </i>
    <i name="bandstr">     18.36922383 </i>
    <i name="atom">    103.06562707 </i>
    <i name="e_fr_energy">     -4.87771872 </i>
    <i name="e_wo_entrp">     -4.87673681 </i>
    <i name="e_0_energy">     -4.87722776 </i>
   </energy>
  </scstep>
  <structure>
   <crystal>
    <varray name="basis" >
     <v>       2.35870521      -0.00000000       1.36179794 </v>
     <v>       0.78623507       2.22380837       1.36179794 </v>
     <v>      -0.00000001      -0.00000000       2.72359791 </v>
    </varray>
    <i name="volume">     14.28611095 </i>
    <varray name="rec_basis" >
     <v>       0.42396142      -0.14989301       0.00000000 </v>
     <v>       0.00000000       0.44967903       0.00000000 </v>
     <v>      -0.21198055      -0.14989290       0.36716139 </v>
    </varray>
   </crystal>
   <varray name="positions" >
    <v>       0.00000000       0.00000000      -0.00000000 </v>
   </varray>
  </structure>
  <varray name="forces" >
   <v>      -0.00000000       0.00000000      -0.00000000 </v>
  </varray>
  <varray name="stress" >
   <v>      -2.75081058      -0.00000000       0.00000118 </v>
   <v>      -0.00000000      -2.75081000       0.00000084 </v>
   <v>       0.00000118       0.00000084      -2.75081003 </v>
  </varray>
  <energy>
   <i name="e_fr_energy">     -4.87771872 </i>
   <i name="e_wo_entrp">     -4.87673681 </i>
   <i name="e_0_energy">     -4.87722776 </i>
  </energy>
  <time name="totalsc">    2.67    2.79</time>
 </calculation>
 <calculation>
  <scstep>
   <time name="dav">    0.15    0.15</time>
   <time name="total">    0.35    0.35</time>
   <energy>
    <i name="alphaZ">      2.36323579 </i>
    <i name="ewald">   -137.25763830 </i>
    <i name="hartreedc">     -0.41578608 </i>
    <i name="XCdc">     -8.70759792 </i>
    <i name="pawpsdc">    305.12939129 </i>
    <i name="pawaedc">   -287.54252686 </i>
    <i name="eentropy">     -0.00098217 </i>
    <i name="bandstr">     18.48850809 </i>
    <i name="atom">    103.06562707 </i>
    <i name="e_fr_energy">     -4.87776908 </i>
    <i name="e_wo_entrp">     -4.87678691 </i>
    <i name="e_0_energy">     -4.87727799 </i>
   </energy>
  </scstep>
  <scstep>
   <time name="dav">    0.17    0.17</time>
   <time name="total">    0.36    0.37</time>
   <energy>
    <i name="e_fr_energy">     -4.87775983 </i>
    <i name="e_wo_entrp">     -4.87677767 </i>
    <i name="e_0_energy">     -4.87726875 </i>
   </energy>
  </scstep>
  <scstep>
   <time name="dav">    0.15    0.15</time>
   <time name="total">    0.35    0.36</time>
   <energy>
    <i name="e_fr_energy">     -4.87775469 </i>
    <i name="e_wo_entrp">     -4.87677256 </i>
    <i name="e_0_energy">     -4.87726363 </i>
   </energy>
  </scstep>
  <scstep>
   <time name="dav">    0.09    0.09</time>
   <time name="total">    0.29    0.30</time>
   <energy>
    <i name="e_fr_energy">     -4.87775473 </i>
    <i name="e_wo_entrp">     -4.87677259 </i>
    <i name="e_0_energy">     -4.87726366 </i>
   </energy>
  </scstep>
  <scstep>
   <time name="dav">    0.08    0.08</time>
   <time name="total">    0.28    0.29</time>
   <energy>
    <i name="e_fr_energy">     -4.87775490 </i>
    <i name="e_wo_entrp">     -4.87677277 </i>
    <i name="e_0_energy">     -4.87726383 </i>
   </energy>
  </scstep>
  <scstep>
   <time name="dav">    0.08    0.08</time>
   <time name="total">    0.26    0.27</time>
   <energy>
    <i name="alphaZ">      2.36323579 </i>
    <i name="ewald">   -137.25763830 </i>
    <i name="hartreedc">     -0.41151723 </i>
    <i name="XCdc">     -8.70651111 </i>
    <i name="pawpsdc">    307.09077027 </i>
    <i name="pawaedc">   -289.50448254 </i>
    <i name="eentropy">     -0.00098214 </i>
    <i name="bandstr">     18.48374330 </i>
    <i name="atom">    103.06562707 </i>
    <i name="e_fr_energy">     -4.87775489 </i>
    <i name="e_wo_entrp">     -4.87677275 </i>
    <i name="e_0_energy">     -4.87726382 </i>
   </energy>
  </scstep>
  <structure>
   <crystal>
    <varray name="basis" >
     <v>       2.35641336      -0.00000000       1.36047475 </v>
     <v>       0.78547112       2.22164759       1.36047475 </v>
     <v>      -0.00000000      -0.00000000       2.72095151 </v>
    </varray>
    <i name="volume">     14.24450785 </i>
    <varray name="rec_basis" >
     <v>       0.42437376      -0.15003880       0.00000000 </v>
     <v>       0.00000000       0.45011639       0.00000000 </v>
     <v>      -0.21218672      -0.15003869       0.36751849 </v>
    </varray>
   </crystal>
   <varray name="positions" >
    <v>       0.00000000       0.00000000      -0.00000000 </v>
   </varray>
  </structure>
  <varray name="forces" >
   <v>      -0.00000000      -0.00000000      -0.00000000 </v>
  </varray>
  <varray name="stress" >
   <v>       0.03254775       0.00000000      -0.00000001 </v>
   <v>       0.00000000       0.03254774      -0.00000001 </v>
   <v>      -0.00000001      -0.00000001       0.03254774 </v>
  </varray>
  <energy>
   <i name="e_fr_energy">     -4.87775489 </i>
   <i name="e_wo_entrp">     -4.87677275 </i>
   <i name="e_0_energy">     -4.87726382 </i>
  </energy>
  <time name="totalsc">    2.55    2.67</time>
  <eigenvalues>
   <array>
    <dimension dim="1">band</dimension>
    <dimension dim="2">kpoint</dimension>
    <dimension dim="3">spin</dimension>
    <field>eigene</field>
    <field>occ</field>
    <set>
     <set comment="spin 1">
      <set comment="kpoint 1">
       <r>   -4.0199    1.0000 </r>
       <r>   18.7779    0.0000 </r>
       <r>   20.7831    0.0000 </r>
       <r>   20.7831    0.0000 </r>
       <r>   23.5568    0.0000 </r>
       <r>   23.5568    0.0000 </r>
       <r>   23.6368    0.0000 </r>
       <r>   28.4260    0.0000 </r>
      </set>
      <set comment="kpoint 2">
       <r>   -2.9332    1.0000 </r>
       <r>   14.1287    0.0000 </r>
       <r>   16.9757    0.0000 </r>
       <r>   21.1595    0.0000 </r>
       <r>   23.5531    0.0000 </r>
       <r>   24.5761    0.0000 </r>
       <r>   25.2344    0.0000 </r>
       <r>   25.8720    0.0000 </r>
      </set>
      <set comment="kpoint 3">
       <r>   -0.2444    1.0000 </r>
       <r>    7.6469    1.0000 </r>
       <r>   16.4677    0.0000 </r>
       <r>   19.4359    0.0000 </r>
       <r>   22.2215    0.0000 </r>
       <r>   22.3791    0.0000 </r>
       <r>   24.7283    0.0000 </r>
       <r>   29.1289    0.0000 </r>
      </set>
      <set comment="kpoint 4">
       <r>    2.3719    1.0000 </r>
       <r>    4.0594    1.0000 </r>
       <r>   17.3046    0.0000 </r>
       <r>   17.9316    0.0000 </r>
       <r>   20.5754    0.0000 </r>
       <r>   22.7804    0.0000 </r>
       <r>   25.1444    0.0000 </r>
       <r>   28.0321    0.0000 </r>
      </set>
      <set comment="kpoint 5">
       <r>   -1.3149    1.0000 </r>
       <r>    9.6828    1.0000 </r>
       <r>   17.5439    0.0000 </r>
       <r>   18.8609    0.0000 </r>
       <r>   20.8320    0.0000 </r>
       <r>   24.8914    0.0000 </r>
       <r>   25.1214    0.0000 </r>
       <r>   27.7750    0.0000 </r>
      </set>
      <set comment="kpoint 6">
       <r>   -3.4758    1.0000 </r>
       <r>   16.4898    0.0000 </r>
       <r>   18.5094    0.0000 </r>
       <r>   20.2355    0.0000 </r>
       <r>   21.9212    0.0000 </r>
       <r>   24.9190    0.0000 </r>
       <r>   25.7272    0.0000 </r>
       <r>   26.3045    0.0000 </r>
      </set>
      <set comment="kpoint 7">
       <r>   -2.3917    1.0000 </r>
       <r>   14.5559    0.0000 </r>
       <r>   16.6354    0.0000 </r>
       <r>   18.2216    0.0000 </r>
       <r>   19.4108    0.0000 </r>
       <r>   21.7677    0.0000 </r>
       <r>   28.6075    0.0000 </r>
       <r>   28.7883    0.0000 </r>
      </set>
      <set comment="kpoint 8">
       <r>   -0.2419    1.0000 </r>
       <r>   10.6417    0.0000 </r>
       <r>   13.6456    0.0000 </r>
       <r>   15.2846    0.0000 </r>
       <r>   20.0941    0.0000 </r>
       <r>   22.9947    0.0000 </r>
       <r>   27.1099    0.0000 </r>
       <r>   30.8538    0.0000 </r>
      </set>
      <set comment="kpoint 9">
       <r>    3.4291    1.0000 </r>
       <r>    5.0891    1.0000 </r>
       <r>   12.7108    0.0000 </r>
       <r>   14.2526    0.0000 </r>
       <r>   20.6336    0.0000 </r>
       <r>   24.7647    0.0000 </r>
       <r>   28.4485    0.0000 </r>
       <r>   30.5017    0.0000 </r>
      </set>
      <set comment="kpoint 10">
       <r>    0.8227    1.0000 </r>
       <r>    8.6230    1.0000 </r>
       <r>   11.7934    0.0000 </r>
       <r>   16.1372    0.0000 </r>
       <r>   22.3920    0.0000 </r>
       <r>   23.9650    0.0000 </r>
       <r>   26.5933    0.0000 </r>
       <r>   29.7847    0.0000 </r>
      </set>
      <set comment="kpoint 11">
       <r>   -1.8524    1.0000 </r>
       <r>   12.1523    0.0000 </r>
       <r>   15.1277    0.0000 </r>
       <r>   19.1600    0.0000 </r>
       <r>   21.5983    0.0000 </r>
       <r>   24.1376    0.0000 </r>
       <r>   25.8339    0.0000 </r>
       <r>   27.4959    0.0000 </r>
      </set>
      <set comment="kpoint 12">
       <r>    1.3552    1.0000 </r>
       <r>   10.7148    0.0000 </r>
       <r>   12.1327    0.0000 </r>
       <r>   14.2667    0.0000 </r>
       <r>   16.4363    0.0000 </r>
       <r>   19.1486    0.0000 </r>
       <r>   32.2998    0.0000 </r>
       <r>   34.1781    0.0000 </r>
      </set>
      <set comment="kpoint 13">
       <r>    4.4744    1.0000 </r>
       <r>    7.6928    1.0000 </r>
       <r>    9.1795    1.0000 </r>
       <r>   12.2714    0.0000 </r>
       <r>   18.6223    0.0000 </r>
       <r>   21.7062    0.0000 </r>
       <r>   31.1237    0.0000 </r>
       <r>   33.3030    0.0000 </r>
      </set>
      <set comment="kpoint 14">
       <r>    4.4780    1.0000 </r>
       <r>    6.0767    1.0000 </r>
       <r>    9.2985    1.0000 </r>
       <r>   13.7251    0.0000 </r>
       <r>   20.1950    0.0000 </r>
       <r>   26.8785    0.0000 </r>
       <r>   28.3952    0.0000 </r>
       <r>   29.7729    0.0000 </r>
      </set>
      <set comment="kpoint 15">
       <r>    1.3483    1.0000 </r>
       <r>    6.1036    1.0000 </r>
       <r>   15.0657    0.0000 </r>
       <r>   16.6165    0.0000 </r>
       <r>   21.3985    0.0000 </r>
       <r>   23.0908    0.0000 </r>
       <r>   27.0514    0.0000 </r>
       <r>   30.0963    0.0000 </r>
      </set>
      <set comment="kpoint 16">
       <r>    3.9570    1.0000 </r>
       <r>    7.2120    1.0000 </r>
       <r>   11.6099    0.0000 </r>
       <r>   13.7909    0.0000 </r>
       <r>   15.9087    0.0000 </r>
       <r>   18.6614    0.0000 </r>
       <r>   34.1175    0.0000 </r>
       <r>   35.8824    0.0000 </r>
      </set>
      <set comment="kpoint 17">
       <r>    1.8829    1.0000 </r>
       <r>    9.6078    1.0000 </r>
       <r>   11.2501    0.0000 </r>
       <r>   12.8072    0.0000 </r>
       <r>   19.1150    0.0000 </r>
       <r>   22.1473    0.0000 </r>
       <r>   28.9367    0.0000 </r>
       <r>   33.5002    0.0000 </r>
      </set>
      <set comment="kpoint 18">
       <r>   -0.7764    1.0000 </r>
       <r>   13.0597    0.0000 </r>
       <r>   14.6729    0.0000 </r>
       <r>   15.2165    0.0000 </r>
       <r>   17.5050    0.0000 </r>
       <r>   20.1281    0.0000 </r>
       <r>   30.4204    0.0000 </r>
       <r>   31.7295    0.0000 </r>
      </set>
      <set comment="kpoint 19">
       <r>   -2.3924    1.0000 </r>
       <r>   11.6946    0.0000 </r>
       <r>   19.3294    0.0000 </r>
       <r>   19.3294    0.0000 </r>
       <r>   23.6377    0.0000 </r>
       <r>   23.9399    0.0000 </r>
       <r>   23.9399    0.0000 </r>
       <r>   28.6305    0.0000 </r>
      </set>
      <set comment="kpoint 20">
       <r>   -0.7779    1.0000 </r>
       <r>   10.1486    1.0000 </r>
       <r>   13.2674    0.0000 </r>
       <r>   19.2205    0.0000 </r>
       <r>   22.2173    0.0000 </r>
       <r>   24.3245    0.0000 </r>
       <r>   26.4026    0.0000 </r>
       <r>   27.0865    0.0000 </r>
      </set>
      <set comment="kpoint 21">
       <r>    2.4067    1.0000 </r>
       <r>    7.0895    1.0000 </r>
       <r>   10.3110    0.9999 </r>
       <r>   16.5958    0.0000 </r>
       <r>   19.3263    0.0000 </r>
       <r>   26.9457    0.0000 </r>
       <r>   28.9289    0.0000 </r>
       <r>   29.8051    0.0000 </r>
      </set>
      <set comment="kpoint 22">
       <r>    2.4062    1.0000 </r>
       <r>    7.1224    1.0000 </r>
       <r>   11.7709    0.0000 </r>
       <r>   15.2079    0.0000 </r>
       <r>   17.7689    0.0000 </r>
       <r>   25.1857    0.0000 </r>
       <r>   28.2143    0.0000 </r>
       <r>   31.0903    0.0000 </r>
      </set>
      <set comment="kpoint 23">
       <r>    0.2903    1.0000 </r>
       <r>    8.1522    1.0000 </r>
       <r>   15.5909    0.0000 </r>
       <r>   16.1496    0.0000 </r>
       <r>   18.8154    0.0000 </r>
       <r>   25.7655    0.0000 </r>
       <r>   26.3291    0.0000 </r>
       <r>   29.0598    0.0000 </r>
      </set>
      <set comment="kpoint 24">
       <r>    2.9325    1.0000 </r>
       <r>    7.5972    1.0000 </r>
       <r>   10.7514    0.0000 </r>
       <r>   12.3688    0.0000 </r>
       <r>   22.7490    0.0000 </r>
       <r>   24.3072    0.0000 </r>
       <r>   26.1674    0.0000 </r>
       <r>   31.7806    0.0000 </r>
      </set>
      <set comment="kpoint 25">
       <r>    5.4932    1.0000 </r>
       <r>    7.0688    1.0000 </r>
       <r>    8.7533    1.0000 </r>
       <r>   10.4076    0.8334 </r>
       <r>   22.3994    0.0000 </r>
       <r>   25.0379    0.0000 </r>
       <r>   27.1022    0.0000 </r>
       <r>   29.7454    0.0000 </r>
      </set>
      <set comment="kpoint 26">
       <r>    4.9749    1.0000 </r>
       <r>    6.5871    1.0000 </r>
       <r>    8.3125    1.0000 </r>
       <r>   14.7347    0.0000 </r>
       <r>   17.2551    0.0000 </r>
       <r>   24.8162    0.0000 </r>
       <r>   30.4333    0.0000 </r>
       <r>   32.5713    0.0000 </r>
      </set>
      <set comment="kpoint 27">
       <r>    0.8161    1.0000 </r>
       <r>    5.5913    1.0000 </r>
       <r>   19.0363    0.0000 </r>
       <r>   19.0363    0.0000 </r>
       <r>   21.6724    0.0000 </r>
       <r>   21.6724    0.0000 </r>
       <r>   23.7442    0.0000 </r>
       <r>   26.7146    0.0000 </r>
      </set>
      <set comment="kpoint 28">
       <r>    2.9023    1.0000 </r>
       <r>    4.5743    1.0000 </r>
       <r>   13.7158    0.0000 </r>
       <r>   17.0526    0.0000 </r>
       <r>   19.7770    0.0000 </r>
       <r>   24.6226    0.0000 </r>
       <r>   27.1112    0.0000 </r>
       <r>   31.7703    0.0000 </r>
      </set>
     </set>
    </set>
   </array>
  </eigenvalues>
  <separator name="orbital magnetization" >
   <v name="MAGDIPOLOUT">      0.00000000      0.00000000      0.00000000</v>
  </separator>
  <dos>
   <i name="efermi">     10.44184749 </i>
   <total>
    <array>
     <dimension dim="1">gridpoints</dimension>
     <dimension dim="2">spin</dimension>
     <field>energy</field>
     <field>total</field>
     <field>integrated</field>
     <set>
      <set comment="spin 1">
       <r>    -6.0151     0.0000     0.0000 </r>
       <r>    -5.8688     0.0000     0.0000 </r>
       <r>    -5.7224     0.0000     0.0000 </r>
       <r>    -5.5761     0.0000     0.0000 </r>
       <r>    -5.4298     0.0000     0.0000 </r>
       <r>    -5.2835     0.0000     0.0000 </r>
       <r>    -5.1372     0.0000     0.0000 </r>
       <r>    -4.9909     0.0000     0.0000 </r>
       <r>    -4.8446     0.0000     0.0000 </r>
       <r>    -4.6983     0.0000     0.0000 </r>
       <r>    -4.5520     0.0000     0.0000 </r>
       <r>    -4.4057     0.0000     0.0000 </r>
       <r>    -4.2594     0.0000     0.0000 </r>
       <r>    -4.1130     0.0005     0.0001 </r>
       <r>    -3.9667     0.1177     0.0173 </r>
       <r>    -3.8204     0.0084     0.0185 </r>
       <r>    -3.6741     0.0000     0.0185 </r>
       <r>    -3.5278     0.0268     0.0224 </r>
       <r>    -3.3815     0.3514     0.0739 </r>
       <r>    -3.2352     0.0015     0.0741 </r>
       <r>    -3.0889     0.0000     0.0741 </r>
       <r>    -2.9426     0.1503     0.0961 </r>
       <r>    -2.7963     0.2294     0.1296 </r>
       <r>    -2.6500     0.0000     0.1296 </r>
       <r>    -2.5037     0.0004     0.1297 </r>
       <r>    -2.3573     0.4227     0.1915 </r>
       <r>    -2.2110     0.0832     0.2037 </r>
       <r>    -2.0647     0.0000     0.2037 </r>
       <r>    -1.9184     0.0234     0.2071 </r>
       <r>    -1.7721     0.7272     0.3135 </r>
       <r>    -1.6258     0.0088     0.3148 </r>
       <r>    -1.4795     0.0000     0.3148 </r>
       <r>    -1.3332     0.1148     0.3316 </r>
       <r>    -1.1869     0.2649     0.3704 </r>
       <r>    -1.0406     0.0001     0.3704 </r>
       <r>    -0.8943     0.0004     0.3704 </r>
       <r>    -0.7480     0.6037     0.4588 </r>
       <r>    -0.6016     0.1554     0.4815 </r>
       <r>    -0.4553     0.0000     0.4815 </r>
       <r>    -0.3090     0.0347     0.4866 </r>
       <r>    -0.1627     1.0909     0.6462 </r>
       <r>    -0.0164     0.0135     0.6481 </r>
       <r>     0.1299     0.0000     0.6481 </r>
       <r>     0.2762     0.1311     0.6673 </r>
       <r>     0.4225     0.2486     0.7037 </r>
       <r>     0.5688     0.0000     0.7037 </r>
       <r>     0.7151     0.0012     0.7039 </r>
       <r>     0.8614     0.7683     0.8163 </r>
       <r>     1.0077     0.1166     0.8333 </r>
       <r>     1.1541     0.0000     0.8333 </r>
       <r>     1.3004     0.0895     0.8464 </r>
       <r>     1.4467     1.0458     0.9994 </r>
       <r>     1.5930     0.0039     1.0000 </r>
       <r>     1.7393     0.0000     1.0000 </r>
       <r>     1.8856     0.4028     1.0589 </r>
       <r>     2.0319     0.3566     1.1111 </r>
       <r>     2.1782     0.0000     1.1111 </r>
       <r>     2.3245     0.0419     1.1172 </r>
       <r>     2.4708     1.0701     1.2738 </r>
       <r>     2.6171     0.0271     1.2778 </r>
       <r>     2.7634     0.0000     1.2778 </r>
       <r>     2.9098     0.4191     1.3391 </r>
       <r>     3.0561     0.7198     1.4444 </r>
       <r>     3.2024     0.0002     1.4444 </r>
       <r>     3.3487     0.0087     1.4457 </r>
       <r>     3.4950     0.7271     1.5521 </r>
       <r>     3.6413     0.0236     1.5556 </r>
       <r>     3.7876     0.0000     1.5556 </r>
       <r>     3.9339     0.0976     1.5698 </r>
       <r>     4.0802     0.5562     1.6512 </r>
       <r>     4.2265     0.1056     1.6667 </r>
       <r>     4.3728     0.0027     1.6671 </r>
       <r>     4.5191     1.3679     1.8672 </r>
       <r>     4.6655     0.5262     1.9442 </r>
       <r>     4.8118     0.0019     1.9444 </r>
       <r>     4.9581     0.1203     1.9620 </r>
       <r>     5.1044     0.7663     2.0742 </r>
       <r>     5.2507     0.2525     2.1111 </r>
       <r>     5.3970     0.0025     2.1115 </r>
       <r>     5.5433     0.7087     2.2152 </r>
       <r>     5.6896     0.1745     2.2407 </r>
       <r>     5.8359     0.0003     2.2407 </r>
       <r>     5.9822     0.0031     2.2412 </r>
       <r>     6.1285     1.2793     2.4284 </r>
       <r>     6.2748     0.2364     2.4630 </r>
       <r>     6.4212     0.0000     2.4630 </r>
       <r>     6.5675     0.1098     2.4790 </r>
       <r>     6.7138     0.2699     2.5185 </r>
       <r>     6.8601     0.0001     2.5185 </r>
       <r>     7.0064     0.0331     2.5234 </r>
       <r>     7.1527     1.4085     2.7294 </r>
       <r>     7.2990     0.4543     2.7959 </r>
       <r>     7.4453     0.0026     2.7963 </r>
       <r>     7.5916     0.3557     2.8483 </r>
       <r>     7.7379     1.4645     3.0626 </r>
       <r>     7.8842     0.0784     3.0741 </r>
       <r>     8.0306     0.0001     3.0741 </r>
       <r>     8.1769     0.2874     3.1161 </r>
       <r>     8.3232     0.3271     3.1640 </r>
       <r>     8.4695     0.1448     3.1852 </r>
       <r>     8.6158     0.3183     3.2318 </r>
       <r>     8.7621     0.8956     3.3628 </r>
       <r>     8.9084     0.3050     3.4074 </r>
       <r>     9.0547     0.0002     3.4074 </r>
       <r>     9.2010     0.5554     3.4887 </r>
       <r>     9.3473     0.8998     3.6203 </r>
       <r>     9.4936     0.0639     3.6297 </r>
       <r>     9.6399     0.6640     3.7269 </r>
       <r>     9.7863     0.4740     3.7962 </r>
       <r>     9.9326     0.0006     3.7963 </r>
       <r>    10.0789     0.0092     3.7976 </r>
       <r>    10.2252     0.3676     3.8514 </r>
       <r>    10.3715     0.4824     3.9220 </r>
       <r>    10.5178     0.6591     4.0184 </r>
       <r>    10.6641     0.5939     4.1053 </r>
       <r>    10.8104     1.2678     4.2908 </r>
       <r>    10.9567     0.0374     4.2963 </r>
       <r>    11.1030     0.0000     4.2963 </r>
       <r>    11.2493     0.3730     4.3509 </r>
       <r>    11.3956     0.3864     4.4074 </r>
       <r>    11.5420     0.0104     4.4089 </r>
       <r>    11.6883     0.4234     4.4709 </r>
       <r>    11.8346     1.1053     4.6326 </r>
       <r>    11.9809     0.1064     4.6481 </r>
       <r>    12.1272     0.3476     4.6990 </r>
       <r>    12.2735     1.1913     4.8733 </r>
       <r>    12.4198     1.0623     5.0287 </r>
       <r>    12.5661     0.0568     5.0370 </r>
       <r>    12.7124     0.3965     5.0951 </r>
       <r>    12.8587     1.0672     5.2512 </r>
       <r>    13.0050     0.0783     5.2627 </r>
       <r>    13.1513     0.3549     5.3146 </r>
       <r>    13.2977     0.3069     5.3595 </r>
       <r>    13.4440     0.0744     5.3704 </r>
       <r>    13.5903     0.0448     5.3769 </r>
       <r>    13.7366     1.4845     5.5941 </r>
       <r>    13.8829     0.7472     5.7034 </r>
       <r>    14.0292     0.0027     5.7038 </r>
       <r>    14.1755     0.3565     5.7560 </r>
       <r>    14.3218     1.1197     5.9198 </r>
       <r>    14.4681     0.0442     5.9263 </r>
       <r>    14.6144     0.3774     5.9815 </r>
       <r>    14.7607     0.6691     6.0794 </r>
       <r>    14.9070     0.0902     6.0926 </r>
       <r>    15.0534     0.2893     6.1349 </r>
       <r>    15.1997     1.4951     6.3537 </r>
       <r>    15.3460     1.2219     6.5324 </r>
       <r>    15.4923     0.0324     6.5372 </r>
       <r>    15.6386     0.3451     6.5877 </r>
       <r>    15.7849     0.0337     6.5926 </r>
       <r>    15.9312     0.2801     6.6336 </r>
       <r>    16.0775     0.1421     6.6544 </r>
       <r>    16.2238     1.0843     6.8130 </r>
       <r>    16.3701     0.0250     6.8167 </r>
       <r>    16.5164     1.0109     6.9646 </r>
       <r>    16.6627     1.4671     7.1793 </r>
       <r>    16.8091     0.1671     7.2037 </r>
       <r>    16.9554     0.1084     7.2196 </r>
       <r>    17.1017     0.6197     7.3102 </r>
       <r>    17.2480     0.2117     7.3412 </r>
       <r>    17.3943     0.5774     7.4257 </r>
       <r>    17.5406     0.4975     7.4984 </r>
       <r>    17.6869     0.2676     7.5376 </r>
       <r>    17.8332     0.3638     7.5908 </r>
       <r>    17.9795     0.3585     7.6433 </r>
       <r>    18.1258     0.0346     7.6483 </r>
       <r>    18.2721     0.3494     7.6995 </r>
       <r>    18.4184     0.0309     7.7040 </r>
       <r>    18.5648     0.3960     7.7619 </r>
       <r>    18.7111     1.0903     7.9214 </r>
       <r>    18.8574     0.6653     8.0188 </r>
       <r>    19.0037     0.2969     8.0622 </r>
       <r>    19.1500     1.3442     8.2589 </r>
       <r>    19.2963     1.2550     8.4425 </r>
       <r>    19.4426     1.0472     8.5957 </r>
       <r>    19.5889     0.2316     8.6296 </r>
       <r>    19.7352     0.0451     8.6362 </r>
       <r>    19.8815     0.3340     8.6851 </r>
       <r>    20.0278     0.0245     8.6887 </r>
       <r>    20.1742     1.2962     8.8783 </r>
       <r>    20.3205     0.9549     9.0180 </r>
       <r>    20.4668     0.0036     9.0186 </r>
       <r>    20.6131     0.5382     9.0973 </r>
       <r>    20.7594     0.6715     9.1956 </r>
       <r>    20.9057     0.5548     9.2767 </r>
       <r>    21.0520     0.0076     9.2778 </r>
       <r>    21.1983     0.3277     9.3258 </r>
       <r>    21.3446     0.0999     9.3404 </r>
       <r>    21.4909     0.7086     9.4441 </r>
       <r>    21.6372     0.7191     9.5493 </r>
       <r>    21.7835     1.2998     9.7395 </r>
       <r>    21.9299     0.3617     9.7924 </r>
       <r>    22.0762     0.1701     9.8173 </r>
       <r>    22.2225     1.1361     9.9835 </r>
       <r>    22.3688     0.8530    10.1083 </r>
       <r>    22.5151     1.4108    10.3147 </r>
       <r>    22.6614     0.0058    10.3156 </r>
       <r>    22.8077     1.0136    10.4639 </r>
       <r>    22.9540     0.2151    10.4953 </r>
       <r>    23.1003     1.1237    10.6598 </r>
       <r>    23.2466     0.3004    10.7037 </r>
       <r>    23.3929     0.0000    10.7037 </r>
       <r>    23.5392     0.2111    10.7346 </r>
       <r>    23.6856     0.6592    10.8310 </r>
       <r>    23.8319     0.1417    10.8518 </r>
       <r>    23.9782     0.7082    10.9554 </r>
       <r>    24.1245     0.5747    11.0395 </r>
       <r>    24.2708     0.6291    11.1315 </r>
       <r>    24.4171     0.9973    11.2774 </r>
       <r>    24.5634     0.1569    11.3004 </r>
       <r>    24.7097     0.7622    11.4119 </r>
       <r>    24.8560     1.3828    11.6142 </r>
       <r>    25.0023     0.8539    11.7392 </r>
       <r>    25.1486     1.2057    11.9156 </r>
       <r>    25.2949     0.9400    12.0531 </r>
       <r>    25.4413     0.0168    12.0556 </r>
       <r>    25.5876     0.0000    12.0556 </r>
       <r>    25.7339     0.2902    12.0980 </r>
       <r>    25.8802     1.3809    12.3000 </r>
       <r>    26.0265     0.2275    12.3333 </r>
       <r>    26.1728     0.4255    12.3956 </r>
       <r>    26.3191     0.7356    12.5032 </r>
       <r>    26.4654     0.7232    12.6090 </r>
       <r>    26.6117     0.5450    12.6888 </r>
       <r>    26.7580     0.3417    12.7387 </r>
       <r>    26.9043     0.6425    12.8328 </r>
       <r>    27.0506     1.0494    12.9863 </r>
       <r>    27.1970     2.4872    13.3502 </r>
       <r>    27.3433     0.0113    13.3519 </r>
       <r>    27.4896     0.3257    13.3995 </r>
       <r>    27.6359     0.4337    13.4630 </r>
       <r>    27.7822     0.2205    13.4952 </r>
       <r>    27.9285     0.1599    13.5186 </r>
       <r>    28.0748     0.3360    13.5678 </r>
       <r>    28.2211     0.2618    13.6061 </r>
       <r>    28.3674     0.3395    13.6557 </r>
       <r>    28.5137     1.4426    13.8668 </r>
       <r>    28.6600     0.4790    13.9369 </r>
       <r>    28.8063     0.3157    13.9831 </r>
       <r>    28.9527     0.9124    14.1166 </r>
       <r>    29.0990     0.7465    14.2258 </r>
       <r>    29.2453     0.3551    14.2778 </r>
       <r>    29.3916     0.0002    14.2778 </r>
       <r>    29.5379     0.0000    14.2778 </r>
       <r>    29.6842     0.0381    14.2834 </r>
       <r>    29.8305     2.4106    14.6360 </r>
       <r>    29.9768     0.2096    14.6667 </r>
       <r>    30.1231     0.5891    14.7529 </r>
       <r>    30.2694     0.1701    14.7778 </r>
       <r>    30.4157     0.2933    14.8207 </r>
       <r>    30.5620     1.1922    14.9951 </r>
       <r>    30.7084     0.0334    15.0000 </r>
       <r>    30.8547     0.3869    15.0566 </r>
       <r>    31.0010     0.3749    15.1115 </r>
       <r>    31.1473     0.9245    15.2467 </r>
       <r>    31.2936     0.2122    15.2778 </r>
       <r>    31.4399     0.0000    15.2778 </r>
       <r>    31.5862     0.0000    15.2778 </r>
       <r>    31.7325     0.3229    15.3250 </r>
       <r>    31.8788     1.1934    15.4996 </r>
       <r>    32.0251     0.0025    15.5000 </r>
       <r>    32.1714     0.0001    15.5000 </r>
       <r>    32.3178     0.2636    15.5386 </r>
       <r>    32.4641     0.1165    15.5556 </r>
       <r>    32.6104     0.3282    15.6036 </r>
       <r>    32.7567     0.0511    15.6111 </r>
       <r>    32.9030     0.0000    15.6111 </r>
       <r>    33.0493     0.0000    15.6111 </r>
       <r>    33.1956     0.0009    15.6112 </r>
       <r>    33.3419     0.6555    15.7071 </r>
       <r>    33.4882     0.3820    15.7630 </r>
       <r>    33.6345     0.4804    15.8333 </r>
       <r>    33.7808     0.0001    15.8333 </r>
       <r>    33.9271     0.0000    15.8333 </r>
       <r>    34.0735     0.0410    15.8393 </r>
       <r>    34.2198     0.6724    15.9377 </r>
       <r>    34.3661     0.0460    15.9444 </r>
       <r>    34.5124     0.0000    15.9444 </r>
       <r>    34.6587     0.0000    15.9444 </r>
       <r>    34.8050     0.0000    15.9444 </r>
       <r>    34.9513     0.0000    15.9444 </r>
       <r>    35.0976     0.0000    15.9444 </r>
       <r>    35.2439     0.0000    15.9444 </r>
       <r>    35.3902     0.0000    15.9444 </r>
       <r>    35.5365     0.0000    15.9444 </r>
       <r>    35.6828     0.0000    15.9444 </r>
       <r>    35.8292     0.0251    15.9481 </r>
       <r>    35.9755     0.3530    15.9998 </r>
       <r>    36.1218     0.0016    16.0000 </r>
       <r>    36.2681     0.0000    16.0000 </r>
       <r>    36.4144     0.0000    16.0000 </r>
       <r>    36.5607     0.0000    16.0000 </r>
       <r>    36.7070     0.0000    16.0000 </r>
       <r>    36.8533     0.0000    16.0000 </r>
       <r>    36.9996     0.0000    16.0000 </r>
       <r>    37.1459     0.0000    16.0000 </r>
       <r>    37.2922     0.0000    16.0000 </r>
       <r>    37.4385     0.0000    16.0000 </r>
       <r>    37.5849     0.0000    16.0000 </r>
       <r>    37.7312     0.0000    16.0000 </r>
       <r>    37.8775     0.0000    16.0000 </r>
      </set>
     </set>
    </array>
   </total>
  </dos>
 </calculation>
 <structure name="finalpos" >
  <crystal>
   <varray name="basis" >
    <v>       2.35641336      -0.00000000       1.36047475 </v>
    <v>       0.78547112       2.22164759       1.36047475 </v>
    <v>      -0.00000000      -0.00000000       2.72095151 </v>
   </varray>
   <i name="volume">     14.24450785 </i>
   <varray name="rec_basis" >
    <v>       0.42437376      -0.15003880       0.00000000 </v>
    <v>       0.00000000       0.45011639       0.00000000 </v>
    <v>      -0.21218672      -0.15003869       0.36751849 </v>
   </varray>
  </crystal>
  <varray name="positions" >
   <v>       0.00000000       0.00000000      -0.00000000 </v>
  </varray>
 </structure>
</modeling>
