    2    2  100    1
  0.2016476E+02  0.3849278E-09  0.3849279E-09  0.3849278E-09  0.5000000E-15
  1.000000000000000E-004
  CAR 
 unknown system                          
      8    120      8
 
  0.0000000E+00  0.0000000E+00  0.0000000E+00  0.2962963E-03
    1       -6.198282   1.000000
    2        5.617337   1.000000
    3        5.617337   1.000000
    4        5.617340   1.000000
    5        8.174430   0.000000
    6        8.174437   0.000000
    7        8.174438   0.000000
    8        8.753012   0.000000
 
  0.6666667E-01 -0.3469447E-17  0.0000000E+00  0.2370370E-02
    1       -6.141021   1.000000
    2        5.024383   1.000000
    3        5.524292   1.000000
    4        5.524295   1.000000
    5        8.209992   0.000000
    6        8.311279   0.000000
    7        8.311287   0.000000
    8        9.213650   0.000000
 
  0.1333333E+00 -0.6938894E-17  0.0000000E+00  0.2370370E-02
    1       -5.970352   1.000000
    2        3.873582   1.000000
    3        5.303912   1.000000
    4        5.303914   1.000000
    5        8.031467   0.000000
    6        8.634601   0.000000
    7        8.634608   0.000000
    8       10.298813   0.000000
 
  0.2000000E+00  0.0000000E+00  0.0000000E+00  0.2370370E-02
    1       -5.690210   1.000000
    2        2.635368   1.000000
    3        5.049764   1.000000
    4        5.049766   1.000000
    5        7.770663   0.000000
    6        8.962130   0.000000
    7        8.962138   0.000000
    8       11.497279   0.000000
 
  0.2666667E+00 -0.1387779E-16  0.0000000E+00  0.2370370E-02
    1       -5.309476   1.000000
    2        1.439623   1.000000
    3        4.818234   1.000000
    4        4.818237   1.000000
    5        7.517633   0.000000
    6        9.130757   0.000000
    7        9.130765   0.000000
    8       12.642863   0.000000
 
  0.3333333E+00 -0.1387779E-16  0.0000000E+00  0.2370370E-02
    1       -4.848035   1.000000
    2        0.347597   1.000000
    3        4.634805   1.000000
    4        4.634808   1.000000
    5        7.310736   0.000000
    6        9.121004   0.000000
    7        9.121013   0.000000
    8       13.402055   0.000000
 
  0.4000000E+00 -0.2775558E-16  0.0000000E+00  0.2370370E-02
    1       -4.356905   1.000000
    2       -0.571229   1.000000
    3        4.509766   1.000000
    4        4.509768   1.000000
    5        7.167109   0.000000
    6        9.038177   0.000000
    7        9.038186   0.000000
    8       13.423257   0.000000
 
  0.4666667E+00 -0.2775558E-16  0.0000000E+00  0.2370370E-02
    1       -3.979133   1.000000
    2       -1.164837   1.000000
    3        4.446745   1.000000
    4        4.446748   1.000000
    5        7.093994   0.000000
    6        8.975721   0.000000
    7        8.975730   0.000000
    8       13.333644   0.000000
 
  0.6666667E-01  0.6666667E-01  0.0000000E+00  0.1777778E-02
    1       -6.121869   1.000000
    2        5.133594   1.000000
    3        5.331269   1.000000
    4        5.331270   1.000000
    5        7.995853   0.000000
    6        8.554578   0.000000
    7        8.554583   0.000000
    8        9.214005   0.000000
 
  0.1333333E+00  0.6666667E-01  0.0000000E+00  0.7111111E-02
    1       -5.988803   1.000000
    2        4.210046   1.000000
    3        5.058438   1.000000
    4        5.223981   1.000000
    5        7.993272   0.000000
    6        8.618769   0.000000
    7        8.948853   0.000000
    8       10.006833   0.000000
 
  0.2000000E+00  0.6666667E-01  0.0000000E+00  0.7111111E-02
    1       -5.744675   1.000000
    2        3.023830   1.000000
    3        4.787984   1.000000
    4        5.008664   1.000000
    5        8.069802   0.000000
    6        8.616426   0.000000
    7        9.332436   0.000000
    8       10.886081   0.000000
 
  0.2666667E+00  0.6666667E-01  0.0000000E+00  0.7111111E-02
    1       -5.396267   1.000000
    2        1.829655   1.000000
    3        4.563421   1.000000
    4        4.738349   1.000000
    5        7.926562   0.000000
    6        8.804718   0.000000
    7        9.544788   0.000000
    8       11.371934   0.000000
 
  0.3333333E+00  0.6666667E-01  0.0000000E+00  0.7111111E-02
    1       -4.958499   1.000000
    2        0.710130   1.000000
    3        4.404243   1.000000
    4        4.478948   1.000000
    5        7.733617   0.000000
    6        8.899107   0.000000
    7        9.535149   0.000000
    8       11.937578   0.000000
 
  0.4000000E+00  0.6666667E-01  0.0000000E+00  0.7111111E-02
    1       -4.467879   1.000000
    2       -0.269843   1.000000
    3        4.260868   1.000000
    4        4.317798   1.000000
    5        7.578405   0.000000
    6        8.887515   0.000000
    7        9.400249   0.000000
    8       12.738586   0.000000
 
  0.4666667E+00  0.6666667E-01  0.0000000E+00  0.7111111E-02
    1       -4.026044   1.000000
    2       -0.994981   1.000000
    3        4.098696   1.000000
    4        4.305007   1.000000
    5        7.484431   0.000000
    6        8.876507   0.000000
    7        9.251049   0.000000
    8       13.382460   0.000000
 
 -0.4666667E+00  0.6666667E-01  0.0000000E+00  0.7111111E-02
    1       -3.875168   1.000000
    2       -1.216829   1.000000
    3        4.000990   1.000000
    4        4.363076   1.000000
    5        7.459577   0.000000
    6        8.925001   0.000000
    7        9.147894   0.000000
    8       13.521865   0.000000
 
 -0.4000000E+00  0.6666667E-01  0.0000000E+00  0.7111111E-02
    1       -4.156781   1.000000
    2       -0.792535   1.000000
    3        3.973912   1.000000
    4        4.486685   1.000000
    5        7.505731   0.000000
    6        9.043392   0.000000
    7        9.106955   0.000000
    8       13.492596   0.000000
 
 -0.3333333E+00  0.6666667E-01  0.0000000E+00  0.7111111E-02
    1       -4.633909   1.000000
    2        0.037892   1.000000
    3        4.022165   1.000000
    4        4.668177   1.000000
    5        7.621018   0.000000
    6        9.103895   0.000000
    7        9.201848   0.000000
    8       13.083458   0.000000
 
 -0.2666667E+00  0.6666667E-01  0.0000000E+00  0.7111111E-02
    1       -5.113385   1.000000
    2        1.072460   1.000000
    3        4.148715   1.000000
    4        4.896095   1.000000
    5        7.799223   0.000000
    6        9.063467   0.000000
    7        9.314955   0.000000
    8       12.327633   0.000000
 
 -0.2000000E+00  0.6666667E-01  0.0000000E+00  0.7111111E-02
    1       -5.523767   1.000000
    2        2.220170   1.000000
    3        4.354456   1.000000
    4        5.150397   1.000000
    5        8.025591   0.000000
    6        8.885433   0.000000
    7        9.234797   0.000000
    8       11.590893   0.000000
 
 -0.1333333E+00  0.6666667E-01  0.0000000E+00  0.7111111E-02
    1       -5.838404   1.000000
    2        3.406898   1.000000
    3        4.640877   1.000000
    4        5.391395   1.000000
    5        8.266180   0.000000
    6        8.583120   0.000000
    7        8.888880   0.000000
    8       10.776578   0.000000
 
 -0.6666667E-01  0.6666667E-01  0.0000000E+00  0.3555556E-02
    1       -6.045872   1.000000
    2        4.461852   1.000000
    3        5.043595   1.000000
    4        5.544749   1.000000
    5        8.331833   0.000000
    6        8.432516   0.000000
    7        8.439906   0.000000
    8        9.841108   0.000000
 
  0.1333333E+00  0.1333333E+00  0.0000000E+00  0.1777778E-02
    1       -5.893371   1.000000
    2        4.128247   1.000000
    3        4.754643   1.000000
    4        4.754643   1.000000
    5        7.573961   0.000000
    6        9.410417   0.000000
    7        9.410420   0.000000
    8        9.884309   0.000000
 
  0.2000000E+00  0.1333333E+00  0.0000000E+00  0.7111111E-02
    1       -5.685953   1.000000
    2        3.254363   1.000000
    3        4.467179   1.000000
    4        4.536543   1.000000
    5        7.540511   0.000000
    6        9.425878   0.000000
    7        9.876098   0.000000
    8       10.220210   0.000000
 
  0.2666667E+00  0.1333333E+00  0.0000000E+00  0.7111111E-02
    1       -5.371696   1.000000
    2        2.163331   1.000000
    3        4.235388   1.000000
    4        4.251205   1.000000
    5        7.731066   0.000000
    6        9.339903   0.000000
    7       10.183041   0.000000
    8       10.268348   0.000000
 
  0.3333333E+00  0.1333333E+00  0.0000000E+00  0.7111111E-02
    1       -4.961748   1.000000
    2        1.073351   1.000000
    3        3.924762   1.000000
    4        4.077872   1.000000
    5        7.827722   0.000000
    6        9.355018   0.000000
    7       10.233002   0.000000
    8       10.479945   0.000000
 
  0.4000000E+00  0.1333333E+00  0.0000000E+00  0.7111111E-02
    1       -4.482337   1.000000
    2        0.073176   1.000000
    3        3.621149   1.000000
    4        4.002377   1.000000
    5        7.800535   0.000000
    6        9.295139   0.000000
    7       10.095861   0.000000
    8       11.181231   0.000000
 
  0.4666667E+00  0.1333333E+00  0.0000000E+00  0.7111111E-02
    1       -4.004308   1.000000
    2       -0.738463   1.000000
    3        3.371441   1.000000
    4        4.010442   1.000000
    5        7.770155   0.000000
    6        9.218560   0.000000
    7        9.899008   0.000000
    8       12.189817   0.000000
 
 -0.4666667E+00  0.1333333E+00  0.0000000E+00  0.7111111E-02
    1       -3.722566   1.000000
    2       -1.153770   1.000000
    3        3.192161   1.000000
    4        4.099294   1.000000
    5        7.797126   0.000000
    6        9.196133   0.000000
    7        9.722106   0.000000
    8       13.294208   0.000000
 
 -0.4000000E+00  0.1333333E+00  0.0000000E+00  0.7111111E-02
    1       -3.878186   1.000000
    2       -0.927638   1.000000
    3        3.094557   1.000000
    4        4.262289   1.000000
    5        7.894394   0.000000
    6        9.248987   0.000000
    7        9.594665   0.000000
    8       13.727446   0.000000
 
 -0.3333333E+00  0.1333333E+00  0.0000000E+00  0.7111111E-02
    1       -4.322823   1.000000
    2       -0.211937   1.000000
    3        3.088619   1.000000
    4        4.488159   1.000000
    5        8.053686   0.000000
    6        9.367613   0.000000
    7        9.503489   0.000000
    8       12.882132   0.000000
 
 -0.2666667E+00  0.1333333E+00  0.0000000E+00  0.7111111E-02
    1       -4.812990   1.000000
    2        0.734924   1.000000
    3        3.187148   1.000000
    4        4.758533   1.000000
    5        8.256584   0.000000
    6        9.382215   0.000000
    7        9.485352   0.000000
    8       11.983227   0.000000
 
 -0.2000000E+00  0.1333333E+00  0.0000000E+00  0.7111111E-02
    1       -5.249107   1.000000
    2        1.770787   1.000000
    3        3.418626   1.000000
    4        5.041866   1.000000
    5        8.472848   0.000000
    6        9.136199   0.000000
    7        9.410318   0.000000
    8       11.366867   0.000000
 
 -0.1333333E+00  0.1333333E+00  0.0000000E+00  0.3555556E-02
    1       -5.595770   1.000000
    2        2.731879   1.000000
    3        3.873100   1.000000
    4        5.281816   1.000000
    5        8.599959   0.000000
    6        8.802810   0.000000
    7        9.036767   0.000000
    8       11.113815   0.000000
 
  0.2000000E+00  0.2000000E+00  0.0000000E+00  0.1777778E-02
    1       -5.515124   1.000000
    2        2.982884   1.000000
    3        4.162883   1.000000
    4        4.162884   1.000000
    5        7.093812   0.000000
    6        9.471081   0.000000
    7       10.459047   0.000000
    8       10.459049   0.000000
 
  0.2666667E+00  0.2000000E+00  0.0000000E+00  0.7111111E-02
    1       -5.235878   1.000000
    2        2.216954   1.000000
    3        3.854611   1.000000
    4        3.915821   1.000000
    5        7.084850   0.000000
    6        9.116830   0.000000
    7       10.729749   0.000000
    8       10.918102   0.000000
 
  0.3333333E+00  0.2000000E+00  0.0000000E+00  0.7111111E-02
    1       -4.856567   1.000000
    2        1.287908   1.000000
    3        3.451573   1.000000
    4        3.746048   1.000000
    5        7.296773   0.000000
    6        9.133658   0.000000
    7       10.645509   0.000000
    8       11.098025   0.000000
 
  0.4000000E+00  0.2000000E+00  0.0000000E+00  0.7111111E-02
    1       -4.396047   1.000000
    2        0.353726   1.000000
    3        3.040359   1.000000
    4        3.662688   1.000000
    5        7.404496   0.000000
    6        9.687475   0.000000
    7       10.478582   0.000000
    8       11.013853   0.000000
 
  0.4666667E+00  0.2000000E+00  0.0000000E+00  0.7111111E-02
    1       -3.903286   1.000000
    2       -0.475665   1.000000
    3        2.685630   1.000000
    4        3.668583   1.000000
    5        7.438874   0.000000
    6       10.318212   0.000000
    7       10.648145   0.000000
    8       10.808523   0.000000
 
 -0.4666667E+00  0.2000000E+00  0.0000000E+00  0.7111111E-02
    1       -3.522612   1.000000
    2       -1.025875   1.000000
    3        2.415738   1.000000
    4        3.762113   1.000000
    5        7.516099   0.000000
    6       10.213112   0.000000
    7       10.588864   0.000000
    8       11.821448   0.000000
 
 -0.4000000E+00  0.2000000E+00  0.0000000E+00  0.7111111E-02
    1       -3.535045   1.000000
    2       -1.004766   1.000000
    3        2.247679   1.000000
    4        3.937378   1.000000
    5        7.676078   0.000000
    6       10.164871   0.000000
    7       10.398269   0.000000
    8       13.112955   0.000000
 
 -0.3333333E+00  0.2000000E+00  0.0000000E+00  0.7111111E-02
    1       -3.926575   1.000000
    2       -0.432908   1.000000
    3        2.200661   1.000000
    4        4.182892   1.000000
    5        7.916280   0.000000
    6       10.170725   0.000000
    7       10.225188   0.000000
    8       12.760427   0.000000
 
 -0.2666667E+00  0.2000000E+00  0.0000000E+00  0.7111111E-02
    1       -4.418237   1.000000
    2        0.373497   1.000000
    3        2.313597   1.000000
    4        4.478160   1.000000
    5        8.206115   0.000000
    6        9.986310   0.000000
    7       10.166226   0.000000
    8       11.774400   0.000000
 
 -0.2000000E+00  0.2000000E+00  0.0000000E+00  0.3555556E-02
    1       -4.874526   1.000000
    2        1.170732   1.000000
    3        2.683711   1.000000
    4        4.786282   1.000000
    5        8.468791   0.000000
    6        9.583331   0.000000
    7        9.887495   0.000000
    8       11.275134   0.000000
 
  0.2666667E+00  0.2666667E+00  0.0000000E+00  0.1777778E-02
    1       -4.991289   1.000000
    2        1.803472   1.000000
    3        3.650123   1.000000
    4        3.650125   1.000000
    5        6.673721   0.000000
    6        8.512439   0.000000
    7       11.598505   0.000000
    8       11.598505   0.000000
 
  0.3333333E+00  0.2666667E+00  0.0000000E+00  0.7111111E-02
    1       -4.644017   1.000000
    2        1.124001   1.000000
    3        3.302567   1.000000
    4        3.461186   1.000000
    5        6.716181   0.000000
    6        8.209970   0.000000
    7       11.876964   0.000000
    8       12.014658   0.000000
 
  0.4000000E+00  0.2666667E+00  0.0000000E+00  0.7111111E-02
    1       -4.207556   1.000000
    2        0.364095   1.000000
    3        2.793656   1.000000
    4        3.359995   1.000000
    5        6.926385   0.000000
    6        8.407837   0.000000
    7       11.812307   0.000000
    8       12.066544   0.000000
 
  0.4666667E+00  0.2666667E+00  0.0000000E+00  0.7111111E-02
    1       -3.715554   1.000000
    2       -0.377438   1.000000
    3        2.293071   1.000000
    4        3.350826   1.000000
    5        7.021195   0.000000
    6        9.173378   0.000000
    7       11.668104   0.000000
    8       11.896766   0.000000
 
 -0.4666667E+00  0.2666667E+00  0.0000000E+00  0.7111111E-02
    1       -3.269585   1.000000
    2       -0.965796   1.000000
    3        1.892671   1.000000
    4        3.433349   1.000000
    5        7.114357   0.000000
    6       10.257920   0.000000
    7       11.546852   0.000000
    8       11.659319   0.000000
 
 -0.4000000E+00  0.2666667E+00  0.0000000E+00  0.7111111E-02
    1       -3.143559   1.000000
    2       -1.113151   1.000000
    3        1.633787   1.000000
    4        3.602925   1.000000
    5        7.288096   0.000000
    6       11.235287   0.000000
    7       11.416886   0.000000
    8       11.750241   0.000000
 
 -0.3333333E+00  0.2666667E+00  0.0000000E+00  0.7111111E-02
    1       -3.467536   1.000000
    2       -0.707116   1.000000
    3        1.558082   1.000000
    4        3.849332   1.000000
    5        7.553185   0.000000
    6       11.137542   0.000000
    7       11.277471   0.000000
    8       12.666469   0.000000
 
 -0.2666667E+00  0.2666667E+00  0.0000000E+00  0.3555556E-02
    1       -3.950821   1.000000
    2       -0.115854   1.000000
    3        1.749934   1.000000
    4        4.153172   1.000000
    5        7.885303   0.000000
    6       10.664307   0.000000
    7       11.004048   0.000000
    8       11.860904   0.000000
 
  0.3333333E+00  0.3333333E+00  0.0000000E+00  0.1777778E-02
    1       -4.328183   1.000000
    2        0.627138   1.000000
    3        3.250186   1.000000
    4        3.250189   1.000000
    5        6.375847   0.000000
    6        7.639098   0.000000
    7       12.791247   0.000000
    8       12.791247   0.000000
 
  0.4000000E+00  0.3333333E+00  0.0000000E+00  0.7111111E-02
    1       -3.918535   1.000000
    2        0.012005   1.000000
    3        2.906353   1.000000
    4        3.126348   1.000000
    5        6.478967   0.000000
    6        7.463719   0.000000
    7       13.093155   0.000000
    8       13.149501   0.000000
 
  0.4666667E+00  0.3333333E+00  0.0000000E+00  0.7111111E-02
    1       -3.437742   1.000000
    2       -0.610177   1.000000
    3        2.349902   1.000000
    4        3.095497   1.000000
    5        6.662812   0.000000
    6        7.900750   0.000000
    7       13.048485   0.000000
    8       13.098521   0.000000
 
 -0.4666667E+00  0.3333333E+00  0.0000000E+00  0.7111111E-02
    1       -2.954978   1.000000
    2       -1.154267   1.000000
    3        1.810840   1.000000
    4        3.158602   1.000000
    5        6.768533   0.000000
    6        8.867090   0.000000
    7       12.871074   0.000000
    8       12.917026   0.000000
 
 -0.4000000E+00  0.3333333E+00  0.0000000E+00  0.7111111E-02
    1       -2.723677   1.000000
    2       -1.383778   1.000000
    3        1.428206   1.000000
    4        3.312384   1.000000
    5        6.938384   0.000000
    6       10.085019   0.000000
    7       12.560967   0.000000
    8       12.789515   0.000000
 
 -0.3333333E+00  0.3333333E+00  0.0000000E+00  0.3555556E-02
    1       -3.001133   1.000000
    2       -1.096300   1.000000
    3        1.306393   1.000000
    4        3.548298   1.000000
    5        7.205349   0.000000
    6       11.395176   0.000000
    7       12.025880   0.000000
    8       12.589155   0.000000
 
  0.4000000E+00  0.4000000E+00  0.0000000E+00  0.1777778E-02
    1       -3.534885   1.000000
    2       -0.519957   1.000000
    3        2.977857   1.000000
    4        2.977859   1.000000
    5        6.235205   0.000000
    6        6.966861   0.000000
    7       14.018947   0.000000
    8       14.018948   0.000000
 
  0.4666667E+00  0.4000000E+00  0.0000000E+00  0.7111111E-02
    1       -3.071169   1.000000
    2       -1.079870   1.000000
    3        2.668938   1.000000
    4        2.922113   1.000000
    5        6.391194   0.000000
    6        6.946975   0.000000
    7       14.312112   0.000000
    8       14.337428   0.000000
 
 -0.4666667E+00  0.4000000E+00  0.0000000E+00  0.7111111E-02
    1       -2.572667   1.000000
    2       -1.588533   1.000000
    3        2.131225   1.000000
    4        2.961393   1.000000
    5        6.526328   0.000000
    6        7.646322   0.000000
    7       14.147580   0.000000
    8       14.309471   0.000000
 
 -0.4000000E+00  0.4000000E+00  0.0000000E+00  0.3555556E-02
    1       -2.359349   1.000000
    2       -1.756111   1.000000
    3        1.647756   1.000000
    4        3.093764   1.000000
    5        6.681159   0.000000
    6        8.766490   0.000000
    7       13.615299   0.000000
    8       14.190628   0.000000
 
  0.4666667E+00  0.4666667E+00  0.0000000E+00  0.1777778E-02
    1       -2.623862   1.000000
    2       -1.611842   1.000000
    3        2.840225   1.000000
    4        2.840227   1.000000
    5        6.275314   0.000000
    6        6.514400   0.000000
    7       15.217825   0.000000
    8       15.217827   0.000000
 
 -0.4666667E+00  0.4666667E+00  0.0000000E+00  0.3555556E-02
    1       -2.147034   1.000000
    2       -2.087736   1.000000
    3        2.589888   1.000000
    4        2.853534   1.000000
    5        6.404178   0.000000
    6        6.730939   0.000000
    7       15.192764   0.000000
    8       15.338097   0.000000
 
  0.2000000E+00  0.1333333E+00  0.6666667E-01  0.7111111E-02
    1       -5.818715   1.000000
    2        3.558565   1.000000
    3        4.462448   1.000000
    4        5.147779   1.000000
    5        7.979155   0.000000
    6        8.879347   0.000000
    7        9.273041   0.000000
    8       10.495947   0.000000
 
  0.2666667E+00  0.1333333E+00  0.6666667E-01  0.1422222E-01
    1       -5.539478   1.000000
    2        2.547656   1.000000
    3        4.025512   1.000000
    4        4.969625   1.000000
    5        8.163437   0.000000
    6        8.871475   0.000000
    7        9.663217   0.000000
    8       10.725864   0.000000
 
  0.3333333E+00  0.1333333E+00  0.6666667E-01  0.1422222E-01
    1       -5.159762   1.000000
    2        1.440635   1.000000
    3        3.751392   1.000000
    4        4.716965   1.000000
    5        8.197088   0.000000
    6        8.923088   0.000000
    7        9.859561   0.000000
    8       10.961106   0.000000
 
  0.4000000E+00  0.1333333E+00  0.6666667E-01  0.1422222E-01
    1       -4.699105   1.000000
    2        0.390487   1.000000
    3        3.575354   1.000000
    4        4.470337   1.000000
    5        8.087754   0.000000
    6        8.929099   0.000000
    7        9.835473   0.000000
    8       11.578074   0.000000
 
  0.4666667E+00  0.1333333E+00  0.6666667E-01  0.1422222E-01
    1       -4.207513   1.000000
    2       -0.508195   1.000000
    3        3.474554   1.000000
    4        4.277737   1.000000
    5        7.980768   0.000000
    6        8.857256   0.000000
    7        9.738020   0.000000
    8       12.494383   0.000000
 
 -0.4666667E+00  0.1333333E+00  0.6666667E-01  0.1422222E-01
    1       -3.827256   1.000000
    2       -1.095417   1.000000
    3        3.431181   1.000000
    4        4.171335   1.000000
    5        7.921960   0.000000
    6        8.799270   0.000000
    7        9.667853   0.000000
    8       13.452424   0.000000
 
  0.2666667E+00  0.2000000E+00  0.6666667E-01  0.7111111E-02
    1       -5.442935   1.000000
    2        2.593133   1.000000
    3        3.868082   1.000000
    4        4.456651   1.000000
    5        7.518124   0.000000
    6        9.489770   0.000000
    7       10.149371   0.000000
    8       10.355087   0.000000
 
  0.3333333E+00  0.2000000E+00  0.6666667E-01  0.1422222E-01
    1       -5.096111   1.000000
    2        1.684484   1.000000
    3        3.429874   1.000000
    4        4.256666   1.000000
    5        7.750458   0.000000
    6        9.478397   0.000000
    7       10.001001   0.000000
    8       10.724858   0.000000
 
  0.4000000E+00  0.2000000E+00  0.6666667E-01  0.1422222E-01
    1       -4.659876   1.000000
    2        0.706049   1.000000
    3        3.133734   1.000000
    4        4.024326   1.000000
    5        7.902613   0.000000
    6        9.592287   0.000000
    7       10.089854   0.000000
    8       10.825663   0.000000
 
  0.4666667E+00  0.2000000E+00  0.6666667E-01  0.1422222E-01
    1       -4.169250   1.000000
    2       -0.201834   1.000000
    3        2.914857   1.000000
    4        3.856725   1.000000
    5        7.936560   0.000000
    6        9.409453   0.000000
    7       10.706061   0.000000
    8       10.950524   0.000000
 
 -0.4666667E+00  0.2000000E+00  0.6666667E-01  0.1422222E-01
    1       -3.724131   1.000000
    2       -0.894566   1.000000
    3        2.747469   1.000000
    4        3.799359   1.000000
    5        7.978763   0.000000
    6        9.220406   0.000000
    7       10.629563   0.000000
    8       12.024829   0.000000
 
 -0.4000000E+00  0.2000000E+00  0.6666667E-01  0.1422222E-01
    1       -3.573335   1.000000
    2       -1.105777   1.000000
    3        2.634648   1.000000
    4        3.859176   1.000000
    5        8.084884   0.000000
    6        9.088708   0.000000
    7       10.557613   0.000000
    8       13.249858   0.000000
 
 -0.3333333E+00  0.2000000E+00  0.6666667E-01  0.1422222E-01
    1       -3.863162   1.000000
    2       -0.686522   1.000000
    3        2.594770   1.000000
    4        4.021431   1.000000
    5        8.258409   0.000000
    6        9.026391   0.000000
    7       10.527203   0.000000
    8       12.367428   0.000000
 
 -0.2666667E+00  0.2000000E+00  0.6666667E-01  0.1422222E-01
    1       -4.342970   1.000000
    2        0.100378   1.000000
    3        2.652664   1.000000
    4        4.261607   1.000000
    5        8.472943   0.000000
    6        9.009983   0.000000
    7       10.500865   0.000000
    8       11.365861   0.000000
 
 -0.2000000E+00  0.2000000E+00  0.6666667E-01  0.1422222E-01
    1       -4.820586   1.000000
    2        1.021565   1.000000
    3        2.848837   1.000000
    4        4.544552   1.000000
    5        8.657953   0.000000
    6        8.940025   0.000000
    7       10.387416   0.000000
    8       10.700070   0.000000
 
 -0.1333333E+00  0.2000000E+00  0.6666667E-01  0.7111111E-02
    1       -5.227813   1.000000
    2        1.896133   1.000000
    3        3.276034   1.000000
    4        4.812242   1.000000
    5        8.492845   0.000000
    6        8.929956   0.000000
    7       10.090487   0.000000
    8       10.514876   0.000000
 
  0.3333333E+00  0.2666667E+00  0.6666667E-01  0.7111111E-02
    1       -4.923110   1.000000
    2        1.575970   1.000000
    3        3.358440   1.000000
    4        3.788611   1.000000
    5        7.107995   0.000000
    6        8.775623   0.000000
    7       10.897057   0.000000
    8       11.531809   0.000000
 
  0.4000000E+00  0.2666667E+00  0.6666667E-01  0.1422222E-01
    1       -4.515139   1.000000
    2        0.795692   1.000000
    3        2.909765   1.000000
    4        3.583339   1.000000
    5        7.371386   0.000000
    6        8.826794   0.000000
    7       10.745303   0.000000
    8       11.879673   0.000000
 
  0.4666667E+00  0.2666667E+00  0.6666667E-01  0.1422222E-01
    1       -4.036490   1.000000
    2       -0.014588   1.000000
    3        2.519430   1.000000
    4        3.435129   1.000000
    5        7.514665   0.000000
    6        9.446102   0.000000
    7       10.514647   0.000000
    8       11.907671   0.000000
 
 -0.4666667E+00  0.2666667E+00  0.6666667E-01  0.1422222E-01
    1       -3.555394   1.000000
    2       -0.723050   1.000000
    3        2.196313   1.000000
    4        3.404133   1.000000
    5        7.593422   0.000000
    6       10.199745   0.000000
    7       10.547326   0.000000
    8       11.809113   0.000000
 
 -0.4000000E+00  0.2666667E+00  0.6666667E-01  0.1422222E-01
    1       -3.274207   1.000000
    2       -1.092346   1.000000
    3        1.964090   1.000000
    4        3.489574   1.000000
    5        7.727308   0.000000
    6       10.050437   0.000000
    7       11.652124   0.000000
    8       11.770623   0.000000
 
 -0.3333333E+00  0.2666667E+00  0.6666667E-01  0.1422222E-01
    1       -3.450840   1.000000
    2       -0.857098   1.000000
    3        1.850519   1.000000
    4        3.675844   1.000000
    5        7.945676   0.000000
    6        9.903718   0.000000
    7       11.576412   0.000000
    8       12.324358   0.000000
 
 -0.2666667E+00  0.2666667E+00  0.6666667E-01  0.1422222E-01
    1       -3.905446   1.000000
    2       -0.224901   1.000000
    3        1.899340   1.000000
    4        3.941097   1.000000
    5        8.237687   0.000000
    6        9.752847   0.000000
    7       11.191020   0.000000
    8       11.536877   0.000000
 
 -0.2000000E+00  0.2666667E+00  0.6666667E-01  0.7111111E-02
    1       -4.391991   1.000000
    2        0.469521   1.000000
    3        2.199847   1.000000
    4        4.251130   1.000000
    5        8.557728   0.000000
    6        9.390756   0.000000
    7       10.650657   0.000000
    8       11.108602   0.000000
 
  0.4000000E+00  0.3333333E+00  0.6666667E-01  0.7111111E-02
    1       -4.266352   1.000000
    2        0.516395   1.000000
    3        2.969603   1.000000
    4        3.252270   1.000000
    5        6.810768   0.000000
    6        7.948403   0.000000
    7       11.949596   0.000000
    8       12.759406   0.000000
 
  0.4666667E+00  0.3333333E+00  0.6666667E-01  0.1422222E-01
    1       -3.807212   1.000000
    2       -0.140753   1.000000
    3        2.496209   1.000000
    4        3.090037   1.000000
    5        7.089342   0.000000
    6        8.185811   0.000000
    7       11.759605   0.000000
    8       13.096994   0.000000
 
 -0.4666667E+00  0.3333333E+00  0.6666667E-01  0.1422222E-01
    1       -3.312043   1.000000
    2       -0.768434   1.000000
    3        2.002990   1.000000
    4        3.061956   1.000000
    5        7.216700   0.000000
    6        9.028326   0.000000
    7       11.518071   0.000000
    8       13.087208   0.000000
 