       N       E                     dE             d eps       ncg     rms          rms(c)
DAV:   1     0.400938709286E+01    0.40094E+01   -0.29393E+03  1936   0.706E+02
DAV:   2    -0.108444282788E+02   -0.14854E+02   -0.14286E+02  2992   0.726E+01
DAV:   3    -0.110228990496E+02   -0.17847E+00   -0.17847E+00  2528   0.103E+01
DAV:   4    -0.110236083427E+02   -0.70929E-03   -0.70929E-03  3024   0.686E-01
DAV:   5    -0.110236093005E+02   -0.95775E-06   -0.95779E-06  2656   0.196E-02    0.483E+00
DAV:   6    -0.109020801135E+02    0.12153E+00   -0.80184E-02  2376   0.148E+00    0.295E+00
DAV:   7    -0.108464807336E+02    0.55599E-01   -0.15214E-01  2456   0.217E+00    0.185E-01
DAV:   8    -0.108475541576E+02   -0.10734E-02   -0.39046E-03  2136   0.472E-01    0.740E-02
DAV:   9    -0.108477440308E+02   -0.18987E-03   -0.18756E-04  2872   0.108E-01    0.571E-02
DAV:  10    -0.108477706298E+02   -0.26599E-04   -0.32586E-05  2216   0.427E-02    0.107E-02
DAV:  11    -0.108477702419E+02    0.38793E-06   -0.51631E-07  2680   0.509E-03
   1 F= -.10847770E+02 E0= -.10847770E+02  d E =-.108478E+02
       N       E                     dE             d eps       ncg     rms          rms(c)
DAV:   1    -0.108518557229E+02   -0.40851E-02   -0.11225E-01  2368   0.190E+00    0.317E-01
DAV:   2    -0.108499582488E+02    0.18975E-02   -0.16101E-03  2616   0.276E-01    0.194E-01
DAV:   3    -0.108489559932E+02    0.10023E-02   -0.20797E-03  2272   0.231E-01    0.625E-02
DAV:   4    -0.108489559545E+02    0.38699E-07   -0.21338E-05  2752   0.416E-02    0.551E-02
DAV:   5    -0.108489494435E+02    0.65110E-05   -0.53896E-06  2232   0.170E-02    0.122E-02
DAV:   6    -0.108489496414E+02   -0.19791E-06   -0.59200E-08  1288   0.234E-03
   2 F= -.10848950E+02 E0= -.10848950E+02  d E =-.117940E-02
       N       E                     dE             d eps       ncg     rms          rms(c)
DAV:   1    -0.108503678995E+02   -0.14185E-02   -0.18667E-02  2368   0.779E-01    0.132E-01
DAV:   2    -0.108500578085E+02    0.31009E-03   -0.26319E-04  2608   0.111E-01    0.797E-02
DAV:   3    -0.108499007022E+02    0.15711E-03   -0.34284E-04  2296   0.941E-02    0.259E-02
DAV:   4    -0.108499013478E+02   -0.64561E-06   -0.34565E-06  2616   0.168E-02    0.229E-02
DAV:   5    -0.108499031685E+02   -0.18207E-05   -0.87448E-07  2048   0.694E-03    0.536E-03
DAV:   6    -0.108499030869E+02    0.81568E-07   -0.11423E-08  1056   0.101E-03
   3 F= -.10849903E+02 E0= -.10849903E+02  d E =-.213285E-02
