<?xml version="1.0" encoding="ISO-8859-1"?>
<modeling>
 <generator>
  <i name="program" type="string">vasp </i>
  <i name="version" type="string">6.2.0  </i>
  <i name="subversion" type="string">18Jan21 (build Aug 12 2022 13:00:08) complex                          parallel </i>
  <i name="platform" type="string">LinuxIFC </i>
  <i name="date" type="string">2024 11 03 </i>
  <i name="time" type="string">22:24:18 </i>
 </generator>
 <incar>
  <i type="int" name="ISTART">     0</i>
  <i type="string" name="PREC">Accurate      (Accurate strictly avoids</i>
  <i type="logical" name="ADDGRID"> T  </i>
  <i type="int" name="ISPIN">     1</i>
  <i type="int" name="NELM">    90</i>
  <i type="int" name="NELMIN">     6</i>
  <i type="int" name="IBRION">     2</i>
  <i name="EDIFF">      0.00000100</i>
  <i name="EDIFFG">     -0.00200000</i>
  <i type="int" name="NSW">   100</i>
  <i type="int" name="ISIF">     3</i>
  <i type="int" name="ISYM">     2</i>
  <i name="ENCUT">    450.00000000</i>
  <i type="logical" name="LREAL"> F  </i>
  <i type="int" name="ISMEAR">     0</i>
  <i name="SIGMA">      0.05000000</i>
  <i type="logical" name="LWAVE"> F  </i>
  <i type="logical" name="LCHARG"> F  </i>
  <i type="logical" name="LASPH"> T  </i>
 </incar>
 <primitive_cell>
  <structure name="primitive_cell" >
   <crystal>
    <varray name="basis" >
     <v>       3.33357300       0.00000000       1.92463900 </v>
     <v>       1.11119100       3.14292400       1.92463900 </v>
     <v>       0.00000000       0.00000000       3.84927800 </v>
    </varray>
    <i name="volume">     40.32952685 </i>
    <varray name="rec_basis" >
     <v>       0.29997843      -0.10605835       0.00000000 </v>
     <v>       0.00000000       0.31817505       0.00000000 </v>
     <v>      -0.14998922      -0.10605835       0.25978898 </v>
    </varray>
   </crystal>
   <varray name="positions" >
    <v>       0.87500000       0.87500000       0.87500000 </v>
    <v>       0.12500000       0.12500000       0.12500000 </v>
   </varray>
  </structure>
  <varray name="primitive_index" >
   <v type="int" >        1 </v>
   <v type="int" >        2 </v>
  </varray>
 </primitive_cell>
 <kpoints>
  <generation param="Monkhorst-Pack">
   <v type="int" name="divisions">      15       15       15 </v>
   <v name="usershift">      0.00000000       0.00000000       0.00000000 </v>
   <v name="genvec1">      0.06666667       0.00000000       0.00000000 </v>
   <v name="genvec2">      0.00000000       0.06666667       0.00000000 </v>
   <v name="genvec3">      0.00000000       0.00000000       0.06666667 </v>
   <v name="shift">      0.00000000       0.00000000       0.00000000 </v>
  </generation>
  <varray name="kpointlist" >
   <v>       0.00000000       0.00000000       0.00000000 </v>
   <v>       0.06666667      -0.00000000       0.00000000 </v>
   <v>       0.13333333      -0.00000000       0.00000000 </v>
   <v>       0.20000000       0.00000000       0.00000000 </v>
   <v>       0.26666667      -0.00000000       0.00000000 </v>
   <v>       0.33333333      -0.00000000       0.00000000 </v>
   <v>       0.40000000      -0.00000000       0.00000000 </v>
   <v>       0.46666667      -0.00000000       0.00000000 </v>
   <v>       0.06666667       0.06666667       0.00000000 </v>
   <v>       0.13333333       0.06666667       0.00000000 </v>
   <v>       0.20000000       0.06666667       0.00000000 </v>
   <v>       0.26666667       0.06666667       0.00000000 </v>
   <v>       0.33333333       0.06666667       0.00000000 </v>
   <v>       0.40000000       0.06666667       0.00000000 </v>
   <v>       0.46666667       0.06666667       0.00000000 </v>
   <v>      -0.46666667       0.06666667       0.00000000 </v>
   <v>      -0.40000000       0.06666667       0.00000000 </v>
   <v>      -0.33333333       0.06666667       0.00000000 </v>
   <v>      -0.26666667       0.06666667       0.00000000 </v>
   <v>      -0.20000000       0.06666667       0.00000000 </v>
   <v>      -0.13333333       0.06666667       0.00000000 </v>
   <v>      -0.06666667       0.06666667       0.00000000 </v>
   <v>       0.13333333       0.13333333       0.00000000 </v>
   <v>       0.20000000       0.13333333       0.00000000 </v>
   <v>       0.26666667       0.13333333       0.00000000 </v>
   <v>       0.33333333       0.13333333       0.00000000 </v>
   <v>       0.40000000       0.13333333       0.00000000 </v>
   <v>       0.46666667       0.13333333       0.00000000 </v>
   <v>      -0.46666667       0.13333333       0.00000000 </v>
   <v>      -0.40000000       0.13333333       0.00000000 </v>
   <v>      -0.33333333       0.13333333       0.00000000 </v>
   <v>      -0.26666667       0.13333333       0.00000000 </v>
   <v>      -0.20000000       0.13333333       0.00000000 </v>
   <v>      -0.13333333       0.13333333       0.00000000 </v>
   <v>       0.20000000       0.20000000       0.00000000 </v>
   <v>       0.26666667       0.20000000       0.00000000 </v>
   <v>       0.33333333       0.20000000       0.00000000 </v>
   <v>       0.40000000       0.20000000       0.00000000 </v>
   <v>       0.46666667       0.20000000       0.00000000 </v>
   <v>      -0.46666667       0.20000000       0.00000000 </v>
   <v>      -0.40000000       0.20000000       0.00000000 </v>
   <v>      -0.33333333       0.20000000       0.00000000 </v>
   <v>      -0.26666667       0.20000000       0.00000000 </v>
   <v>      -0.20000000       0.20000000       0.00000000 </v>
   <v>       0.26666667       0.26666667       0.00000000 </v>
   <v>       0.33333333       0.26666667       0.00000000 </v>
   <v>       0.40000000       0.26666667       0.00000000 </v>
   <v>       0.46666667       0.26666667       0.00000000 </v>
   <v>      -0.46666667       0.26666667       0.00000000 </v>
   <v>      -0.40000000       0.26666667       0.00000000 </v>
   <v>      -0.33333333       0.26666667       0.00000000 </v>
   <v>      -0.26666667       0.26666667       0.00000000 </v>
   <v>       0.33333333       0.33333333       0.00000000 </v>
   <v>       0.40000000       0.33333333       0.00000000 </v>
   <v>       0.46666667       0.33333333       0.00000000 </v>
   <v>      -0.46666667       0.33333333       0.00000000 </v>
   <v>      -0.40000000       0.33333333       0.00000000 </v>
   <v>      -0.33333333       0.33333333       0.00000000 </v>
   <v>       0.40000000       0.40000000       0.00000000 </v>
   <v>       0.46666667       0.40000000       0.00000000 </v>
   <v>      -0.46666667       0.40000000       0.00000000 </v>
   <v>      -0.40000000       0.40000000       0.00000000 </v>
   <v>       0.46666667       0.46666667       0.00000000 </v>
   <v>      -0.46666667       0.46666667       0.00000000 </v>
   <v>       0.20000000       0.13333333       0.06666667 </v>
   <v>       0.26666667       0.13333333       0.06666667 </v>
   <v>       0.33333333       0.13333333       0.06666667 </v>
   <v>       0.40000000       0.13333333       0.06666667 </v>
   <v>       0.46666667       0.13333333       0.06666667 </v>
   <v>      -0.46666667       0.13333333       0.06666667 </v>
   <v>       0.26666667       0.20000000       0.06666667 </v>
   <v>       0.33333333       0.20000000       0.06666667 </v>
   <v>       0.40000000       0.20000000       0.06666667 </v>
   <v>       0.46666667       0.20000000       0.06666667 </v>
   <v>      -0.46666667       0.20000000       0.06666667 </v>
   <v>      -0.40000000       0.20000000       0.06666667 </v>
   <v>      -0.33333333       0.20000000       0.06666667 </v>
   <v>      -0.26666667       0.20000000       0.06666667 </v>
   <v>      -0.20000000       0.20000000       0.06666667 </v>
   <v>      -0.13333333       0.20000000       0.06666667 </v>
   <v>       0.33333333       0.26666667       0.06666667 </v>
   <v>       0.40000000       0.26666667       0.06666667 </v>
   <v>       0.46666667       0.26666667       0.06666667 </v>
   <v>      -0.46666667       0.26666667       0.06666667 </v>
   <v>      -0.40000000       0.26666667       0.06666667 </v>
   <v>      -0.33333333       0.26666667       0.06666667 </v>
   <v>      -0.26666667       0.26666667       0.06666667 </v>
   <v>      -0.20000000       0.26666667       0.06666667 </v>
   <v>       0.40000000       0.33333333       0.06666667 </v>
   <v>       0.46666667       0.33333333       0.06666667 </v>
   <v>      -0.46666667       0.33333333       0.06666667 </v>
   <v>      -0.40000000       0.33333333       0.06666667 </v>
   <v>      -0.33333333       0.33333333       0.06666667 </v>
   <v>      -0.26666667       0.33333333       0.06666667 </v>
   <v>       0.46666667       0.40000000       0.06666667 </v>
   <v>      -0.46666667       0.40000000       0.06666667 </v>
   <v>      -0.40000000       0.40000000       0.06666667 </v>
   <v>      -0.33333333       0.40000000       0.06666667 </v>
   <v>      -0.46666667       0.46666667       0.06666667 </v>
   <v>      -0.40000000       0.46666667       0.06666667 </v>
   <v>       0.40000000       0.26666667       0.13333333 </v>
   <v>       0.46666667       0.26666667       0.13333333 </v>
   <v>      -0.46666667       0.26666667       0.13333333 </v>
   <v>      -0.40000000       0.26666667       0.13333333 </v>
   <v>       0.46666667       0.33333333       0.13333333 </v>
   <v>      -0.46666667       0.33333333       0.13333333 </v>
   <v>      -0.40000000       0.33333333       0.13333333 </v>
   <v>      -0.33333333       0.33333333       0.13333333 </v>
   <v>      -0.26666667       0.33333333       0.13333333 </v>
   <v>      -0.20000000       0.33333333       0.13333333 </v>
   <v>      -0.46666667       0.40000000       0.13333333 </v>
   <v>      -0.40000000       0.40000000       0.13333333 </v>
   <v>      -0.33333333       0.40000000       0.13333333 </v>
   <v>      -0.26666667       0.40000000       0.13333333 </v>
   <v>      -0.40000000       0.46666667       0.13333333 </v>
   <v>      -0.33333333       0.46666667       0.13333333 </v>
   <v>      -0.40000000       0.40000000       0.20000000 </v>
   <v>      -0.33333333       0.40000000       0.20000000 </v>
   <v>      -0.33333333       0.46666667       0.20000000 </v>
   <v>      -0.26666667       0.46666667       0.20000000 </v>
  </varray>
  <varray name="weights" >
   <v>       0.00029630 </v>
   <v>       0.00237037 </v>
   <v>       0.00237037 </v>
   <v>       0.00237037 </v>
   <v>       0.00237037 </v>
   <v>       0.00237037 </v>
   <v>       0.00237037 </v>
   <v>       0.00237037 </v>
   <v>       0.00177778 </v>
   <v>       0.00711111 </v>
   <v>       0.00711111 </v>
   <v>       0.00711111 </v>
   <v>       0.00711111 </v>
   <v>       0.00711111 </v>
   <v>       0.00711111 </v>
   <v>       0.00711111 </v>
   <v>       0.00711111 </v>
   <v>       0.00711111 </v>
   <v>       0.00711111 </v>
   <v>       0.00711111 </v>
   <v>       0.00711111 </v>
   <v>       0.00355556 </v>
   <v>       0.00177778 </v>
   <v>       0.00711111 </v>
   <v>       0.00711111 </v>
   <v>       0.00711111 </v>
   <v>       0.00711111 </v>
   <v>       0.00711111 </v>
   <v>       0.00711111 </v>
   <v>       0.00711111 </v>
   <v>       0.00711111 </v>
   <v>       0.00711111 </v>
   <v>       0.00711111 </v>
   <v>       0.00355556 </v>
   <v>       0.00177778 </v>
   <v>       0.00711111 </v>
   <v>       0.00711111 </v>
   <v>       0.00711111 </v>
   <v>       0.00711111 </v>
   <v>       0.00711111 </v>
   <v>       0.00711111 </v>
   <v>       0.00711111 </v>
   <v>       0.00711111 </v>
   <v>       0.00355556 </v>
   <v>       0.00177778 </v>
   <v>       0.00711111 </v>
   <v>       0.00711111 </v>
   <v>       0.00711111 </v>
   <v>       0.00711111 </v>
   <v>       0.00711111 </v>
   <v>       0.00711111 </v>
   <v>       0.00355556 </v>
   <v>       0.00177778 </v>
   <v>       0.00711111 </v>
   <v>       0.00711111 </v>
   <v>       0.00711111 </v>
   <v>       0.00711111 </v>
   <v>       0.00355556 </v>
   <v>       0.00177778 </v>
   <v>       0.00711111 </v>
   <v>       0.00711111 </v>
   <v>       0.00355556 </v>
   <v>       0.00177778 </v>
   <v>       0.00355556 </v>
   <v>       0.00711111 </v>
   <v>       0.01422222 </v>
   <v>       0.01422222 </v>
   <v>       0.01422222 </v>
   <v>       0.01422222 </v>
   <v>       0.01422222 </v>
   <v>       0.00711111 </v>
   <v>       0.01422222 </v>
   <v>       0.01422222 </v>
   <v>       0.01422222 </v>
   <v>       0.01422222 </v>
   <v>       0.01422222 </v>
   <v>       0.01422222 </v>
   <v>       0.01422222 </v>
   <v>       0.01422222 </v>
   <v>       0.00711111 </v>
   <v>       0.00711111 </v>
   <v>       0.01422222 </v>
   <v>       0.01422222 </v>
   <v>       0.01422222 </v>
   <v>       0.01422222 </v>
   <v>       0.01422222 </v>
   <v>       0.01422222 </v>
   <v>       0.00711111 </v>
   <v>       0.00711111 </v>
   <v>       0.01422222 </v>
   <v>       0.01422222 </v>
   <v>       0.01422222 </v>
   <v>       0.01422222 </v>
   <v>       0.00711111 </v>
   <v>       0.00711111 </v>
   <v>       0.01422222 </v>
   <v>       0.01422222 </v>
   <v>       0.00711111 </v>
   <v>       0.00711111 </v>
   <v>       0.00711111 </v>
   <v>       0.00711111 </v>
   <v>       0.01422222 </v>
   <v>       0.01422222 </v>
   <v>       0.01422222 </v>
   <v>       0.00711111 </v>
   <v>       0.01422222 </v>
   <v>       0.01422222 </v>
   <v>       0.01422222 </v>
   <v>       0.01422222 </v>
   <v>       0.00711111 </v>
   <v>       0.00711111 </v>
   <v>       0.01422222 </v>
   <v>       0.01422222 </v>
   <v>       0.00711111 </v>
   <v>       0.00711111 </v>
   <v>       0.00711111 </v>
   <v>       0.00711111 </v>
   <v>       0.01422222 </v>
   <v>       0.00711111 </v>
   <v>       0.00711111 </v>
  </varray>
 </kpoints>
 <parameters>
  <separator name="general" >
   <i type="string" name="SYSTEM">unknown system</i>
   <i type="logical" name="LCOMPAT"> F  </i>
  </separator>
  <separator name="electronic" >
   <i type="string" name="PREC">accura</i>
   <i name="ENMAX">    450.00000000</i>
   <i name="ENAUG">    322.06900000</i>
   <i name="EDIFF">      0.00000100</i>
   <i type="int" name="IALGO">    38</i>
   <i type="int" name="IWAVPR">    11</i>
   <i type="int" name="NBANDS">     8</i>
   <i type="int" name="NBANDSLOW">    -1</i>
   <i type="int" name="NBANDSHIGH">    -1</i>
   <i name="NELECT">      8.00000000</i>
   <i type="int" name="TURBO">     0</i>
   <i type="int" name="IRESTART">     0</i>
   <i type="int" name="NREBOOT">     0</i>
   <i type="int" name="NMIN">     0</i>
   <i name="EREF">      0.00000000</i>
   <separator name="electronic smearing" >
    <i type="int" name="ISMEAR">     0</i>
    <i name="SIGMA">      0.05000000</i>
    <i name="KSPACING">      0.50000000</i>
    <i type="logical" name="KGAMMA"> T  </i>
    <i type="logical" name="KBLOWUP"> T  </i>
   </separator>
   <separator name="electronic projectors" >
    <i type="logical" name="LREAL"> F  </i>
    <v name="ROPT">      0.00000000</v>
    <i type="int" name="LMAXPAW">  -100</i>
    <i type="int" name="LMAXMIX">     2</i>
    <i type="logical" name="NLSPLINE"> F  </i>
   </separator>
   <separator name="electronic startup" >
    <i type="int" name="ISTART">     0</i>
    <i type="int" name="ICHARG">     2</i>
    <i type="int" name="INIWAV">     1</i>
   </separator>
   <separator name="electronic spin" >
    <i type="int" name="ISPIN">     1</i>
    <i type="logical" name="LNONCOLLINEAR"> F  </i>
    <v name="MAGMOM">      1.00000000      1.00000000</v>
    <i name="NUPDOWN">     -1.00000000</i>
    <i type="logical" name="LSORBIT"> F  </i>
    <v name="SAXIS">      0.00000000      0.00000000      1.00000000</v>
    <i type="logical" name="LSPIRAL"> F  </i>
    <v name="QSPIRAL">      0.00000000      0.00000000      0.00000000</v>
    <i type="logical" name="LZEROZ"> F  </i>
   </separator>
   <separator name="electronic exchange-correlation" >
    <i type="logical" name="LASPH"> T  </i>
    <i type="logical" name="LMETAGGA"> F  </i>
   </separator>
   <separator name="electronic convergence" >
    <i type="int" name="NELM">    90</i>
    <i type="int" name="NELMDL">    -5</i>
    <i type="int" name="NELMIN">     6</i>
    <i name="ENINI">    450.00000000</i>
    <separator name="electronic convergence detail" >
     <i type="logical" name="LDIAG"> T  </i>
     <i type="logical" name="LSUBROT"> F  </i>
     <i name="WEIMIN">      0.00100000</i>
     <i name="EBREAK">      0.00000003</i>
     <i name="DEPER">      0.30000000</i>
     <i type="int" name="NRMM">     4</i>
     <i name="TIME">      0.40000000</i>
    </separator>
   </separator>
   <separator name="electronic mixer" >
    <i name="AMIX">      0.40000000</i>
    <i name="BMIX">      1.00000000</i>
    <i name="AMIN">      0.10000000</i>
    <i name="AMIX_MAG">      1.60000000</i>
    <i name="BMIX_MAG">      1.00000000</i>
    <separator name="electronic mixer details" >
     <i type="int" name="IMIX">     4</i>
     <i type="logical" name="MIXFIRST"> F  </i>
     <i type="int" name="MAXMIX">   -45</i>
     <i name="WC">    100.00000000</i>
     <i type="int" name="INIMIX">     1</i>
     <i type="int" name="MIXPRE">     1</i>
     <i type="int" name="MREMOVE">     5</i>
    </separator>
   </separator>
   <separator name="electronic dipolcorrection" >
    <i type="logical" name="LDIPOL"> F  </i>
    <i type="logical" name="LMONO"> F  </i>
    <i type="int" name="IDIPOL">     0</i>
    <i name="EPSILON">      1.00000000</i>
    <v name="DIPOL">   -100.00000000   -100.00000000   -100.00000000</v>
    <i name="EFIELD">      0.00000000</i>
   </separator>
  </separator>
  <separator name="grids" >
   <i type="int" name="NGX">    28</i>
   <i type="int" name="NGY">    28</i>
   <i type="int" name="NGZ">    28</i>
   <i type="int" name="NGXF">    56</i>
   <i type="int" name="NGYF">    56</i>
   <i type="int" name="NGZF">    56</i>
   <i type="logical" name="ADDGRID"> T  </i>
  </separator>
  <separator name="ionic" >
   <i type="int" name="NSW">   100</i>
   <i type="int" name="IBRION">     2</i>
   <i type="int" name="MDALGO">     0</i>
   <i type="int" name="ISIF">     3</i>
   <i name="PSTRESS">      0.00000000</i>
   <i name="EDIFFG">     -0.00200000</i>
   <i type="int" name="NFREE">     1</i>
   <i name="POTIM">      0.50000000</i>
   <i name="SMASS">     -3.00000000</i>
   <i name="SCALEE">      1.00000000</i>
  </separator>
  <separator name="ionic md" >
   <i name="TEBEG">      0.00010000</i>
   <i name="TEEND">      0.00010000</i>
   <i type="int" name="NBLOCK">     1</i>
   <i type="int" name="KBLOCK">   100</i>
   <i type="int" name="NPACO">   256</i>
   <i name="APACO">     16.00000000</i>
  </separator>
  <separator name="symmetry" >
   <i type="int" name="ISYM">     2</i>
   <i name="SYMPREC">      0.00001000</i>
  </separator>
  <separator name="dos" >
   <i type="int" name="LORBIT">     0</i>
   <v name="RWIGS">     -1.00000000</v>
   <i type="int" name="NEDOS">   301</i>
   <i name="EMIN">     10.00000000</i>
   <i name="EMAX">    -10.00000000</i>
   <i name="EFERMI">      0.00000000</i>
  </separator>
  <separator name="writing" >
   <i type="int" name="NWRITE">     2</i>
   <i type="logical" name="LWAVE"> F  </i>
   <i type="logical" name="LDOWNSAMPLE"> F  </i>
   <i type="logical" name="LCHARG"> F  </i>
   <i type="logical" name="LPARD"> F  </i>
   <i type="logical" name="LVTOT"> F  </i>
   <i type="logical" name="LVHAR"> F  </i>
   <i type="logical" name="LELF"> F  </i>
   <i type="logical" name="LOPTICS"> F  </i>
   <v name="STM">      0.00000000      0.00000000      0.00000000      0.00000000      0.00000000      0.00000000      0.00000000</v>
  </separator>
  <separator name="performance" >
   <i type="int" name="NPAR">     4</i>
   <i type="int" name="NSIM">     4</i>
   <i type="int" name="NBLK">    -1</i>
   <i type="logical" name="LPLANE"> T  </i>
   <i type="logical" name="LSCALAPACK"> T  </i>
   <i type="logical" name="LSCAAWARE"> F  </i>
   <i type="logical" name="LSCALU"> F  </i>
   <i type="logical" name="LASYNC"> F  </i>
   <i type="logical" name="LORBITALREAL"> F  </i>
  </separator>
  <separator name="miscellaneous" >
   <i type="int" name="IDIOT">     3</i>
   <i type="int" name="PHON_NSTRUCT">    -1</i>
   <i type="logical" name="LMUSIC"> F  </i>
   <v name="POMASS">     28.08500000</v>
   <v name="DARWINR">      0.00000000</v>
   <v name="DARWINV">      1.00000000</v>
   <i type="logical" name="LCORR"> T  </i>
  </separator>
  <i type="logical" name="GGA_COMPAT"> T  </i>
  <i type="logical" name="LBERRY"> F  </i>
  <i type="int" name="ICORELEVEL">     0</i>
  <i type="logical" name="LDAU"> F  </i>
  <i type="int" name="I_CONSTRAINED_M">     0</i>
  <separator name="electronic exchange-correlation" >
   <i type="string" name="GGA">--</i>
   <i type="int" name="VOSKOWN">     0</i>
   <i type="logical" name="LHFCALC"> F  </i>
   <i type="string" name="PRECFOCK"></i>
   <i type="logical" name="LSYMGRAD"> F  </i>
   <i type="logical" name="LHFONE"> F  </i>
   <i type="logical" name="LRHFCALC"> F  </i>
   <i type="logical" name="LTHOMAS"> F  </i>
   <i type="logical" name="LMODELHF"> F  </i>
   <i type="logical" name="LFOCKACE"> F  </i>
   <i name="ENCUT4O">     -1.00000000</i>
   <i type="int" name="EXXOEP">     0</i>
   <i type="int" name="FOURORBIT">     0</i>
   <i name="AEXX">      0.00000000</i>
   <i name="HFALPHA">      0.00000000</i>
   <i name="MCALPHA">      0.00000000</i>
   <i name="ALDAX">      1.00000000</i>
   <i name="AGGAX">      1.00000000</i>
   <i name="ALDAC">      1.00000000</i>
   <i name="AGGAC">      1.00000000</i>
   <i type="int" name="NKREDX">     1</i>
   <i type="int" name="NKREDY">     1</i>
   <i type="int" name="NKREDZ">     1</i>
   <i type="logical" name="SHIFTRED"> F  </i>
   <i type="logical" name="ODDONLY"> F  </i>
   <i type="logical" name="EVENONLY"> F  </i>
   <i type="int" name="LMAXFOCK">     0</i>
   <i type="int" name="NMAXFOCKAE">     0</i>
   <i type="logical" name="LFOCKAEDFT"> F  </i>
   <i name="HFSCREEN">      0.00000000</i>
   <i name="HFSCREENC">      0.00000000</i>
   <i type="int" name="NBANDSGWLOW">     0</i>
  </separator>
  <separator name="vdW DFT" >
   <i type="logical" name="LUSE_VDW"> F  </i>
   <i name="Zab_VDW">     -0.84910000</i>
   <i name="PARAM1">      0.12340000</i>
   <i name="PARAM2">      1.00000000</i>
   <i name="PARAM3">      0.00000000</i>
  </separator>
  <separator name="model GW" >
   <i type="int" name="MODEL_GW">     0</i>
   <i name="MODEL_EPS0">     12.09885805</i>
   <i name="MODEL_ALPHA">      1.00000000</i>
  </separator>
  <separator name="linear response parameters" >
   <i type="logical" name="LEPSILON"> F  </i>
   <i type="logical" name="LRPA"> F  </i>
   <i type="logical" name="LNABLA"> F  </i>
   <i type="logical" name="LVEL"> F  </i>
   <i type="int" name="KINTER">     0</i>
   <i name="CSHIFT">      0.10000000</i>
   <i name="OMEGAMAX">     -1.00000000</i>
   <i name="DEG_THRESHOLD">      0.00200000</i>
   <i name="RTIME">     -0.10000000</i>
   <i name="WPLASMAI">      0.00000000</i>
   <v name="DFIELD">      0.00000000      0.00000000      0.00000000</v>
   <v name="WPLASMA">      0.00000000      0.00000000      0.00000000      0.00000000      0.00000000      0.00000000      0.00000000      0.00000000      0.00000000</v>
  </separator>
  <separator name="orbital magnetization" >
   <i type="logical" name="NUCIND"> F  </i>
   <v name="MAGPOS">      0.00000000      0.00000000      0.00000000</v>
   <i type="logical" name="LNICSALL"> T  </i>
   <i type="logical" name="ORBITALMAG"> F  </i>
   <i type="logical" name="LMAGBLOCH"> F  </i>
   <i type="logical" name="LCHIMAG"> F  </i>
   <i type="logical" name="LGAUGE"> T  </i>
   <i type="int" name="MAGATOM">     0</i>
   <v name="MAGDIPOL">      0.00000000      0.00000000      0.00000000</v>
   <v name="AVECCONST">      0.00000000      0.00000000      0.00000000</v>
  </separator>
  <separator name="response functions" >
   <i type="logical" name="LFINITE_TEMPERATURE"> F  </i>
   <i type="logical" name="LADDER"> F  </i>
   <i type="logical" name="LRPAFORCE"> F  </i>
   <i type="logical" name="LFXC"> F  </i>
   <i type="logical" name="LHARTREE"> T  </i>
   <i type="int" name="IBSE">     0</i>
   <v type="int" name="KPOINT">    -1     0     0     0</v>
   <i type="logical" name="LTCTC"> F  </i>
   <i type="logical" name="LTCTE"> F  </i>
   <i type="logical" name="LTETE"> F  </i>
   <i type="logical" name="LTRIPLET"> F  </i>
   <i type="logical" name="LFXCEPS"> F  </i>
   <i type="logical" name="LFXHEG"> F  </i>
   <i type="int" name="NATURALO">     2</i>
   <i type="logical" name="LHOLEGF"> F  </i>
   <i type="logical" name="L2ORDER"> F  </i>
   <i type="logical" name="LDMP1"> F  </i>
   <i type="logical" name="LMP2LT"> F  </i>
   <i type="logical" name="LSMP2LT"> F  </i>
   <i type="logical" name="LGWLF"> F  </i>
   <i name="ENCUTGW">     -2.00000000</i>
   <i name="ENCUTGWSOFT">     -2.00000000</i>
   <i name="ENCUTLF">     -1.00000000</i>
   <i type="logical" name="LESF_SPLINES"> F  </i>
   <i type="int" name="LMAXMP2">    -1</i>
   <i name="SCISSOR">      0.00000000</i>
   <i type="int" name="NOMEGA">     0</i>
   <i type="int" name="NOMEGAR">     0</i>
   <i type="int" name="NBANDSGW">    -1</i>
   <i type="int" name="NBANDSO">    -1</i>
   <i type="int" name="NBANDSV">    -1</i>
   <i type="int" name="NELM">    90</i>
   <i type="int" name="NELMHF">     1</i>
   <i type="int" name="DIM">     3</i>
   <i type="int" name="IESPILON">     4</i>
   <i type="int" name="ANTIRES">     0</i>
   <i name="OMEGAMAX">    -30.00000000</i>
   <i name="OMEGAMIN">    -30.00000000</i>
   <i name="OMEGATL">   -200.00000000</i>
   <i type="int" name="OMEGAGRID">     0</i>
   <i name="CSHIFT">     -0.10000000</i>
   <i type="logical" name="LSELFENERGY"> F  </i>
   <i type="logical" name="LSPECTRAL"> F  </i>
   <i type="logical" name="LSPECTRALGW"> F  </i>
   <i type="logical" name="LSINGLES"> F  </i>
   <i type="logical" name="LFERMIGW"> F  </i>
   <i type="logical" name="ODDONLYGW"> F  </i>
   <i type="logical" name="EVENONLYGW"> F  </i>
   <i type="int" name="NKREDLFX">     1</i>
   <i type="int" name="NKREDLFY">     1</i>
   <i type="int" name="NKREDLFZ">     1</i>
   <i type="int" name="MAXMEM">  2800</i>
   <i type="int" name="TELESCOPE">     0</i>
   <i type="int" name="NTAUPAR">    -1</i>
   <i type="int" name="NOMEGAPAR">    -1</i>
   <i name="DAMP_NEWTON">      0.80000001</i>
   <i name="LAMBDA">      1.00000000</i>
  </separator>
  <separator name="External order field" >
   <i name="OFIELD_KAPPA">      0.00000000</i>
   <v name="OFIELD_K">      0.00000000      0.00000000      0.00000000</v>
   <i name="OFIELD_Q6_NEAR">      0.00000000</i>
   <i name="OFIELD_Q6_FAR">      0.00000000</i>
   <i name="OFIELD_A">      0.00000000</i>
  </separator>
 </parameters>
 <atominfo>
  <atoms>       2 </atoms>
  <types>       1 </types>
  <array name="atoms" >
   <dimension dim="1">ion</dimension>
   <field type="string">element</field>
   <field type="int">atomtype</field>
   <set>
    <rc><c>Si</c><c>   1</c></rc>
    <rc><c>Si</c><c>   1</c></rc>
   </set>
  </array>
  <array name="atomtypes" >
   <dimension dim="1">type</dimension>
   <field type="int">atomspertype</field>
   <field type="string">element</field>
   <field>mass</field>
   <field>valence</field>
   <field type="string">pseudopotential</field>
   <set>
    <rc><c>   2</c><c>Si</c><c>     28.08500000</c><c>      4.00000000</c><c>  PAW_PBE Si 05Jan2001                  </c></rc>
   </set>
  </array>
 </atominfo>
 <structure name="initialpos" >
  <crystal>
   <varray name="basis" >
    <v>       3.33357300       0.00000000       1.92463900 </v>
    <v>       1.11119100       3.14292400       1.92463900 </v>
    <v>       0.00000000       0.00000000       3.84927800 </v>
   </varray>
   <i name="volume">     40.32952685 </i>
   <varray name="rec_basis" >
    <v>       0.29997843      -0.10605835       0.00000000 </v>
    <v>       0.00000000       0.31817505       0.00000000 </v>
    <v>      -0.14998922      -0.10605835       0.25978898 </v>
   </varray>
  </crystal>
  <varray name="positions" >
   <v>       0.87500000       0.87500000       0.87500000 </v>
   <v>       0.12500000       0.12500000       0.12500000 </v>
  </varray>
 </structure>
 <calculation>
  <scstep>
   <time name="dav">    1.40    1.40</time>
   <time name="total">    1.64    1.65</time>
   <energy>
    <i name="alphaZ">      3.33880741 </i>
    <i name="ewald">   -227.98820643 </i>
    <i name="hartreedc">    -11.11484531 </i>
    <i name="XCdc">    -18.63153726 </i>
    <i name="pawpsdc">    176.24759923 </i>
    <i name="pawaedc">   -141.06103558 </i>
    <i name="eentropy">     -0.00046589 </i>
    <i name="bandstr">     17.08714345 </i>
    <i name="atom">    206.13192747 </i>
    <i name="e_fr_energy">      4.00938709 </i>
    <i name="e_wo_entrp">      4.00985298 </i>
    <i name="e_0_energy">      4.00962004 </i>
   </energy>
  </scstep>
  <scstep>
   <time name="dav">    1.99    2.01</time>
   <time name="total">    1.99    2.01</time>
   <energy>
    <i name="e_fr_energy">    -10.84442828 </i>
    <i name="e_wo_entrp">    -10.84442828 </i>
    <i name="e_0_energy">    -10.84442828 </i>
   </energy>
  </scstep>
  <scstep>
   <time name="dav">    1.74    1.75</time>
   <time name="total">    1.74    1.76</time>
   <energy>
    <i name="e_fr_energy">    -11.02289905 </i>
    <i name="e_wo_entrp">    -11.02289905 </i>
    <i name="e_0_energy">    -11.02289905 </i>
   </energy>
  </scstep>
  <scstep>
   <time name="dav">    2.01    2.03</time>
   <time name="total">    2.02    2.04</time>
   <energy>
    <i name="e_fr_energy">    -11.02360834 </i>
    <i name="e_wo_entrp">    -11.02360834 </i>
    <i name="e_0_energy">    -11.02360834 </i>
   </energy>
  </scstep>
  <scstep>
   <time name="dav">    1.80    1.82</time>
   <time name="total">    1.94    1.96</time>
   <energy>
    <i name="e_fr_energy">    -11.02360930 </i>
    <i name="e_wo_entrp">    -11.02360930 </i>
    <i name="e_0_energy">    -11.02360930 </i>
   </energy>
  </scstep>
  <scstep>
   <time name="dav">    1.65    1.65</time>
   <time name="total">    2.01    2.03</time>
   <energy>
    <i name="e_fr_energy">    -10.90208011 </i>
    <i name="e_wo_entrp">    -10.90208011 </i>
    <i name="e_0_energy">    -10.90208011 </i>
   </energy>
  </scstep>
  <scstep>
   <time name="dav">    1.69    1.69</time>
   <time name="total">    2.05    2.07</time>
   <energy>
    <i name="e_fr_energy">    -10.84648073 </i>
    <i name="e_wo_entrp">    -10.84648073 </i>
    <i name="e_0_energy">    -10.84648073 </i>
   </energy>
  </scstep>
  <scstep>
   <time name="dav">    1.51    1.51</time>
   <time name="total">    1.87    1.89</time>
   <energy>
    <i name="e_fr_energy">    -10.84755416 </i>
    <i name="e_wo_entrp">    -10.84755416 </i>
    <i name="e_0_energy">    -10.84755416 </i>
   </energy>
  </scstep>
  <scstep>
   <time name="dav">    1.93    1.93</time>
   <time name="total">    2.29    2.31</time>
   <energy>
    <i name="e_fr_energy">    -10.84774403 </i>
    <i name="e_wo_entrp">    -10.84774403 </i>
    <i name="e_0_energy">    -10.84774403 </i>
   </energy>
  </scstep>
  <scstep>
   <time name="dav">    1.56    1.56</time>
   <time name="total">    1.92    1.94</time>
   <energy>
    <i name="e_fr_energy">    -10.84777063 </i>
    <i name="e_wo_entrp">    -10.84777063 </i>
    <i name="e_0_energy">    -10.84777063 </i>
   </energy>
  </scstep>
  <scstep>
   <time name="dav">    1.83    1.83</time>
   <time name="total">    2.07    2.09</time>
   <energy>
    <i name="alphaZ">      3.33880741 </i>
    <i name="ewald">   -227.98820643 </i>
    <i name="hartreedc">    -15.00500004 </i>
    <i name="XCdc">    -17.99695611 </i>
    <i name="pawpsdc">    854.63239523 </i>
    <i name="pawaedc">   -819.66322588 </i>
    <i name="eentropy">     -0.00000000 </i>
    <i name="bandstr">      5.70248811 </i>
    <i name="atom">    206.13192747 </i>
    <i name="e_fr_energy">    -10.84777024 </i>
    <i name="e_wo_entrp">    -10.84777024 </i>
    <i name="e_0_energy">    -10.84777024 </i>
   </energy>
  </scstep>
  <structure>
   <crystal>
    <varray name="basis" >
     <v>       3.33357300       0.00000000       1.92463900 </v>
     <v>       1.11119100       3.14292400       1.92463900 </v>
     <v>       0.00000000       0.00000000       3.84927800 </v>
    </varray>
    <i name="volume">     40.32952685 </i>
    <varray name="rec_basis" >
     <v>       0.29997843      -0.10605835       0.00000000 </v>
     <v>       0.00000000       0.31817505       0.00000000 </v>
     <v>      -0.14998922      -0.10605835       0.25978898 </v>
    </varray>
   </crystal>
   <varray name="positions" >
    <v>       0.87500000       0.87500000       0.87500000 </v>
    <v>       0.12500000       0.12500000       0.12500000 </v>
   </varray>
  </structure>
  <varray name="forces" >
   <v>      -0.00000000       0.00000000      -0.00000000 </v>
   <v>       0.00000000      -0.00000000       0.00000000 </v>
  </varray>
  <varray name="stress" >
   <v>      12.58427221      -0.00000000       0.00000000 </v>
   <v>       0.00000000      12.58428210       0.00000000 </v>
   <v>       0.00000000       0.00000000      12.58426869 </v>
  </varray>
  <energy>
   <i name="e_fr_energy">    -10.84777024 </i>
   <i name="e_wo_entrp">    -10.84777024 </i>
   <i name="e_0_energy">    -10.84777024 </i>
  </energy>
  <time name="totalsc">   24.04   24.36</time>
 </calculation>
 <calculation>
  <scstep>
   <time name="dav">    1.64    1.65</time>
   <time name="total">    2.00    2.01</time>
   <energy>
    <i name="alphaZ">      3.26342824 </i>
    <i name="ewald">   -226.25939139 </i>
    <i name="hartreedc">    -14.89277516 </i>
    <i name="XCdc">    -18.10858620 </i>
    <i name="pawpsdc">    854.63608937 </i>
    <i name="pawaedc">   -819.66691731 </i>
    <i name="eentropy">     -0.00000000 </i>
    <i name="bandstr">      4.04436926 </i>
    <i name="atom">    206.13192747 </i>
    <i name="e_fr_energy">    -10.85185572 </i>
    <i name="e_wo_entrp">    -10.85185572 </i>
    <i name="e_0_energy">    -10.85185572 </i>
   </energy>
  </scstep>
  <scstep>
   <time name="dav">    1.79    1.79</time>
   <time name="total">    2.15    2.17</time>
   <energy>
    <i name="e_fr_energy">    -10.84995825 </i>
    <i name="e_wo_entrp">    -10.84995825 </i>
    <i name="e_0_energy">    -10.84995825 </i>
   </energy>
  </scstep>
  <scstep>
   <time name="dav">    1.60    1.60</time>
   <time name="total">    1.96    1.98</time>
   <energy>
    <i name="e_fr_energy">    -10.84895599 </i>
    <i name="e_wo_entrp">    -10.84895599 </i>
    <i name="e_0_energy">    -10.84895599 </i>
   </energy>
  </scstep>
  <scstep>
   <time name="dav">    1.86    1.87</time>
   <time name="total">    2.22    2.24</time>
   <energy>
    <i name="e_fr_energy">    -10.84895595 </i>
    <i name="e_wo_entrp">    -10.84895595 </i>
    <i name="e_0_energy">    -10.84895595 </i>
   </energy>
  </scstep>
  <scstep>
   <time name="dav">    1.57    1.57</time>
   <time name="total">    1.93    1.95</time>
   <energy>
    <i name="e_fr_energy">    -10.84894944 </i>
    <i name="e_wo_entrp">    -10.84894944 </i>
    <i name="e_0_energy">    -10.84894944 </i>
   </energy>
  </scstep>
  <scstep>
   <time name="dav">    1.09    1.09</time>
   <time name="total">    1.32    1.37</time>
   <energy>
    <i name="alphaZ">      3.26342824 </i>
    <i name="ewald">   -226.25939139 </i>
    <i name="hartreedc">    -15.27904145 </i>
    <i name="XCdc">    -18.10103212 </i>
    <i name="pawpsdc">    813.10460697 </i>
    <i name="pawaedc">   -778.11566702 </i>
    <i name="eentropy">     -0.00000000 </i>
    <i name="bandstr">      4.40621966 </i>
    <i name="atom">    206.13192747 </i>
    <i name="e_fr_energy">    -10.84894964 </i>
    <i name="e_wo_entrp">    -10.84894964 </i>
    <i name="e_0_energy">    -10.84894964 </i>
   </energy>
  </scstep>
  <structure>
   <crystal>
    <varray name="basis" >
     <v>       3.35904434       0.00000000       1.93934488 </v>
     <v>       1.11968145       3.16693864       1.93934488 </v>
     <v>       0.00000000       0.00000000       3.87868976 </v>
    </varray>
    <i name="volume">     41.26106459 </i>
    <varray name="rec_basis" >
     <v>       0.29770372      -0.10525412      -0.00000000 </v>
     <v>       0.00000000       0.31576235      -0.00000000 </v>
     <v>      -0.14885186      -0.10525412       0.25781902 </v>
    </varray>
   </crystal>
   <varray name="positions" >
    <v>       0.87500000       0.87500000       0.87500000 </v>
    <v>       0.12500000       0.12500000       0.12500000 </v>
   </varray>
  </structure>
  <varray name="forces" >
   <v>       0.00000000       0.00000000      -0.00000000 </v>
   <v>      -0.00000000      -0.00000000       0.00000000 </v>
  </varray>
  <varray name="stress" >
   <v>      -7.95831843       0.00000000      -0.00000000 </v>
   <v>       0.00000000      -7.95832478       0.00000000 </v>
   <v>      -0.00000000       0.00000000      -7.95831617 </v>
  </varray>
  <energy>
   <i name="e_fr_energy">    -10.84894964 </i>
   <i name="e_wo_entrp">    -10.84894964 </i>
   <i name="e_0_energy">    -10.84894964 </i>
  </energy>
  <time name="totalsc">   14.09   14.36</time>
 </calculation>
 <calculation>
  <scstep>
   <time name="dav">    1.64    1.64</time>
   <time name="total">    2.00    2.01</time>
   <energy>
    <i name="alphaZ">      3.29369498 </i>
    <i name="ewald">   -226.95672281 </i>
    <i name="hartreedc">    -15.32690891 </i>
    <i name="XCdc">    -18.05615396 </i>
    <i name="pawpsdc">    811.49839234 </i>
    <i name="pawaedc">   -776.50957763 </i>
    <i name="eentropy">     -0.00000000 </i>
    <i name="bandstr">      5.07498061 </i>
    <i name="atom">    206.13192747 </i>
    <i name="e_fr_energy">    -10.85036790 </i>
    <i name="e_wo_entrp">    -10.85036790 </i>
    <i name="e_0_energy">    -10.85036790 </i>
   </energy>
  </scstep>
  <scstep>
   <time name="dav">    1.83    1.83</time>
   <time name="total">    2.19    2.21</time>
   <energy>
    <i name="e_fr_energy">    -10.85005781 </i>
    <i name="e_wo_entrp">    -10.85005781 </i>
    <i name="e_0_energy">    -10.85005781 </i>
   </energy>
  </scstep>
  <scstep>
   <time name="dav">    1.61    1.62</time>
   <time name="total">    1.97    1.99</time>
   <energy>
    <i name="e_fr_energy">    -10.84990070 </i>
    <i name="e_wo_entrp">    -10.84990070 </i>
    <i name="e_0_energy">    -10.84990070 </i>
   </energy>
  </scstep>
  <scstep>
   <time name="dav">    1.80    1.80</time>
   <time name="total">    2.16    2.18</time>
   <energy>
    <i name="e_fr_energy">    -10.84990135 </i>
    <i name="e_wo_entrp">    -10.84990135 </i>
    <i name="e_0_energy">    -10.84990135 </i>
   </energy>
  </scstep>
  <scstep>
   <time name="dav">    1.48    1.48</time>
   <time name="total">    1.84    1.86</time>
   <energy>
    <i name="e_fr_energy">    -10.84990317 </i>
    <i name="e_wo_entrp">    -10.84990317 </i>
    <i name="e_0_energy">    -10.84990317 </i>
   </energy>
  </scstep>
  <scstep>
   <time name="dav">    0.97    0.97</time>
   <time name="total">    1.21    1.23</time>
   <energy>
    <i name="alphaZ">      3.29369498 </i>
    <i name="ewald">   -226.95672281 </i>
    <i name="hartreedc">    -15.16911610 </i>
    <i name="XCdc">    -18.05902931 </i>
    <i name="pawpsdc">    828.48650502 </i>
    <i name="pawaedc">   -793.50555072 </i>
    <i name="eentropy">     -0.00000000 </i>
    <i name="bandstr">      4.92838838 </i>
    <i name="atom">    206.13192747 </i>
    <i name="e_fr_energy">    -10.84990309 </i>
    <i name="e_wo_entrp">    -10.84990309 </i>
    <i name="e_0_energy">    -10.84990309 </i>
   </energy>
  </scstep>
  <structure>
   <crystal>
    <varray name="basis" >
     <v>       3.34872358       0.00000000       1.93338619 </v>
     <v>       1.11624119       3.15720812       1.93338619 </v>
     <v>       0.00000000       0.00000000       3.86677237 </v>
    </varray>
    <i name="volume">     40.88190434 </i>
    <varray name="rec_basis" >
     <v>       0.29862124      -0.10557851      -0.00000000 </v>
     <v>       0.00000000       0.31673553      -0.00000000 </v>
     <v>      -0.14931062      -0.10557851       0.25861362 </v>
    </varray>
   </crystal>
   <varray name="positions" >
    <v>       0.87500000       0.87500000       0.87500000 </v>
    <v>       0.12500000       0.12500000       0.12500000 </v>
   </varray>
  </structure>
  <varray name="forces" >
   <v>      -0.00000000       0.00000000       0.00000000 </v>
   <v>       0.00000000      -0.00000000      -0.00000000 </v>
  </varray>
  <varray name="stress" >
   <v>       0.07013355       0.00000000       0.00000000 </v>
   <v>       0.00000000       0.07013360       0.00000000 </v>
   <v>       0.00000000       0.00000000       0.07013353 </v>
  </varray>
  <energy>
   <i name="e_fr_energy">    -10.84990309 </i>
   <i name="e_wo_entrp">    -10.84990309 </i>
   <i name="e_0_energy">    -10.84990309 </i>
  </energy>
  <time name="totalsc">   13.72   13.97</time>
  <eigenvalues>
   <array>
    <dimension dim="1">band</dimension>
    <dimension dim="2">kpoint</dimension>
    <dimension dim="3">spin</dimension>
    <field>eigene</field>
    <field>occ</field>
    <set>
     <set comment="spin 1">
      <set comment="kpoint 1">
       <r>   -6.1983    1.0000 </r>
       <r>    5.6173    1.0000 </r>
       <r>    5.6173    1.0000 </r>
       <r>    5.6173    1.0000 </r>
       <r>    8.1744    0.0000 </r>
       <r>    8.1744    0.0000 </r>
       <r>    8.1744    0.0000 </r>
       <r>    8.7530    0.0000 </r>
      </set>
      <set comment="kpoint 2">
       <r>   -6.1410    1.0000 </r>
       <r>    5.0244    1.0000 </r>
       <r>    5.5243    1.0000 </r>
       <r>    5.5243    1.0000 </r>
       <r>    8.2100    0.0000 </r>
       <r>    8.3113    0.0000 </r>
       <r>    8.3113    0.0000 </r>
       <r>    9.2136    0.0000 </r>
      </set>
      <set comment="kpoint 3">
       <r>   -5.9704    1.0000 </r>
       <r>    3.8736    1.0000 </r>
       <r>    5.3039    1.0000 </r>
       <r>    5.3039    1.0000 </r>
       <r>    8.0315    0.0000 </r>
       <r>    8.6346    0.0000 </r>
       <r>    8.6346    0.0000 </r>
       <r>   10.2988    0.0000 </r>
      </set>
      <set comment="kpoint 4">
       <r>   -5.6902    1.0000 </r>
       <r>    2.6354    1.0000 </r>
       <r>    5.0498    1.0000 </r>
       <r>    5.0498    1.0000 </r>
       <r>    7.7707    0.0000 </r>
       <r>    8.9621    0.0000 </r>
       <r>    8.9621    0.0000 </r>
       <r>   11.4973    0.0000 </r>
      </set>
      <set comment="kpoint 5">
       <r>   -5.3095    1.0000 </r>
       <r>    1.4396    1.0000 </r>
       <r>    4.8182    1.0000 </r>
       <r>    4.8182    1.0000 </r>
       <r>    7.5176    0.0000 </r>
       <r>    9.1308    0.0000 </r>
       <r>    9.1308    0.0000 </r>
       <r>   12.6429    0.0000 </r>
      </set>
      <set comment="kpoint 6">
       <r>   -4.8480    1.0000 </r>
       <r>    0.3476    1.0000 </r>
       <r>    4.6348    1.0000 </r>
       <r>    4.6348    1.0000 </r>
       <r>    7.3107    0.0000 </r>
       <r>    9.1210    0.0000 </r>
       <r>    9.1210    0.0000 </r>
       <r>   13.4021    0.0000 </r>
      </set>
      <set comment="kpoint 7">
       <r>   -4.3569    1.0000 </r>
       <r>   -0.5712    1.0000 </r>
       <r>    4.5098    1.0000 </r>
       <r>    4.5098    1.0000 </r>
       <r>    7.1671    0.0000 </r>
       <r>    9.0382    0.0000 </r>
       <r>    9.0382    0.0000 </r>
       <r>   13.4233    0.0000 </r>
      </set>
      <set comment="kpoint 8">
       <r>   -3.9791    1.0000 </r>
       <r>   -1.1648    1.0000 </r>
       <r>    4.4467    1.0000 </r>
       <r>    4.4467    1.0000 </r>
       <r>    7.0940    0.0000 </r>
       <r>    8.9757    0.0000 </r>
       <r>    8.9757    0.0000 </r>
       <r>   13.3336    0.0000 </r>
      </set>
      <set comment="kpoint 9">
       <r>   -6.1219    1.0000 </r>
       <r>    5.1336    1.0000 </r>
       <r>    5.3313    1.0000 </r>
       <r>    5.3313    1.0000 </r>
       <r>    7.9959    0.0000 </r>
       <r>    8.5546    0.0000 </r>
       <r>    8.5546    0.0000 </r>
       <r>    9.2140    0.0000 </r>
      </set>
      <set comment="kpoint 10">
       <r>   -5.9888    1.0000 </r>
       <r>    4.2100    1.0000 </r>
       <r>    5.0584    1.0000 </r>
       <r>    5.2240    1.0000 </r>
       <r>    7.9933    0.0000 </r>
       <r>    8.6188    0.0000 </r>
       <r>    8.9489    0.0000 </r>
       <r>   10.0068    0.0000 </r>
      </set>
      <set comment="kpoint 11">
       <r>   -5.7447    1.0000 </r>
       <r>    3.0238    1.0000 </r>
       <r>    4.7880    1.0000 </r>
       <r>    5.0087    1.0000 </r>
       <r>    8.0698    0.0000 </r>
       <r>    8.6164    0.0000 </r>
       <r>    9.3324    0.0000 </r>
       <r>   10.8861    0.0000 </r>
      </set>
      <set comment="kpoint 12">
       <r>   -5.3963    1.0000 </r>
       <r>    1.8297    1.0000 </r>
       <r>    4.5634    1.0000 </r>
       <r>    4.7383    1.0000 </r>
       <r>    7.9266    0.0000 </r>
       <r>    8.8047    0.0000 </r>
       <r>    9.5448    0.0000 </r>
       <r>   11.3719    0.0000 </r>
      </set>
      <set comment="kpoint 13">
       <r>   -4.9585    1.0000 </r>
       <r>    0.7101    1.0000 </r>
       <r>    4.4042    1.0000 </r>
       <r>    4.4789    1.0000 </r>
       <r>    7.7336    0.0000 </r>
       <r>    8.8991    0.0000 </r>
       <r>    9.5351    0.0000 </r>
       <r>   11.9376    0.0000 </r>
      </set>
      <set comment="kpoint 14">
       <r>   -4.4679    1.0000 </r>
       <r>   -0.2698    1.0000 </r>
       <r>    4.2609    1.0000 </r>
       <r>    4.3178    1.0000 </r>
       <r>    7.5784    0.0000 </r>
       <r>    8.8875    0.0000 </r>
       <r>    9.4002    0.0000 </r>
       <r>   12.7386    0.0000 </r>
      </set>
      <set comment="kpoint 15">
       <r>   -4.0260    1.0000 </r>
       <r>   -0.9950    1.0000 </r>
       <r>    4.0987    1.0000 </r>
       <r>    4.3050    1.0000 </r>
       <r>    7.4844    0.0000 </r>
       <r>    8.8765    0.0000 </r>
       <r>    9.2510    0.0000 </r>
       <r>   13.3825    0.0000 </r>
      </set>
      <set comment="kpoint 16">
       <r>   -3.8752    1.0000 </r>
       <r>   -1.2168    1.0000 </r>
       <r>    4.0010    1.0000 </r>
       <r>    4.3631    1.0000 </r>
       <r>    7.4596    0.0000 </r>
       <r>    8.9250    0.0000 </r>
       <r>    9.1479    0.0000 </r>
       <r>   13.5219    0.0000 </r>
      </set>
      <set comment="kpoint 17">
       <r>   -4.1568    1.0000 </r>
       <r>   -0.7925    1.0000 </r>
       <r>    3.9739    1.0000 </r>
       <r>    4.4867    1.0000 </r>
       <r>    7.5057    0.0000 </r>
       <r>    9.0434    0.0000 </r>
       <r>    9.1070    0.0000 </r>
       <r>   13.4926    0.0000 </r>
      </set>
      <set comment="kpoint 18">
       <r>   -4.6339    1.0000 </r>
       <r>    0.0379    1.0000 </r>
       <r>    4.0222    1.0000 </r>
       <r>    4.6682    1.0000 </r>
       <r>    7.6210    0.0000 </r>
       <r>    9.1039    0.0000 </r>
       <r>    9.2018    0.0000 </r>
       <r>   13.0835    0.0000 </r>
      </set>
      <set comment="kpoint 19">
       <r>   -5.1134    1.0000 </r>
       <r>    1.0725    1.0000 </r>
       <r>    4.1487    1.0000 </r>
       <r>    4.8961    1.0000 </r>
       <r>    7.7992    0.0000 </r>
       <r>    9.0635    0.0000 </r>
       <r>    9.3150    0.0000 </r>
       <r>   12.3276    0.0000 </r>
      </set>
      <set comment="kpoint 20">
       <r>   -5.5238    1.0000 </r>
       <r>    2.2202    1.0000 </r>
       <r>    4.3545    1.0000 </r>
       <r>    5.1504    1.0000 </r>
       <r>    8.0256    0.0000 </r>
       <r>    8.8854    0.0000 </r>
       <r>    9.2348    0.0000 </r>
       <r>   11.5909    0.0000 </r>
      </set>
      <set comment="kpoint 21">
       <r>   -5.8384    1.0000 </r>
       <r>    3.4069    1.0000 </r>
       <r>    4.6409    1.0000 </r>
       <r>    5.3914    1.0000 </r>
       <r>    8.2662    0.0000 </r>
       <r>    8.5831    0.0000 </r>
       <r>    8.8889    0.0000 </r>
       <r>   10.7766    0.0000 </r>
      </set>
      <set comment="kpoint 22">
       <r>   -6.0459    1.0000 </r>
       <r>    4.4619    1.0000 </r>
       <r>    5.0436    1.0000 </r>
       <r>    5.5447    1.0000 </r>
       <r>    8.3318    0.0000 </r>
       <r>    8.4325    0.0000 </r>
       <r>    8.4399    0.0000 </r>
       <r>    9.8411    0.0000 </r>
      </set>
      <set comment="kpoint 23">
       <r>   -5.8934    1.0000 </r>
       <r>    4.1282    1.0000 </r>
       <r>    4.7546    1.0000 </r>
       <r>    4.7546    1.0000 </r>
       <r>    7.5740    0.0000 </r>
       <r>    9.4104    0.0000 </r>
       <r>    9.4104    0.0000 </r>
       <r>    9.8843    0.0000 </r>
      </set>
      <set comment="kpoint 24">
       <r>   -5.6860    1.0000 </r>
       <r>    3.2544    1.0000 </r>
       <r>    4.4672    1.0000 </r>
       <r>    4.5365    1.0000 </r>
       <r>    7.5405    0.0000 </r>
       <r>    9.4259    0.0000 </r>
       <r>    9.8761    0.0000 </r>
       <r>   10.2202    0.0000 </r>
      </set>
      <set comment="kpoint 25">
       <r>   -5.3717    1.0000 </r>
       <r>    2.1633    1.0000 </r>
       <r>    4.2354    1.0000 </r>
       <r>    4.2512    1.0000 </r>
       <r>    7.7311    0.0000 </r>
       <r>    9.3399    0.0000 </r>
       <r>   10.1830    0.0000 </r>
       <r>   10.2683    0.0000 </r>
      </set>
      <set comment="kpoint 26">
       <r>   -4.9617    1.0000 </r>
       <r>    1.0734    1.0000 </r>
       <r>    3.9248    1.0000 </r>
       <r>    4.0779    1.0000 </r>
       <r>    7.8277    0.0000 </r>
       <r>    9.3550    0.0000 </r>
       <r>   10.2330    0.0000 </r>
       <r>   10.4799    0.0000 </r>
      </set>
      <set comment="kpoint 27">
       <r>   -4.4823    1.0000 </r>
       <r>    0.0732    1.0000 </r>
       <r>    3.6211    1.0000 </r>
       <r>    4.0024    1.0000 </r>
       <r>    7.8005    0.0000 </r>
       <r>    9.2951    0.0000 </r>
       <r>   10.0959    0.0000 </r>
       <r>   11.1812    0.0000 </r>
      </set>
      <set comment="kpoint 28">
       <r>   -4.0043    1.0000 </r>
       <r>   -0.7385    1.0000 </r>
       <r>    3.3714    1.0000 </r>
       <r>    4.0104    1.0000 </r>
       <r>    7.7702    0.0000 </r>
       <r>    9.2186    0.0000 </r>
       <r>    9.8990    0.0000 </r>
       <r>   12.1898    0.0000 </r>
      </set>
      <set comment="kpoint 29">
       <r>   -3.7226    1.0000 </r>
       <r>   -1.1538    1.0000 </r>
       <r>    3.1922    1.0000 </r>
       <r>    4.0993    1.0000 </r>
       <r>    7.7971    0.0000 </r>
       <r>    9.1961    0.0000 </r>
       <r>    9.7221    0.0000 </r>
       <r>   13.2942    0.0000 </r>
      </set>
      <set comment="kpoint 30">
       <r>   -3.8782    1.0000 </r>
       <r>   -0.9276    1.0000 </r>
       <r>    3.0946    1.0000 </r>
       <r>    4.2623    1.0000 </r>
       <r>    7.8944    0.0000 </r>
       <r>    9.2490    0.0000 </r>
       <r>    9.5947    0.0000 </r>
       <r>   13.7274    0.0000 </r>
      </set>
      <set comment="kpoint 31">
       <r>   -4.3228    1.0000 </r>
       <r>   -0.2119    1.0000 </r>
       <r>    3.0886    1.0000 </r>
       <r>    4.4882    1.0000 </r>
       <r>    8.0537    0.0000 </r>
       <r>    9.3676    0.0000 </r>
       <r>    9.5035    0.0000 </r>
       <r>   12.8821    0.0000 </r>
      </set>
      <set comment="kpoint 32">
       <r>   -4.8130    1.0000 </r>
       <r>    0.7349    1.0000 </r>
       <r>    3.1871    1.0000 </r>
       <r>    4.7585    1.0000 </r>
       <r>    8.2566    0.0000 </r>
       <r>    9.3822    0.0000 </r>
       <r>    9.4854    0.0000 </r>
       <r>   11.9832    0.0000 </r>
      </set>
      <set comment="kpoint 33">
       <r>   -5.2491    1.0000 </r>
       <r>    1.7708    1.0000 </r>
       <r>    3.4186    1.0000 </r>
       <r>    5.0419    1.0000 </r>
       <r>    8.4728    0.0000 </r>
       <r>    9.1362    0.0000 </r>
       <r>    9.4103    0.0000 </r>
       <r>   11.3669    0.0000 </r>
      </set>
      <set comment="kpoint 34">
       <r>   -5.5958    1.0000 </r>
       <r>    2.7319    1.0000 </r>
       <r>    3.8731    1.0000 </r>
       <r>    5.2818    1.0000 </r>
       <r>    8.6000    0.0000 </r>
       <r>    8.8028    0.0000 </r>
       <r>    9.0368    0.0000 </r>
       <r>   11.1138    0.0000 </r>
      </set>
      <set comment="kpoint 35">
       <r>   -5.5151    1.0000 </r>
       <r>    2.9829    1.0000 </r>
       <r>    4.1629    1.0000 </r>
       <r>    4.1629    1.0000 </r>
       <r>    7.0938    0.0000 </r>
       <r>    9.4711    0.0000 </r>
       <r>   10.4590    0.0000 </r>
       <r>   10.4590    0.0000 </r>
      </set>
      <set comment="kpoint 36">
       <r>   -5.2359    1.0000 </r>
       <r>    2.2170    1.0000 </r>
       <r>    3.8546    1.0000 </r>
       <r>    3.9158    1.0000 </r>
       <r>    7.0849    0.0000 </r>
       <r>    9.1168    0.0000 </r>
       <r>   10.7297    0.0000 </r>
       <r>   10.9181    0.0000 </r>
      </set>
      <set comment="kpoint 37">
       <r>   -4.8566    1.0000 </r>
       <r>    1.2879    1.0000 </r>
       <r>    3.4516    1.0000 </r>
       <r>    3.7460    1.0000 </r>
       <r>    7.2968    0.0000 </r>
       <r>    9.1337    0.0000 </r>
       <r>   10.6455    0.0000 </r>
       <r>   11.0980    0.0000 </r>
      </set>
      <set comment="kpoint 38">
       <r>   -4.3960    1.0000 </r>
       <r>    0.3537    1.0000 </r>
       <r>    3.0404    1.0000 </r>
       <r>    3.6627    1.0000 </r>
       <r>    7.4045    0.0000 </r>
       <r>    9.6875    0.0000 </r>
       <r>   10.4786    0.0000 </r>
       <r>   11.0139    0.0000 </r>
      </set>
      <set comment="kpoint 39">
       <r>   -3.9033    1.0000 </r>
       <r>   -0.4757    1.0000 </r>
       <r>    2.6856    1.0000 </r>
       <r>    3.6686    1.0000 </r>
       <r>    7.4389    0.0000 </r>
       <r>   10.3182    0.0000 </r>
       <r>   10.6481    0.0000 </r>
       <r>   10.8085    0.0000 </r>
      </set>
      <set comment="kpoint 40">
       <r>   -3.5226    1.0000 </r>
       <r>   -1.0259    1.0000 </r>
       <r>    2.4157    1.0000 </r>
       <r>    3.7621    1.0000 </r>
       <r>    7.5161    0.0000 </r>
       <r>   10.2131    0.0000 </r>
       <r>   10.5889    0.0000 </r>
       <r>   11.8214    0.0000 </r>
      </set>
      <set comment="kpoint 41">
       <r>   -3.5350    1.0000 </r>
       <r>   -1.0048    1.0000 </r>
       <r>    2.2477    1.0000 </r>
       <r>    3.9374    1.0000 </r>
       <r>    7.6761    0.0000 </r>
       <r>   10.1649    0.0000 </r>
       <r>   10.3983    0.0000 </r>
       <r>   13.1130    0.0000 </r>
      </set>
      <set comment="kpoint 42">
       <r>   -3.9266    1.0000 </r>
       <r>   -0.4329    1.0000 </r>
       <r>    2.2007    1.0000 </r>
       <r>    4.1829    1.0000 </r>
       <r>    7.9163    0.0000 </r>
       <r>   10.1707    0.0000 </r>
       <r>   10.2252    0.0000 </r>
       <r>   12.7604    0.0000 </r>
      </set>
      <set comment="kpoint 43">
       <r>   -4.4182    1.0000 </r>
       <r>    0.3735    1.0000 </r>
       <r>    2.3136    1.0000 </r>
       <r>    4.4782    1.0000 </r>
       <r>    8.2061    0.0000 </r>
       <r>    9.9863    0.0000 </r>
       <r>   10.1662    0.0000 </r>
       <r>   11.7744    0.0000 </r>
      </set>
      <set comment="kpoint 44">
       <r>   -4.8745    1.0000 </r>
       <r>    1.1707    1.0000 </r>
       <r>    2.6837    1.0000 </r>
       <r>    4.7863    1.0000 </r>
       <r>    8.4688    0.0000 </r>
       <r>    9.5833    0.0000 </r>
       <r>    9.8875    0.0000 </r>
       <r>   11.2751    0.0000 </r>
      </set>
      <set comment="kpoint 45">
       <r>   -4.9913    1.0000 </r>
       <r>    1.8035    1.0000 </r>
       <r>    3.6501    1.0000 </r>
       <r>    3.6501    1.0000 </r>
       <r>    6.6737    0.0000 </r>
       <r>    8.5124    0.0000 </r>
       <r>   11.5985    0.0000 </r>
       <r>   11.5985    0.0000 </r>
      </set>
      <set comment="kpoint 46">
       <r>   -4.6440    1.0000 </r>
       <r>    1.1240    1.0000 </r>
       <r>    3.3026    1.0000 </r>
       <r>    3.4612    1.0000 </r>
       <r>    6.7162    0.0000 </r>
       <r>    8.2100    0.0000 </r>
       <r>   11.8770    0.0000 </r>
       <r>   12.0147    0.0000 </r>
      </set>
      <set comment="kpoint 47">
       <r>   -4.2076    1.0000 </r>
       <r>    0.3641    1.0000 </r>
       <r>    2.7937    1.0000 </r>
       <r>    3.3600    1.0000 </r>
       <r>    6.9264    0.0000 </r>
       <r>    8.4078    0.0000 </r>
       <r>   11.8123    0.0000 </r>
       <r>   12.0665    0.0000 </r>
      </set>
      <set comment="kpoint 48">
       <r>   -3.7156    1.0000 </r>
       <r>   -0.3774    1.0000 </r>
       <r>    2.2931    1.0000 </r>
       <r>    3.3508    1.0000 </r>
       <r>    7.0212    0.0000 </r>
       <r>    9.1734    0.0000 </r>
       <r>   11.6681    0.0000 </r>
       <r>   11.8968    0.0000 </r>
      </set>
      <set comment="kpoint 49">
       <r>   -3.2696    1.0000 </r>
       <r>   -0.9658    1.0000 </r>
       <r>    1.8927    1.0000 </r>
       <r>    3.4333    1.0000 </r>
       <r>    7.1144    0.0000 </r>
       <r>   10.2579    0.0000 </r>
       <r>   11.5469    0.0000 </r>
       <r>   11.6593    0.0000 </r>
      </set>
      <set comment="kpoint 50">
       <r>   -3.1436    1.0000 </r>
       <r>   -1.1132    1.0000 </r>
       <r>    1.6338    1.0000 </r>
       <r>    3.6029    1.0000 </r>
       <r>    7.2881    0.0000 </r>
       <r>   11.2353    0.0000 </r>
       <r>   11.4169    0.0000 </r>
       <r>   11.7502    0.0000 </r>
      </set>
      <set comment="kpoint 51">
       <r>   -3.4675    1.0000 </r>
       <r>   -0.7071    1.0000 </r>
       <r>    1.5581    1.0000 </r>
       <r>    3.8493    1.0000 </r>
       <r>    7.5532    0.0000 </r>
       <r>   11.1375    0.0000 </r>
       <r>   11.2775    0.0000 </r>
       <r>   12.6665    0.0000 </r>
      </set>
      <set comment="kpoint 52">
       <r>   -3.9508    1.0000 </r>
       <r>   -0.1159    1.0000 </r>
       <r>    1.7499    1.0000 </r>
       <r>    4.1532    1.0000 </r>
       <r>    7.8853    0.0000 </r>
       <r>   10.6643    0.0000 </r>
       <r>   11.0040    0.0000 </r>
       <r>   11.8609    0.0000 </r>
      </set>
      <set comment="kpoint 53">
       <r>   -4.3282    1.0000 </r>
       <r>    0.6271    1.0000 </r>
       <r>    3.2502    1.0000 </r>
       <r>    3.2502    1.0000 </r>
       <r>    6.3758    0.0000 </r>
       <r>    7.6391    0.0000 </r>
       <r>   12.7912    0.0000 </r>
       <r>   12.7912    0.0000 </r>
      </set>
      <set comment="kpoint 54">
       <r>   -3.9185    1.0000 </r>
       <r>    0.0120    1.0000 </r>
       <r>    2.9064    1.0000 </r>
       <r>    3.1263    1.0000 </r>
       <r>    6.4790    0.0000 </r>
       <r>    7.4637    0.0000 </r>
       <r>   13.0932    0.0000 </r>
       <r>   13.1495    0.0000 </r>
      </set>
      <set comment="kpoint 55">
       <r>   -3.4377    1.0000 </r>
       <r>   -0.6102    1.0000 </r>
       <r>    2.3499    1.0000 </r>
       <r>    3.0955    1.0000 </r>
       <r>    6.6628    0.0000 </r>
       <r>    7.9007    0.0000 </r>
       <r>   13.0485    0.0000 </r>
       <r>   13.0985    0.0000 </r>
      </set>
      <set comment="kpoint 56">
       <r>   -2.9550    1.0000 </r>
       <r>   -1.1543    1.0000 </r>
       <r>    1.8108    1.0000 </r>
       <r>    3.1586    1.0000 </r>
       <r>    6.7685    0.0000 </r>
       <r>    8.8671    0.0000 </r>
       <r>   12.8711    0.0000 </r>
       <r>   12.9170    0.0000 </r>
      </set>
      <set comment="kpoint 57">
       <r>   -2.7237    1.0000 </r>
       <r>   -1.3838    1.0000 </r>
       <r>    1.4282    1.0000 </r>
       <r>    3.3124    1.0000 </r>
       <r>    6.9384    0.0000 </r>
       <r>   10.0850    0.0000 </r>
       <r>   12.5610    0.0000 </r>
       <r>   12.7895    0.0000 </r>
      </set>
      <set comment="kpoint 58">
       <r>   -3.0011    1.0000 </r>
       <r>   -1.0963    1.0000 </r>
       <r>    1.3064    1.0000 </r>
       <r>    3.5483    1.0000 </r>
       <r>    7.2053    0.0000 </r>
       <r>   11.3952    0.0000 </r>
       <r>   12.0259    0.0000 </r>
       <r>   12.5892    0.0000 </r>
      </set>
      <set comment="kpoint 59">
       <r>   -3.5349    1.0000 </r>
       <r>   -0.5200    1.0000 </r>
       <r>    2.9779    1.0000 </r>
       <r>    2.9779    1.0000 </r>
       <r>    6.2352    0.0000 </r>
       <r>    6.9669    0.0000 </r>
       <r>   14.0189    0.0000 </r>
       <r>   14.0189    0.0000 </r>
      </set>
      <set comment="kpoint 60">
       <r>   -3.0712    1.0000 </r>
       <r>   -1.0799    1.0000 </r>
       <r>    2.6689    1.0000 </r>
       <r>    2.9221    1.0000 </r>
       <r>    6.3912    0.0000 </r>
       <r>    6.9470    0.0000 </r>
       <r>   14.3121    0.0000 </r>
       <r>   14.3374    0.0000 </r>
      </set>
      <set comment="kpoint 61">
       <r>   -2.5727    1.0000 </r>
       <r>   -1.5885    1.0000 </r>
       <r>    2.1312    1.0000 </r>
       <r>    2.9614    1.0000 </r>
       <r>    6.5263    0.0000 </r>
       <r>    7.6463    0.0000 </r>
       <r>   14.1476    0.0000 </r>
       <r>   14.3095    0.0000 </r>
      </set>
      <set comment="kpoint 62">
       <r>   -2.3593    1.0000 </r>
       <r>   -1.7561    1.0000 </r>
       <r>    1.6478    1.0000 </r>
       <r>    3.0938    1.0000 </r>
       <r>    6.6812    0.0000 </r>
       <r>    8.7665    0.0000 </r>
       <r>   13.6153    0.0000 </r>
       <r>   14.1906    0.0000 </r>
      </set>
      <set comment="kpoint 63">
       <r>   -2.6239    1.0000 </r>
       <r>   -1.6118    1.0000 </r>
       <r>    2.8402    1.0000 </r>
       <r>    2.8402    1.0000 </r>
       <r>    6.2753    0.0000 </r>
       <r>    6.5144    0.0000 </r>
       <r>   15.2178    0.0000 </r>
       <r>   15.2178    0.0000 </r>
      </set>
      <set comment="kpoint 64">
       <r>   -2.1470    1.0000 </r>
       <r>   -2.0877    1.0000 </r>
       <r>    2.5899    1.0000 </r>
       <r>    2.8535    1.0000 </r>
       <r>    6.4042    0.0000 </r>
       <r>    6.7309    0.0000 </r>
       <r>   15.1928    0.0000 </r>
       <r>   15.3381    0.0000 </r>
      </set>
      <set comment="kpoint 65">
       <r>   -5.8187    1.0000 </r>
       <r>    3.5586    1.0000 </r>
       <r>    4.4624    1.0000 </r>
       <r>    5.1478    1.0000 </r>
       <r>    7.9792    0.0000 </r>
       <r>    8.8793    0.0000 </r>
       <r>    9.2730    0.0000 </r>
       <r>   10.4959    0.0000 </r>
      </set>
      <set comment="kpoint 66">
       <r>   -5.5395    1.0000 </r>
       <r>    2.5477    1.0000 </r>
       <r>    4.0255    1.0000 </r>
       <r>    4.9696    1.0000 </r>
       <r>    8.1634    0.0000 </r>
       <r>    8.8715    0.0000 </r>
       <r>    9.6632    0.0000 </r>
       <r>   10.7259    0.0000 </r>
      </set>
      <set comment="kpoint 67">
       <r>   -5.1598    1.0000 </r>
       <r>    1.4406    1.0000 </r>
       <r>    3.7514    1.0000 </r>
       <r>    4.7170    1.0000 </r>
       <r>    8.1971    0.0000 </r>
       <r>    8.9231    0.0000 </r>
       <r>    9.8596    0.0000 </r>
       <r>   10.9611    0.0000 </r>
      </set>
      <set comment="kpoint 68">
       <r>   -4.6991    1.0000 </r>
       <r>    0.3905    1.0000 </r>
       <r>    3.5754    1.0000 </r>
       <r>    4.4703    1.0000 </r>
       <r>    8.0878    0.0000 </r>
       <r>    8.9291    0.0000 </r>
       <r>    9.8355    0.0000 </r>
       <r>   11.5781    0.0000 </r>
      </set>
      <set comment="kpoint 69">
       <r>   -4.2075    1.0000 </r>
       <r>   -0.5082    1.0000 </r>
       <r>    3.4746    1.0000 </r>
       <r>    4.2777    1.0000 </r>
       <r>    7.9808    0.0000 </r>
       <r>    8.8573    0.0000 </r>
       <r>    9.7380    0.0000 </r>
       <r>   12.4944    0.0000 </r>
      </set>
      <set comment="kpoint 70">
       <r>   -3.8273    1.0000 </r>
       <r>   -1.0954    1.0000 </r>
       <r>    3.4312    1.0000 </r>
       <r>    4.1713    1.0000 </r>
       <r>    7.9220    0.0000 </r>
       <r>    8.7993    0.0000 </r>
       <r>    9.6679    0.0000 </r>
       <r>   13.4524    0.0000 </r>
      </set>
      <set comment="kpoint 71">
       <r>   -5.4429    1.0000 </r>
       <r>    2.5931    1.0000 </r>
       <r>    3.8681    1.0000 </r>
       <r>    4.4567    1.0000 </r>
       <r>    7.5181    0.0000 </r>
       <r>    9.4898    0.0000 </r>
       <r>   10.1494    0.0000 </r>
       <r>   10.3551    0.0000 </r>
      </set>
      <set comment="kpoint 72">
       <r>   -5.0961    1.0000 </r>
       <r>    1.6845    1.0000 </r>
       <r>    3.4299    1.0000 </r>
       <r>    4.2567    1.0000 </r>
       <r>    7.7505    0.0000 </r>
       <r>    9.4784    0.0000 </r>
       <r>   10.0010    0.0000 </r>
       <r>   10.7249    0.0000 </r>
      </set>
      <set comment="kpoint 73">
       <r>   -4.6599    1.0000 </r>
       <r>    0.7060    1.0000 </r>
       <r>    3.1337    1.0000 </r>
       <r>    4.0243    1.0000 </r>
       <r>    7.9026    0.0000 </r>
       <r>    9.5923    0.0000 </r>
       <r>   10.0899    0.0000 </r>
       <r>   10.8257    0.0000 </r>
      </set>
      <set comment="kpoint 74">
       <r>   -4.1693    1.0000 </r>
       <r>   -0.2018    1.0000 </r>
       <r>    2.9149    1.0000 </r>
       <r>    3.8567    1.0000 </r>
       <r>    7.9366    0.0000 </r>
       <r>    9.4095    0.0000 </r>
       <r>   10.7061    0.0000 </r>
       <r>   10.9505    0.0000 </r>
      </set>
      <set comment="kpoint 75">
       <r>   -3.7241    1.0000 </r>
       <r>   -0.8946    1.0000 </r>
       <r>    2.7475    1.0000 </r>
       <r>    3.7994    1.0000 </r>
       <r>    7.9788    0.0000 </r>
       <r>    9.2204    0.0000 </r>
       <r>   10.6296    0.0000 </r>
       <r>   12.0248    0.0000 </r>
      </set>
      <set comment="kpoint 76">
       <r>   -3.5733    1.0000 </r>
       <r>   -1.1058    1.0000 </r>
       <r>    2.6346    1.0000 </r>
       <r>    3.8592    1.0000 </r>
       <r>    8.0849    0.0000 </r>
       <r>    9.0887    0.0000 </r>
       <r>   10.5576    0.0000 </r>
       <r>   13.2499    0.0000 </r>
      </set>
      <set comment="kpoint 77">
       <r>   -3.8632    1.0000 </r>
       <r>   -0.6865    1.0000 </r>
       <r>    2.5948    1.0000 </r>
       <r>    4.0214    1.0000 </r>
       <r>    8.2584    0.0000 </r>
       <r>    9.0264    0.0000 </r>
       <r>   10.5272    0.0000 </r>
       <r>   12.3674    0.0000 </r>
      </set>
      <set comment="kpoint 78">
       <r>   -4.3430    1.0000 </r>
       <r>    0.1004    1.0000 </r>
       <r>    2.6527    1.0000 </r>
       <r>    4.2616    1.0000 </r>
       <r>    8.4729    0.0000 </r>
       <r>    9.0100    0.0000 </r>
       <r>   10.5009    0.0000 </r>
       <r>   11.3659    0.0000 </r>
      </set>
      <set comment="kpoint 79">
       <r>   -4.8206    1.0000 </r>
       <r>    1.0216    1.0000 </r>
       <r>    2.8488    1.0000 </r>
       <r>    4.5446    1.0000 </r>
       <r>    8.6580    0.0000 </r>
       <r>    8.9400    0.0000 </r>
       <r>   10.3874    0.0000 </r>
       <r>   10.7001    0.0000 </r>
      </set>
      <set comment="kpoint 80">
       <r>   -5.2278    1.0000 </r>
       <r>    1.8961    1.0000 </r>
       <r>    3.2760    1.0000 </r>
       <r>    4.8122    1.0000 </r>
       <r>    8.4928    0.0000 </r>
       <r>    8.9300    0.0000 </r>
       <r>   10.0905    0.0000 </r>
       <r>   10.5149    0.0000 </r>
      </set>
      <set comment="kpoint 81">
       <r>   -4.9231    1.0000 </r>
       <r>    1.5760    1.0000 </r>
       <r>    3.3584    1.0000 </r>
       <r>    3.7886    1.0000 </r>
       <r>    7.1080    0.0000 </r>
       <r>    8.7756    0.0000 </r>
       <r>   10.8971    0.0000 </r>
       <r>   11.5318    0.0000 </r>
      </set>
      <set comment="kpoint 82">
       <r>   -4.5151    1.0000 </r>
       <r>    0.7957    1.0000 </r>
       <r>    2.9098    1.0000 </r>
       <r>    3.5833    1.0000 </r>
       <r>    7.3714    0.0000 </r>
       <r>    8.8268    0.0000 </r>
       <r>   10.7453    0.0000 </r>
       <r>   11.8797    0.0000 </r>
      </set>
      <set comment="kpoint 83">
       <r>   -4.0365    1.0000 </r>
       <r>   -0.0146    1.0000 </r>
       <r>    2.5194    1.0000 </r>
       <r>    3.4351    1.0000 </r>
       <r>    7.5147    0.0000 </r>
       <r>    9.4461    0.0000 </r>
       <r>   10.5146    0.0000 </r>
       <r>   11.9077    0.0000 </r>
      </set>
      <set comment="kpoint 84">
       <r>   -3.5554    1.0000 </r>
       <r>   -0.7231    1.0000 </r>
       <r>    2.1963    1.0000 </r>
       <r>    3.4041    1.0000 </r>
       <r>    7.5934    0.0000 </r>
       <r>   10.1997    0.0000 </r>
       <r>   10.5473    0.0000 </r>
       <r>   11.8091    0.0000 </r>
      </set>
      <set comment="kpoint 85">
       <r>   -3.2742    1.0000 </r>
       <r>   -1.0923    1.0000 </r>
       <r>    1.9641    1.0000 </r>
       <r>    3.4896    1.0000 </r>
       <r>    7.7273    0.0000 </r>
       <r>   10.0504    0.0000 </r>
       <r>   11.6521    0.0000 </r>
       <r>   11.7706    0.0000 </r>
      </set>
      <set comment="kpoint 86">
       <r>   -3.4508    1.0000 </r>
       <r>   -0.8571    1.0000 </r>
       <r>    1.8505    1.0000 </r>
       <r>    3.6758    1.0000 </r>
       <r>    7.9457    0.0000 </r>
       <r>    9.9037    0.0000 </r>
       <r>   11.5764    0.0000 </r>
       <r>   12.3244    0.0000 </r>
      </set>
      <set comment="kpoint 87">
       <r>   -3.9054    1.0000 </r>
       <r>   -0.2249    1.0000 </r>
       <r>    1.8993    1.0000 </r>
       <r>    3.9411    1.0000 </r>
       <r>    8.2377    0.0000 </r>
       <r>    9.7528    0.0000 </r>
       <r>   11.1910    0.0000 </r>
       <r>   11.5369    0.0000 </r>
      </set>
      <set comment="kpoint 88">
       <r>   -4.3920    1.0000 </r>
       <r>    0.4695    1.0000 </r>
       <r>    2.1998    1.0000 </r>
       <r>    4.2511    1.0000 </r>
       <r>    8.5577    0.0000 </r>
       <r>    9.3908    0.0000 </r>
       <r>   10.6507    0.0000 </r>
       <r>   11.1086    0.0000 </r>
      </set>
      <set comment="kpoint 89">
       <r>   -4.2664    1.0000 </r>
       <r>    0.5164    1.0000 </r>
       <r>    2.9696    1.0000 </r>
       <r>    3.2523    1.0000 </r>
       <r>    6.8108    0.0000 </r>
       <r>    7.9484    0.0000 </r>
       <r>   11.9496    0.0000 </r>
       <r>   12.7594    0.0000 </r>
      </set>
      <set comment="kpoint 90">
       <r>   -3.8072    1.0000 </r>
       <r>   -0.1408    1.0000 </r>
       <r>    2.4962    1.0000 </r>
       <r>    3.0900    1.0000 </r>
       <r>    7.0893    0.0000 </r>
       <r>    8.1858    0.0000 </r>
       <r>   11.7596    0.0000 </r>
       <r>   13.0970    0.0000 </r>
      </set>
      <set comment="kpoint 91">
       <r>   -3.3120    1.0000 </r>
       <r>   -0.7684    1.0000 </r>
       <r>    2.0030    1.0000 </r>
       <r>    3.0620    1.0000 </r>
       <r>    7.2167    0.0000 </r>
       <r>    9.0283    0.0000 </r>
       <r>   11.5181    0.0000 </r>
       <r>   13.0872    0.0000 </r>
      </set>
      <set comment="kpoint 92">
       <r>   -2.9332    1.0000 </r>
       <r>   -1.2009    1.0000 </r>
       <r>    1.6196    1.0000 </r>
       <r>    3.1512    1.0000 </r>
       <r>    7.3532    0.0000 </r>
       <r>   10.1670    0.0000 </r>
       <r>   11.3074    0.0000 </r>
       <r>   12.9465    0.0000 </r>
      </set>
      <set comment="kpoint 93">
       <r>   -2.9980    1.0000 </r>
       <r>   -1.1199    1.0000 </r>
       <r>    1.4188    1.0000 </r>
       <r>    3.3417    1.0000 </r>
       <r>    7.5749    0.0000 </r>
       <r>   10.9420    0.0000 </r>
       <r>   11.6261    0.0000 </r>
       <r>   12.3489    0.0000 </r>
      </set>
      <set comment="kpoint 94">
       <r>   -3.4216    1.0000 </r>
       <r>   -0.6648    1.0000 </r>
       <r>    1.4804    1.0000 </r>
       <r>    3.6151    1.0000 </r>
       <r>    7.8821    0.0000 </r>
       <r>   10.6003    0.0000 </r>
       <r>   11.4526    0.0000 </r>
       <r>   12.3318    0.0000 </r>
      </set>
      <set comment="kpoint 95">
       <r>   -3.4831    1.0000 </r>
       <r>   -0.5563    1.0000 </r>
       <r>    2.7185    1.0000 </r>
       <r>    2.8771    1.0000 </r>
       <r>    6.6616    0.0000 </r>
       <r>    7.3155    0.0000 </r>
       <r>   13.0662    0.0000 </r>
       <r>   14.0132    0.0000 </r>
      </set>
      <set comment="kpoint 96">
       <r>   -2.9893    1.0000 </r>
       <r>   -1.1094    1.0000 </r>
       <r>    2.2281    1.0000 </r>
       <r>    2.8051    1.0000 </r>
       <r>    6.9226    0.0000 </r>
       <r>    7.7848    0.0000 </r>
       <r>   12.8517    0.0000 </r>
       <r>   14.3137    0.0000 </r>
      </set>
      <set comment="kpoint 97">
       <r>   -2.5489    1.0000 </r>
       <r>   -1.5422    1.0000 </r>
       <r>    1.7165    1.0000 </r>
       <r>    2.8857    1.0000 </r>
       <r>    7.0585    0.0000 </r>
       <r>    8.8235    0.0000 </r>
       <r>   12.6000    0.0000 </r>
       <r>   13.7806    0.0000 </r>
      </set>
      <set comment="kpoint 98">
       <r>   -2.5808    1.0000 </r>
       <r>   -1.4852    1.0000 </r>
       <r>    1.3987    1.0000 </r>
       <r>    3.0698    1.0000 </r>
       <r>    7.2696    0.0000 </r>
       <r>   10.0872    0.0000 </r>
       <r>   12.1961    0.0000 </r>
       <r>   12.6693    0.0000 </r>
      </set>
      <set comment="kpoint 99">
       <r>   -2.5884    1.0000 </r>
       <r>   -1.6033    1.0000 </r>
       <r>    2.6150    1.0000 </r>
       <r>    2.6660    1.0000 </r>
       <r>    6.6840    0.0000 </r>
       <r>    6.8968    0.0000 </r>
       <r>   14.2304    0.0000 </r>
       <r>   15.0808    0.0000 </r>
      </set>
      <set comment="kpoint 100">
       <r>   -2.1713    1.0000 </r>
       <r>   -1.9812    1.0000 </r>
       <r>    2.1357    1.0000 </r>
       <r>    2.7130    1.0000 </r>
       <r>    6.8688    0.0000 </r>
       <r>    7.6481    0.0000 </r>
       <r>   13.9202    0.0000 </r>
       <r>   14.1032    0.0000 </r>
      </set>
      <set comment="kpoint 101">
       <r>   -4.7209    1.0000 </r>
       <r>    1.0635    1.0000 </r>
       <r>    2.7746    1.0000 </r>
       <r>    4.0561    1.0000 </r>
       <r>    8.1172    0.0000 </r>
       <r>    9.4587    0.0000 </r>
       <r>    9.7493    0.0000 </r>
       <r>   11.3509    0.0000 </r>
      </set>
      <set comment="kpoint 102">
       <r>   -4.2639    1.0000 </r>
       <r>    0.2998    1.0000 </r>
       <r>    2.3802    1.0000 </r>
       <r>    3.7808    1.0000 </r>
       <r>    8.4372    0.0000 </r>
       <r>    9.4073    0.0000 </r>
       <r>    9.8903    0.0000 </r>
       <r>   11.7096    0.0000 </r>
      </set>
      <set comment="kpoint 103">
       <r>   -3.7714    1.0000 </r>
       <r>   -0.4638    1.0000 </r>
       <r>    2.1819    1.0000 </r>
       <r>    3.5445    1.0000 </r>
       <r>    8.5653    0.0000 </r>
       <r>    9.1139    0.0000 </r>
       <r>   10.7855    0.0000 </r>
       <r>   11.7920    0.0000 </r>
      </set>
      <set comment="kpoint 104">
       <r>   -3.3815    1.0000 </r>
       <r>   -1.0060    1.0000 </r>
       <r>    2.1016    1.0000 </r>
       <r>    3.4109    1.0000 </r>
       <r>    8.6797    0.0000 </r>
       <r>    8.8673    0.0000 </r>
       <r>   11.7639    0.0000 </r>
       <r>   11.9723    0.0000 </r>
      </set>
      <set comment="kpoint 105">
       <r>   -4.0846    1.0000 </r>
       <r>    0.2116    1.0000 </r>
       <r>    2.4091    1.0000 </r>
       <r>    3.3090    1.0000 </r>
       <r>    7.8340    0.0000 </r>
       <r>    8.7847    0.0000 </r>
       <r>   10.5121    0.0000 </r>
       <r>   12.6670    0.0000 </r>
      </set>
      <set comment="kpoint 106">
       <r>   -3.5959    1.0000 </r>
       <r>   -0.4271    1.0000 </r>
       <r>    2.0399    1.0000 </r>
       <r>    3.0587    1.0000 </r>
       <r>    8.1557    0.0000 </r>
       <r>    9.3271    0.0000 </r>
       <r>   10.2376    0.0000 </r>
       <r>   13.0348    0.0000 </r>
      </set>
      <set comment="kpoint 107">
       <r>   -3.1416    1.0000 </r>
       <r>   -0.9854    1.0000 </r>
       <r>    1.7863    1.0000 </r>
       <r>    2.9433    1.0000 </r>
       <r>    8.2989    0.0000 </r>
       <r>    9.8629    0.0000 </r>
       <r>   10.4951    0.0000 </r>
       <r>   13.0795    0.0000 </r>
      </set>
      <set comment="kpoint 108">
       <r>   -2.9928    1.0000 </r>
       <r>   -1.1566    1.0000 </r>
       <r>    1.6443    1.0000 </r>
       <r>    2.9879    1.0000 </r>
       <r>    8.4828    0.0000 </r>
       <r>    9.6826    0.0000 </r>
       <r>   11.6568    0.0000 </r>
       <r>   12.0990    0.0000 </r>
      </set>
      <set comment="kpoint 109">
       <r>   -3.3107    1.0000 </r>
       <r>   -0.7809    1.0000 </r>
       <r>    1.6488    1.0000 </r>
       <r>    3.1725    1.0000 </r>
       <r>    8.7445    0.0000 </r>
       <r>    9.5021    0.0000 </r>
       <r>   10.7833    0.0000 </r>
       <r>   12.9147    0.0000 </r>
      </set>
      <set comment="kpoint 110">
       <r>   -3.7953    1.0000 </r>
       <r>   -0.2105    1.0000 </r>
       <r>    1.8707    1.0000 </r>
       <r>    3.4579    1.0000 </r>
       <r>    9.0702    0.0000 </r>
       <r>    9.1422    0.0000 </r>
       <r>   10.0059    0.0000 </r>
       <r>   12.5262    0.0000 </r>
      </set>
      <set comment="kpoint 111">
       <r>   -3.3342    1.0000 </r>
       <r>   -0.6782    1.0000 </r>
       <r>    2.2022    1.0000 </r>
       <r>    2.7180    1.0000 </r>
       <r>    7.6812    0.0000 </r>
       <r>    8.2217    0.0000 </r>
       <r>   11.4874    0.0000 </r>
       <r>   13.9920    0.0000 </r>
      </set>
      <set comment="kpoint 112">
       <r>   -2.8463    1.0000 </r>
       <r>   -1.1889    1.0000 </r>
       <r>    1.8393    1.0000 </r>
       <r>    2.5604    1.0000 </r>
       <r>    7.9740    0.0000 </r>
       <r>    9.0004    0.0000 </r>
       <r>   11.2100    0.0000 </r>
       <r>   13.5318    0.0000 </r>
      </set>
      <set comment="kpoint 113">
       <r>   -2.5755    1.0000 </r>
       <r>   -1.4521    1.0000 </r>
       <r>    1.5310    1.0000 </r>
       <r>    2.6309    1.0000 </r>
       <r>    8.1537    0.0000 </r>
       <r>   10.1522    0.0000 </r>
       <r>   11.0125    0.0000 </r>
       <r>   12.1473    0.0000 </r>
      </set>
      <set comment="kpoint 114">
       <r>   -2.8417    1.0000 </r>
       <r>   -1.1846    1.0000 </r>
       <r>    1.4349    1.0000 </r>
       <r>    2.8495    1.0000 </r>
       <r>    8.4112    0.0000 </r>
       <r>   10.4490    0.0000 </r>
       <r>   11.0295    0.0000 </r>
       <r>   11.7379    0.0000 </r>
      </set>
      <set comment="kpoint 115">
       <r>   -2.4925    1.0000 </r>
       <r>   -1.5928    1.0000 </r>
       <r>    2.1723    1.0000 </r>
       <r>    2.3385    1.0000 </r>
       <r>    7.6831    0.0000 </r>
       <r>    7.8581    0.0000 </r>
       <r>   12.5755    0.0000 </r>
       <r>   13.7550    0.0000 </r>
      </set>
      <set comment="kpoint 116">
       <r>   -2.1953    1.0000 </r>
       <r>   -1.8411    1.0000 </r>
       <r>    1.7750    1.0000 </r>
       <r>    2.3834    1.0000 </r>
       <r>    7.9118    0.0000 </r>
       <r>    8.8917    0.0000 </r>
       <r>   12.2446    0.0000 </r>
       <r>   12.3971    0.0000 </r>
      </set>
      <set comment="kpoint 117">
       <r>   -3.1084    1.0000 </r>
       <r>   -0.8972    1.0000 </r>
       <r>    1.7279    1.0000 </r>
       <r>    2.6951    1.0000 </r>
       <r>    9.0003    0.0000 </r>
       <r>    9.3973    0.0000 </r>
       <r>    9.9896    0.0000 </r>
       <r>   13.3216    0.0000 </r>
      </set>
      <set comment="kpoint 118">
       <r>   -2.6871    1.0000 </r>
       <r>   -1.3187    1.0000 </r>
       <r>    1.5904    1.0000 </r>
       <r>    2.4790    1.0000 </r>
       <r>    9.2691    0.0000 </r>
       <r>    9.5925    0.0000 </r>
       <r>   10.5296    0.0000 </r>
       <r>   11.8924    0.0000 </r>
      </set>
      <set comment="kpoint 119">
       <r>   -2.3673    1.0000 </r>
       <r>   -1.6177    1.0000 </r>
       <r>    1.8024    1.0000 </r>
       <r>    2.1233    1.0000 </r>
       <r>    8.9921    0.0000 </r>
       <r>    9.1322    0.0000 </r>
       <r>   10.9309    0.0000 </r>
       <r>   12.0654    0.0000 </r>
      </set>
      <set comment="kpoint 120">
       <r>   -2.2576    1.0000 </r>
       <r>   -1.7053    1.0000 </r>
       <r>    1.6518    1.0000 </r>
       <r>    2.1421    1.0000 </r>
       <r>    9.2423    0.0000 </r>
       <r>   10.1301    0.0000 </r>
       <r>   10.7763    0.0000 </r>
       <r>   10.8271    0.0000 </r>
      </set>
     </set>
    </set>
   </array>
  </eigenvalues>
  <separator name="orbital magnetization" >
   <v name="MAGDIPOLOUT">      0.00000000      0.00000000      0.00000000</v>
  </separator>
  <dos>
   <i name="efermi">      5.83584237 </i>
   <total>
    <array>
     <dimension dim="1">gridpoints</dimension>
     <dimension dim="2">spin</dimension>
     <field>energy</field>
     <field>total</field>
     <field>integrated</field>
     <set>
      <set comment="spin 1">
       <r>    -7.2751     0.0000     0.0000 </r>
       <r>    -7.1961     0.0000     0.0000 </r>
       <r>    -7.1172     0.0000     0.0000 </r>
       <r>    -7.0382     0.0000     0.0000 </r>
       <r>    -6.9592     0.0000     0.0000 </r>
       <r>    -6.8803     0.0000     0.0000 </r>
       <r>    -6.8013     0.0000     0.0000 </r>
       <r>    -6.7223     0.0000     0.0000 </r>
       <r>    -6.6434     0.0000     0.0000 </r>
       <r>    -6.5644     0.0000     0.0000 </r>
       <r>    -6.4854     0.0000     0.0000 </r>
       <r>    -6.4065     0.0000     0.0000 </r>
       <r>    -6.3275     0.0000     0.0000 </r>
       <r>    -6.2485     0.0007     0.0001 </r>
       <r>    -6.1696     0.0219     0.0018 </r>
       <r>    -6.0906     0.0866     0.0086 </r>
       <r>    -6.0116     0.1325     0.0191 </r>
       <r>    -5.9327     0.1892     0.0340 </r>
       <r>    -5.8537     0.1402     0.0451 </r>
       <r>    -5.7747     0.2885     0.0679 </r>
       <r>    -5.6958     0.2504     0.0876 </r>
       <r>    -5.6168     0.1835     0.1021 </r>
       <r>    -5.5378     0.3217     0.1275 </r>
       <r>    -5.4589     0.3828     0.1578 </r>
       <r>    -5.3799     0.3162     0.1827 </r>
       <r>    -5.3009     0.2231     0.2004 </r>
       <r>    -5.2220     0.3805     0.2304 </r>
       <r>    -5.1430     0.4794     0.2683 </r>
       <r>    -5.0640     0.5078     0.3084 </r>
       <r>    -4.9851     0.1992     0.3241 </r>
       <r>    -4.9061     0.4240     0.3576 </r>
       <r>    -4.8271     0.5265     0.3991 </r>
       <r>    -4.7482     0.4446     0.4342 </r>
       <r>    -4.6692     0.6115     0.4825 </r>
       <r>    -4.5902     0.5569     0.5265 </r>
       <r>    -4.5113     0.2876     0.5492 </r>
       <r>    -4.4323     0.5368     0.5916 </r>
       <r>    -4.3533     0.6391     0.6421 </r>
       <r>    -4.2744     0.6768     0.6955 </r>
       <r>    -4.1954     0.7769     0.7569 </r>
       <r>    -4.1164     0.6325     0.8068 </r>
       <r>    -4.0375     0.4536     0.8426 </r>
       <r>    -3.9585     0.6072     0.8906 </r>
       <r>    -3.8795     1.0488     0.9734 </r>
       <r>    -3.8006     1.2015     1.0683 </r>
       <r>    -3.7216     0.9576     1.1439 </r>
       <r>    -3.6426     0.4312     1.1779 </r>
       <r>    -3.5637     0.6970     1.2330 </r>
       <r>    -3.4847     0.9276     1.3062 </r>
       <r>    -3.4057     0.8634     1.3744 </r>
       <r>    -3.3268     0.7584     1.4343 </r>
       <r>    -3.2478     0.9284     1.5076 </r>
       <r>    -3.1688     0.2866     1.5302 </r>
       <r>    -3.0899     0.5571     1.5742 </r>
       <r>    -3.0109     0.5916     1.6210 </r>
       <r>    -2.9319     1.0681     1.7053 </r>
       <r>    -2.8530     0.4808     1.7433 </r>
       <r>    -2.7740     0.3285     1.7692 </r>
       <r>    -2.6950     0.2881     1.7920 </r>
       <r>    -2.6161     0.4097     1.8243 </r>
       <r>    -2.5371     0.9186     1.8968 </r>
       <r>    -2.4581     0.3749     1.9265 </r>
       <r>    -2.3792     0.1230     1.9362 </r>
       <r>    -2.3002     0.1893     1.9511 </r>
       <r>    -2.2212     0.1989     1.9668 </r>
       <r>    -2.1423     0.3363     1.9934 </r>
       <r>    -2.0633     0.1526     2.0054 </r>
       <r>    -1.9843     0.1047     2.0137 </r>
       <r>    -1.9054     0.1000     2.0216 </r>
       <r>    -1.8264     0.1180     2.0309 </r>
       <r>    -1.7474     0.1328     2.0414 </r>
       <r>    -1.6685     0.1957     2.0569 </r>
       <r>    -1.5895     0.5103     2.0972 </r>
       <r>    -1.5105     0.6040     2.1449 </r>
       <r>    -1.4316     0.4551     2.1808 </r>
       <r>    -1.3526     0.3029     2.2047 </r>
       <r>    -1.2736     0.3190     2.2299 </r>
       <r>    -1.1947     0.7023     2.2854 </r>
       <r>    -1.1157     1.8864     2.4343 </r>
       <r>    -1.0367     1.6765     2.5667 </r>
       <r>    -0.9578     1.1297     2.6559 </r>
       <r>    -0.8788     0.8047     2.7195 </r>
       <r>    -0.7998     0.6923     2.7741 </r>
       <r>    -0.7209     1.0724     2.8588 </r>
       <r>    -0.6419     0.9406     2.9331 </r>
       <r>    -0.5629     0.3902     2.9639 </r>
       <r>    -0.4840     0.6298     3.0136 </r>
       <r>    -0.4050     0.8544     3.0811 </r>
       <r>    -0.3260     0.2944     3.1044 </r>
       <r>    -0.2471     0.3245     3.1300 </r>
       <r>    -0.1681     0.9034     3.2013 </r>
       <r>    -0.0891     0.4462     3.2366 </r>
       <r>    -0.0102     0.3032     3.2605 </r>
       <r>     0.0688     0.5578     3.3045 </r>
       <r>     0.1478     0.4102     3.3369 </r>
       <r>     0.2267     0.1563     3.3493 </r>
       <r>     0.3057     0.2963     3.3727 </r>
       <r>     0.3847     0.7112     3.4288 </r>
       <r>     0.4636     0.4483     3.4642 </r>
       <r>     0.5426     0.2340     3.4827 </r>
       <r>     0.6216     0.0681     3.4881 </r>
       <r>     0.7005     0.2801     3.5102 </r>
       <r>     0.7795     0.5482     3.5535 </r>
       <r>     0.8585     0.2599     3.5740 </r>
       <r>     0.9374     0.0169     3.5754 </r>
       <r>     1.0164     0.1926     3.5906 </r>
       <r>     1.0954     0.6097     3.6387 </r>
       <r>     1.1743     0.3092     3.6631 </r>
       <r>     1.2533     0.0907     3.6703 </r>
       <r>     1.3323     0.2052     3.6865 </r>
       <r>     1.4112     0.4874     3.7250 </r>
       <r>     1.4902     0.9654     3.8012 </r>
       <r>     1.5692     0.7218     3.8582 </r>
       <r>     1.6481     1.3849     3.9676 </r>
       <r>     1.7271     1.2813     4.0688 </r>
       <r>     1.8061     1.1939     4.1630 </r>
       <r>     1.8850     1.4021     4.2738 </r>
       <r>     1.9640     0.8352     4.3397 </r>
       <r>     2.0430     0.6717     4.3927 </r>
       <r>     2.1219     0.7909     4.4552 </r>
       <r>     2.2009     1.6922     4.5888 </r>
       <r>     2.2799     1.3396     4.6946 </r>
       <r>     2.3588     0.7156     4.7511 </r>
       <r>     2.4378     0.8305     4.8167 </r>
       <r>     2.5168     0.9061     4.8883 </r>
       <r>     2.5957     1.3774     4.9970 </r>
       <r>     2.6747     1.7561     5.1357 </r>
       <r>     2.7537     1.3885     5.2454 </r>
       <r>     2.8326     1.0735     5.3301 </r>
       <r>     2.9116     1.5666     5.4538 </r>
       <r>     2.9906     1.5247     5.5742 </r>
       <r>     3.0695     1.4023     5.6850 </r>
       <r>     3.1485     1.8204     5.8287 </r>
       <r>     3.2275     1.1624     5.9205 </r>
       <r>     3.3064     0.8919     5.9909 </r>
       <r>     3.3854     1.4983     6.1093 </r>
       <r>     3.4644     2.4073     6.2993 </r>
       <r>     3.5433     1.3769     6.4081 </r>
       <r>     3.6223     1.2984     6.5106 </r>
       <r>     3.7013     0.9467     6.5854 </r>
       <r>     3.7802     1.0286     6.6666 </r>
       <r>     3.8592     1.3832     6.7758 </r>
       <r>     3.9382     1.2554     6.8749 </r>
       <r>     4.0171     1.4284     6.9877 </r>
       <r>     4.0961     1.3675     7.0957 </r>
       <r>     4.1751     0.8810     7.1653 </r>
       <r>     4.2540     1.3773     7.2740 </r>
       <r>     4.3330     1.4145     7.3857 </r>
       <r>     4.4120     0.6018     7.4333 </r>
       <r>     4.4909     1.3637     7.5410 </r>
       <r>     4.5699     1.1059     7.6283 </r>
       <r>     4.6489     0.4435     7.6633 </r>
       <r>     4.7278     0.5860     7.7096 </r>
       <r>     4.8068     0.7460     7.7685 </r>
       <r>     4.8858     0.3477     7.7960 </r>
       <r>     4.9647     0.2981     7.8195 </r>
       <r>     5.0437     0.6167     7.8682 </r>
       <r>     5.1227     0.4582     7.9044 </r>
       <r>     5.2016     0.3406     7.9313 </r>
       <r>     5.2806     0.2288     7.9494 </r>
       <r>     5.3596     0.2345     7.9679 </r>
       <r>     5.4385     0.1587     7.9804 </r>
       <r>     5.5175     0.0863     7.9872 </r>
       <r>     5.5965     0.1367     7.9980 </r>
       <r>     5.6754     0.0241     7.9999 </r>
       <r>     5.7544     0.0011     8.0000 </r>
       <r>     5.8334     0.0000     8.0000 </r>
       <r>     5.9123     0.0000     8.0000 </r>
       <r>     5.9913     0.0000     8.0000 </r>
       <r>     6.0703     0.0000     8.0000 </r>
       <r>     6.1492     0.0003     8.0000 </r>
       <r>     6.2282     0.0227     8.0018 </r>
       <r>     6.3072     0.0608     8.0066 </r>
       <r>     6.3861     0.1419     8.0178 </r>
       <r>     6.4651     0.2459     8.0372 </r>
       <r>     6.5441     0.2686     8.0585 </r>
       <r>     6.6230     0.1343     8.0691 </r>
       <r>     6.7020     0.5610     8.1134 </r>
       <r>     6.7810     0.4585     8.1496 </r>
       <r>     6.8599     0.3283     8.1755 </r>
       <r>     6.9389     0.7645     8.2359 </r>
       <r>     7.0179     0.5681     8.2807 </r>
       <r>     7.0968     0.8600     8.3486 </r>
       <r>     7.1758     0.6354     8.3988 </r>
       <r>     7.2548     0.4949     8.4379 </r>
       <r>     7.3337     0.7536     8.4974 </r>
       <r>     7.4127     0.8032     8.5608 </r>
       <r>     7.4917     0.8994     8.6318 </r>
       <r>     7.5706     1.4247     8.7443 </r>
       <r>     7.6496     1.1625     8.8361 </r>
       <r>     7.7286     1.1407     8.9262 </r>
       <r>     7.8075     1.5013     9.0448 </r>
       <r>     7.8865     1.3550     9.1518 </r>
       <r>     7.9655     2.4027     9.3415 </r>
       <r>     8.0444     1.6334     9.4705 </r>
       <r>     8.1234     1.1978     9.5651 </r>
       <r>     8.2024     1.7536     9.7036 </r>
       <r>     8.2813     1.6281     9.8321 </r>
       <r>     8.3603     0.6779     9.8857 </r>
       <r>     8.4393     0.7420     9.9443 </r>
       <r>     8.5182     1.2730    10.0448 </r>
       <r>     8.5972     0.9358    10.1187 </r>
       <r>     8.6762     0.9466    10.1934 </r>
       <r>     8.7551     0.7470    10.2524 </r>
       <r>     8.8341     1.6554    10.3831 </r>
       <r>     8.9131     2.7092    10.5971 </r>
       <r>     8.9920     2.1978    10.7706 </r>
       <r>     9.0710     2.0443    10.9321 </r>
       <r>     9.1500     2.0339    11.0927 </r>
       <r>     9.2289     1.6056    11.2194 </r>
       <r>     9.3079     1.5821    11.3444 </r>
       <r>     9.3869     1.6353    11.4735 </r>
       <r>     9.4658     2.0026    11.6317 </r>
       <r>     9.5448     1.4373    11.7452 </r>
       <r>     9.6238     1.0796    11.8304 </r>
       <r>     9.7027     1.2231    11.9270 </r>
       <r>     9.7817     1.0762    12.0120 </r>
       <r>     9.8607     1.0411    12.0942 </r>
       <r>     9.9396     1.3872    12.2037 </r>
       <r>    10.0186     0.9356    12.2776 </r>
       <r>    10.0976     1.2726    12.3781 </r>
       <r>    10.1765     1.7605    12.5171 </r>
       <r>    10.2555     1.7619    12.6563 </r>
       <r>    10.3345     0.7133    12.7126 </r>
       <r>    10.4134     0.6226    12.7617 </r>
       <r>    10.4924     1.2983    12.8643 </r>
       <r>    10.5714     2.2555    13.0424 </r>
       <r>    10.6503     1.2091    13.1378 </r>
       <r>    10.7293     1.5980    13.2640 </r>
       <r>    10.8083     1.8273    13.4083 </r>
       <r>    10.8872     0.9631    13.4844 </r>
       <r>    10.9662     1.2212    13.5808 </r>
       <r>    11.0452     1.0070    13.6603 </r>
       <r>    11.1241     0.5514    13.7039 </r>
       <r>    11.2031     0.7738    13.7650 </r>
       <r>    11.2821     0.7581    13.8249 </r>
       <r>    11.3610     0.8277    13.8902 </r>
       <r>    11.4400     0.7726    13.9512 </r>
       <r>    11.5190     0.7832    14.0131 </r>
       <r>    11.5979     1.4555    14.1280 </r>
       <r>    11.6769     1.4075    14.2391 </r>
       <r>    11.7559     1.3990    14.3496 </r>
       <r>    11.8348     1.7690    14.4893 </r>
       <r>    11.9138     1.3819    14.5984 </r>
       <r>    11.9928     1.1389    14.6884 </r>
       <r>    12.0717     0.9359    14.7623 </r>
       <r>    12.1507     0.6931    14.8170 </r>
       <r>    12.2297     0.5178    14.8579 </r>
       <r>    12.3086     0.4506    14.8935 </r>
       <r>    12.3876     1.0534    14.9767 </r>
       <r>    12.4666     0.3732    15.0061 </r>
       <r>    12.5455     0.5075    15.0462 </r>
       <r>    12.6245     0.7164    15.1028 </r>
       <r>    12.7035     0.6094    15.1509 </r>
       <r>    12.7824     0.5853    15.1971 </r>
       <r>    12.8614     0.6319    15.2470 </r>
       <r>    12.9404     0.9017    15.3182 </r>
       <r>    13.0193     0.5572    15.3622 </r>
       <r>    13.0983     1.4990    15.4806 </r>
       <r>    13.1773     0.9446    15.5552 </r>
       <r>    13.2562     0.2876    15.5779 </r>
       <r>    13.3352     0.4442    15.6130 </r>
       <r>    13.4142     0.3587    15.6413 </r>
       <r>    13.4931     0.5314    15.6833 </r>
       <r>    13.5721     0.5370    15.7257 </r>
       <r>    13.6511     0.1310    15.7360 </r>
       <r>    13.7300     0.1771    15.7500 </r>
       <r>    13.8090     0.4653    15.7867 </r>
       <r>    13.8880     0.1215    15.7963 </r>
       <r>    13.9669     0.1975    15.8119 </r>
       <r>    14.0459     0.3468    15.8393 </r>
       <r>    14.1249     0.2350    15.8579 </r>
       <r>    14.2038     0.2681    15.8790 </r>
       <r>    14.2828     0.3252    15.9047 </r>
       <r>    14.3618     0.6538    15.9564 </r>
       <r>    14.4407     0.1020    15.9644 </r>
       <r>    14.5197     0.0004    15.9644 </r>
       <r>    14.5987     0.0000    15.9644 </r>
       <r>    14.6776     0.0000    15.9644 </r>
       <r>    14.7566     0.0000    15.9644 </r>
       <r>    14.8356     0.0000    15.9644 </r>
       <r>    14.9145     0.0000    15.9644 </r>
       <r>    14.9935     0.0012    15.9645 </r>
       <r>    15.0725     0.0722    15.9702 </r>
       <r>    15.1514     0.1163    15.9794 </r>
       <r>    15.2304     0.1253    15.9893 </r>
       <r>    15.3094     0.0636    15.9943 </r>
       <r>    15.3883     0.0648    15.9994 </r>
       <r>    15.4673     0.0070    16.0000 </r>
       <r>    15.5463     0.0000    16.0000 </r>
       <r>    15.6252     0.0000    16.0000 </r>
       <r>    15.7042     0.0000    16.0000 </r>
       <r>    15.7832     0.0000    16.0000 </r>
       <r>    15.8621     0.0000    16.0000 </r>
       <r>    15.9411     0.0000    16.0000 </r>
       <r>    16.0201     0.0000    16.0000 </r>
       <r>    16.0990     0.0000    16.0000 </r>
       <r>    16.1780     0.0000    16.0000 </r>
       <r>    16.2570     0.0000    16.0000 </r>
       <r>    16.3359     0.0000    16.0000 </r>
       <r>    16.4149     0.0000    16.0000 </r>
      </set>
     </set>
    </array>
   </total>
  </dos>
 </calculation>
 <structure name="finalpos" >
  <crystal>
   <varray name="basis" >
    <v>       3.34872358       0.00000000       1.93338619 </v>
    <v>       1.11624119       3.15720812       1.93338619 </v>
    <v>       0.00000000       0.00000000       3.86677237 </v>
   </varray>
   <i name="volume">     40.88190434 </i>
   <varray name="rec_basis" >
    <v>       0.29862124      -0.10557851      -0.00000000 </v>
    <v>       0.00000000       0.31673553      -0.00000000 </v>
    <v>      -0.14931062      -0.10557851       0.25861362 </v>
   </varray>
  </crystal>
  <varray name="positions" >
   <v>       0.87500000       0.87500000       0.87500000 </v>
   <v>       0.12500000       0.12500000       0.12500000 </v>
  </varray>
 </structure>
</modeling>
