unknown system                          
           1
     3.333573    0.000000    1.924639
     1.111191    3.142924    1.924639
     0.000000    0.000000    3.849278
   Si
     2
Direct configuration=     1
   0.87500000  0.87500000  0.87500000
   0.12500000  0.12500000  0.12500000
unknown system                          
           1
     3.359044    0.000000    1.939345
     1.119681    3.166939    1.939345
     0.000000    0.000000    3.878690
   Si
     2
Direct configuration=     2
   0.87500000  0.87500000  0.87500000
   0.12500000  0.12500000  0.12500000
unknown system                          
           1
     3.348724    0.000000    1.933386
     1.116241    3.157208    1.933386
     0.000000    0.000000    3.866772
   Si
     2
Direct configuration=     3
   0.87500000  0.87500000  0.87500000
   0.12500000  0.12500000  0.12500000
