   1   1   0   0
  0.1304774E+02  0.2568734E-09  0.2568734E-09  0.2568734E-09  0.5000000E-15
  1.000000000000000E-004
  CAR 
 unknown system                          
     39.38821588     -5.89893571  301     11.46306827      1.00000000
     -5.899  0.0000E+00  0.0000E+00
     -5.748  0.0000E+00  0.0000E+00
     -5.597  0.0000E+00  0.0000E+00
     -5.446  0.0000E+00  0.0000E+00
     -5.295  0.0000E+00  0.0000E+00
     -5.144  0.0000E+00  0.0000E+00
     -4.993  0.0000E+00  0.0000E+00
     -4.842  0.0000E+00  0.0000E+00
     -4.691  0.0000E+00  0.0000E+00
     -4.540  0.0000E+00  0.0000E+00
     -4.389  0.0000E+00  0.0000E+00
     -4.238  0.0000E+00  0.0000E+00
     -4.087  0.1400E-15  0.2113E-16
     -3.936  0.3278E-06  0.4948E-07
     -3.786  0.9321E-04  0.1412E-04
     -3.635  0.3957E-04  0.2009E-04
     -3.484  0.1150E-02  0.1937E-03
     -3.333  0.9292E-04  0.2077E-03
     -3.182  0.5148E-03  0.2854E-03
     -3.031  0.9466E-03  0.4283E-03
     -2.880  0.1443E-02  0.6461E-03
     -2.729  0.8568E-03  0.7755E-03
     -2.578  0.3429E-03  0.8272E-03
     -2.427  0.2199E-02  0.1159E-02
     -2.276  0.2036E-03  0.1190E-02
     -2.125  0.7687E-03  0.1306E-02
     -1.974  0.6387E-03  0.1402E-02
     -1.823  0.4144E-02  0.2028E-02
     -1.672  0.2458E-03  0.2065E-02
     -1.521  0.3559E-03  0.2119E-02
     -1.370  0.2659E-02  0.2520E-02
     -1.219  0.9316E-03  0.2661E-02
     -1.068  0.2237E-02  0.2998E-02
     -0.917  0.2284E-03  0.3033E-02
     -0.766  0.2288E-02  0.3378E-02
     -0.615  0.4626E-03  0.3448E-02
     -0.464  0.1942E-02  0.3741E-02
     -0.314  0.3701E-02  0.4300E-02
     -0.163  0.3467E-02  0.4823E-02
     -0.012  0.5839E-07  0.4823E-02
      0.139  0.4646E-04  0.4830E-02
      0.290  0.4604E-02  0.5525E-02
      0.441  0.2275E-03  0.5560E-02
      0.592  0.1092E-02  0.5725E-02
      0.743  0.1627E-02  0.5970E-02
      0.894  0.3154E-02  0.6446E-02
      1.045  0.2135E-02  0.6769E-02
      1.196  0.8759E-03  0.6901E-02
      1.347  0.6719E-02  0.7915E-02
      1.498  0.5315E-03  0.7995E-02
      1.649  0.2269E-02  0.8338E-02
      1.800  0.1162E-02  0.8513E-02
      1.951  0.3627E-02  0.9061E-02
      2.102  0.1506E-02  0.9288E-02
      2.253  0.8922E-03  0.9423E-02
      2.404  0.4355E-02  0.1008E-01
      2.555  0.4358E-03  0.1015E-01
      2.706  0.7669E-03  0.1026E-01
      2.857  0.1715E-02  0.1052E-01
      3.008  0.6651E-02  0.1152E-01
      3.158  0.1419E-02  0.1174E-01
      3.309  0.9876E-03  0.1189E-01
      3.460  0.8657E-02  0.1320E-01
      3.611  0.1020E-02  0.1335E-01
      3.762  0.4599E-02  0.1404E-01
      3.913  0.6015E-03  0.1413E-01
      4.064  0.1830E-02  0.1441E-01
      4.215  0.4714E-06  0.1441E-01
      4.366  0.4730E-04  0.1442E-01
      4.517  0.8530E-02  0.1571E-01
      4.668  0.1022E-02  0.1586E-01
      4.819  0.5529E-03  0.1594E-01
      4.970  0.3181E-02  0.1642E-01
      5.121  0.6368E-02  0.1738E-01
      5.272  0.3526E-02  0.1792E-01
      5.423  0.1426E-02  0.1813E-01
      5.574  0.3748E-02  0.1870E-01
      5.725  0.1256E-02  0.1889E-01
      5.876  0.3193E-02  0.1937E-01
      6.027  0.5515E-02  0.2020E-01
      6.178  0.6411E-02  0.2117E-01
      6.329  0.1910E-02  0.2146E-01
      6.480  0.5595E-03  0.2154E-01
      6.631  0.4618E-02  0.2224E-01
      6.781  0.6324E-03  0.2233E-01
      6.932  0.1883E-02  0.2262E-01
      7.083  0.3677E-02  0.2317E-01
      7.234  0.9939E-03  0.2332E-01
      7.385  0.4620E-02  0.2402E-01
      7.536  0.3337E-02  0.2453E-01
      7.687  0.8056E-02  0.2574E-01
      7.838  0.1437E-02  0.2596E-01
      7.989  0.1863E-02  0.2624E-01
      8.140  0.8918E-02  0.2759E-01
      8.291  0.2899E-02  0.2802E-01
      8.442  0.3291E-04  0.2803E-01
      8.593  0.3125E-02  0.2850E-01
      8.744  0.6379E-02  0.2946E-01
      8.895  0.1569E-02  0.2970E-01
      9.046  0.1815E-02  0.2997E-01
      9.197  0.8378E-02  0.3124E-01
      9.348  0.2325E-02  0.3159E-01
      9.499  0.3512E-02  0.3212E-01
      9.650  0.1942E-02  0.3241E-01
      9.801  0.3496E-02  0.3294E-01
      9.952  0.4716E-02  0.3365E-01
     10.103  0.2140E-02  0.3398E-01
     10.253  0.6180E-02  0.3491E-01
     10.404  0.1820E-02  0.3518E-01
     10.555  0.4535E-02  0.3587E-01
     10.706  0.7394E-02  0.3698E-01
     10.857  0.2954E-02  0.3743E-01
     11.008  0.8295E-04  0.3744E-01
     11.159  0.4750E-02  0.3816E-01
     11.310  0.7792E-02  0.3934E-01
     11.461  0.4308E-02  0.3999E-01
     11.612  0.6542E-02  0.4097E-01
     11.763  0.5703E-02  0.4183E-01
     11.914  0.3074E-02  0.4230E-01
     12.065  0.1011E-02  0.4245E-01
     12.216  0.8037E-02  0.4367E-01
     12.367  0.1702E-02  0.4392E-01
     12.518  0.3323E-02  0.4442E-01
     12.669  0.6821E-02  0.4545E-01
     12.820  0.1803E-02  0.4573E-01
     12.971  0.1467E-02  0.4595E-01
     13.122  0.2637E-02  0.4634E-01
     13.273  0.2977E-02  0.4679E-01
     13.424  0.2387E-02  0.4715E-01
     13.575  0.6188E-02  0.4809E-01
     13.725  0.6988E-02  0.4914E-01
     13.876  0.3567E-02  0.4968E-01
     14.027  0.5723E-02  0.5055E-01
     14.178  0.1916E-02  0.5084E-01
     14.329  0.1019E-01  0.5237E-01
     14.480  0.1859E-02  0.5265E-01
     14.631  0.2821E-02  0.5308E-01
     14.782  0.3119E-02  0.5355E-01
     14.933  0.2100E-02  0.5387E-01
     15.084  0.3158E-02  0.5435E-01
     15.235  0.6550E-02  0.5533E-01
     15.386  0.3618E-02  0.5588E-01
     15.537  0.9181E-02  0.5727E-01
     15.688  0.2008E-02  0.5757E-01
     15.839  0.7392E-02  0.5869E-01
     15.990  0.4827E-02  0.5941E-01
     16.141  0.3127E-02  0.5989E-01
     16.292  0.2339E-02  0.6024E-01
     16.443  0.4579E-02  0.6093E-01
     16.594  0.4981E-02  0.6168E-01
     16.745  0.2325E-02  0.6203E-01
     16.896  0.6811E-02  0.6306E-01
     17.047  0.1150E-02  0.6323E-01
     17.198  0.4654E-02  0.6394E-01
     17.348  0.5786E-02  0.6481E-01
     17.499  0.4220E-02  0.6545E-01
     17.650  0.9450E-02  0.6687E-01
     17.801  0.6164E-02  0.6781E-01
     17.952  0.1380E-02  0.6801E-01
     18.103  0.8381E-02  0.6928E-01
     18.254  0.3491E-02  0.6981E-01
     18.405  0.5399E-02  0.7062E-01
     18.556  0.2921E-02  0.7106E-01
     18.707  0.4363E-02  0.7172E-01
     18.858  0.5040E-02  0.7248E-01
     19.009  0.5981E-02  0.7338E-01
     19.160  0.8815E-02  0.7471E-01
     19.311  0.7602E-02  0.7586E-01
     19.462  0.3594E-02  0.7640E-01
     19.613  0.6956E-02  0.7745E-01
     19.764  0.2373E-02  0.7781E-01
     19.915  0.1570E-02  0.7805E-01
     20.066  0.2072E-02  0.7836E-01
     20.217  0.1001E-01  0.7987E-01
     20.368  0.1049E-01  0.8146E-01
     20.519  0.7537E-02  0.8260E-01
     20.670  0.3299E-02  0.8309E-01
     20.820  0.1360E-02  0.8330E-01
     20.971  0.2094E-02  0.8362E-01
     21.122  0.1265E-02  0.8381E-01
     21.273  0.1154E-02  0.8398E-01
     21.424  0.3090E-02  0.8445E-01
     21.575  0.3897E-02  0.8504E-01
     21.726  0.5409E-02  0.8585E-01
     21.877  0.5366E-02  0.8666E-01
     22.028  0.9618E-02  0.8811E-01
     22.179  0.9876E-02  0.8960E-01
     22.330  0.1559E-01  0.9196E-01
     22.481  0.5692E-03  0.9204E-01
     22.632  0.2969E-02  0.9249E-01
     22.783  0.4320E-02  0.9314E-01
     22.934  0.3927E-02  0.9374E-01
     23.085  0.3436E-02  0.9426E-01
     23.236  0.4205E-02  0.9489E-01
     23.387  0.3003E-02  0.9534E-01
     23.538  0.5217E-02  0.9613E-01
     23.689  0.7354E-02  0.9724E-01
     23.840  0.8569E-02  0.9854E-01
     23.991  0.6283E-02  0.9948E-01
     24.142  0.4725E-02  0.1002E+00
     24.292  0.5691E-02  0.1011E+00
     24.443  0.7207E-02  0.1021E+00
     24.594  0.7210E-02  0.1032E+00
     24.745  0.7698E-02  0.1044E+00
     24.896  0.2774E-02  0.1048E+00
     25.047  0.1021E-01  0.1064E+00
     25.198  0.4982E-02  0.1071E+00
     25.349  0.1847E-02  0.1074E+00
     25.500  0.5631E-02  0.1082E+00
     25.651  0.5849E-02  0.1091E+00
     25.802  0.9604E-02  0.1106E+00
     25.953  0.5614E-02  0.1114E+00
     26.104  0.7314E-02  0.1125E+00
     26.255  0.7528E-02  0.1137E+00
     26.406  0.7966E-02  0.1149E+00
     26.557  0.2393E-02  0.1152E+00
     26.708  0.8258E-03  0.1153E+00
     26.859  0.5574E-02  0.1162E+00
     27.010  0.4967E-02  0.1169E+00
     27.161  0.2912E-02  0.1174E+00
     27.312  0.1050E-01  0.1190E+00
     27.463  0.1017E-02  0.1191E+00
     27.614  0.5921E-02  0.1200E+00
     27.765  0.1439E-01  0.1222E+00
     27.915  0.3005E-02  0.1226E+00
     28.066  0.4571E-02  0.1233E+00
     28.217  0.4548E-03  0.1234E+00
     28.368  0.3425E-02  0.1239E+00
     28.519  0.5085E-02  0.1247E+00
     28.670  0.1243E-01  0.1266E+00
     28.821  0.7229E-02  0.1276E+00
     28.972  0.1334E-02  0.1278E+00
     29.123  0.6281E-02  0.1288E+00
     29.274  0.9287E-02  0.1302E+00
     29.425  0.4127E-02  0.1308E+00
     29.576  0.5049E-02  0.1316E+00
     29.727  0.1062E-01  0.1332E+00
     29.878  0.7861E-02  0.1344E+00
     30.029  0.7196E-02  0.1355E+00
     30.180  0.4994E-02  0.1362E+00
     30.331  0.6888E-02  0.1373E+00
     30.482  0.5165E-02  0.1380E+00
     30.633  0.5370E-02  0.1388E+00
     30.784  0.3395E-02  0.1394E+00
     30.935  0.4487E-04  0.1394E+00
     31.086  0.3598E-02  0.1399E+00
     31.237  0.4561E-02  0.1406E+00
     31.387  0.5819E-02  0.1415E+00
     31.538  0.6947E-02  0.1425E+00
     31.689  0.3467E-02  0.1430E+00
     31.840  0.5064E-02  0.1438E+00
     31.991  0.1686E-01  0.1464E+00
     32.142  0.1155E-01  0.1481E+00
     32.293  0.4632E-02  0.1488E+00
     32.444  0.4140E-02  0.1494E+00
     32.595  0.2855E-02  0.1499E+00
     32.746  0.9936E-02  0.1514E+00
     32.897  0.7340E-02  0.1525E+00
     33.048  0.4508E-02  0.1531E+00
     33.199  0.2719E-02  0.1536E+00
     33.350  0.3205E-02  0.1540E+00
     33.501  0.5911E-02  0.1549E+00
     33.652  0.8013E-02  0.1561E+00
     33.803  0.3842E-02  0.1567E+00
     33.954  0.2096E-02  0.1570E+00
     34.105  0.2170E-02  0.1574E+00
     34.256  0.2023E-02  0.1577E+00
     34.407  0.3475E-02  0.1582E+00
     34.558  0.1235E-02  0.1584E+00
     34.709  0.2554E-07  0.1584E+00
     34.860  0.1793E-04  0.1584E+00
     35.010  0.4609E-02  0.1591E+00
     35.161  0.2531E-02  0.1595E+00
     35.312  0.1621E-04  0.1595E+00
     35.463  0.7656E-03  0.1596E+00
     35.614  0.2411E-04  0.1596E+00
     35.765  0.1211E-11  0.1596E+00
     35.916  0.3482E-04  0.1596E+00
     36.067  0.7573E-03  0.1597E+00
     36.218  0.4159E-05  0.1597E+00
     36.369  0.3372E-14  0.1597E+00
     36.520  0.3315E-19  0.1597E+00
     36.671  0.1267E-07  0.1597E+00
     36.822  0.3403E-03  0.1598E+00
     36.973  0.2569E-03  0.1598E+00
     37.124  0.3039E-03  0.1598E+00
     37.275  0.3413E-03  0.1599E+00
     37.426  0.7457E-03  0.1600E+00
     37.577  0.2622E-05  0.1600E+00
     37.728  0.1120E-14  0.1600E+00
     37.879  0.0000E+00  0.1600E+00
     38.030  0.0000E+00  0.1600E+00
     38.181  0.0000E+00  0.1600E+00
     38.332  0.0000E+00  0.1600E+00
     38.482  0.0000E+00  0.1600E+00
     38.633  0.0000E+00  0.1600E+00
     38.784  0.0000E+00  0.1600E+00
     38.935  0.0000E+00  0.1600E+00
     39.086  0.0000E+00  0.1600E+00
     39.237  0.0000E+00  0.1600E+00
     39.388  0.0000E+00  0.1600E+00
