    1    1  100    1
  0.1304774E+02  0.2568734E-09  0.2568734E-09  0.2568734E-09  0.5000000E-15
  1.000000000000000E-004
  CAR 
 unknown system                          
      4     56      8
 
  0.0000000E+00  0.0000000E+00  0.0000000E+00  0.7513148E-03
    1       -3.840429   1.000000
    2       24.422321   0.000000
    3       24.422322   0.000000
    4       24.422322   0.000000
    5       24.542980   0.000000
    6       24.542981   0.000000
    7       24.542981   0.000000
    8       28.486475   0.000000
 
  0.9090909E-01  0.0000000E+00  0.0000000E+00  0.9015778E-02
    1       -3.567070   1.000000
    2       21.190793   0.000000
    3       22.214869   0.000000
    4       23.690236   0.000000
    5       23.929942   0.000000
    6       25.967781   0.000000
    7       27.208227   0.000000
    8       27.257098   0.000000
 
  0.1818182E+00  0.0000000E+00  0.0000000E+00  0.9015778E-02
    1       -2.749161   1.000000
    2       17.039523   0.000000
    3       20.405130   0.000000
    4       22.125068   0.000000
    5       22.812081   0.000000
    6       24.773571   0.000000
    7       28.292273   0.000000
    8       28.639196   0.000000
 
  0.2727273E+00  0.0000000E+00  0.0000000E+00  0.9015778E-02
    1       -1.393241   1.000000
    2       12.923232   0.000000
    3       19.054671   0.000000
    4       20.720209   0.000000
    5       21.682368   0.000000
    6       23.537394   0.000000
    7       29.584580   0.000000
    8       29.895791   0.000000
 
  0.3636364E+00  0.0000000E+00  0.0000000E+00  0.9015778E-02
    1        0.490015   1.000000
    2        9.137018   1.000000
    3       18.157523   0.000000
    4       19.726183   0.000000
    5       20.848263   0.000000
    6       22.656310   0.000000
    7       30.997628   0.000000
    8       31.760994   0.000000
 
  0.4545455E+00  0.0000000E+00  0.0000000E+00  0.9015778E-02
    1        2.886187   1.000000
    2        5.777071   1.000000
    3       17.710214   0.000000
    4       19.219573   0.000000
    5       20.415087   0.000000
    6       22.197458   0.000000
    7       32.580783   0.000000
    8       33.546250   0.000000
 
  0.9090909E-01  0.9090909E-01  0.0000000E+00  0.1803156E-01
    1       -3.021430   1.000000
    2       19.130750   0.000000
    3       19.400459   0.000000
    4       21.710745   0.000000
    5       24.598467   0.000000
    6       25.837551   0.000000
    7       27.173918   0.000000
    8       28.385053   0.000000
 
  0.1818182E+00  0.9090909E-01  0.2081668E-16  0.3606311E-01
    1       -1.934525   1.000000
    2       15.125233   0.000000
    3       17.638784   0.000000
    4       20.226167   0.000000
    5       23.802456   0.000000
    6       25.383678   0.000000
    7       27.716958   0.000000
    8       30.327258   0.000000
 
  0.2727273E+00  0.9090909E-01  0.0000000E+00  0.3606311E-01
    1       -0.314936   1.000000
    2       11.168726   1.000000
    3       16.448715   0.000000
    4       19.091424   0.000000
    5       22.769034   0.000000
    6       24.924445   0.000000
    7       28.653003   0.000000
    8       32.332461   0.000000
 
  0.3636364E+00  0.9090909E-01 -0.2775558E-16  0.3606311E-01
    1        1.824760   1.000000
    2        7.594294   1.000000
    3       15.727806   0.000000
    4       18.391889   0.000000
    5       22.090659   0.000000
    6       24.466431   0.000000
    7       30.294215   0.000000
    8       33.527109   0.000000
 
  0.4545455E+00  0.9090909E-01 -0.2775558E-16  0.1803156E-01
    1        4.443353   1.000000
    2        4.493269   1.000000
    3       15.486345   0.000000
    4       18.156524   0.000000
    5       21.858260   0.000000
    6       24.289899   0.000000
    7       31.978117   0.000000
    8       32.645498   0.000000
 
  0.1818182E+00  0.1818182E+00  0.1387779E-16  0.1803156E-01
    1       -0.583961   1.000000
    2       13.632762   0.000000
    3       13.669629   0.000000
    4       18.934472   0.000000
    5       24.625447   0.000000
    6       25.157509   0.000000
    7       29.662743   0.000000
    8       30.592101   0.000000
 
  0.2727273E+00  0.1818182E+00  0.1387779E-16  0.3606311E-01
    1        1.292013   1.000000
    2        9.899576   1.000000
    3       12.657652   0.000000
    4       18.028567   0.000000
    5       24.080984   0.000000
    6       26.224569   0.000000
    7       29.726319   0.000000
    8       32.640836   0.000000
 
  0.3636364E+00  0.1818182E+00  0.1387779E-16  0.3606311E-01
    1        3.678613   1.000000
    2        6.557976   1.000000
    3       12.157103   0.000000
    4       17.564368   0.000000
    5       23.654458   0.000000
    6       27.258258   0.000000
    7       29.993102   0.000000
    8       32.145046   0.000000
 
  0.2727273E+00  0.2727273E+00  0.0000000E+00  0.1803156E-01
    1        3.414892   1.000000
    2        9.066252   1.000000
    3        9.203332   1.000000
    4       17.354559   0.000000
    5       25.662614   0.000000
    6       26.111168   0.000000
    7       30.386698   0.000000
    8       33.068842   0.000000
 
  0.3636364E+00  0.2727273E+00 -0.5551115E-16  0.1803156E-01
    1        5.986862   1.000000
    2        6.086447   1.000000
    3        8.881480   1.000000
    4       17.124887   0.000000
    5       25.673543   0.000000
    6       27.725799   0.000000
    7       28.545882   0.000000
    8       33.951666   0.000000
 
  0.9090909E-01  0.9090909E-01  0.9090909E-01  0.6010518E-02
    1       -2.205729   1.000000
    2       17.290650   0.000000
    3       17.656809   0.000000
    4       17.656809   0.000000
    5       26.863117   0.000000
    6       26.863117   0.000000
    7       28.346728   0.000000
    8       28.346728   0.000000
 
  0.1818182E+00  0.9090909E-01  0.9090909E-01  0.1803156E-01
    1       -0.853343   1.000000
    2       13.427190   0.000000
    3       16.016148   0.000000
    4       16.216095   0.000000
    5       26.517118   0.000000
    6       26.995602   0.000000
    7       29.764711   0.000000
    8       29.899740   0.000000
 
  0.2727273E+00  0.9090909E-01  0.9090909E-01  0.1803156E-01
    1        1.025200   1.000000
    2        9.651834   1.000000
    3       15.069718   0.000000
    4       15.225895   0.000000
    5       25.972640   0.000000
    6       26.340089   0.000000
    7       31.391774   0.000000
    8       31.918645   0.000000
 
  0.3636364E+00  0.9090909E-01  0.9090909E-01  0.1803156E-01
    1        3.415439   1.000000
    2        6.299796   1.000000
    3       14.592837   0.000000
    4       14.723986   0.000000
    5       25.629761   0.000000
    6       25.965992   0.000000
    7       32.899469   0.000000
    8       33.789384   0.000000
 
 -0.9090909E-01  0.9090909E-01  0.9090909E-01  0.4507889E-02
    1       -3.294041   1.000000
    2       20.556038   0.000000
    3       20.556038   0.000000
    4       22.491534   0.000000
    5       24.472218   0.000000
    6       25.079319   0.000000
    7       27.051834   0.000000
    8       27.051834   0.000000
 
  0.1818182E+00  0.1818182E+00  0.9090909E-01  0.1803156E-01
    1        0.757968   1.000000
    2       12.147593   0.000000
    3       12.223915   0.000000
    4       14.925198   0.000000
    5       27.757908   0.000000
    6       28.462757   0.000000
    7       30.650169   0.000000
    8       31.389348   0.000000
 
  0.2727273E+00  0.1818182E+00  0.9090909E-01  0.3606311E-01
    1        2.887072   1.000000
    2        8.628747   1.000000
    3       11.434627   0.789427
    4       14.196202   0.000000
    5       27.740853   0.000000
    6       29.130495   0.000000
    7       31.714637   0.000000
    8       33.368831   0.000000
 
  0.3636364E+00  0.1818182E+00  0.9090909E-01  0.1803156E-01
    1        5.475170   1.000000
    2        5.561051   1.000000
    3       11.182251   1.000000
    4       13.951267   0.000000
    5       27.611411   0.000000
    6       29.360596   0.000000
    7       32.616308   0.000000
    8       33.699367   0.000000
 
 -0.1818182E+00  0.1818182E+00  0.9090909E-01  0.1803156E-01
    1       -2.477225   1.000000
    2       17.171449   0.000000
    3       18.725010   0.000000
    4       21.432622   0.000000
    5       23.302972   0.000000
    6       24.213643   0.000000
    7       27.230291   0.000000
    8       29.558517   0.000000
 
  0.2727273E+00  0.2727273E+00  0.9090909E-01  0.1803156E-01
    1        5.255510   1.000000
    2        8.049885   1.000000
    3        8.185001   1.000000
    4       13.711171   0.000000
    5       29.247423   0.000000
    6       30.121149   0.000000
    7       31.902504   0.000000
    8       34.407327   0.000000
 
 -0.2727273E+00  0.2727273E+00  0.9090909E-01  0.1803156E-01
    1       -1.123132   1.000000
    2       13.149043   0.000000
    3       17.317996   0.000000
    4       20.189463   0.000000
    5       22.931136   0.000000
    6       23.650660   0.000000
    7       26.910902   0.000000
    8       32.834524   0.000000
 
 -0.1818182E+00  0.2727273E+00  0.9090909E-01  0.1803156E-01
    1       -1.393192   1.000000
    2       15.478191   0.000000
    3       15.492266   0.000000
    4       20.972885   0.000000
    5       21.990640   0.000000
    6       23.889811   0.000000
    7       29.060440   0.000000
    8       29.826392   0.000000
 
 -0.3636364E+00  0.3636364E+00  0.9090909E-01  0.1803156E-01
    1        0.757567   1.000000
    2        9.386363   1.000000
    3       16.372049   0.000000
    4       19.256073   0.000000
    5       22.001582   0.000000
    6       23.873043   0.000000
    7       27.489412   0.000000
    8       33.210843   0.000000
 
 -0.2727273E+00  0.3636364E+00  0.9090909E-01  0.3606311E-01
    1        0.221972   1.000000
    2       11.643968   0.000000
    3       14.261892   0.000000
    4       20.174384   0.000000
    5       22.222745   0.000000
    6       23.471875   0.000000
    7       28.639437   0.000000
    8       31.995650   0.000000
 
 -0.4545455E+00  0.4545455E+00  0.9090909E-01  0.1803156E-01
    1        3.150161   1.000000
    2        6.035894   1.000000
    3       15.897372   0.000000
    4       18.775326   0.000000
    5       21.525766   0.000000
    6       23.794989   0.000000
    7       29.093716   0.000000
    8       31.452872   0.000000
 
 -0.3636364E+00  0.4545455E+00  0.9090909E-01  0.3606311E-01
    1        2.355558   1.000000
    2        8.101899   1.000000
    3       13.522938   0.000000
    4       19.501969   0.000000
    5       21.884992   0.000000
    6       24.635370   0.000000
    7       28.003181   0.000000
    8       31.084635   0.000000
 
 -0.2727273E+00  0.4545455E+00  0.9090909E-01  0.1803156E-01
    1        2.090045   1.000000
    2       10.571855   1.000000
    3       10.695496   1.000000
    4       20.543612   0.000000
    5       22.248575   0.000000
    6       23.005926   0.000000
    7       29.255590   0.000000
    8       32.022897   0.000000
 
 -0.4545455E+00 -0.4545455E+00  0.9090909E-01  0.1803156E-01
    1        4.955488   1.000000
    2        5.025389   1.000000
    3       13.275703   0.000000
    4       19.270235   0.000000
    5       21.689472   0.000000
    6       25.595613   0.000000
    7       27.641916   0.000000
    8       30.062705   0.000000
 
 -0.3636364E+00 -0.4545455E+00  0.9090909E-01  0.3606311E-01
    1        4.465078   1.000000
    2        7.327031   1.000000
    3       10.128134   1.000000
    4       20.299123   0.000000
    5       22.231075   0.000000
    6       24.406457   0.000000
    7       26.795279   0.000000
    8       32.768853   0.000000
 
 -0.3636364E+00 -0.3636364E+00  0.9090909E-01  0.6010518E-02
    1        7.007082   1.000000
    2        7.007082   1.000000
    3        7.193263   1.000000
    4       20.338071   0.000000
    5       24.201297   0.000000
    6       24.201297   0.000000
    7       24.292849   0.000000
    8       35.976624   0.000000
 
  0.1818182E+00  0.1818182E+00  0.1818182E+00  0.6010518E-02
    1        2.622457   1.000000
    2       11.139050   1.000000
    3       11.139050   1.000000
    4       11.285855   1.000000
    5       30.614871   0.000000
    6       30.614871   0.000000
    7       32.167246   0.000000
    8       32.167246   0.000000
 
  0.2727273E+00  0.1818182E+00  0.1818182E+00  0.1803156E-01
    1        4.994799   1.000000
    2        7.859556   1.000000
    3       10.630772   1.000000
    4       10.741688   1.000000
    5       31.219379   0.000000
    6       31.388255   0.000000
    7       33.584902   0.000000
    8       34.121225   0.000000
 
 -0.1818182E+00  0.1818182E+00  0.1818182E+00  0.4507889E-02
    1       -1.663637   1.000000
    2       16.855331   0.000000
    3       16.855331   0.000000
    4       19.475145   0.000000
    5       20.167781   0.000000
    6       26.677095   0.000000
    7       28.854209   0.000000
    8       28.854210   0.000000
 
  0.2727273E+00  0.2727273E+00  0.1818182E+00  0.6010518E-02
    1        7.539521   1.000000
    2        7.539521   1.000000
    3        7.728986   1.000000
    4       10.437565   1.000000
    5       32.535539   0.000000
    6       33.382909   0.000000
    7       33.382909   0.000000
    8       35.396976   0.000000
 
 -0.2727273E+00  0.2727273E+00  0.1818182E+00  0.1803156E-01
    1       -0.315005   1.000000
    2       13.764731   0.000000
    3       15.421832   0.000000
    4       18.321831   0.000000
    5       19.953800   0.000000
    6       26.208074   0.000000
    7       28.737412   0.000000
    8       31.602241   0.000000
 
 -0.3636364E+00  0.3636364E+00  0.1818182E+00  0.1803156E-01
    1        1.557814   1.000000
    2       10.122544   1.000000
    3       14.460243   0.000000
    4       17.337682   0.000000
    5       21.382672   0.000000
    6       25.366118   0.000000
    7       27.530022   0.000000
    8       30.623909   0.000000
 
 -0.2727273E+00  0.3636364E+00  0.1818182E+00  0.1803156E-01
    1        1.291257   1.000000
    2       12.485802   0.000000
    3       12.561242   0.000000
    4       18.579599   0.000000
    5       18.863799   0.000000
    6       26.041670   0.000000
    7       28.575482   0.000000
    8       31.372376   0.000000
 
 -0.4545455E+00  0.4545455E+00  0.1818182E+00  0.1803156E-01
    1        3.938951   1.000000
    2        6.808232   1.000000
    3       13.978275   0.000000
    4       16.832381   0.000000
    5       23.184169   0.000000
    6       24.912257   0.000000
    7       25.817312   0.000000
    8       29.673537   0.000000
 
 -0.3636364E+00  0.4545455E+00  0.1818182E+00  0.3606311E-01
    1        3.411780   1.000000
    2        9.100335   1.000000
    3       11.776015   0.000000
    4       17.974890   0.000000
    5       20.468196   0.000000
    6       24.984233   0.000000
    7       26.347991   0.000000
    8       31.938747   0.000000
 
 -0.4545455E+00 -0.4545455E+00  0.1818182E+00  0.1803156E-01
    1        5.976585   1.000000
    2        6.077531   1.000000
    3       11.525916   0.037735
    4       17.729715   0.000000
    5       22.287187   0.000000
    6       23.206874   0.000000
    7       25.728700   0.000000
    8       31.899474   0.000000
 
 -0.3636364E+00 -0.4545455E+00  0.1818182E+00  0.1803156E-01
    1        5.764687   1.000000
    2        8.521328   1.000000
    3        8.659164   1.000000
    4       19.759407   0.000000
    5       20.206869   0.000000
    6       22.561508   0.000000
    7       25.690496   0.000000
    8       34.958438   0.000000
 
 -0.2727273E+00  0.2727273E+00  0.2727273E+00  0.4507889E-02
    1        1.024335   1.000000
    2       13.974464   0.000000
    3       13.974465   0.000000
    4       16.803693   0.000000
    5       16.877735   0.000000
    6       28.223394   0.000000
    7       29.305257   0.000000
    8       31.153359   0.000000
 
 -0.3636364E+00  0.3636364E+00  0.2727273E+00  0.1803156E-01
    1        2.883185   1.000000
    2       11.271082   1.000000
    3       13.005895   0.000000
    4       15.814231   0.000000
    5       17.495846   0.000000
    6       25.100616   0.000000
    7       29.184520   0.000000
    8       31.983179   0.000000
 
 -0.4545455E+00  0.4545455E+00  0.2727273E+00  0.1803156E-01
    1        5.242856   1.000000
    2        8.074206   1.000000
    3       12.521060   0.000000
    4       15.295314   0.000000
    5       19.535771   0.000000
    6       22.152708   0.000000
    7       28.781532   0.000000
    8       32.097440   0.000000
 
 -0.3636364E+00  0.4545455E+00  0.2727273E+00  0.1803156E-01
    1        4.981505   1.000000
    2       10.464452   1.000000
    3       10.570372   1.000000
    4       16.743507   0.000000
    5       16.750065   0.000000
    6       21.913624   0.000000
    7       29.603359   0.000000
    8       34.322907   0.000000
 
 -0.4545455E+00 -0.4545455E+00  0.2727273E+00  0.1803156E-01
    1        7.494822   1.000000
    2        7.619103   1.000000
    3       10.267904   1.000000
    4       16.495027   0.000000
    5       18.964815   0.000000
    6       19.172036   0.000000
    7       29.489227   0.000000
    8       34.950720   0.000000
 
 -0.3636364E+00  0.3636364E+00  0.3636364E+00  0.4507889E-02
    1        4.719714   1.000000
    2       12.034052   0.000000
    3       12.034052   0.000000
    4       14.672369   0.000000
    5       14.868356   0.000000
    6       21.685617   0.000000
    7       32.886390   0.000000
    8       34.109511   0.000000
 
 -0.4545455E+00  0.4545455E+00  0.3636364E+00  0.1803156E-01
    1        7.039035   1.000000
    2        9.759201   1.000000
    3       11.547589   0.008411
    4       14.240985   0.000000
    5       15.991322   0.000000
    6       18.579634   0.000000
    7       32.988975   0.000000
    8       35.067654   0.000000
 
 -0.4545455E+00 -0.4545455E+00  0.3636364E+00  0.6010518E-02
    1        9.450670   1.000000
    2        9.450670   1.000000
    3        9.615405   1.000000
    4       15.687984   0.000000
    5       15.687984   0.000000
    6       15.825582   0.000000
    7       33.597877   0.000000
    8       37.329709   0.000000
 
 -0.4545455E+00  0.4545455E+00  0.4545455E+00  0.4507889E-02
    1        9.249355   1.000000
    2       11.060922   1.000000
    3       11.060922   1.000000
    4       13.567166   0.000000
    5       13.845185   0.000000
    6       15.487363   0.000000
    7       36.815725   0.000000
    8       37.123077   0.000000
