       N       E                     dE             d eps       ncg     rms          rms(c)
DAV:   1    -0.337288323454E+01   -0.33729E+01   -0.13289E+03  1000   0.267E+02
DAV:   2    -0.483418014424E+01   -0.14613E+01   -0.13980E+01  1352   0.231E+01
DAV:   3    -0.484130279984E+01   -0.71227E-02   -0.71223E-02  1080   0.155E+00
DAV:   4    -0.484130691796E+01   -0.41181E-05   -0.41178E-05  1336   0.377E-02
DAV:   5    -0.484130691833E+01   -0.37275E-09   -0.26621E-09  1120   0.236E-04    0.322E+00
DAV:   6    -0.482853361454E+01    0.12773E-01   -0.33767E-03   944   0.262E-01    0.180E+00
DAV:   7    -0.482108927137E+01    0.74443E-02   -0.68738E-03   976   0.375E-01    0.142E-01
DAV:   8    -0.482105939106E+01    0.29880E-04   -0.29097E-05  1224   0.401E-02    0.892E-03
DAV:   9    -0.482105980277E+01   -0.41172E-06   -0.41882E-07   984   0.360E-03
   1 F= -.48210598E+01 E0= -.48206248E+01  d E =-.482106E+01
