unknown system                          
   1.00000000000000     
     2.827097   -0.000000    0.000000
     0.000000    2.827097    0.000000
     0.000000   -0.000000    2.827097
   Fe
     2
Direct
 -0.000000  0.000000  0.000000
  0.500000  0.500000  0.500000
 
   36   36   36
 0.19137367576E+03 0.18671291457E+03 0.17337347053E+03 0.15313266703E+03 0.12852620141E+03
 0.10234687787E+03 0.77182876891E+02 0.55057863421E+02 0.37240994897E+02 0.24195665821E+02
 0.15660810705E+02 0.10801944122E+02 0.84653296378E+01 0.73663387961E+01 0.66186109490E+01
 0.60989609484E+01 0.57799876372E+01 0.56143722507E+01 0.55630005323E+01 0.56143722507E+01
 0.57799876372E+01 0.60989609484E+01 0.66186109490E+01 0.73663387961E+01 0.84653296378E+01
 0.10801944122E+02 0.15660810705E+02 0.24195665821E+02 0.37240994897E+02 0.55057863421E+02
 0.77182876891E+02 0.10234687787E+03 0.12852620141E+03 0.15313266703E+03 0.17337347053E+03
 0.18671291457E+03 0.18671291457E+03 0.18218237109E+03 0.16921100980E+03 0.14951372502E+03
 0.12554479623E+03 0.10001582297E+03 0.75452401585E+02 0.53840109796E+02 0.36438081347E+02
 0.23708119340E+02 0.15398347996E+02 0.10685547368E+02 0.84267349600E+01 0.73512122328E+01
 0.66090202286E+01 0.60958677300E+01 0.57803656932E+01 0.56173712870E+01 0.55662735986E+01
 0.56173712870E+01 0.57803656932E+01 0.60958677300E+01 0.66090202286E+01 0.73512122328E+01
 0.84267349600E+01 0.10685547368E+02 0.15398347996E+02 0.23708119340E+02 0.36438081347E+02
 0.53840109796E+02 0.75452401585E+02 0.10001582297E+03 0.12554479623E+03 0.14951372502E+03
 0.16921100980E+03 0.18218237109E+03 0.17337347053E+03 0.16921100980E+03 0.15727990421E+03
 0.13912213637E+03 0.11696261213E+03 0.93286894866E+02 0.70445975835E+02 0.50318402121E+02
 0.34116971887E+02 0.22304715202E+02 0.14650311796E+02 0.10357996347E+02 0.83190866864E+01
 0.73053293537E+01 0.65807109593E+01 0.60862814283E+01 0.57814042874E+01 0.56255836988E+01
 0.55757206335E+01 0.56255836988E+01 0.57814042874E+01 0.60862814283E+01 0.65807109593E+01
 0.73053293537E+01 0.83190866864E+01 0.10357996347E+02 0.14650311796E+02 0.22304715202E+02
 0.34116971887E+02 0.50318402121E+02 0.70445975835E+02 0.93286894866E+02 0.11696261213E+03
 0.13912213637E+03 0.15727990421E+03 0.16921100980E+03 0.15313266703E+03 0.14951372502E+03
 0.13912213637E+03 0.12325309240E+03 0.10380257832E+03 0.82926951758E+02 0.62713994058E+02
 0.44872874024E+02 0.30541896837E+02 0.20164693697E+02 0.13529605258E+02 0.98822427493E+01
 0.81610911679E+01 0.72277638295E+01 0.65342041485E+01 0.60700355472E+01 0.57828385489E+01
 0.56380364077E+01 0.55904913906E+01 0.56380364077E+01 0.57828385489E+01 0.60700355472E+01
 0.65342041485E+01 0.72277638295E+01 0.81610911679E+01 0.98822427493E+01 0.13529605258E+02
 0.20164693697E+02 0.30541896837E+02 0.44872874024E+02 0.62713994058E+02 0.82926951758E+02
 0.10380257832E+03 0.12325309240E+03 0.13912213637E+03 0.14951372502E+03 0.12852620141E+03
 0.12554479623E+03 0.11696261213E+03 0.10380257832E+03 0.87587757052E+02 0.70099601202E+02
 0.53111479107E+02 0.38120552425E+02 0.26140361004E+02 0.17574457861E+02 0.12212505192E+02
 0.93462668416E+01 0.79719811541E+01 0.71161917149E+01 0.64725110614E+01 0.60463017918E+01
 0.57846397845E+01 0.56521031082E+01 0.56093645834E+01 0.56521031082E+01 0.57846397845E+01
 0.60463017918E+01 0.64725110614E+01 0.71161917149E+01 0.79719811541E+01 0.93462668416E+01
 0.12212505192E+02 0.17574457861E+02 0.26140361004E+02 0.38120552425E+02 0.53111479107E+02
 0.70099601202E+02 0.87587757052E+02 0.10380257832E+03 0.11696261213E+03 0.12554479623E+03
 0.10234687787E+03 0.10001582297E+03 0.93286894866E+02 0.82926951758E+02 0.70099601202E+02
 0.56214060549E+02 0.42709844068E+02 0.30841146277E+02 0.21461077002E+02 0.14892502135E+02
 0.10904184287E+02 0.88356379471E+01 0.77569023428E+01 0.69734856000E+01 0.63983550769E+01
 0.60159344818E+01 0.57860009129E+01 0.56662164900E+01 0.56302253479E+01 0.56662164900E+01
 0.57860009129E+01 0.60159344818E+01 0.63983550769E+01 0.69734856000E+01 0.77569023428E+01
 0.88356379471E+01 0.10904184287E+02 0.14892502135E+02 0.21461077002E+02 0.30841146277E+02
 0.42709844068E+02 0.56214060549E+02 0.70099601202E+02 0.82926951758E+02 0.93286894866E+02
 0.10001582297E+03 0.77182876891E+02 0.75452401585E+02 0.70445975835E+02 0.62713994058E+02
 0.53111479107E+02 0.42709844068E+02 0.32632184540E+02 0.23870995294E+02 0.17079983615E+02
 0.12474085985E+02 0.97866692551E+01 0.83908063741E+01 0.75080303558E+01 0.68106180789E+01
 0.63141861430E+01 0.59817491132E+01 0.57845656221E+01 0.56792925823E+01 0.56492289638E+01
 0.56792925823E+01 0.57845656221E+01 0.59817491132E+01 0.63141861430E+01 0.68106180789E+01
 0.75080303558E+01 0.83908063741E+01 0.97866692551E+01 0.12474085985E+02 0.17079983615E+02
 0.23870995294E+02 0.32632184540E+02 0.42709844068E+02 0.53111479107E+02 0.62713994058E+02
 0.70445975835E+02 0.75452401585E+02 0.55057863421E+02 0.53840109796E+02 0.50318402121E+02
 0.44872874024E+02 0.38120552425E+02 0.30841146277E+02 0.23870995294E+02 0.17928674996E+02
 0.13474920620E+02 0.10578969124E+02 0.89462544579E+01 0.79851476854E+01 0.72281843528E+01
 0.66418425873E+01 0.62227727160E+01 0.59469852271E+01 0.57784775904E+01 0.56911043335E+01
 0.56632716061E+01 0.56911043335E+01 0.57784775904E+01 0.59469852271E+01 0.62227727160E+01
 0.66418425873E+01 0.72281843528E+01 0.79851476854E+01 0.89462544579E+01 0.10578969124E+02
 0.13474920620E+02 0.17928674996E+02 0.23870995294E+02 0.30841146277E+02 0.38120552425E+02
 0.44872874024E+02 0.50318402121E+02 0.53840109796E+02 0.37240994897E+02 0.36438081347E+02
 0.34116971887E+02 0.30541896837E+02 0.26140361004E+02 0.21461077002E+02 0.17079983615E+02
 0.13474920620E+02 0.10891458286E+02 0.92867621984E+01 0.83210146649E+01 0.75707340074E+01
 0.69464118098E+01 0.64725356085E+01 0.61340484227E+01 0.59092767583E+01 0.57701396259E+01
 0.56964667831E+01 0.56730922780E+01 0.56964667831E+01 0.57701396259E+01 0.59092767583E+01
 0.61340484227E+01 0.64725356085E+01 0.69464118098E+01 0.75707340074E+01 0.83210146649E+01
 0.92867621984E+01 0.10891458286E+02 0.13474920620E+02 0.17079983615E+02 0.21461077002E+02
 0.26140361004E+02 0.30541896837E+02 0.34116971887E+02 0.36438081347E+02 0.24195665821E+02
 0.23708119340E+02 0.22304715202E+02 0.20164693697E+02 0.17574457861E+02 0.14892502135E+02
 0.12474085985E+02 0.10578969124E+02 0.92867621984E+01 0.84434697844E+01 0.77639135470E+01
 0.71648537876E+01 0.66817386234E+01 0.63132734891E+01 0.60500679312E+01 0.58707806468E+01
 0.57583704992E+01 0.56963185171E+01 0.56771442265E+01 0.56963185171E+01 0.57583704992E+01
 0.58707806468E+01 0.60500679312E+01 0.63132734891E+01 0.66817386234E+01 0.71648537876E+01
 0.77639135470E+01 0.84434697844E+01 0.92867621984E+01 0.10578969124E+02 0.12474085985E+02
 0.14892502135E+02 0.17574457861E+02 0.20164693697E+02 0.22304715202E+02 0.23708119340E+02
 0.15660810705E+02 0.15398347996E+02 0.14650311796E+02 0.13529605258E+02 0.12212505192E+02
 0.10904184287E+02 0.97866692551E+01 0.89462544579E+01 0.83210146649E+01 0.77639135470E+01
 0.72444781139E+01 0.68017741066E+01 0.64441058371E+01 0.61718457866E+01 0.59724339884E+01
 0.58332841100E+01 0.57415518069E+01 0.56900503355E+01 0.56730922780E+01 0.56900503355E+01
 0.57415518069E+01 0.58332841100E+01 0.59724339884E+01 0.61718457866E+01 0.64441058371E+01
 0.68017741066E+01 0.72444781139E+01 0.77639135470E+01 0.83210146649E+01 0.89462544579E+01
 0.97866692551E+01 0.10904184287E+02 0.12212505192E+02 0.13529605258E+02 0.14650311796E+02
 0.15398347996E+02 0.10801944122E+02 0.10685547368E+02 0.10357996347E+02 0.98822427493E+01
 0.93462668416E+01 0.88356379471E+01 0.83908063741E+01 0.79851476854E+01 0.75707340074E+01
 0.71648537876E+01 0.68017741066E+01 0.64922186816E+01 0.62431460945E+01 0.60488733288E+01
 0.59017435869E+01 0.57938852689E+01 0.57204653141E+01 0.56773276920E+01 0.56632716061E+01
 0.56773276920E+01 0.57204653141E+01 0.57938852689E+01 0.59017435869E+01 0.60488733288E+01
 0.62431460945E+01 0.64922186816E+01 0.68017741066E+01 0.71648537876E+01 0.75707340074E+01
 0.79851476854E+01 0.83908063741E+01 0.88356379471E+01 0.93462668416E+01 0.98822427493E+01
 0.10357996347E+02 0.10685547368E+02 0.84653296378E+01 0.84267349600E+01 0.83190866864E+01
 0.81610911679E+01 0.79719811541E+01 0.77569023428E+01 0.75080303558E+01 0.72281843528E+01
 0.69464118098E+01 0.66817386234E+01 0.64441058371E+01 0.62431460945E+01 0.60773751668E+01
 0.59431089182E+01 0.58367641209E+01 0.57555900735E+01 0.56970268481E+01 0.56613789307E+01
 0.56492289638E+01 0.56613789307E+01 0.56970268481E+01 0.57555900735E+01 0.58367641209E+01
 0.59431089182E+01 0.60773751668E+01 0.62431460945E+01 0.64441058371E+01 0.66817386234E+01
 0.69464118098E+01 0.72281843528E+01 0.75080303558E+01 0.77569023428E+01 0.79719811541E+01
 0.81610911679E+01 0.83190866864E+01 0.84267349600E+01 0.73663387961E+01 0.73512122328E+01
 0.73053293537E+01 0.72277638295E+01 0.71161917149E+01 0.69734856000E+01 0.68106180789E+01
 0.66418425873E+01 0.64725356085E+01 0.63132734891E+01 0.61718457866E+01 0.60488733288E+01
 0.59431089182E+01 0.58534523835E+01 0.57788341305E+01 0.57171927314E+01 0.56702457885E+01
 0.56403690038E+01 0.56302253479E+01 0.56403690038E+01 0.56702457885E+01 0.57171927314E+01
 0.57788341305E+01 0.58534523835E+01 0.59431089182E+01 0.60488733288E+01 0.61718457866E+01
 0.63132734891E+01 0.64725356085E+01 0.66418425873E+01 0.68106180789E+01 0.69734856000E+01
 0.71161917149E+01 0.72277638295E+01 0.73053293537E+01 0.73512122328E+01 0.66186109490E+01
 0.66090202286E+01 0.65807109593E+01 0.65342041485E+01 0.64725110614E+01 0.63983550769E+01
 0.63141861430E+01 0.62227727160E+01 0.61340484227E+01 0.60500679312E+01 0.59724339884E+01
 0.59017435869E+01 0.58367641209E+01 0.57788341305E+01 0.57255464017E+01 0.56788077010E+01
 0.56415630417E+01 0.56177451928E+01 0.56093645834E+01 0.56177451928E+01 0.56415630417E+01
 0.56788077010E+01 0.57255464017E+01 0.57788341305E+01 0.58367641209E+01 0.59017435869E+01
 0.59724339884E+01 0.60500679312E+01 0.61340484227E+01 0.62227727160E+01 0.63141861430E+01
 0.63983550769E+01 0.64725110614E+01 0.65342041485E+01 0.65807109593E+01 0.66090202286E+01
 0.60989609484E+01 0.60958677300E+01 0.60862814283E+01 0.60700355472E+01 0.60463017918E+01
 0.60159344818E+01 0.59817491132E+01 0.59469852271E+01 0.59092767583E+01 0.58707806468E+01
 0.58332841100E+01 0.57938852689E+01 0.57555900735E+01 0.57171927314E+01 0.56788077010E+01
 0.56434562371E+01 0.56151781720E+01 0.55967901361E+01 0.55904913906E+01 0.55967901361E+01
 0.56151781720E+01 0.56434562371E+01 0.56788077010E+01 0.57171927314E+01 0.57555900735E+01
 0.57938852689E+01 0.58332841100E+01 0.58707806468E+01 0.59092767583E+01 0.59469852271E+01
 0.59817491132E+01 0.60159344818E+01 0.60463017918E+01 0.60700355472E+01 0.60862814283E+01
 0.60958677300E+01 0.57799876372E+01 0.57803656932E+01 0.57814042874E+01 0.57828385489E+01
 0.57846397845E+01 0.57860009129E+01 0.57845656221E+01 0.57784775904E+01 0.57701396259E+01
 0.57583704992E+01 0.57415518069E+01 0.57204653141E+01 0.56970268481E+01 0.56702457885E+01
 0.56415630417E+01 0.56151781720E+01 0.55940343284E+01 0.55804651279E+01 0.55757206335E+01
 0.55804651279E+01 0.55940343284E+01 0.56151781720E+01 0.56415630417E+01 0.56702457885E+01
 0.56970268481E+01 0.57204653141E+01 0.57415518069E+01 0.57583704992E+01 0.57701396259E+01
 0.57784775904E+01 0.57845656221E+01 0.57860009129E+01 0.57846397845E+01 0.57828385489E+01
 0.57814042874E+01 0.57803656932E+01 0.56143722507E+01 0.56173712870E+01 0.56255836988E+01
 0.56380364077E+01 0.56521031082E+01 0.56662164900E+01 0.56792925823E+01 0.56911043335E+01
 0.56964667831E+01 0.56963185171E+01 0.56900503355E+01 0.56773276920E+01 0.56613789307E+01
 0.56403690038E+01 0.56177451928E+01 0.55967901361E+01 0.55804651279E+01 0.55698329773E+01
 0.55662735986E+01 0.55698329773E+01 0.55804651279E+01 0.55967901361E+01 0.56177451928E+01
 0.56403690038E+01 0.56613789307E+01 0.56773276920E+01 0.56900503355E+01 0.56963185171E+01
 0.56964667831E+01 0.56911043335E+01 0.56792925823E+01 0.56662164900E+01 0.56521031082E+01
 0.56380364077E+01 0.56255836988E+01 0.56173712870E+01 0.55630005323E+01 0.55662735986E+01
 0.55757206335E+01 0.55904913906E+01 0.56093645834E+01 0.56302253479E+01 0.56492289638E+01
 0.56632716061E+01 0.56730922780E+01 0.56771442265E+01 0.56730922780E+01 0.56632716061E+01
 0.56492289638E+01 0.56302253479E+01 0.56093645834E+01 0.55904913906E+01 0.55757206335E+01
 0.55662735986E+01 0.55630005323E+01 0.55662735986E+01 0.55757206335E+01 0.55904913906E+01
 0.56093645834E+01 0.56302253479E+01 0.56492289638E+01 0.56632716061E+01 0.56730922780E+01
 0.56771442265E+01 0.56730922780E+01 0.56632716061E+01 0.56492289638E+01 0.56302253479E+01
 0.56093645834E+01 0.55904913906E+01 0.55757206335E+01 0.55662735986E+01 0.56143722507E+01
 0.56173712870E+01 0.56255836988E+01 0.56380364077E+01 0.56521031082E+01 0.56662164900E+01
 0.56792925823E+01 0.56911043335E+01 0.56964667831E+01 0.56963185171E+01 0.56900503355E+01
 0.56773276920E+01 0.56613789307E+01 0.56403690038E+01 0.56177451928E+01 0.55967901361E+01
 0.55804651279E+01 0.55698329773E+01 0.55662735986E+01 0.55698329773E+01 0.55804651279E+01
 0.55967901361E+01 0.56177451928E+01 0.56403690038E+01 0.56613789307E+01 0.56773276920E+01
 0.56900503355E+01 0.56963185171E+01 0.56964667831E+01 0.56911043335E+01 0.56792925823E+01
 0.56662164900E+01 0.56521031082E+01 0.56380364077E+01 0.56255836988E+01 0.56173712870E+01
 0.57799876372E+01 0.57803656932E+01 0.57814042874E+01 0.57828385489E+01 0.57846397845E+01
 0.57860009129E+01 0.57845656221E+01 0.57784775904E+01 0.57701396259E+01 0.57583704992E+01
 0.57415518069E+01 0.57204653141E+01 0.56970268481E+01 0.56702457885E+01 0.56415630417E+01
 0.56151781720E+01 0.55940343284E+01 0.55804651279E+01 0.55757206335E+01 0.55804651279E+01
 0.55940343284E+01 0.56151781720E+01 0.56415630417E+01 0.56702457885E+01 0.56970268481E+01
 0.57204653141E+01 0.57415518069E+01 0.57583704992E+01 0.57701396259E+01 0.57784775904E+01
 0.57845656221E+01 0.57860009129E+01 0.57846397845E+01 0.57828385489E+01 0.57814042874E+01
 0.57803656932E+01 0.60989609484E+01 0.60958677300E+01 0.60862814283E+01 0.60700355472E+01
 0.60463017918E+01 0.60159344818E+01 0.59817491132E+01 0.59469852271E+01 0.59092767583E+01
 0.58707806468E+01 0.58332841100E+01 0.57938852689E+01 0.57555900735E+01 0.57171927314E+01
 0.56788077010E+01 0.56434562371E+01 0.56151781720E+01 0.55967901361E+01 0.55904913906E+01
 0.55967901361E+01 0.56151781720E+01 0.56434562371E+01 0.56788077010E+01 0.57171927314E+01
 0.57555900735E+01 0.57938852689E+01 0.58332841100E+01 0.58707806468E+01 0.59092767583E+01
 0.59469852271E+01 0.59817491132E+01 0.60159344818E+01 0.60463017918E+01 0.60700355472E+01
 0.60862814283E+01 0.60958677300E+01 0.66186109490E+01 0.66090202286E+01 0.65807109593E+01
 0.65342041485E+01 0.64725110614E+01 0.63983550769E+01 0.63141861430E+01 0.62227727160E+01
 0.61340484227E+01 0.60500679312E+01 0.59724339884E+01 0.59017435869E+01 0.58367641209E+01
 0.57788341305E+01 0.57255464017E+01 0.56788077010E+01 0.56415630417E+01 0.56177451928E+01
 0.56093645834E+01 0.56177451928E+01 0.56415630417E+01 0.56788077010E+01 0.57255464017E+01
 0.57788341305E+01 0.58367641209E+01 0.59017435869E+01 0.59724339884E+01 0.60500679312E+01
 0.61340484227E+01 0.62227727160E+01 0.63141861430E+01 0.63983550769E+01 0.64725110614E+01
 0.65342041485E+01 0.65807109593E+01 0.66090202286E+01 0.73663387961E+01 0.73512122328E+01
 0.73053293537E+01 0.72277638295E+01 0.71161917149E+01 0.69734856000E+01 0.68106180789E+01
 0.66418425873E+01 0.64725356085E+01 0.63132734891E+01 0.61718457866E+01 0.60488733288E+01
 0.59431089182E+01 0.58534523835E+01 0.57788341305E+01 0.57171927314E+01 0.56702457885E+01
 0.56403690038E+01 0.56302253479E+01 0.56403690038E+01 0.56702457885E+01 0.57171927314E+01
 0.57788341305E+01 0.58534523835E+01 0.59431089182E+01 0.60488733288E+01 0.61718457866E+01
 0.63132734891E+01 0.64725356085E+01 0.66418425873E+01 0.68106180789E+01 0.69734856000E+01
 0.71161917149E+01 0.72277638295E+01 0.73053293537E+01 0.73512122328E+01 0.84653296378E+01
 0.84267349600E+01 0.83190866864E+01 0.81610911679E+01 0.79719811541E+01 0.77569023428E+01
 0.75080303558E+01 0.72281843528E+01 0.69464118098E+01 0.66817386234E+01 0.64441058371E+01
 0.62431460945E+01 0.60773751668E+01 0.59431089182E+01 0.58367641209E+01 0.57555900735E+01
 0.56970268481E+01 0.56613789307E+01 0.56492289638E+01 0.56613789307E+01 0.56970268481E+01
 0.57555900735E+01 0.58367641209E+01 0.59431089182E+01 0.60773751668E+01 0.62431460945E+01
 0.64441058371E+01 0.66817386234E+01 0.69464118098E+01 0.72281843528E+01 0.75080303558E+01
 0.77569023428E+01 0.79719811541E+01 0.81610911679E+01 0.83190866864E+01 0.84267349600E+01
 0.10801944122E+02 0.10685547368E+02 0.10357996347E+02 0.98822427493E+01 0.93462668416E+01
 0.88356379471E+01 0.83908063741E+01 0.79851476854E+01 0.75707340074E+01 0.71648537876E+01
 0.68017741066E+01 0.64922186816E+01 0.62431460945E+01 0.60488733288E+01 0.59017435869E+01
 0.57938852689E+01 0.57204653141E+01 0.56773276920E+01 0.56632716061E+01 0.56773276920E+01
 0.57204653141E+01 0.57938852689E+01 0.59017435869E+01 0.60488733288E+01 0.62431460945E+01
 0.64922186816E+01 0.68017741066E+01 0.71648537876E+01 0.75707340074E+01 0.79851476854E+01
 0.83908063741E+01 0.88356379471E+01 0.93462668416E+01 0.98822427493E+01 0.10357996347E+02
 0.10685547368E+02 0.15660810705E+02 0.15398347996E+02 0.14650311796E+02 0.13529605258E+02
 0.12212505192E+02 0.10904184287E+02 0.97866692551E+01 0.89462544579E+01 0.83210146649E+01
 0.77639135470E+01 0.72444781139E+01 0.68017741066E+01 0.64441058371E+01 0.61718457866E+01
 0.59724339884E+01 0.58332841100E+01 0.57415518069E+01 0.56900503355E+01 0.56730922780E+01
 0.56900503355E+01 0.57415518069E+01 0.58332841100E+01 0.59724339884E+01 0.61718457866E+01
 0.64441058371E+01 0.68017741066E+01 0.72444781139E+01 0.77639135470E+01 0.83210146649E+01
 0.89462544579E+01 0.97866692551E+01 0.10904184287E+02 0.12212505192E+02 0.13529605258E+02
 0.14650311796E+02 0.15398347996E+02 0.24195665821E+02 0.23708119340E+02 0.22304715202E+02
 0.20164693697E+02 0.17574457861E+02 0.14892502135E+02 0.12474085985E+02 0.10578969124E+02
 0.92867621984E+01 0.84434697844E+01 0.77639135470E+01 0.71648537876E+01 0.66817386234E+01
 0.63132734891E+01 0.60500679312E+01 0.58707806468E+01 0.57583704992E+01 0.56963185171E+01
 0.56771442265E+01 0.56963185171E+01 0.57583704992E+01 0.58707806468E+01 0.60500679312E+01
 0.63132734891E+01 0.66817386234E+01 0.71648537876E+01 0.77639135470E+01 0.84434697844E+01
 0.92867621984E+01 0.10578969124E+02 0.12474085985E+02 0.14892502135E+02 0.17574457861E+02
 0.20164693697E+02 0.22304715202E+02 0.23708119340E+02 0.37240994897E+02 0.36438081347E+02
 0.34116971887E+02 0.30541896837E+02 0.26140361004E+02 0.21461077002E+02 0.17079983615E+02
 0.13474920620E+02 0.10891458286E+02 0.92867621984E+01 0.83210146649E+01 0.75707340074E+01
 0.69464118098E+01 0.64725356085E+01 0.61340484227E+01 0.59092767583E+01 0.57701396259E+01
 0.56964667831E+01 0.56730922780E+01 0.56964667831E+01 0.57701396259E+01 0.59092767583E+01
 0.61340484227E+01 0.64725356085E+01 0.69464118098E+01 0.75707340074E+01 0.83210146649E+01
 0.92867621984E+01 0.10891458286E+02 0.13474920620E+02 0.17079983615E+02 0.21461077002E+02
 0.26140361004E+02 0.30541896837E+02 0.34116971887E+02 0.36438081347E+02 0.55057863421E+02
 0.53840109796E+02 0.50318402121E+02 0.44872874024E+02 0.38120552425E+02 0.30841146277E+02
 0.23870995294E+02 0.17928674996E+02 0.13474920620E+02 0.10578969124E+02 0.89462544579E+01
 0.79851476854E+01 0.72281843528E+01 0.66418425873E+01 0.62227727160E+01 0.59469852271E+01
 0.57784775904E+01 0.56911043335E+01 0.56632716061E+01 0.56911043335E+01 0.57784775904E+01
 0.59469852271E+01 0.62227727160E+01 0.66418425873E+01 0.72281843528E+01 0.79851476854E+01
 0.89462544579E+01 0.10578969124E+02 0.13474920620E+02 0.17928674996E+02 0.23870995294E+02
 0.30841146277E+02 0.38120552425E+02 0.44872874024E+02 0.50318402121E+02 0.53840109796E+02
 0.77182876891E+02 0.75452401585E+02 0.70445975835E+02 0.62713994058E+02 0.53111479107E+02
 0.42709844068E+02 0.32632184540E+02 0.23870995294E+02 0.17079983615E+02 0.12474085985E+02
 0.97866692551E+01 0.83908063741E+01 0.75080303558E+01 0.68106180789E+01 0.63141861430E+01
 0.59817491132E+01 0.57845656221E+01 0.56792925823E+01 0.56492289638E+01 0.56792925823E+01
 0.57845656221E+01 0.59817491132E+01 0.63141861430E+01 0.68106180789E+01 0.75080303558E+01
 0.83908063741E+01 0.97866692551E+01 0.12474085985E+02 0.17079983615E+02 0.23870995294E+02
 0.32632184540E+02 0.42709844068E+02 0.53111479107E+02 0.62713994058E+02 0.70445975835E+02
 0.75452401585E+02 0.10234687787E+03 0.10001582297E+03 0.93286894866E+02 0.82926951758E+02
 0.70099601202E+02 0.56214060549E+02 0.42709844068E+02 0.30841146277E+02 0.21461077002E+02
 0.14892502135E+02 0.10904184287E+02 0.88356379471E+01 0.77569023428E+01 0.69734856000E+01
 0.63983550769E+01 0.60159344818E+01 0.57860009129E+01 0.56662164900E+01 0.56302253479E+01
 0.56662164900E+01 0.57860009129E+01 0.60159344818E+01 0.63983550769E+01 0.69734856000E+01
 0.77569023428E+01 0.88356379471E+01 0.10904184287E+02 0.14892502135E+02 0.21461077002E+02
 0.30841146277E+02 0.42709844068E+02 0.56214060549E+02 0.70099601202E+02 0.82926951758E+02
 0.93286894866E+02 0.10001582297E+03 0.12852620141E+03 0.12554479623E+03 0.11696261213E+03
 0.10380257832E+03 0.87587757052E+02 0.70099601202E+02 0.53111479107E+02 0.38120552425E+02
 0.26140361004E+02 0.17574457861E+02 0.12212505192E+02 0.93462668416E+01 0.79719811541E+01
 0.71161917149E+01 0.64725110614E+01 0.60463017918E+01 0.57846397845E+01 0.56521031082E+01
 0.56093645834E+01 0.56521031082E+01 0.57846397845E+01 0.60463017918E+01 0.64725110614E+01
 0.71161917149E+01 0.79719811541E+01 0.93462668416E+01 0.12212505192E+02 0.17574457861E+02
 0.26140361004E+02 0.38120552425E+02 0.53111479107E+02 0.70099601202E+02 0.87587757052E+02
 0.10380257832E+03 0.11696261213E+03 0.12554479623E+03 0.15313266703E+03 0.14951372502E+03
 0.13912213637E+03 0.12325309240E+03 0.10380257832E+03 0.82926951758E+02 0.62713994058E+02
 0.44872874024E+02 0.30541896837E+02 0.20164693697E+02 0.13529605258E+02 0.98822427493E+01
 0.81610911679E+01 0.72277638295E+01 0.65342041485E+01 0.60700355472E+01 0.57828385489E+01
 0.56380364077E+01 0.55904913906E+01 0.56380364077E+01 0.57828385489E+01 0.60700355472E+01
 0.65342041485E+01 0.72277638295E+01 0.81610911679E+01 0.98822427493E+01 0.13529605258E+02
 0.20164693697E+02 0.30541896837E+02 0.44872874024E+02 0.62713994058E+02 0.82926951758E+02
 0.10380257832E+03 0.12325309240E+03 0.13912213637E+03 0.14951372502E+03 0.17337347053E+03
 0.16921100980E+03 0.15727990421E+03 0.13912213637E+03 0.11696261213E+03 0.93286894866E+02
 0.70445975835E+02 0.50318402121E+02 0.34116971887E+02 0.22304715202E+02 0.14650311796E+02
 0.10357996347E+02 0.83190866864E+01 0.73053293537E+01 0.65807109593E+01 0.60862814283E+01
 0.57814042874E+01 0.56255836988E+01 0.55757206335E+01 0.56255836988E+01 0.57814042874E+01
 0.60862814283E+01 0.65807109593E+01 0.73053293537E+01 0.83190866864E+01 0.10357996347E+02
 0.14650311796E+02 0.22304715202E+02 0.34116971887E+02 0.50318402121E+02 0.70445975835E+02
 0.93286894866E+02 0.11696261213E+03 0.13912213637E+03 0.15727990421E+03 0.16921100980E+03
 0.18671291457E+03 0.18218237109E+03 0.16921100980E+03 0.14951372502E+03 0.12554479623E+03
 0.10001582297E+03 0.75452401585E+02 0.53840109796E+02 0.36438081347E+02 0.23708119340E+02
 0.15398347996E+02 0.10685547368E+02 0.84267349600E+01 0.73512122328E+01 0.66090202286E+01
 0.60958677300E+01 0.57803656932E+01 0.56173712870E+01 0.55662735986E+01 0.56173712870E+01
 0.57803656932E+01 0.60958677300E+01 0.66090202286E+01 0.73512122328E+01 0.84267349600E+01
 0.10685547368E+02 0.15398347996E+02 0.23708119340E+02 0.36438081347E+02 0.53840109796E+02
 0.75452401585E+02 0.10001582297E+03 0.12554479623E+03 0.14951372502E+03 0.16921100980E+03
 0.18218237109E+03 0.18671291457E+03 0.18218237109E+03 0.16921100980E+03 0.14951372502E+03
 0.12554479623E+03 0.10001582297E+03 0.75452401585E+02 0.53840109796E+02 0.36438081347E+02
 0.23708119340E+02 0.15398347996E+02 0.10685547368E+02 0.84267349600E+01 0.73512122328E+01
 0.66090202286E+01 0.60958677300E+01 0.57803656932E+01 0.56173712870E+01 0.55662735986E+01
 0.56173712870E+01 0.57803656932E+01 0.60958677300E+01 0.66090202286E+01 0.73512122328E+01
 0.84267349600E+01 0.10685547368E+02 0.15398347996E+02 0.23708119340E+02 0.36438081347E+02
 0.53840109796E+02 0.75452401585E+02 0.10001582297E+03 0.12554479623E+03 0.14951372502E+03
 0.16921100980E+03 0.18218237109E+03 0.18218237109E+03 0.17777745056E+03 0.16516135609E+03
 0.14598931470E+03 0.12263749709E+03 0.97739245138E+02 0.73759863973E+02 0.52648273412E+02
 0.35652716678E+02 0.23232193977E+02 0.15143526896E+02 0.10573739662E+02 0.83901266981E+01
 0.73366396303E+01 0.66000700907E+01 0.60932348323E+01 0.57811201837E+01 0.56206364151E+01
 0.55698329773E+01 0.56206364151E+01 0.57811201837E+01 0.60932348323E+01 0.66000700907E+01
 0.73366396303E+01 0.83901266981E+01 0.10573739662E+02 0.15143526896E+02 0.23232193977E+02
 0.35652716678E+02 0.52648273412E+02 0.73759863973E+02 0.97739245138E+02 0.12263749709E+03
 0.14598931470E+03 0.16516135609E+03 0.17777745056E+03 0.16921100980E+03 0.16516135609E+03
 0.15354960573E+03 0.13586576819E+03 0.11426587220E+03 0.91166473124E+02 0.68863625548E+02
 0.49202309714E+02 0.33383054584E+02 0.21863159872E+02 0.14417926645E+02 0.10259278046E+02
 0.82882103398E+01 0.72923048192E+01 0.65733370962E+01 0.60849848856E+01 0.57834940899E+01
 0.56299671685E+01 0.55804651279E+01 0.56299671685E+01 0.57834940899E+01 0.60849848856E+01
 0.65733370962E+01 0.72923048192E+01 0.82882103398E+01 0.10259278046E+02 0.14417926645E+02
 0.21863159872E+02 0.33383054584E+02 0.49202309714E+02 0.68863625548E+02 0.91166473124E+02
 0.11426587220E+03 0.13586576819E+03 0.15354960573E+03 0.16516135609E+03 0.14951372502E+03
 0.14598931470E+03 0.13586576819E+03 0.12039721745E+03 0.10142357179E+03 0.81044781717E+02
 0.61302136502E+02 0.43876597510E+02 0.29890054041E+02 0.19778093296E+02 0.13332532431E+02
 0.98034003057E+01 0.81377272369E+01 0.72168690770E+01 0.65295436374E+01 0.60706597493E+01
 0.57867997182E+01 0.56437757235E+01 0.55967901361E+01 0.56437757235E+01 0.57867997182E+01
 0.60706597493E+01 0.65295436374E+01 0.72168690770E+01 0.81377272369E+01 0.98034003057E+01
 0.13332532431E+02 0.19778093296E+02 0.29890054041E+02 0.43876597510E+02 0.61302136502E+02
 0.81044781717E+02 0.10142357179E+03 0.12039721745E+03 0.13586576819E+03 0.14598931470E+03
 0.12554479623E+03 0.12263749709E+03 0.11426587220E+03 0.10142357179E+03 0.85591730410E+02
 0.68509888001E+02 0.51914393555E+02 0.37278247776E+02 0.25594640776E+02 0.17259347360E+02
 0.12059827718E+02 0.92908103921E+01 0.79559503450E+01 0.71079147085E+01 0.64710402288E+01
 0.60492907659E+01 0.57910060521E+01 0.56597149076E+01 0.56177451928E+01 0.56597149076E+01
 0.57910060521E+01 0.60492907659E+01 0.64710402288E+01 0.71079147085E+01 0.79559503450E+01
 0.92908103921E+01 0.12059827718E+02 0.17259347360E+02 0.25594640776E+02 0.37278247776E+02
 0.51914393555E+02 0.68509888001E+02 0.85591730410E+02 0.10142357179E+03 0.11426587220E+03
 0.12263749709E+03 0.10001582297E+03 0.97739245138E+02 0.91166473124E+02 0.81044781717E+02
 0.68509888001E+02 0.54941328995E+02 0.41752108510E+02 0.30172874515E+02 0.21036560493E+02
 0.14658119214E+02 0.10799276158E+02 0.88025013299E+01 0.77460425492E+01 0.69688436759E+01
 0.64002886759E+01 0.60217079075E+01 0.57945415954E+01 0.56757645204E+01 0.56403690038E+01
 0.56757645204E+01 0.57945415954E+01 0.60217079075E+01 0.64002886759E+01 0.69688436759E+01
 0.77460425492E+01 0.88025013299E+01 0.10799276158E+02 0.14658119214E+02 0.21036560493E+02
 0.30172874515E+02 0.41752108510E+02 0.54941328995E+02 0.68509888001E+02 0.81044781717E+02
 0.91166473124E+02 0.97739245138E+02 0.75452401585E+02 0.73759863973E+02 0.68863625548E+02
 0.61302136502E+02 0.51914393555E+02 0.41752108510E+02 0.31917437962E+02 0.23380024256E+02
 0.16780275942E+02 0.12319563900E+02 0.97260774893E+01 0.83736236190E+01 0.75008958897E+01
 0.68103665197E+01 0.63191918198E+01 0.59905848824E+01 0.57953975774E+01 0.56912901426E+01
 0.56613789307E+01 0.56912901426E+01 0.57953975774E+01 0.59905848824E+01 0.63191918198E+01
 0.68103665197E+01 0.75008958897E+01 0.83736236190E+01 0.97260774893E+01 0.12319563900E+02
 0.16780275942E+02 0.23380024256E+02 0.31917437962E+02 0.41752108510E+02 0.51914393555E+02
 0.61302136502E+02 0.68863625548E+02 0.73759863973E+02 0.53840109796E+02 0.52648273412E+02
 0.49202309714E+02 0.43876597510E+02 0.37278247776E+02 0.30172874515E+02 0.23380024256E+02
 0.17603834649E+02 0.13289211416E+02 0.10493329839E+02 0.89185107171E+01 0.79758172426E+01
 0.72254786682E+01 0.66459143401E+01 0.62314101865E+01 0.59586514541E+01 0.57915855897E+01
 0.57050410847E+01 0.56773276920E+01 0.57050410847E+01 0.57915855897E+01 0.59586514541E+01
 0.62314101865E+01 0.66459143401E+01 0.72254786682E+01 0.79758172426E+01 0.89185107171E+01
 0.10493329839E+02 0.13289211416E+02 0.17603834649E+02 0.23380024256E+02 0.30172874515E+02
 0.37278247776E+02 0.43876597510E+02 0.49202309714E+02 0.52648273412E+02 0.36438081347E+02
 0.35652716678E+02 0.33383054584E+02 0.29890054041E+02 0.25594640776E+02 0.21036560493E+02
 0.16780275942E+02 0.13289211416E+02 0.10795795561E+02 0.92507119276E+01 0.83092662408E+01
 0.75662100872E+01 0.69491928289E+01 0.64806326507E+01 0.61461097021E+01 0.59237839989E+01
 0.57862434368E+01 0.57131508530E+01 0.56900503355E+01 0.57131508530E+01 0.57862434368E+01
 0.59237839989E+01 0.61461097021E+01 0.64806326507E+01 0.69491928289E+01 0.75662100872E+01
 0.83092662408E+01 0.92507119276E+01 0.10795795561E+02 0.13289211416E+02 0.16780275942E+02
 0.21036560493E+02 0.25594640776E+02 0.29890054041E+02 0.33383054584E+02 0.35652716678E+02
 0.23708119340E+02 0.23232193977E+02 0.21863159872E+02 0.19778093296E+02 0.17259347360E+02
 0.14658119214E+02 0.12319563900E+02 0.10493329839E+02 0.92507119276E+01 0.84305615175E+01