   2   2   1   0
  0.1173411E+02  0.2863036E-09  0.2863036E-09  0.2863036E-09  0.5000000E-15
  1.000000000000000E-004
  CAR 
 unknown system                          
     47.37468937     -4.95955144  301      5.89088411      1.00000000
     -4.960  0.0000E+00  0.0000E+00  0.0000E+00  0.0000E+00
     -4.785  0.0000E+00  0.0000E+00  0.0000E+00  0.0000E+00
     -4.611  0.0000E+00  0.0000E+00  0.0000E+00  0.0000E+00
     -4.436  0.0000E+00  0.0000E+00  0.0000E+00  0.0000E+00
     -4.262 -0.2828E-34  0.0000E+00 -0.4934E-35  0.0000E+00
     -4.087 -0.2763E-28 -0.1184E-33 -0.4821E-29 -0.2065E-34
     -3.913 -0.5817E-23 -0.9939E-28 -0.1015E-23 -0.1734E-28
     -3.738 -0.2564E-18 -0.1797E-22 -0.4473E-19 -0.3135E-23
     -3.564 -0.2431E-14 -0.6749E-18 -0.4240E-15 -0.1177E-18
     -3.390 -0.4859E-11 -0.5525E-14 -0.8480E-12 -0.9639E-15
     -3.215 -0.1987E-08 -0.9454E-11 -0.3475E-09 -0.1650E-11
     -3.041 -0.1573E-06 -0.3297E-08 -0.2779E-07 -0.5768E-09
     -2.866 -0.2067E-05 -0.2205E-06 -0.3883E-06 -0.3905E-07
     -2.692 -0.4592E-06 -0.2366E-05 -0.4684E-06 -0.4517E-06
     -2.517  0.4545E-04  0.1087E-05  0.7461E-05 -0.2620E-06
     -2.343  0.2219E-03  0.5562E-04  0.4618E-04  0.9441E-05
     -2.168  0.4760E-03  0.2431E-03  0.1292E-03  0.5185E-04
     -1.994  0.5150E-03  0.4907E-03  0.2191E-03  0.1375E-03
     -1.819  0.3363E-03  0.4993E-03  0.2777E-03  0.2246E-03
     -1.645  0.5531E-03  0.3240E-03  0.3742E-03  0.2811E-03
     -1.471  0.1218E-02  0.5660E-03  0.5867E-03  0.3798E-03
     -1.296  0.1079E-02  0.1213E-02  0.7750E-03  0.5914E-03
     -1.122  0.2995E-03  0.1062E-02  0.8272E-03  0.7765E-03
     -0.947  0.6271E-03  0.2695E-03  0.9366E-03  0.8236E-03
     -0.773  0.1451E-02  0.5511E-03  0.1190E-02  0.9197E-03
     -0.598  0.1552E-02  0.1354E-02  0.1461E-02  0.1156E-02
     -0.424  0.1224E-02  0.1482E-02  0.1674E-02  0.1414E-02
     -0.249  0.1126E-02  0.1270E-02  0.1870E-02  0.1636E-02
     -0.075  0.2031E-02  0.8516E-03  0.2225E-02  0.1785E-02
      0.099  0.1499E-02  0.1422E-02  0.2486E-02  0.2033E-02
      0.274  0.6191E-03  0.2117E-02  0.2594E-02  0.2402E-02
      0.448  0.2979E-02  0.6327E-03  0.3114E-02  0.2512E-02
      0.623  0.3440E-02  0.7172E-03  0.3714E-02  0.2637E-02
      0.797  0.2979E-02  0.2839E-02  0.4234E-02  0.3133E-02
      0.972  0.5171E-02  0.2577E-02  0.5136E-02  0.3582E-02
      1.146  0.9021E-02  0.1913E-02  0.6710E-02  0.3916E-02
      1.321  0.1163E-01  0.2225E-02  0.8738E-02  0.4304E-02
      1.495  0.1539E-01  0.1843E-02  0.1142E-01  0.4626E-02
      1.669  0.1781E-01  0.2802E-02  0.1453E-01  0.5114E-02
      1.844  0.1700E-01  0.3074E-02  0.1749E-01  0.5651E-02
      2.018  0.1266E-01  0.2907E-02  0.1970E-01  0.6158E-02
      2.193  0.1087E-01  0.6586E-02  0.2160E-01  0.7307E-02
      2.367  0.8965E-02  0.8307E-02  0.2316E-01  0.8756E-02
      2.542  0.2141E-01  0.5091E-02  0.2690E-01  0.9644E-02
      2.716  0.3048E-01  0.5393E-02  0.3222E-01  0.1058E-01
      2.891  0.2247E-01  0.1061E-01  0.3614E-01  0.1244E-01
      3.065  0.1888E-01  0.9349E-02  0.3943E-01  0.1407E-01
      3.239  0.2598E-01  0.1158E-01  0.4396E-01  0.1609E-01
      3.414  0.2869E-01  0.1451E-01  0.4897E-01  0.1862E-01
      3.588  0.2109E-01  0.7827E-02  0.5265E-01  0.1998E-01
      3.763  0.1410E-01  0.6205E-02  0.5510E-01  0.2107E-01
      3.937  0.8082E-02  0.8785E-02  0.5651E-01  0.2260E-01
      4.112  0.8379E-02  0.1511E-01  0.5798E-01  0.2523E-01
      4.286  0.8784E-02  0.2633E-01  0.5951E-01  0.2983E-01
      4.461  0.1657E-01  0.2593E-01  0.6240E-01  0.3435E-01
      4.635  0.2893E-01  0.2233E-01  0.6745E-01  0.3825E-01
      4.810  0.3838E-01  0.2178E-01  0.7414E-01  0.4205E-01
      4.984  0.4948E-01  0.2488E-01  0.8277E-01  0.4639E-01
      5.158  0.4029E-01  0.2346E-01  0.8980E-01  0.5048E-01
      5.333  0.1969E-01  0.1916E-01  0.9324E-01  0.5382E-01
      5.507  0.1680E-01  0.1259E-01  0.9617E-01  0.5602E-01
      5.682  0.1611E-01  0.6377E-02  0.9898E-01  0.5713E-01
      5.856  0.1281E-01  0.5573E-02  0.1012E+00  0.5810E-01
      6.031  0.1240E-01  0.5824E-02  0.1034E+00  0.5912E-01
      6.205  0.9238E-02  0.4202E-02  0.1050E+00  0.5985E-01
      6.380  0.7620E-02  0.6725E-02  0.1063E+00  0.6103E-01
      6.554  0.3630E-02  0.9198E-02  0.1069E+00  0.6263E-01
      6.728  0.2712E-02  0.1308E-01  0.1074E+00  0.6491E-01
      6.903  0.1842E-02  0.1598E-01  0.1077E+00  0.6770E-01
      7.077  0.2416E-02  0.1856E-01  0.1082E+00  0.7094E-01
      7.252  0.3053E-02  0.2582E-01  0.1087E+00  0.7544E-01
      7.426  0.1692E-02  0.2528E-01  0.1090E+00  0.7985E-01
      7.601  0.3014E-02  0.2680E-01  0.1095E+00  0.8453E-01
      7.775  0.2823E-02  0.4320E-01  0.1100E+00  0.9206E-01
      7.950  0.3018E-02  0.3996E-01  0.1105E+00  0.9904E-01
      8.124  0.3284E-02  0.2218E-01  0.1111E+00  0.1029E+00
      8.298  0.3541E-02  0.1303E-01  0.1117E+00  0.1052E+00
      8.473  0.3076E-02  0.6978E-02  0.1123E+00  0.1064E+00
      8.647  0.1340E-02  0.5253E-02  0.1125E+00  0.1073E+00
      8.822  0.2872E-02  0.3517E-02  0.1130E+00  0.1079E+00
      8.996  0.3067E-02  0.4647E-02  0.1135E+00  0.1087E+00
      9.171  0.2548E-02  0.4200E-02  0.1140E+00  0.1095E+00
      9.345  0.1401E-02  0.2322E-02  0.1142E+00  0.1099E+00
      9.520  0.1068E-04  0.2456E-02  0.1142E+00  0.1103E+00
      9.694  0.1436E-02  0.4722E-02  0.1145E+00  0.1111E+00
      9.868  0.3903E-02  0.4910E-02  0.1152E+00  0.1120E+00
     10.043  0.2036E-02  0.2848E-02  0.1155E+00  0.1125E+00
     10.217  0.2693E-02  0.3313E-02  0.1160E+00  0.1131E+00
     10.392  0.3606E-02  0.2442E-02  0.1166E+00  0.1135E+00
     10.566  0.2157E-02  0.2112E-02  0.1170E+00  0.1139E+00
     10.741  0.1114E-02  0.1935E-02  0.1172E+00  0.1142E+00
     10.915  0.1185E-02  0.1328E-02  0.1174E+00  0.1144E+00
     11.090  0.6077E-03  0.3569E-02  0.1175E+00  0.1150E+00
     11.264  0.1345E-02  0.2922E-02  0.1177E+00  0.1156E+00
     11.439  0.2326E-02  0.2738E-02  0.1181E+00  0.1160E+00
     11.613  0.1040E-02  0.3647E-02  0.1183E+00  0.1167E+00
     11.787  0.7156E-03  0.2341E-02  0.1184E+00  0.1171E+00
     11.962  0.1186E-03  0.9324E-03  0.1185E+00  0.1172E+00
     12.136  0.3969E-03  0.8807E-03  0.1185E+00  0.1174E+00
     12.311  0.1268E-02  0.8741E-03  0.1188E+00  0.1175E+00
     12.485  0.1391E-02  0.2360E-02  0.1190E+00  0.1180E+00
     12.660  0.2304E-02  0.1700E-02  0.1194E+00  0.1183E+00
     12.834  0.1273E-02  0.9938E-03  0.1196E+00  0.1184E+00
     13.009  0.2849E-03  0.8429E-03  0.1197E+00  0.1186E+00
     13.183  0.5402E-03  0.1268E-02  0.1198E+00  0.1188E+00
     13.357  0.1894E-02  0.1065E-02  0.1201E+00  0.1190E+00
     13.532  0.4339E-02  0.1686E-02  0.1208E+00  0.1193E+00
     13.706  0.4381E-02  0.1176E-02  0.1216E+00  0.1195E+00
     13.881  0.2027E-02  0.6695E-03  0.1220E+00  0.1196E+00
     14.055  0.3082E-02  0.6623E-03  0.1225E+00  0.1197E+00
     14.230  0.6183E-02  0.3972E-03  0.1236E+00  0.1198E+00
     14.404  0.5684E-02  0.1817E-04  0.1246E+00  0.1198E+00
     14.579  0.3978E-02  0.1700E-02  0.1253E+00  0.1201E+00
     14.753  0.2985E-02  0.6135E-02  0.1258E+00  0.1212E+00
     14.927  0.4024E-02  0.3759E-02  0.1265E+00  0.1218E+00
     15.102  0.3114E-02  0.2614E-02  0.1270E+00  0.1223E+00
     15.276  0.6562E-03  0.6871E-02  0.1271E+00  0.1235E+00
     15.451  0.1796E-02  0.7431E-02  0.1275E+00  0.1248E+00
     15.625  0.3528E-02  0.5318E-02  0.1281E+00  0.1257E+00
     15.800  0.4139E-02  0.4187E-02  0.1288E+00  0.1264E+00
     15.974  0.4859E-02  0.3647E-02  0.1296E+00  0.1271E+00
     16.149  0.4770E-02  0.6877E-03  0.1305E+00  0.1272E+00
     16.323  0.6270E-02  0.8912E-03  0.1316E+00  0.1273E+00
     16.497  0.5445E-02  0.3380E-02  0.1325E+00  0.1279E+00
     16.672  0.2441E-02  0.5839E-02  0.1329E+00  0.1289E+00
     16.846  0.5211E-03  0.5206E-02  0.1330E+00  0.1298E+00
     17.021  0.1301E-02  0.5705E-02  0.1333E+00  0.1308E+00
     17.195  0.3128E-02  0.6212E-02  0.1338E+00  0.1319E+00
     17.370  0.4612E-02  0.5363E-02  0.1346E+00  0.1329E+00
     17.544  0.3547E-02  0.1301E-02  0.1352E+00  0.1331E+00
     17.719  0.5600E-02  0.1246E-02  0.1362E+00  0.1333E+00
     17.893  0.7199E-02  0.2498E-02  0.1375E+00  0.1337E+00
     18.068  0.5715E-02  0.3973E-02  0.1385E+00  0.1344E+00
     18.242  0.2791E-02  0.3314E-02  0.1390E+00  0.1350E+00
     18.416  0.2171E-03  0.6236E-02  0.1390E+00  0.1361E+00
     18.591  0.7657E-03  0.5207E-02  0.1391E+00  0.1370E+00
     18.765  0.3179E-02  0.5619E-02  0.1397E+00  0.1380E+00
     18.940  0.4470E-02  0.5373E-02  0.1405E+00  0.1389E+00
     19.114  0.4861E-02  0.1057E-02  0.1413E+00  0.1391E+00
     19.289  0.4552E-02  0.5557E-03  0.1421E+00  0.1392E+00
     19.463  0.2316E-02  0.2768E-02  0.1425E+00  0.1397E+00
     19.638  0.3004E-02  0.5580E-02  0.1430E+00  0.1407E+00
     19.812  0.4133E-02  0.6172E-02  0.1437E+00  0.1417E+00
     19.986  0.4796E-02  0.2766E-02  0.1446E+00  0.1422E+00
     20.161  0.3547E-02  0.1586E-02  0.1452E+00  0.1425E+00
     20.335  0.4302E-02  0.2898E-02  0.1460E+00  0.1430E+00
     20.510  0.2198E-02  0.4714E-02  0.1463E+00  0.1438E+00
     20.684  0.1284E-02  0.6224E-02  0.1466E+00  0.1449E+00
     20.859  0.1914E-02  0.3892E-02  0.1469E+00  0.1456E+00
     21.033  0.4117E-02  0.2546E-02  0.1476E+00  0.1460E+00
     21.208  0.6378E-02  0.1404E-02  0.1487E+00  0.1463E+00
     21.382  0.4054E-02  0.2697E-02  0.1494E+00  0.1467E+00
     21.556  0.8874E-03  0.3722E-02  0.1496E+00  0.1474E+00
     21.731  0.2445E-02  0.5496E-02  0.1500E+00  0.1484E+00
     21.905  0.5655E-02  0.6228E-02  0.1510E+00  0.1494E+00
     22.080  0.4389E-02  0.9168E-03  0.1518E+00  0.1496E+00
     22.254  0.2278E-02  0.1440E-02  0.1522E+00  0.1499E+00
     22.429  0.2637E-02  0.3962E-02  0.1526E+00  0.1505E+00
     22.603  0.4276E-02  0.4222E-02  0.1534E+00  0.1513E+00
     22.778  0.4040E-02  0.3260E-02  0.1541E+00  0.1519E+00
     22.952  0.4243E-02  0.4202E-02  0.1548E+00  0.1526E+00
     23.126  0.4920E-02  0.3317E-02  0.1557E+00  0.1532E+00
     23.301  0.4663E-02  0.2815E-02  0.1565E+00  0.1537E+00
     23.475  0.6033E-02  0.4808E-02  0.1575E+00  0.1545E+00
     23.650  0.6087E-02  0.5588E-02  0.1586E+00  0.1555E+00
     23.824  0.4047E-02  0.6315E-02  0.1593E+00  0.1566E+00
     23.999  0.2389E-02  0.5675E-02  0.1597E+00  0.1576E+00
     24.173  0.3401E-02  0.5652E-02  0.1603E+00  0.1585E+00
     24.348  0.5873E-02  0.4671E-02  0.1613E+00  0.1594E+00
     24.522  0.7813E-02  0.4752E-02  0.1627E+00  0.1602E+00
     24.697  0.4985E-02  0.4149E-02  0.1636E+00  0.1609E+00
     24.871  0.2764E-02  0.4416E-02  0.1641E+00  0.1617E+00
     25.045  0.3366E-02  0.6600E-02  0.1646E+00  0.1628E+00
     25.220  0.5372E-02  0.4854E-02  0.1656E+00  0.1637E+00
     25.394  0.6014E-02  0.4337E-02  0.1666E+00  0.1644E+00
     25.569  0.7136E-02  0.3194E-02  0.1679E+00  0.1650E+00
     25.743  0.6716E-02  0.5103E-02  0.1690E+00  0.1659E+00
     25.918  0.2124E-02  0.5604E-02  0.1694E+00  0.1669E+00
     26.092  0.5625E-02  0.7939E-02  0.1704E+00  0.1682E+00
     26.267  0.6151E-02  0.6431E-02  0.1715E+00  0.1694E+00
     26.441  0.3411E-02  0.4480E-02  0.1721E+00  0.1702E+00
     26.615  0.4992E-02  0.5949E-02  0.1729E+00  0.1712E+00
     26.790  0.5671E-02  0.3975E-02  0.1739E+00  0.1719E+00
     26.964  0.5367E-02  0.4398E-02  0.1749E+00  0.1726E+00
     27.139  0.6180E-02  0.4431E-02  0.1759E+00  0.1734E+00
     27.313  0.4214E-02  0.4573E-02  0.1767E+00  0.1742E+00
     27.488  0.2512E-02  0.6332E-02  0.1771E+00  0.1753E+00
     27.662  0.1355E-02  0.6303E-02  0.1774E+00  0.1764E+00
     27.837  0.2483E-02  0.3809E-02  0.1778E+00  0.1771E+00
     28.011  0.2426E-02  0.8613E-03  0.1782E+00  0.1772E+00
     28.185  0.3773E-02  0.1370E-02  0.1789E+00  0.1775E+00
     28.360  0.5129E-02  0.3119E-02  0.1798E+00  0.1780E+00
     28.534  0.5444E-02  0.4675E-02  0.1807E+00  0.1788E+00
     28.709  0.3422E-02  0.5027E-02  0.1813E+00  0.1797E+00
     28.883  0.2858E-02  0.4166E-02  0.1818E+00  0.1804E+00
     29.058  0.2461E-02  0.2782E-02  0.1822E+00  0.1809E+00
     29.232  0.2113E-02  0.2280E-02  0.1826E+00  0.1813E+00
     29.407  0.1611E-02  0.4585E-02  0.1829E+00  0.1821E+00
     29.581  0.4977E-02  0.2802E-02  0.1838E+00  0.1826E+00
     29.755  0.4497E-02  0.9526E-03  0.1845E+00  0.1828E+00
     29.930  0.2272E-02  0.3856E-02  0.1849E+00  0.1835E+00
     30.104  0.1610E-02  0.6299E-02  0.1852E+00  0.1846E+00
     30.279  0.3087E-02  0.3787E-02  0.1858E+00  0.1852E+00
     30.453  0.4789E-02  0.9991E-03  0.1866E+00  0.1854E+00
     30.628  0.4027E-02  0.2097E-02  0.1873E+00  0.1858E+00
     30.802  0.7599E-02  0.3495E-02  0.1886E+00  0.1864E+00
     30.977  0.9023E-02  0.2901E-02  0.1902E+00  0.1869E+00
     31.151  0.5870E-02  0.7483E-02  0.1912E+00  0.1882E+00
     31.326  0.4510E-02  0.1308E-01  0.1920E+00  0.1905E+00
     31.500  0.5354E-02  0.9317E-02  0.1929E+00  0.1921E+00
     31.674  0.4007E-02  0.3050E-02  0.1936E+00  0.1926E+00
     31.849  0.2824E-02  0.1897E-02  0.1941E+00  0.1929E+00
     32.023  0.2587E-02  0.4097E-02  0.1946E+00  0.1937E+00
     32.198  0.4007E-02  0.2097E-02  0.1953E+00  0.1940E+00
     32.372  0.2941E-02  0.3100E-02  0.1958E+00  0.1946E+00
     32.547  0.1481E-02  0.3839E-02  0.1960E+00  0.1952E+00
     32.721  0.3228E-03  0.2949E-02  0.1961E+00  0.1957E+00
     32.896  0.4352E-04  0.1696E-02  0.1961E+00  0.1960E+00
     33.070  0.9285E-03  0.2300E-03  0.1963E+00  0.1961E+00
     33.244  0.2357E-02  0.8534E-03  0.1967E+00  0.1962E+00
     33.419  0.3212E-02  0.3999E-02  0.1972E+00  0.1969E+00
     33.593  0.1683E-02  0.2710E-02  0.1975E+00  0.1974E+00
     33.768  0.1069E-02  0.1211E-02  0.1977E+00  0.1976E+00
     33.942  0.9398E-03  0.1337E-02  0.1979E+00  0.1978E+00
     34.117  0.9182E-04  0.3670E-03  0.1979E+00  0.1979E+00
     34.291 -0.4260E-04 -0.5872E-04  0.1979E+00  0.1979E+00
     34.466 -0.4396E-04 -0.3972E-04  0.1979E+00  0.1979E+00
     34.640  0.2632E-03  0.8045E-04  0.1979E+00  0.1979E+00
     34.814  0.9077E-03  0.8195E-03  0.1981E+00  0.1981E+00
     34.989  0.2120E-03  0.5214E-03  0.1981E+00  0.1981E+00
     35.163  0.3671E-03 -0.7557E-04  0.1982E+00  0.1981E+00
     35.338  0.1806E-02  0.9233E-03  0.1985E+00  0.1983E+00
     35.512  0.7155E-03  0.1685E-02  0.1986E+00  0.1986E+00
     35.687 -0.8138E-04  0.2797E-03  0.1986E+00  0.1986E+00
     35.861 -0.1604E-04 -0.6773E-04  0.1986E+00  0.1986E+00
     36.036 -0.1226E-04 -0.1584E-04  0.1986E+00  0.1986E+00
     36.210 -0.8328E-04 -0.8179E-04  0.1986E+00  0.1986E+00
     36.384  0.5697E-03  0.4755E-03  0.1987E+00  0.1987E+00
     36.559  0.1831E-02  0.1819E-02  0.1990E+00  0.1990E+00
     36.733  0.5052E-03  0.5842E-03  0.1991E+00  0.1991E+00
     36.908 -0.5426E-04  0.2934E-03  0.1991E+00  0.1992E+00
     37.082  0.1048E-02  0.1265E-02  0.1993E+00  0.1994E+00
     37.257  0.1027E-02  0.5251E-03  0.1995E+00  0.1995E+00
     37.431  0.1736E-04 -0.4080E-04  0.1995E+00  0.1995E+00
     37.606 -0.3212E-04 -0.1366E-04  0.1995E+00  0.1995E+00
     37.780 -0.1337E-05 -0.4087E-06  0.1995E+00  0.1995E+00
     37.955 -0.3549E-07 -0.1885E-07  0.1995E+00  0.1995E+00
     38.129 -0.2157E-05 -0.1578E-05  0.1995E+00  0.1995E+00
     38.303 -0.2482E-04 -0.2233E-04  0.1995E+00  0.1995E+00
     38.478  0.1059E-03  0.7342E-04  0.1995E+00  0.1995E+00
     38.652  0.5916E-03  0.5681E-03  0.1996E+00  0.1996E+00
     38.827  0.2785E-03  0.3286E-03  0.1996E+00  0.1996E+00
     39.001 -0.2519E-04 -0.2067E-04  0.1996E+00  0.1996E+00
     39.176 -0.7521E-05 -0.1369E-04  0.1996E+00  0.1996E+00
     39.350 -0.2324E-04 -0.4162E-04  0.1996E+00  0.1996E+00
     39.525  0.2132E-04  0.2627E-03  0.1996E+00  0.1997E+00
     39.699  0.7150E-03  0.9160E-03  0.1997E+00  0.1998E+00
     39.873  0.6776E-03  0.2919E-03  0.1999E+00  0.1999E+00
     40.048  0.7705E-05 -0.4166E-04  0.1999E+00  0.1999E+00
     40.222 -0.2089E-04 -0.6214E-05  0.1999E+00  0.1999E+00
     40.397 -0.1176E-05 -0.3614E-05  0.1999E+00  0.1999E+00
     40.571 -0.9350E-05 -0.2073E-04  0.1999E+00  0.1999E+00
     40.746 -0.2206E-05  0.1627E-03  0.1999E+00  0.1999E+00
     40.920  0.3182E-03  0.4563E-03  0.1999E+00  0.2000E+00
     41.095  0.3760E-03  0.1160E-03  0.2000E+00  0.2000E+00
     41.269  0.1891E-04 -0.2034E-04  0.2000E+00  0.2000E+00
     41.443 -0.1274E-04 -0.2366E-05  0.2000E+00  0.2000E+00
     41.618 -0.6245E-06 -0.3487E-07  0.2000E+00  0.2000E+00
     41.792 -0.4925E-08 -0.9651E-10  0.2000E+00  0.2000E+00
     41.967 -0.7593E-11 -0.5433E-13  0.2000E+00  0.2000E+00
     42.141 -0.2413E-14 -0.6415E-17  0.2000E+00  0.2000E+00
     42.316 -0.1527E-18  0.0000E+00  0.2000E+00  0.2000E+00
     42.490  0.0000E+00  0.0000E+00  0.2000E+00  0.2000E+00
     42.665  0.0000E+00  0.0000E+00  0.2000E+00  0.2000E+00
     42.839  0.0000E+00  0.0000E+00  0.2000E+00  0.2000E+00
     43.014  0.0000E+00 -0.2048E-36  0.2000E+00  0.2000E+00
     43.188  0.0000E+00 -0.3575E-30  0.2000E+00  0.2000E+00
     43.362 -0.2833E-32 -0.1346E-24  0.2000E+00  0.2000E+00
     43.537 -0.1822E-26 -0.1089E-19  0.2000E+00  0.2000E+00
     43.711 -0.2521E-21 -0.1819E-15  0.2000E+00  0.2000E+00
     43.886 -0.7237E-17 -0.6579E-12  0.2000E+00  0.2000E+00
     44.060 -0.4513E-13 -0.4919E-09  0.2000E+00  0.2000E+00
     44.235 -0.5867E-10 -0.7244E-07  0.2000E+00  0.2000E+00
     44.409 -0.1536E-07 -0.1775E-05  0.2000E+00  0.2000E+00
     44.584 -0.7318E-06  0.8436E-06  0.2000E+00  0.2000E+00
     44.758 -0.3295E-05  0.5707E-04  0.2000E+00  0.2000E+00
     44.932  0.3224E-04  0.5901E-04  0.2000E+00  0.2000E+00
     45.107  0.7485E-04  0.1549E-05  0.2000E+00  0.2000E+00
     45.281  0.1512E-04 -0.1889E-05  0.2000E+00  0.2000E+00
     45.456 -0.3213E-05 -0.8191E-07  0.2000E+00  0.2000E+00
     45.630 -0.3061E-06 -0.5847E-09  0.2000E+00  0.2000E+00
     45.805 -0.3959E-08 -0.8202E-12  0.2000E+00  0.2000E+00
     45.979 -0.9712E-11 -0.2376E-15  0.2000E+00  0.2000E+00
     46.154 -0.4861E-14 -0.2546E-19  0.2000E+00  0.2000E+00
     46.328 -0.5091E-18  0.0000E+00  0.2000E+00  0.2000E+00
     46.502  0.0000E+00  0.0000E+00  0.2000E+00  0.2000E+00
     46.677  0.0000E+00  0.0000E+00  0.2000E+00  0.2000E+00
     46.851  0.0000E+00  0.0000E+00  0.2000E+00  0.2000E+00
     47.026  0.0000E+00  0.0000E+00  0.2000E+00  0.2000E+00
     47.200  0.0000E+00  0.0000E+00  0.2000E+00  0.2000E+00
     47.375  0.0000E+00  0.0000E+00  0.2000E+00  0.2000E+00
     47.37468937     -4.95955144  301      5.89088411      1.00000000
     -4.960  0.0000E+00  0.0000E+00  0.0000E+00  0.0000E+00  0.0000E+00  0.0000E+00  0.0000E+00  0.0000E+00  0.0000E+00  0.0000E+00  0.0000E+00  0.0000E+00  0.0000E+00  0.0000E+00  0.0000E+00  0.0000E+00  0.0000E+00  0.0000E+00
     -4.785  0.0000E+00  0.0000E+00  0.0000E+00  0.0000E+00  0.0000E+00  0.0000E+00  0.0000E+00  0.0000E+00  0.0000E+00  0.0000E+00  0.0000E+00  0.0000E+00  0.0000E+00  0.0000E+00  0.0000E+00  0.0000E+00  0.0000E+00  0.0000E+00
     -4.611  0.0000E+00  0.0000E+00  0.0000E+00  0.0000E+00  0.0000E+00  0.0000E+00  0.0000E+00  0.0000E+00  0.0000E+00  0.0000E+00  0.0000E+00  0.0000E+00  0.0000E+00  0.0000E+00  0.0000E+00  0.0000E+00  0.0000E+00  0.0000E+00
     -4.436  0.0000E+00  0.0000E+00  0.0000E+00  0.0000E+00  0.0000E+00  0.0000E+00  0.0000E+00  0.0000E+00  0.0000E+00  0.0000E+00  0.0000E+00  0.0000E+00  0.0000E+00  0.0000E+00  0.0000E+00  0.0000E+00  0.0000E+00  0.0000E+00
     -4.262 -0.1041E-32  0.0000E+00 -0.5146E-63  0.0000E+00 -0.5146E-63  0.0000E+00 -0.5146E-63  0.0000E+00 -0.9955E-46  0.0000E+00 -0.9955E-46  0.0000E+00 -0.1068E-48  0.0000E+00 -0.9955E-46  0.0000E+00 -0.1068E-48  0.0000E+00
     -4.087 -0.1017E-26 -0.4357E-32 -0.2498E-35  0.0000E+00 -0.2498E-35  0.0000E+00 -0.2498E-35  0.0000E+00 -0.9727E-40 -0.1959E-44 -0.9727E-40 -0.1959E-44 -0.6364E-37 -0.5408E-45 -0.9727E-40 -0.1959E-44 -0.6364E-37 -0.5408E-45
     -3.913 -0.2141E-21 -0.3658E-26 -0.3276E-29 -0.9912E-35 -0.3276E-29 -0.9912E-35 -0.3276E-29 -0.9912E-35 -0.2050E-34 -0.1645E-38 -0.2050E-34 -0.1645E-38 -0.8346E-31 -0.1768E-36 -0.2050E-34 -0.1645E-38 -0.8346E-31 -0.1768E-36
     -3.738 -0.9439E-17 -0.6615E-21 -0.9261E-24 -0.1127E-28 -0.9261E-24 -0.1127E-28 -0.9261E-24 -0.1127E-28 -0.9496E-30 -0.2974E-33 -0.9496E-30 -0.2974E-33 -0.2360E-25 -0.2006E-30 -0.9496E-30 -0.2974E-33 -0.2360E-25 -0.2006E-30
     -3.564 -0.8948E-13 -0.2484E-16 -0.5624E-19 -0.2763E-23 -0.5624E-19 -0.2763E-23 -0.5624E-19 -0.2763E-23 -0.2584E-25 -0.1127E-28 -0.2584E-25 -0.1127E-28 -0.1433E-20 -0.4915E-25 -0.2584E-25 -0.1127E-28 -0.1433E-20 -0.4915E-25
     -3.390 -0.1789E-09 -0.2033E-12 -0.7020E-15 -0.1406E-18 -0.7020E-15 -0.1406E-18 -0.7020E-15 -0.1406E-18 -0.1383E-20 -0.1246E-24 -0.1383E-20 -0.1246E-24 -0.1789E-16 -0.2502E-20 -0.1383E-20 -0.1246E-24 -0.1789E-16 -0.2502E-20
     -3.215 -0.7314E-07 -0.3479E-09 -0.1896E-11 -0.1570E-14 -0.1896E-11 -0.1570E-14 -0.1896E-11 -0.1570E-14 -0.2226E-16 -0.2462E-20 -0.2226E-16 -0.2462E-20 -0.4831E-13 -0.2792E-16 -0.2226E-16 -0.2462E-20 -0.4831E-13 -0.2792E-16
     -3.041 -0.5788E-05 -0.1213E-06 -0.1054E-08 -0.3665E-11 -0.1054E-08 -0.3665E-11 -0.1054E-08 -0.3665E-11 -0.7855E-13 -0.3302E-16 -0.7855E-13 -0.3302E-16 -0.2684E-10 -0.6519E-13 -0.7855E-13 -0.3302E-16 -0.2684E-10 -0.6519E-13
     -2.866 -0.7574E-04 -0.8111E-05 -0.1147E-06 -0.1755E-08 -0.1147E-06 -0.1755E-08 -0.1147E-06 -0.1755E-08 -0.5732E-10 -0.1021E-12 -0.5732E-10 -0.1021E-12 -0.2906E-08 -0.3120E-10 -0.5732E-10 -0.1021E-12 -0.2906E-08 -0.3120E-10
     -2.692 -0.1062E-04 -0.8657E-04 -0.2097E-05 -0.1632E-06 -0.2097E-05 -0.1632E-06 -0.2097E-05 -0.1632E-06 -0.8258E-08 -0.6516E-10 -0.8258E-08 -0.6516E-10 -0.5095E-07 -0.2884E-08 -0.8258E-08 -0.6516E-10 -0.5095E-07 -0.2884E-08
     -2.517  0.1676E-02  0.4746E-04 -0.6873E-06 -0.2469E-05 -0.6873E-06 -0.2469E-05 -0.6873E-06 -0.2469E-05 -0.2030E-06 -0.8160E-08 -0.2030E-06 -0.8160E-08  0.4389E-07 -0.4137E-07 -0.2030E-06 -0.8160E-08  0.4389E-07 -0.4137E-07
     -2.343  0.8021E-02  0.2044E-02  0.5025E-04  0.1147E-05  0.5025E-04  0.1147E-05  0.5025E-04  0.1147E-05 -0.1277E-06 -0.1697E-06 -0.1277E-06 -0.1697E-06  0.1330E-05  0.7393E-07 -0.1277E-06 -0.1697E-06  0.1330E-05  0.7393E-07
     -2.168  0.1693E-01  0.8768E-02  0.1957E-03  0.5930E-04  0.1957E-03  0.5930E-04  0.1957E-03  0.5930E-04  0.5844E-05  0.4303E-07  0.5844E-05  0.4303E-07  0.3008E-05  0.1048E-05  0.5844E-05  0.4303E-07  0.3008E-05  0.1048E-05
     -1.994  0.1808E-01  0.1742E-01  0.2844E-03  0.2099E-03  0.2844E-03  0.2099E-03  0.2844E-03  0.2099E-03  0.1488E-04  0.4657E-05  0.1488E-04  0.4657E-05  0.6260E-06  0.2090E-05  0.1488E-04  0.4657E-05  0.6260E-06  0.2090E-05
     -1.819  0.1162E-01  0.1750E-01  0.2453E-03  0.2845E-03  0.2453E-03  0.2845E-03  0.2453E-03  0.2845E-03  0.9047E-05  0.1080E-04  0.9047E-05  0.1080E-04  0.7939E-05  0.3196E-06  0.9047E-05  0.1080E-04  0.7939E-05  0.3196E-06
     -1.645  0.1849E-01  0.1117E-01  0.5841E-03  0.2434E-03  0.5841E-03  0.2434E-03  0.5841E-03  0.2434E-03  0.2374E-04  0.5940E-05  0.2374E-04  0.5940E-05  0.5679E-04  0.6341E-05  0.2374E-04  0.5940E-05  0.5679E-04  0.6341E-05
     -1.471  0.4006E-01  0.1891E-01  0.1458E-02  0.6092E-03  0.1458E-02  0.6092E-03  0.1458E-02  0.6092E-03  0.1202E-03  0.1697E-04  0.1202E-03  0.1697E-04  0.1126E-03  0.3885E-04  0.1202E-03  0.1697E-04  0.1126E-03  0.3885E-04
     -1.296  0.3506E-01  0.3990E-01  0.1412E-02  0.1475E-02  0.1412E-02  0.1475E-02  0.1412E-02  0.1475E-02  0.1572E-03  0.8165E-04  0.1572E-03  0.8165E-04  0.7859E-04  0.7283E-04  0.1572E-03  0.8165E-04  0.7859E-04  0.7283E-04
     -1.122  0.9566E-02  0.3450E-01  0.4235E-03  0.1415E-02  0.4235E-03  0.1415E-02  0.4235E-03  0.1415E-02  0.7000E-04  0.1067E-03  0.7000E-04  0.1067E-03  0.2430E-04  0.4993E-04  0.7000E-04  0.1067E-03  0.2430E-04  0.4993E-04
     -0.947  0.1905E-01  0.8649E-02  0.1099E-02  0.3859E-03  0.1099E-02  0.3859E-03  0.1099E-02  0.3859E-03  0.2588E-03  0.3911E-04  0.2588E-03  0.3911E-04  0.9966E-04  0.1276E-04  0.2588E-03  0.3911E-04  0.9966E-04  0.1276E-04
     -0.773  0.4339E-01  0.1687E-01  0.2750E-02  0.9937E-03  0.2750E-02  0.9937E-03  0.2750E-02  0.9937E-03  0.5192E-03  0.1459E-03  0.5192E-03  0.1459E-03  0.3804E-03  0.5109E-04  0.5192E-03  0.1459E-03  0.3804E-03  0.5109E-04
     -0.598  0.4518E-01  0.4088E-01  0.3210E-02  0.2619E-02  0.3210E-02  0.2619E-02  0.3210E-02  0.2619E-02  0.4464E-03  0.3254E-03  0.4464E-03  0.3254E-03  0.8062E-03  0.1913E-03  0.4464E-03  0.3254E-03  0.8062E-03  0.1913E-03
     -0.424  0.3473E-01  0.4378E-01  0.2708E-02  0.3118E-02  0.2708E-02  0.3118E-02  0.2708E-02  0.3118E-02  0.4629E-03  0.2729E-03  0.4629E-03  0.2729E-03  0.7051E-03  0.4422E-03  0.4629E-03  0.2729E-03  0.7051E-03  0.4422E-03
     -0.249  0.3044E-01  0.3660E-01  0.2573E-02  0.2886E-02  0.2573E-02  0.2886E-02  0.2573E-02  0.2886E-02  0.9962E-03  0.2759E-03  0.9962E-03  0.2759E-03  0.5979E-03  0.4614E-03  0.9962E-03  0.2759E-03  0.5979E-03  0.4614E-03
     -0.075  0.5257E-01  0.2400E-01  0.4809E-02  0.2032E-02  0.4809E-02  0.2032E-02  0.4809E-02  0.2032E-02  0.2402E-02  0.3567E-03  0.2402E-02  0.3567E-03  0.1305E-02  0.2189E-03  0.2402E-02  0.3567E-03  0.1305E-02  0.2189E-03
      0.099  0.3864E-01  0.3835E-01  0.3622E-02  0.3608E-02  0.3622E-02  0.3608E-02  0.3622E-02  0.3608E-02  0.1819E-02  0.9569E-03  0.1819E-02  0.9569E-03  0.8608E-03  0.4978E-03  0.1819E-02  0.9569E-03  0.8608E-03  0.4978E-03
      0.274  0.1421E-01  0.5615E-01  0.1677E-02  0.5575E-02  0.1677E-02  0.5575E-02  0.1677E-02  0.5575E-02  0.6810E-03  0.1559E-02  0.6810E-03  0.1559E-02  0.1171E-02  0.7313E-03  0.6810E-03  0.1559E-02  0.1171E-02  0.7313E-03
      0.448  0.6604E-01  0.1688E-01  0.8193E-02  0.1672E-02  0.8193E-02  0.1672E-02  0.8193E-02  0.1672E-02  0.4470E-02  0.4293E-03  0.4470E-02  0.4293E-03  0.5126E-02  0.2050E-03  0.4470E-02  0.4293E-03  0.5126E-02  0.2050E-03
      0.623  0.7359E-01  0.1715E-01  0.9271E-02  0.2324E-02  0.9271E-02  0.2324E-02  0.9271E-02  0.2324E-02  0.6268E-02  0.3629E-03  0.6268E-02  0.3629E-03  0.6292E-02  0.7843E-03  0.6268E-02  0.3629E-03  0.6292E-02  0.7843E-03
      0.797  0.5470E-01  0.6741E-01  0.6980E-02  0.8864E-02  0.6980E-02  0.8864E-02  0.6980E-02  0.8864E-02  0.9022E-02  0.2413E-02  0.9022E-02  0.2413E-02  0.7623E-02  0.2613E-02  0.9022E-02  0.2413E-02  0.7623E-02  0.2613E-02
      0.972  0.6922E-01  0.5941E-01  0.7558E-02  0.7916E-02  0.7558E-02  0.7916E-02  0.7558E-02  0.7916E-02  0.2685E-01  0.2952E-02  0.2685E-01  0.2952E-02  0.2098E-01  0.2574E-02  0.2685E-01  0.2952E-02  0.2098E-01  0.2574E-02
      1.146  0.8526E-01  0.4144E-01  0.9082E-02  0.5917E-02  0.9082E-02  0.5917E-02  0.9082E-02  0.5917E-02  0.4935E-01  0.2830E-02  0.4935E-01  0.2830E-02  0.6163E-01  0.2496E-02  0.4935E-01  0.2830E-02  0.6163E-01  0.2496E-02
      1.321  0.8969E-01  0.4679E-01  0.1377E-01  0.7253E-02  0.1377E-01  0.7253E-02  0.1377E-01  0.7253E-02  0.4955E-01  0.3431E-02  0.4955E-01  0.3431E-02  0.1078E+00  0.2863E-02  0.4955E-01  0.3431E-02  0.1078E+00  0.2863E-02
      1.495  0.9635E-01  0.3699E-01  0.1827E-01  0.5845E-02  0.1827E-01  0.5845E-02  0.1827E-01  0.5845E-02  0.6525E-01  0.4181E-02  0.6525E-01  0.4181E-02  0.1572E+00  0.1830E-02  0.6525E-01  0.4181E-02  0.1572E+00  0.1830E-02
      1.669  0.7715E-01  0.5077E-01  0.1899E-01  0.7983E-02  0.1899E-01  0.7983E-02  0.1899E-01  0.7983E-02  0.7452E-01  0.8668E-02  0.7452E-01  0.8668E-02  0.2083E+00  0.4353E-02  0.7452E-01  0.8668E-02  0.2083E+00  0.4353E-02
      1.844  0.5402E-01  0.5318E-01  0.1964E-01  0.9252E-02  0.1964E-01  0.9252E-02  0.1964E-01  0.9252E-02  0.5352E-01  0.8228E-02  0.5352E-01  0.8228E-02  0.2335E+00  0.7115E-02  0.5352E-01  0.8228E-02  0.2335E+00  0.7115E-02
      2.018  0.3620E-01  0.4493E-01  0.1337E-01  0.9274E-02  0.1337E-01  0.9274E-02  0.1337E-01  0.9274E-02  0.7663E-01  0.6550E-02  0.7663E-01  0.6550E-02  0.1274E+00  0.1056E-01  0.7663E-01  0.6550E-02  0.1274E+00  0.1056E-01
      2.193  0.2500E-01  0.9041E-01  0.1200E-01  0.1704E-01  0.1200E-01  0.1704E-01  0.1200E-01  0.1704E-01  0.7094E-01  0.2642E-01  0.7094E-01  0.2642E-01  0.1055E+00  0.2166E-01  0.7094E-01  0.2642E-01  0.1055E+00  0.2166E-01
      2.367  0.4859E-02  0.9883E-01  0.7715E-02  0.1570E-01  0.7715E-02  0.1570E-01  0.7715E-02  0.1570E-01  0.5445E-01  0.4363E-01  0.5445E-01  0.4363E-01  0.1067E+00  0.3222E-01  0.5445E-01  0.4363E-01  0.1067E+00  0.3222E-01
      2.542  0.1949E-02  0.5161E-01  0.1670E-01  0.6859E-02  0.1670E-01  0.6859E-02  0.1670E-01  0.6859E-02  0.2424E+00  0.3263E-01  0.2424E+00  0.3263E-01  0.1068E+00  0.2173E-01  0.2424E+00  0.3263E-01  0.1068E+00  0.2173E-01
      2.716  0.3872E-02  0.4831E-01  0.2389E-01  0.9903E-02  0.2389E-01  0.9903E-02  0.2389E-01  0.9903E-02  0.3335E+00  0.3366E-01  0.3335E+00  0.3366E-01  0.1690E+00  0.2344E-01  0.3335E+00  0.3366E-01  0.1690E+00  0.2344E-01
      2.891  0.7456E-02  0.8148E-01  0.1502E-01  0.2078E-01  0.1502E-01  0.2078E-01  0.1502E-01  0.2078E-01  0.2480E+00  0.5543E-01  0.2480E+00  0.5543E-01  0.1246E+00  0.6664E-01  0.2480E+00  0.5543E-01  0.1246E+00  0.6664E-01
      3.065  0.9755E-02  0.5155E-01  0.1797E-01  0.1617E-01  0.1797E-01  0.1617E-01  0.1797E-01  0.1617E-01  0.2188E+00  0.3396E-01  0.2188E+00  0.3396E-01  0.7888E-01  0.9471E-01  0.2188E+00  0.3396E-01  0.7888E-01  0.9471E-01
      3.239  0.1740E-01  0.4128E-01  0.3345E-01  0.1832E-01  0.3345E-01  0.1832E-01  0.3345E-01  0.1832E-01  0.2731E+00  0.4397E-01  0.2731E+00  0.4397E-01  0.1313E+00  0.1313E+00  0.2731E+00  0.4397E-01  0.1313E+00  0.1313E+00
      3.414  0.1688E-01  0.4511E-01  0.3294E-01  0.2119E-01  0.3294E-01  0.2119E-01  0.3294E-01  0.2119E-01  0.3171E+00  0.6596E-01  0.3171E+00  0.6596E-01  0.1332E+00  0.1570E+00  0.3171E+00  0.6596E-01  0.1332E+00  0.1570E+00
      3.588  0.1341E-01  0.1712E-01  0.2212E-01  0.9894E-02  0.2212E-01  0.9894E-02  0.2212E-01  0.9894E-02  0.2501E+00  0.3963E-01  0.2501E+00  0.3963E-01  0.7851E-01  0.8633E-01  0.2501E+00  0.3963E-01  0.7851E-01  0.8633E-01
      3.763  0.1624E-01  0.8007E-02  0.2217E-01  0.8270E-02  0.2217E-01  0.8270E-02  0.2217E-01  0.8270E-02  0.1413E+00  0.2842E-01  0.1413E+00  0.2842E-01  0.7124E-01  0.7526E-01  0.1413E+00  0.2842E-01  0.7124E-01  0.7526E-01