       N       E                     dE             d eps       ncg     rms          rms(c)
DAV:   1     0.633244318677E+02    0.63324E+02   -0.61370E+03  5012   0.822E+02
DAV:   2    -0.134292905124E+02   -0.76754E+02   -0.67946E+02  4564   0.167E+02
DAV:   3    -0.160651840371E+02   -0.26359E+01   -0.25807E+01  5052   0.398E+01
DAV:   4    -0.160846929512E+02   -0.19509E-01   -0.19505E-01  4876   0.320E+00
DAV:   5    -0.160849401811E+02   -0.24723E-03   -0.24723E-03  5012   0.345E-01    0.196E+01
DAV:   6    -0.165736947318E+02   -0.48875E+00   -0.51601E+00  4944   0.439E+01    0.624E+00
DAV:   7    -0.165116414701E+02    0.62053E-01   -0.37233E-01  5288   0.952E+00    0.439E+00
DAV:   8    -0.164947050545E+02    0.16936E-01   -0.10138E-02  5732   0.100E+00    0.163E+00
DAV:   9    -0.164833902724E+02    0.11315E-01   -0.29022E-03  6652   0.952E-01    0.424E-01
DAV:  10    -0.164830409392E+02    0.34933E-03   -0.15395E-03  5352   0.620E-01    0.596E-02
DAV:  11    -0.164830639142E+02   -0.22975E-04   -0.63178E-05  5280   0.646E-02    0.464E-02
DAV:  12    -0.164830564855E+02    0.74287E-05   -0.32803E-06  4628   0.141E-02    0.186E-02
DAV:  13    -0.164830566118E+02   -0.12633E-06   -0.18389E-06  4420   0.116E-02
   1 F= -.16483057E+02 E0= -.16483217E+02  d E =-.164831E+02  mag=     4.4796
       N       E                     dE             d eps       ncg     rms          rms(c)
DAV:   1    -0.172135478331E+02   -0.73049E+00   -0.67768E+00  4916   0.432E+01    0.825E+00
DAV:   2    -0.165360788584E+02    0.67747E+00   -0.12932E+00  4888   0.252E+01    0.670E+00
DAV:   3    -0.165022740110E+02    0.33805E-01   -0.91579E-02  5260   0.550E+00    0.232E+00
DAV:   4    -0.164948647320E+02    0.74093E-02   -0.51609E-03  5580   0.815E-01    0.543E-01
DAV:   5    -0.164890556110E+02    0.58091E-02   -0.35325E-03  5472   0.483E-01    0.907E-02
DAV:   6    -0.164891661678E+02   -0.11056E-03   -0.32706E-04  5008   0.198E-01    0.499E-02
DAV:   7    -0.164891721048E+02   -0.59371E-05   -0.15031E-05  4628   0.389E-02    0.242E-02
DAV:   8    -0.164891676174E+02    0.44874E-05   -0.13417E-06  3844   0.167E-02    0.706E-03
DAV:   9    -0.164891672862E+02    0.33123E-06   -0.15297E-07  2304   0.507E-03
   2 F= -.16489167E+02 E0= -.16488933E+02  d E =-.611067E-02  mag=     4.2222
       N       E                     dE             d eps       ncg     rms          rms(c)
DAV:   1    -0.166452494803E+02   -0.15608E+00   -0.13392E+00  4872   0.200E+01    0.380E+00
DAV:   2    -0.165160227512E+02    0.12923E+00   -0.34423E-01  4912   0.119E+01    0.343E+00
DAV:   3    -0.165036533807E+02    0.12369E-01   -0.23824E-02  5284   0.300E+00    0.101E+00
DAV:   4    -0.165020956510E+02    0.15577E-02   -0.17328E-03  5844   0.524E-01    0.281E-01
DAV:   5    -0.165009003550E+02    0.11953E-02   -0.10508E-03  5088   0.290E-01    0.478E-02
DAV:   6    -0.165009223484E+02   -0.21993E-04   -0.35756E-05  4732   0.563E-02    0.214E-02
DAV:   7    -0.165009267592E+02   -0.44108E-05   -0.19672E-06  4452   0.142E-02    0.116E-02
DAV:   8    -0.165009289235E+02   -0.21643E-05   -0.32463E-07  2308   0.763E-03    0.335E-03
DAV:   9    -0.165009290138E+02   -0.90286E-07   -0.82568E-08  2240   0.271E-03
   3 F= -.16500929E+02 E0= -.16500011E+02  d E =-.178724E-01  mag=     4.3355
