 vasp.6.2.0 18Jan21 (build Aug 12 2022 13:00:08) complex                        
  
 executed on             LinuxIFC date 2024.11.04  04:59:03
 running on    4 total cores
 distrk:  each k-point on    4 cores,    1 groups
 distr:  one band on NCORE=   1 cores,    4 groups


--------------------------------------------------------------------------------------------------------


 INCAR:
   ISTART = 0            (Read existing wavefunction, if there)
   ISPIN = 2            (Non-Spin polarised DFT)
   MAGMOM = 5 5          (Set this parameters manually)
   GGA_COMPAT = .FALSE.   (Apply spherical cutoff on gradient field)
   VOSKOWN = 1        (Enhances the magnetic moments and the magnetic energies)
   LMAXMIX = 4        (For d elements increase LMAXMIX to 4, f: LMAXMIX \= 6)
   LREAL = .FALSE.       (Projection operators: automatic)
   ENCUT = 350          (Cut-off energy for plane wave basis set, in eV)
   LORBIT = 11           (Write orbital decomposed charge densities and magnetic moments)
   ADDGRID = .TRUE.        (Increase grid, helps GGA convergence)
   LASPH = .TRUE.        (Give more accurate total energies and band structure calculations)
   PREC = Accurate      (Accurate strictly avoids any aliasing or wrap around errors)
   KSPACING = 0.24
   ISMEAR = 1            (Gaussian smearing, metals:1)
   SIGMA = 0.2          (Smearing value in eV, metals:0.2)
   NELM = 90           (Max electronic SCF steps)
   NELMIN = 6            (Min electronic SCF steps)
   EDIFF = 1E-06        (SCF energy convergence, in eV)
   NSW = 100          (Max ionic steps)
   IBRION = 2            (Algorithm: 0-MD, 1-Quasi-New, 2-CG)
   ISIF = 3            (Stress/relaxation: 2-Ions, 3-Shape/Ions/V, 4-Shape/Ions)
   EDIFFG = -2E-03        (Ionic convergence, eV/AA)
   ISYM = 2              (Symmetry: 0\=none, 2\=GGA, 3\=hybrids)

 POTCAR:    PAW_PBE Fe 06Sep2000                  
 POTCAR:    PAW_PBE Fe 06Sep2000                  
   VRHFIN =Fe:  d7 s1                                                                               
   LEXCH  = PE                                                                                      
   EATOM  =   594.3153 eV,   43.6809 Ry                                                             
                                                                                                    
   TITEL  = PAW_PBE Fe 06Sep2000                                                                    
   LULTRA =        F    use ultrasoft PP ?                                                          
   IUNSCR =        1    unscreen: 0-lin 1-nonlin 2-no                                               
   RPACOR =    2.000    partial core radius                                                         
   POMASS =   55.847; ZVAL   =    8.000    mass and valenz                                          
   RCORE  =    2.300    outmost cutoff radius                                                       
   RWIGS  =    2.460; RWIGS  =    1.302    wigner-seitz radius (au A)                               
   ENMAX  =  267.882; ENMIN  =  200.911 eV                                                          
   RCLOC  =    1.701    cutoff for local pot                                                        
   LCOR   =        T    correct aug charges                                                         
   LPAW   =        T    paw PP                                                                      
   EAUG   =  511.368                                                                                
   DEXC   =    0.000                                                                                
   RMAX   =    2.356    core radius for proj-oper                                                   
   RAUG   =    1.300    factor for augmentation sphere                                              
   RDEP   =    2.442    radius for radial grids                                                     
   RDEPT  =    1.890    core radius for aug-charge                                                  
                                                                                                    
   Atomic configuration                                                                             
    9 entries                                                                                       
     n  l   j            E        occ.                                                              
     1  0  0.50     -6993.8440   2.0000                                                             
     2  0  0.50      -814.6047   2.0000                                                             
     2  1  1.50      -693.3689   6.0000                                                             
     3  0  0.50       -89.4732   2.0000                                                             
     3  1  1.50       -55.6373   6.0000                                                             
     3  2  2.50        -3.8151   7.0000                                                             
     4  0  0.50        -4.2551   1.0000                                                             
     4  1  1.50        -3.4015   0.0000                                                             
     4  3  2.50        -1.3606   0.0000                                                             
   Description                                                                                      
     l       E           TYP  RCUT    TYP  RCUT                                                     
     2     -3.8151135     23  2.300                                                                 
     2     -5.1756961     23  2.300                                                                 
     0     -4.2550963     23  2.300                                                                 
     0      7.2035603     23  2.300                                                                 
     1     -2.7211652     23  2.300                                                                 
     1     18.4316424     23  2.300                                                                 
  local pseudopotential read in
  partial core-charges read in
  partial kinetic energy density read in
  atomic valenz-charges read in
  non local Contribution for L=           2  read in
    real space projection operators read in
  non local Contribution for L=           2  read in
    real space projection operators read in
  non local Contribution for L=           0  read in
    real space projection operators read in
  non local Contribution for L=           0  read in
    real space projection operators read in
  non local Contribution for L=           1  read in
    real space projection operators read in
  non local Contribution for L=           1  read in
    real space projection operators read in
    PAW grid and wavefunctions read in
 
   number of l-projection  operators is LMAX  =           6
   number of lm-projection operators is LMMAX =          18
 
  PAW_PBE Fe 06Sep2000                  :
 energy of atom  1       EATOM= -594.3153
 kinetic energy error for atom=    0.0205 (will be added to EATOM!!)
 
 
 POSCAR: Fe2
  positions in direct lattice
  No initial velocities read in
 exchange correlation table for  LEXCH =        8
   RHO(1)=    0.500       N(1)  =     2000
   RHO(2)=  100.500       N(2)  =     4000
 


--------------------------------------------------------------------------------------------------------


 ion  position               nearest neighbor table
   1  0.000  0.000  0.000-   2 2.48   2 2.48   2 2.48   2 2.48   2 2.48   2 2.48   2 2.48   2 2.48

   2  0.500  0.500  0.500-   1 2.48   1 2.48   1 2.48   1 2.48   1 2.48   1 2.48   1 2.48   1 2.48

 
  LATTYP: Found a simple cubic cell.
 ALAT       =     2.8630354989
  
  Lattice vectors:
  
 A1 = (   2.8630354989,   0.0000000000,   0.0000000000)
 A2 = (   0.0000000000,   2.8630354989,   0.0000000000)
 A3 = (   0.0000000000,   0.0000000000,   2.8630354989)


Analysis of symmetry for initial positions (statically):
=====================================================================
 Subroutine PRICEL returns following result:
 
  LATTYP: Found a body centered cubic cell.
 ALAT       =     2.8630354989
  
  Lattice vectors:
  
 A1 = (   1.4315177495,   1.4315177495,  -1.4315177495)
 A2 = (  -1.4315177495,   1.4315177495,   1.4315177495)
 A3 = (   1.4315177495,  -1.4315177495,   1.4315177495)
 
   2 primitive cells build up your supercell.
 

 Routine SETGRP: Setting up the symmetry group for a 
 simple cubic supercell.


 Subroutine GETGRP returns: Found 48 space group operations
 (whereof 48 operations were pure point group operations)
 out of a pool of 48 trial point group operations.


The static configuration has the point symmetry O_h .


Analysis of symmetry for dynamics (positions and initial velocities):
=====================================================================
 Subroutine PRICEL returns following result:
 
  LATTYP: Found a body centered cubic cell.
 ALAT       =     2.8630354989
  
  Lattice vectors:
  
 A1 = (   1.4315177495,   1.4315177495,  -1.4315177495)
 A2 = (  -1.4315177495,   1.4315177495,   1.4315177495)
 A3 = (   1.4315177495,  -1.4315177495,   1.4315177495)
 
   2 primitive cells build up your supercell.
 

 Routine SETGRP: Setting up the symmetry group for a 
 simple cubic supercell.


 Subroutine GETGRP returns: Found 48 space group operations
 (whereof 48 operations were pure point group operations)
 out of a pool of 48 trial point group operations.


The dynamic configuration has the point symmetry O_h .


Analysis of structural, dynamic, and magnetic symmetry:
=====================================================================
 Subroutine PRICEL returns following result:
 
  LATTYP: Found a body centered cubic cell.
 ALAT       =     2.8630354989
  
  Lattice vectors:
  
 A1 = (   1.4315177495,   1.4315177495,  -1.4315177495)
 A2 = (  -1.4315177495,   1.4315177495,   1.4315177495)
 A3 = (   1.4315177495,  -1.4315177495,   1.4315177495)
 
   2 primitive cells build up your supercell.
 

 Routine SETGRP: Setting up the symmetry group for a 
 simple cubic supercell.


 Subroutine GETGRP returns: Found 48 space group operations
 (whereof 48 operations were pure point group operations)
 out of a pool of 48 trial point group operations.


The overall configuration has the point symmetry O_h .


 Subroutine INISYM returns: Found 48 space group operations
 (whereof 48 operations are pure point group operations),
 and found     2 'primitive' translations


----------------------------------------------------------------------------------------

                                     Primitive cell                                     

  volume of cell :      11.7341

  direct lattice vectors                    reciprocal lattice vectors
     1.431517749  1.431517749 -1.431517749     0.349279637  0.349279637  0.000000000
    -1.431517749  1.431517749  1.431517749     0.000000000  0.349279637  0.349279637
     1.431517749 -1.431517749  1.431517749     0.349279637 -0.000000000  0.349279637

  length of vectors
     2.479461474  2.479461474  2.479461474     0.493956000  0.493956000  0.493956000

  position of ions in fractional coordinates (direct lattice)
     0.000000000  0.000000000  0.000000000

  ion indices of the primitive-cell ions
   primitive index   ion index
                 1           1

----------------------------------------------------------------------------------------

 
 -----------------------------------------------------------------------------
|                                                                             |
|           W    W    AA    RRRRR   N    N  II  N    N   GGGG   !!!           |
|           W    W   A  A   R    R  NN   N  II  NN   N  G    G  !!!           |
|           W    W  A    A  R    R  N N  N  II  N N  N  G       !!!           |
|           W WW W  AAAAAA  RRRRR   N  N N  II  N  N N  G  GGG   !            |
|           WW  WW  A    A  R   R   N   NN  II  N   NN  G    G                |
|           W    W  A    A  R    R  N    N  II  N    N   GGGG   !!!           |
|                                                                             |
|     The requested file  could not be found or opened for reading            |
|     k-point information. Automatic k-point generation is used as a          |
|     fallback, which may lead to unwanted results.                           |
|                                                                             |
 -----------------------------------------------------------------------------

 

Automatic generation of k-mesh.
 Grid dimensions derived from KSPACING:
 generate k-points for:   10   10   10

 Generating k-lattice:

  Cartesian coordinates                     Fractional coordinates (reciprocal lattice)
     0.034927964 -0.000000000  0.000000000     0.100000000  0.000000000  0.000000000
     0.000000000  0.034927964  0.000000000     0.000000000  0.100000000  0.000000000
    -0.000000000 -0.000000000  0.034927964     0.000000000  0.000000000  0.100000000

  Length of vectors
     0.034927964  0.034927964  0.034927964

  Shift w.r.t. Gamma in fractional coordinates (k-lattice)
     0.000000000  0.000000000  0.000000000

 
 Subroutine IBZKPT returns following result:
 ===========================================
 
 Found     56 irreducible k-points:
 
 Following reciprocal coordinates:
            Coordinates               Weight
  0.000000  0.000000  0.000000      1.000000
  0.100000  0.000000  0.000000      6.000000
  0.200000  0.000000  0.000000      6.000000
  0.300000 -0.000000  0.000000      6.000000
  0.400000  0.000000  0.000000      6.000000
  0.500000  0.000000  0.000000      3.000000
  0.100000  0.100000  0.000000     12.000000
  0.200000  0.100000  0.000000     24.000000
  0.300000  0.100000  0.000000     24.000000
  0.400000  0.100000  0.000000     24.000000
  0.500000  0.100000  0.000000     12.000000
  0.200000  0.200000  0.000000     12.000000
  0.300000  0.200000  0.000000     24.000000
  0.400000  0.200000  0.000000     24.000000
  0.500000  0.200000  0.000000     12.000000
  0.300000  0.300000  0.000000     12.000000
  0.400000  0.300000  0.000000     24.000000
  0.500000  0.300000  0.000000     12.000000
  0.400000  0.400000  0.000000     12.000000
  0.500000  0.400000  0.000000     12.000000
  0.500000  0.500000  0.000000      3.000000
  0.100000  0.100000  0.100000      8.000000
  0.200000  0.100000  0.100000     24.000000
  0.300000  0.100000  0.100000     24.000000
  0.400000  0.100000  0.100000     24.000000
  0.500000  0.100000  0.100000     12.000000
  0.200000  0.200000  0.100000     24.000000
  0.300000  0.200000  0.100000     48.000000
  0.400000  0.200000  0.100000     48.000000
  0.500000  0.200000  0.100000     24.000000
  0.300000  0.300000  0.100000     24.000000
  0.400000  0.300000  0.100000     48.000000
  0.500000  0.300000  0.100000     24.000000
  0.400000  0.400000  0.100000     24.000000
  0.500000  0.400000  0.100000     24.000000
  0.500000  0.500000  0.100000      6.000000
  0.200000  0.200000  0.200000      8.000000
  0.300000  0.200000  0.200000     24.000000
  0.400000  0.200000  0.200000     24.000000
  0.500000  0.200000  0.200000     12.000000
  0.300000  0.300000  0.200000     24.000000
  0.400000  0.300000  0.200000     48.000000
  0.500000  0.300000  0.200000     24.000000
  0.400000  0.400000  0.200000     24.000000
  0.500000  0.400000  0.200000     24.000000
  0.500000  0.500000  0.200000      6.000000
  0.300000  0.300000  0.300000      8.000000
  0.400000  0.300000  0.300000     24.000000
  0.500000  0.300000  0.300000     12.000000
  0.400000  0.400000  0.300000     24.000000
  0.500000  0.400000  0.300000     24.000000
  0.500000  0.500000  0.300000      6.000000
  0.400000  0.400000  0.400000      8.000000
  0.500000  0.400000  0.400000     12.000000
  0.500000  0.500000  0.400000      6.000000
  0.500000  0.500000  0.500000      1.000000
 
 Following cartesian coordinates:
            Coordinates               Weight
  0.000000  0.000000  0.000000      1.000000
  0.034928 -0.000000  0.000000      6.000000
  0.069856 -0.000000  0.000000      6.000000
  0.104784 -0.000000  0.000000      6.000000
  0.139712 -0.000000  0.000000      6.000000
  0.174640 -0.000000  0.000000      3.000000
  0.034928  0.034928  0.000000     12.000000
  0.069856  0.034928  0.000000     24.000000
  0.104784  0.034928  0.000000     24.000000
  0.139712  0.034928  0.000000     24.000000
  0.174640  0.034928  0.000000     12.000000
  0.069856  0.069856  0.000000     12.000000
  0.104784  0.069856  0.000000     24.000000
  0.139712  0.069856  0.000000     24.000000
  0.174640  0.069856  0.000000     12.000000
  0.104784  0.104784  0.000000     12.000000
  0.139712  0.104784  0.000000     24.000000
  0.174640  0.104784  0.000000     12.000000
  0.139712  0.139712  0.000000     12.000000
  0.174640  0.139712  0.000000     12.000000
  0.174640  0.174640  0.000000      3.000000
  0.034928  0.034928  0.034928      8.000000
  0.069856  0.034928  0.034928     24.000000
  0.104784  0.034928  0.034928     24.000000
  0.139712  0.034928  0.034928     24.000000
  0.174640  0.034928  0.034928     12.000000
  0.069856  0.069856  0.034928     24.000000
  0.104784  0.069856  0.034928     48.000000
  0.139712  0.069856  0.034928     48.000000
  0.174640  0.069856  0.034928     24.000000
  0.104784  0.104784  0.034928     24.000000
  0.139712  0.104784  0.034928     48.000000
  0.174640  0.104784  0.034928     24.000000
  0.139712  0.139712  0.034928     24.000000
  0.174640  0.139712  0.034928     24.000000
  0.174640  0.174640  0.034928      6.000000
  0.069856  0.069856  0.069856      8.000000
  0.104784  0.069856  0.069856     24.000000
  0.139712  0.069856  0.069856     24.000000
  0.174640  0.069856  0.069856     12.000000
  0.104784  0.104784  0.069856     24.000000
  0.139712  0.104784  0.069856     48.000000
  0.174640  0.104784  0.069856     24.000000
  0.139712  0.139712  0.069856     24.000000
  0.174640  0.139712  0.069856     24.000000
  0.174640  0.174640  0.069856      6.000000
  0.104784  0.104784  0.104784      8.000000
  0.139712  0.104784  0.104784     24.000000
  0.174640  0.104784  0.104784     12.000000
  0.139712  0.139712  0.104784     24.000000
  0.174640  0.139712  0.104784     24.000000
  0.174640  0.174640  0.104784      6.000000
  0.139712  0.139712  0.139712      8.000000
  0.174640  0.139712  0.139712     12.000000
  0.174640  0.174640  0.139712      6.000000
  0.174640  0.174640  0.174640      1.000000
 


--------------------------------------------------------------------------------------------------------




 Dimension of arrays:
   k-points           NKPTS =     56   k-points in BZ     NKDIM =     56   number of bands    NBANDS=     20
   number of dos      NEDOS =    301   number of ions     NIONS =      2
   non local maximal  LDIM  =      6   non local SUM 2l+1 LMDIM =     18
   total plane-waves  NPLWV =   5832
   max r-space proj   IRMAX =      1   max aug-charges    IRDMAX=  71010
   dimension x,y,z NGX =    18 NGY =   18 NGZ =   18
   dimension x,y,z NGXF=    36 NGYF=   36 NGZF=   36
   support grid    NGXF=    72 NGYF=   72 NGZF=   72
   ions per type =               2
   NGX,Y,Z   is equivalent  to a cutoff of  10.45, 10.45, 10.45 a.u.
   NGXF,Y,Z  is equivalent  to a cutoff of  20.90, 20.90, 20.90 a.u.

 SYSTEM =  unknown system                          
 POSCAR =  Fe2                                     

 Startparameter for this run:
   NWRITE =      2    write-flag & timer
   PREC   = accura    normal or accurate (medium, high low for compatibility)
   ISTART =      0    job   : 0-new  1-cont  2-samecut
   ICHARG =      2    charge: 1-file 2-atom 10-const
   ISPIN  =      2    spin polarized calculation?
   LNONCOLLINEAR =      F non collinear calculations
   LSORBIT =      F    spin-orbit coupling
   INIWAV =      1    electr: 0-lowe 1-rand  2-diag
   LASPH  =      T    aspherical Exc in radial PAW
   METAGGA=      F    non-selfconsistent MetaGGA calc.

 Electronic Relaxation 1
   ENCUT  =  350.0 eV  25.72 Ry    5.07 a.u.   4.37  4.37  4.37*2*pi/ulx,y,z
   ENINI  =  350.0     initial cutoff
   ENAUG  =  511.4 eV  augmentation charge cutoff
   NELM   =     90;   NELMIN=  6; NELMDL= -5     # of ELM steps 
   EDIFF  = 0.1E-05   stopping-criterion for ELM
   LREAL  =      F    real-space projection
   NLSPLINE    = F    spline interpolate recip. space projectors
   LCOMPAT=      F    compatible to vasp.4.4
   GGA_COMPAT  = F    GGA compatible to vasp.4.4-vasp.4.6
   LMAXPAW     = -100 max onsite density
   LMAXMIX     =    4 max onsite mixed and CHGCAR
   VOSKOWN=      1    Vosko Wilk Nusair interpolation
   ROPT   =    0.00000
 Ionic relaxation
   EDIFFG = -.2E-02   stopping-criterion for IOM
   NSW    =    100    number of steps for IOM
   NBLOCK =      1;   KBLOCK =    100    inner block; outer block 
   IBRION =      2    ionic relax: 0-MD 1-quasi-New 2-CG
   NFREE  =      1    steps in history (QN), initial steepest desc. (CG)
   ISIF   =      3    stress and relaxation
   IWAVPR =     11    prediction:  0-non 1-charg 2-wave 3-comb
   ISYM   =      2    0-nonsym 1-usesym 2-fastsym
   LCORR  =      T    Harris-Foulkes like correction to forces

   POTIM  = 0.5000    time-step for ionic-motion
   TEIN   =    0.0    initial temperature
   TEBEG  =    0.0;   TEEND  =   0.0 temperature during run
   SMASS  =  -3.00    Nose mass-parameter (am)
   estimated Nose-frequenzy (Omega)   =  0.10E-29 period in steps = 0.13E+47 mass=  -0.187E-27a.u.
   SCALEE = 1.0000    scale energy and forces
   NPACO  =    256;   APACO  = 16.0  distance and # of slots for P.C.
   PSTRESS=    0.0 pullay stress

  Mass of Ions in am
   POMASS =  55.85
  Ionic Valenz
   ZVAL   =   8.00
  Atomic Wigner-Seitz radii
   RWIGS  =  -1.00
  virtual crystal weights 
   VCA    =   1.00
   NELECT =      16.0000    total number of electrons
   NUPDOWN=      -1.0000    fix difference up-down

 DOS related values:
   EMIN   =  10.00;   EMAX   =-10.00  energy-range for DOS
   EFERMI =   0.00
   ISMEAR =     1;   SIGMA  =   0.20  broadening in eV -4-tet -1-fermi 0-gaus

 Electronic relaxation 2 (details)
   IALGO  =     38    algorithm
   LDIAG  =      T    sub-space diagonalisation (order eigenvalues)
   LSUBROT=      F    optimize rotation matrix (better conditioning)
   TURBO    =      0    0=normal 1=particle mesh
   IRESTART =      0    0=no restart 2=restart with 2 vectors
   NREBOOT  =      0    no. of reboots
   NMIN     =      0    reboot dimension
   EREF     =   0.00    reference energy to select bands
   IMIX   =      4    mixing-type and parameters
     AMIX     =   0.40;   BMIX     =  1.00
     AMIX_MAG =   1.60;   BMIX_MAG =  1.00
     AMIN     =   0.10
     WC   =   100.;   INIMIX=   1;  MIXPRE=   1;  MAXMIX= -45

 Intra band minimization:
   WEIMIN = 0.0010     energy-eigenvalue tresh-hold
   EBREAK =  0.12E-07  absolut break condition
   DEPER  =   0.30     relativ break condition  

   TIME   =   0.40     timestep for ELM

  volume/ion in A,a.u.               =      11.73        79.19
  Fermi-wavevector in a.u.,A,eV,Ry     =   1.440859  2.722828 28.246703  2.076074
  Thomas-Fermi vector in A             =   2.559556
 
 Write flags
   LWAVE        =      T    write WAVECAR
   LDOWNSAMPLE  =      F    k-point downsampling of WAVECAR
   LCHARG       =      T    write CHGCAR
   LVTOT        =      F    write LOCPOT, total local potential
   LVHAR        =      F    write LOCPOT, Hartree potential only
   LELF         =      F    write electronic localiz. function (ELF)
   LORBIT       =     11    0 simple, 1 ext, 2 COOP (PROOUT), +10 PAW based schemes


 Dipole corrections
   LMONO  =      F    monopole corrections only (constant potential shift)
   LDIPOL =      F    correct potential (dipole corrections)
   IDIPOL =      0    1-x, 2-y, 3-z, 4-all directions 
   EPSILON=  1.0000000 bulk dielectric constant

 Exchange correlation treatment:
   GGA     =    --    GGA type
   LEXCH   =     8    internal setting for exchange type
   VOSKOWN=      1    Vosko Wilk Nusair interpolation
   LHFCALC =     F    Hartree Fock is set to
   LHFONE  =     F    Hartree Fock one center treatment
   AEXX    =    0.0000 exact exchange contribution

 Linear response parameters
   LEPSILON=     F    determine dielectric tensor
   LRPA    =     F    only Hartree local field effects (RPA)
   LNABLA  =     F    use nabla operator in PAW spheres
   LVEL    =     F    velocity operator in full k-point grid
   LINTERFAST=   F  fast interpolation
   KINTER  =     0    interpolate to denser k-point grid
   CSHIFT  =0.1000    complex shift for real part using Kramers Kronig
   OMEGAMAX=  -1.0    maximum frequency
   DEG_THRESHOLD= 0.2000000E-02 threshold for treating states as degnerate
   RTIME   =   -0.100 relaxation time in fs
  (WPLASMAI=    0.000 imaginary part of plasma frequency in eV, 0.658/RTIME)
   DFIELD  = 0.0000000 0.0000000 0.0000000 field for delta impulse in time
 
 Orbital magnetization related:
   ORBITALMAG=     F  switch on orbital magnetization
   LCHIMAG   =     F  perturbation theory with respect to B field
   DQ        =  0.001000  dq finite difference perturbation B field
   LLRAUG    =     F  two centre corrections for induced B field



--------------------------------------------------------------------------------------------------------


 conjugate gradient relaxation of ions
 charge density and potential will be updated during run
 spin polarized calculation
 Variant of blocked Davidson
 Davidson routine will perform the subspace rotation
 perform sub-space diagonalisation
    after iterative eigenvector-optimisation
 modified Broyden-mixing scheme, WC =      100.0
 initial mixing is a Kerker type mixing with AMIX =  0.4000 and BMIX =      1.0000
 Hartree-type preconditioning will be used
 using additional bands           12
 reciprocal scheme for non local part
 use partial core corrections
 calculate Harris-corrections to forces 
   (improved forces if not selfconsistent)
 use gradient corrections 
 use of overlap-Matrix (Vanderbilt PP)
 Methfessel and Paxton  Order N= 1 SIGMA  =   0.20


--------------------------------------------------------------------------------------------------------


  energy-cutoff  :      350.00
  volume of cell :       23.47
      direct lattice vectors                 reciprocal lattice vectors
     2.863035499  0.000000000  0.000000000     0.349279637 -0.000000000  0.000000000
     0.000000000  2.863035499  0.000000000     0.000000000  0.349279637  0.000000000
     0.000000000  0.000000000  2.863035499    -0.000000000 -0.000000000  0.349279637

  length of vectors
     2.863035499  2.863035499  2.863035499     0.349279637  0.349279637  0.349279637


 
 k-points in units of 2pi/SCALE and weight: read from INCAR                         
   0.00000000  0.00000000  0.00000000       0.001
   0.03492796 -0.00000000  0.00000000       0.006
   0.06985593 -0.00000000  0.00000000       0.006
   0.10478389 -0.00000000  0.00000000       0.006
   0.13971185 -0.00000000  0.00000000       0.006
   0.17463982 -0.00000000  0.00000000       0.003
   0.03492796  0.03492796  0.00000000       0.012
   0.06985593  0.03492796  0.00000000       0.024
   0.10478389  0.03492796  0.00000000       0.024
   0.13971185  0.03492796  0.00000000       0.024
   0.17463982  0.03492796  0.00000000       0.012
   0.06985593  0.06985593  0.00000000       0.012
   0.10478389  0.06985593  0.00000000       0.024
   0.13971185  0.06985593  0.00000000       0.024
   0.17463982  0.06985593  0.00000000       0.012
   0.10478389  0.10478389  0.00000000       0.012
   0.13971185  0.10478389  0.00000000       0.024
   0.17463982  0.10478389  0.00000000       0.012
   0.13971185  0.13971185  0.00000000       0.012
   0.17463982  0.13971185  0.00000000       0.012
   0.17463982  0.17463982  0.00000000       0.003
   0.03492796  0.03492796  0.03492796       0.008
   0.06985593  0.03492796  0.03492796       0.024
   0.10478389  0.03492796  0.03492796       0.024
   0.13971185  0.03492796  0.03492796       0.024
   0.17463982  0.03492796  0.03492796       0.012
   0.06985593  0.06985593  0.03492796       0.024
   0.10478389  0.06985593  0.03492796       0.048
   0.13971185  0.06985593  0.03492796       0.048
   0.17463982  0.06985593  0.03492796       0.024
   0.10478389  0.10478389  0.03492796       0.024
   0.13971185  0.10478389  0.03492796       0.048
   0.17463982  0.10478389  0.03492796       0.024
   0.13971185  0.13971185  0.03492796       0.024
   0.17463982  0.13971185  0.03492796       0.024
   0.17463982  0.17463982  0.03492796       0.006
   0.06985593  0.06985593  0.06985593       0.008
   0.10478389  0.06985593  0.06985593       0.024
   0.13971185  0.06985593  0.06985593       0.024
   0.17463982  0.06985593  0.06985593       0.012
   0.10478389  0.10478389  0.06985593       0.024
   0.13971185  0.10478389  0.06985593       0.048
   0.17463982  0.10478389  0.06985593       0.024
   0.13971185  0.13971185  0.06985593       0.024
   0.17463982  0.13971185  0.06985593       0.024
   0.17463982  0.17463982  0.06985593       0.006
   0.10478389  0.10478389  0.10478389       0.008
   0.13971185  0.10478389  0.10478389       0.024
   0.17463982  0.10478389  0.10478389       0.012
   0.13971185  0.13971185  0.10478389       0.024
   0.17463982  0.13971185  0.10478389       0.024
   0.17463982  0.17463982  0.10478389       0.006
   0.13971185  0.13971185  0.13971185       0.008
   0.17463982  0.13971185  0.13971185       0.012
   0.17463982  0.17463982  0.13971185       0.006
   0.17463982  0.17463982  0.17463982       0.001
 
 k-points in reciprocal lattice and weights: read from INCAR                         
   0.00000000  0.00000000  0.00000000       0.001
   0.10000000  0.00000000  0.00000000       0.006
   0.20000000  0.00000000  0.00000000       0.006
   0.30000000 -0.00000000  0.00000000       0.006
   0.40000000  0.00000000  0.00000000       0.006
   0.50000000  0.00000000  0.00000000       0.003
   0.10000000  0.10000000  0.00000000       0.012
   0.20000000  0.10000000  0.00000000       0.024
   0.30000000  0.10000000  0.00000000       0.024
   0.40000000  0.10000000  0.00000000       0.024
   0.50000000  0.10000000  0.00000000       0.012
   0.20000000  0.20000000  0.00000000       0.012
   0.30000000  0.20000000  0.00000000       0.024
   0.40000000  0.20000000  0.00000000       0.024
   0.50000000  0.20000000  0.00000000       0.012
   0.30000000  0.30000000  0.00000000       0.012
   0.40000000  0.30000000  0.00000000       0.024
   0.50000000  0.30000000  0.00000000       0.012
   0.40000000  0.40000000  0.00000000       0.012
   0.50000000  0.40000000  0.00000000       0.012
   0.50000000  0.50000000  0.00000000       0.003
   0.10000000  0.10000000  0.10000000       0.008
   0.20000000  0.10000000  0.10000000       0.024
   0.30000000  0.10000000  0.10000000       0.024
   0.40000000  0.10000000  0.10000000       0.024
   0.50000000  0.10000000  0.10000000       0.012
   0.20000000  0.20000000  0.10000000       0.024
   0.30000000  0.20000000  0.10000000       0.048
   0.40000000  0.20000000  0.10000000       0.048
   0.50000000  0.20000000  0.10000000       0.024
   0.30000000  0.30000000  0.10000000       0.024
   0.40000000  0.30000000  0.10000000       0.048
   0.50000000  0.30000000  0.10000000       0.024
   0.40000000  0.40000000  0.10000000       0.024
   0.50000000  0.40000000  0.10000000       0.024
   0.50000000  0.50000000  0.10000000       0.006
   0.20000000  0.20000000  0.20000000       0.008
   0.30000000  0.20000000  0.20000000       0.024
   0.40000000  0.20000000  0.20000000       0.024
   0.50000000  0.20000000  0.20000000       0.012
   0.30000000  0.30000000  0.20000000       0.024
   0.40000000  0.30000000  0.20000000       0.048
   0.50000000  0.30000000  0.20000000       0.024
   0.40000000  0.40000000  0.20000000       0.024
   0.50000000  0.40000000  0.20000000       0.024
   0.50000000  0.50000000  0.20000000       0.006
   0.30000000  0.30000000  0.30000000       0.008
   0.40000000  0.30000000  0.30000000       0.024
   0.50000000  0.30000000  0.30000000       0.012
   0.40000000  0.40000000  0.30000000       0.024
   0.50000000  0.40000000  0.30000000       0.024
   0.50000000  0.50000000  0.30000000       0.006
   0.40000000  0.40000000  0.40000000       0.008
   0.50000000  0.40000000  0.40000000       0.012
   0.50000000  0.50000000  0.40000000       0.006
   0.50000000  0.50000000  0.50000000       0.001
 
 position of ions in fractional coordinates (direct lattice) 
   0.00000000  0.00000000  0.00000000
   0.50000000  0.50000000  0.50000000
 
 position of ions in cartesian coordinates  (Angst):
   0.00000000  0.00000000  0.00000000
   1.43151775  1.43151775  1.43151775
 


--------------------------------------------------------------------------------------------------------


 k-point   1 :   0.0000 0.0000 0.0000  plane waves:     365
 k-point   2 :   0.1000 0.0000 0.0000  plane waves:     353
 k-point   3 :   0.2000 0.0000 0.0000  plane waves:     349
 k-point   4 :   0.3000-0.0000 0.0000  plane waves:     357
 k-point   5 :   0.4000 0.0000 0.0000  plane waves:     352
 k-point   6 :   0.5000 0.0000 0.0000  plane waves:     336
 k-point   7 :   0.1000 0.1000 0.0000  plane waves:     356
 k-point   8 :   0.2000 0.1000 0.0000  plane waves:     351
 k-point   9 :   0.3000 0.1000 0.0000  plane waves:     348
 k-point  10 :   0.4000 0.1000 0.0000  plane waves:     345
 k-point  11 :   0.5000 0.1000 0.0000  plane waves:     352
 k-point  12 :   0.2000 0.2000 0.0000  plane waves:     342
 k-point  13 :   0.3000 0.2000 0.0000  plane waves:     344
 k-point  14 :   0.4000 0.2000 0.0000  plane waves:     352
 k-point  15 :   0.5000 0.2000 0.0000  plane waves:     350
 k-point  16 :   0.3000 0.3000 0.0000  plane waves:     346
 k-point  17 :   0.4000 0.3000 0.0000  plane waves:     353
 k-point  18 :   0.5000 0.3000 0.0000  plane waves:     350
 k-point  19 :   0.4000 0.4000 0.0000  plane waves:     354
 k-point  20 :   0.5000 0.4000 0.0000  plane waves:     358
 k-point  21 :   0.5000 0.5000 0.0000  plane waves:     356
 k-point  22 :   0.1000 0.1000 0.1000  plane waves:     353
 k-point  23 :   0.2000 0.1000 0.1000  plane waves:     354
 k-point  24 :   0.3000 0.1000 0.1000  plane waves:     349
 k-point  25 :   0.4000 0.1000 0.1000  plane waves:     352
 k-point  26 :   0.5000 0.1000 0.1000  plane waves:     356
 k-point  27 :   0.2000 0.2000 0.1000  plane waves:     350
 k-point  28 :   0.3000 0.2000 0.1000  plane waves:     350
 k-point  29 :   0.4000 0.2000 0.1000  plane waves:     353
 k-point  30 :   0.5000 0.2000 0.1000  plane waves:     348
 k-point  31 :   0.3000 0.3000 0.1000  plane waves:     354
 k-point  32 :   0.4000 0.3000 0.1000  plane waves:     350
 k-point  33 :   0.5000 0.3000 0.1000  plane waves:     348
 k-point  34 :   0.4000 0.4000 0.1000  plane waves:     346
 k-point  35 :   0.5000 0.4000 0.1000  plane waves:     350
 k-point  36 :   0.5000 0.5000 0.1000  plane waves:     348
 k-point  37 :   0.2000 0.2000 0.2000  plane waves:     347
 k-point  38 :   0.3000 0.2000 0.2000  plane waves:     350
 k-point  39 :   0.4000 0.2000 0.2000  plane waves:     345
 k-point  40 :   0.5000 0.2000 0.2000  plane waves:     350
 k-point  41 :   0.3000 0.3000 0.2000  plane waves:     351
 k-point  42 :   0.4000 0.3000 0.2000  plane waves:     347
 k-point  43 :   0.5000 0.3000 0.2000  plane waves:     348
 k-point  44 :   0.4000 0.4000 0.2000  plane waves:     349
 k-point  45 :   0.5000 0.4000 0.2000  plane waves:     346
 k-point  46 :   0.5000 0.5000 0.2000  plane waves:     344
 k-point  47 :   0.3000 0.3000 0.3000  plane waves:     356
 k-point  48 :   0.4000 0.3000 0.3000  plane waves:     344
 k-point  49 :   0.5000 0.3000 0.3000  plane waves:     346
 k-point  50 :   0.4000 0.4000 0.3000  plane waves:     346
 k-point  51 :   0.5000 0.4000 0.3000  plane waves:     336
 k-point  52 :   0.5000 0.5000 0.3000  plane waves:     344
 k-point  53 :   0.4000 0.4000 0.4000  plane waves:     338
 k-point  54 :   0.5000 0.4000 0.4000  plane waves:     338
 k-point  55 :   0.5000 0.5000 0.4000  plane waves:     340
 k-point  56 :   0.5000 0.5000 0.5000  plane waves:     360

 maximum and minimum number of plane-waves per node :       365      336

 maximum number of plane-waves:       365
 maximum index in each direction: 
   IXMAX=    4   IYMAX=    4   IZMAX=    4
   IXMIN=   -4   IYMIN=   -4   IZMIN=   -4


 serial   3D FFT for wavefunctions
 parallel 3D FFT for charge:
    minimum data exchange during FFTs selected (reduces bandwidth)


 total amount of memory used by VASP MPI-rank0    39788. kBytes
=======================================================================

   base      :      30000. kBytes
   nonl-proj :       2979. kBytes
   fftplans  :       1775. kBytes
   grid      :       1353. kBytes
   one-center:         62. kBytes
   wavefun   :       3619. kBytes
 
     INWAV:  cpu time    0.0000: real time    0.0005
 Broyden mixing: mesh for mixing (old mesh)
   NGX =  9   NGY =  9   NGZ =  9
  (NGX  = 36   NGY  = 36   NGZ  = 36)
  gives a total of    729 points

 initial charge density was supplied:
 charge density of overlapping atoms calculated
 number of electron      16.0000000 magnetization      10.0000000
 keeping initial charge density in first step


--------------------------------------------------------------------------------------------------------


 Maximum index for augmentation-charges        17277 (set IRDMAX)


--------------------------------------------------------------------------------------------------------


 First call to EWALD:  gamma=   0.619
 Maximum number of real-space cells 3x 3x 3
 Maximum number of reciprocal cells 3x 3x 3

    FEWALD:  cpu time    0.0030: real time    0.0035


--------------------------------------- Iteration      1(   1)  ---------------------------------------


    POTLOK:  cpu time    0.0350: real time    0.0383
    SETDIJ:  cpu time    1.5488: real time    1.5488
     EDDAV:  cpu time    1.7867: real time    1.7895
       DOS:  cpu time    0.0060: real time    0.0053
    --------------------------------------------
      LOOP:  cpu time    3.3765: real time    3.3822

 eigenvalue-minimisations  :  5012
 total energy-change (2. order) : 0.6332443E+02  (-0.6137048E+03)
 number of electron      16.0000000 magnetization      10.0000000
 augmentation part       16.0000000 magnetization      10.0000000

 Free energy of the ion-electron system (eV)
  ---------------------------------------------------
  alpha Z        PSCENC =       117.79976220
  Ewald energy   TEWEN  =     -1171.43779597
  -Hartree energ DENC   =      -228.04061711
  -exchange      EXHF   =         0.00000000
  -V(xc)+E(xc)   XCENC  =        14.27160946
  PAW double counting   =      1103.49540010    -1119.11610375
  entropy T*S    EENTRO =         0.00219579
  eigenvalues    EBANDS =       157.76032494
  atomic energy  EATOM  =      1188.58965621
  Solvation  Ediel_sol  =         0.00000000
  ---------------------------------------------------
  free energy    TOTEN  =        63.32443187 eV

  energy without entropy =       63.32223608  energy(sigma->0) =       63.32369994


--------------------------------------------------------------------------------------------------------




--------------------------------------- Iteration      1(   2)  ---------------------------------------


     EDDAV:  cpu time    1.6547: real time    1.6727
       DOS:  cpu time    0.0050: real time    0.0053
    --------------------------------------------
      LOOP:  cpu time    1.6607: real time    1.6780

 eigenvalue-minimisations  :  4564
 total energy-change (2. order) :-0.7675372E+02  (-0.6794647E+02)
 number of electron      16.0000000 magnetization      10.0000000
 augmentation part       16.0000000 magnetization      10.0000000

 Free energy of the ion-electron system (eV)
  ---------------------------------------------------
  alpha Z        PSCENC =       117.79976220
  Ewald energy   TEWEN  =     -1171.43779597
  -Hartree energ DENC   =      -228.04061711
  -exchange      EXHF   =         0.00000000
  -V(xc)+E(xc)   XCENC  =        14.27160946
  PAW double counting   =      1103.49540010    -1119.11610375
  entropy T*S    EENTRO =         0.00162229
  eigenvalues    EBANDS =        81.00717606
  atomic energy  EATOM  =      1188.58965621
  Solvation  Ediel_sol  =         0.00000000
  ---------------------------------------------------
  free energy    TOTEN  =       -13.42929051 eV

  energy without entropy =      -13.43091280  energy(sigma->0) =      -13.42983127


--------------------------------------------------------------------------------------------------------




--------------------------------------- Iteration      1(   3)  ---------------------------------------


     EDDAV:  cpu time    1.7827: real time    1.8002
       DOS:  cpu time    0.0050: real time    0.0055
    --------------------------------------------
      LOOP:  cpu time    1.7877: real time    1.8058

 eigenvalue-minimisations  :  5052
 total energy-change (2. order) :-0.2635894E+01  (-0.2580749E+01)
 number of electron      16.0000000 magnetization      10.0000000
 augmentation part       16.0000000 magnetization      10.0000000

 Free energy of the ion-electron system (eV)
  ---------------------------------------------------
  alpha Z        PSCENC =       117.79976220
  Ewald energy   TEWEN  =     -1171.43779597
  -Hartree energ DENC   =      -228.04061711
  -exchange      EXHF   =         0.00000000
  -V(xc)+E(xc)   XCENC  =        14.27160946
  PAW double counting   =      1103.49540010    -1119.11610375
  entropy T*S    EENTRO =         0.00115123
  eigenvalues    EBANDS =        78.37175360
  atomic energy  EATOM  =      1188.58965621
  Solvation  Ediel_sol  =         0.00000000
  ---------------------------------------------------
  free energy    TOTEN  =       -16.06518404 eV

  energy without entropy =      -16.06633526  energy(sigma->0) =      -16.06556778


--------------------------------------------------------------------------------------------------------




--------------------------------------- Iteration      1(   4)  ---------------------------------------


     EDDAV:  cpu time    1.7407: real time    1.7578
       DOS:  cpu time    0.0050: real time    0.0056
    --------------------------------------------
      LOOP:  cpu time    1.7457: real time    1.7633

 eigenvalue-minimisations  :  4876
 total energy-change (2. order) :-0.1950891E-01  (-0.1950479E-01)
 number of electron      16.0000000 magnetization      10.0000000
 augmentation part       16.0000000 magnetization      10.0000000

 Free energy of the ion-electron system (eV)
  ---------------------------------------------------
  alpha Z        PSCENC =       117.79976220
  Ewald energy   TEWEN  =     -1171.43779597
  -Hartree energ DENC   =      -228.04061711
  -exchange      EXHF   =         0.00000000
  -V(xc)+E(xc)   XCENC  =        14.27160946
  PAW double counting   =      1103.49540010    -1119.11610375
  entropy T*S    EENTRO =         0.00113721
  eigenvalues    EBANDS =        78.35225870
  atomic energy  EATOM  =      1188.58965621
  Solvation  Ediel_sol  =         0.00000000
  ---------------------------------------------------
  free energy    TOTEN  =       -16.08469295 eV

  energy without entropy =      -16.08583016  energy(sigma->0) =      -16.08507202


--------------------------------------------------------------------------------------------------------




--------------------------------------- Iteration      1(   5)  ---------------------------------------


     EDDAV:  cpu time    1.7747: real time    1.7925
       DOS:  cpu time    0.0060: real time    0.0055
    CHARGE:  cpu time    0.1250: real time    0.1264
    MIXING:  cpu time    0.0020: real time    0.0011
    --------------------------------------------
      LOOP:  cpu time    1.9067: real time    1.9255

 eigenvalue-minimisations  :  5012
 total energy-change (2. order) :-0.2472299E-03  (-0.2472258E-03)
 number of electron      16.0000001 magnetization       4.3318802
 augmentation part        7.3768299 magnetization       2.6800414

 Broyden mixing:
  rms(total) = 0.19643E+01    rms(broyden)= 0.19642E+01
  rms(prec ) = 0.35428E+01
  weight for this iteration     100.00

 Free energy of the ion-electron system (eV)
  ---------------------------------------------------
  alpha Z        PSCENC =       117.79976220
  Ewald energy   TEWEN  =     -1171.43779597
  -Hartree energ DENC   =      -228.04061711
  -exchange      EXHF   =         0.00000000
  -V(xc)+E(xc)   XCENC  =        14.27160946
  PAW double counting   =      1103.49540010    -1119.11610375
  entropy T*S    EENTRO =         0.00113711
  eigenvalues    EBANDS =        78.35201157
  atomic energy  EATOM  =      1188.58965621
  Solvation  Ediel_sol  =         0.00000000
  ---------------------------------------------------
  free energy    TOTEN  =       -16.08494018 eV

  energy without entropy =      -16.08607729  energy(sigma->0) =      -16.08531922


--------------------------------------------------------------------------------------------------------




--------------------------------------- Iteration      1(   6)  ---------------------------------------


    POTLOK:  cpu time    0.0350: real time    0.0509
    SETDIJ:  cpu time    1.5408: real time    1.5417
     EDDAV:  cpu time    1.7627: real time    1.7639
       DOS:  cpu time    0.0050: real time    0.0058
    CHARGE:  cpu time    0.1180: real time    0.1184
    MIXING:  cpu time    0.0010: real time    0.0012
    --------------------------------------------
      LOOP:  cpu time    3.4635: real time    3.4819

 eigenvalue-minimisations  :  4944
 total energy-change (2. order) :-0.4887546E+00  (-0.5160135E+00)
 number of electron      16.0000001 magnetization       4.6316158
 augmentation part        8.4927501 magnetization       3.8030208

 Broyden mixing:
  rms(total) = 0.62353E+00    rms(broyden)= 0.62276E+00
  rms(prec ) = 0.70166E+00
  weight for this iteration     100.00

 eigenvalues of (default mixing * dielectric matrix)
  average eigenvalue GAMMA=   0.8711
  0.8711

 Free energy of the ion-electron system (eV)
  ---------------------------------------------------
  alpha Z        PSCENC =       117.79976220
  Ewald energy   TEWEN  =     -1171.43779597
  -Hartree energ DENC   =      -196.91852677
  -exchange      EXHF   =         0.00000000
  -V(xc)+E(xc)   XCENC  =         8.20241624
  PAW double counting   =      1215.16692408    -1227.37963790
  entropy T*S    EENTRO =         0.00156219
  eigenvalues    EBANDS =        49.40194498
  atomic energy  EATOM  =      1188.58965621
  Solvation  Ediel_sol  =         0.00000000
  ---------------------------------------------------
  free energy    TOTEN  =       -16.57369473 eV

  energy without entropy =      -16.57525693  energy(sigma->0) =      -16.57421546


--------------------------------------------------------------------------------------------------------




--------------------------------------- Iteration      1(   7)  ---------------------------------------


    POTLOK:  cpu time    0.0350: real time    0.0512
    SETDIJ:  cpu time    1.5378: real time    1.5377
     EDDAV:  cpu time    1.8567: real time    1.8592
       DOS:  cpu time    0.0060: real time    0.0059
    CHARGE:  cpu time    0.1180: real time    0.1182
    MIXING:  cpu time    0.0000: real time    0.0011
    --------------------------------------------
      LOOP:  cpu time    3.5535: real time    3.5733

 eigenvalue-minimisations  :  5288
 total energy-change (2. order) : 0.6205326E-01  (-0.3723300E-01)
 number of electron      16.0000001 magnetization       4.4969769
 augmentation part        8.2572398 magnetization       3.7215177

 Broyden mixing:
  rms(total) = 0.43860E+00    rms(broyden)= 0.43850E+00
  rms(prec ) = 0.51860E+00
  weight for this iteration     100.00

 eigenvalues of (default mixing * dielectric matrix)
  average eigenvalue GAMMA=   0.7717
  1.0213  0.5221

 Free energy of the ion-electron system (eV)
  ---------------------------------------------------
  alpha Z        PSCENC =       117.79976220
  Ewald energy   TEWEN  =     -1171.43779597
  -Hartree energ DENC   =      -199.53480290
  -exchange      EXHF   =         0.00000000
  -V(xc)+E(xc)   XCENC  =         8.87644069
  PAW double counting   =      1292.09026632    -1307.36954037
  entropy T*S    EENTRO =         0.00072472
  eigenvalues    EBANDS =        54.47364763
  atomic energy  EATOM  =      1188.58965621
  Solvation  Ediel_sol  =         0.00000000
  ---------------------------------------------------
  free energy    TOTEN  =       -16.51164147 eV

  energy without entropy =      -16.51236619  energy(sigma->0) =      -16.51188304


--------------------------------------------------------------------------------------------------------




--------------------------------------- Iteration      1(   8)  ---------------------------------------


    POTLOK:  cpu time    0.0380: real time    0.0513
    SETDIJ:  cpu time    1.5408: real time    1.5413
     EDDAV:  cpu time    1.9847: real time    1.9869
       DOS:  cpu time    0.0060: real time    0.0058
    CHARGE:  cpu time    0.1180: real time    0.1184
    MIXING:  cpu time    0.0000: real time    0.0011
    --------------------------------------------
      LOOP:  cpu time    3.6874: real time    3.7049

 eigenvalue-minimisations  :  5732
 total energy-change (2. order) : 0.1693642E-01  (-0.1013817E-02)
 number of electron      16.0000001 magnetization       4.4287023
 augmentation part        8.2829107 magnetization       3.6531968

 Broyden mixing:
  rms(total) = 0.16277E+00    rms(broyden)= 0.16275E+00
  rms(prec ) = 0.23182E+00
  weight for this iteration     100.00

 eigenvalues of (default mixing * dielectric matrix)
  average eigenvalue GAMMA=   1.1183
  1.9022  0.8770  0.5757

 Free energy of the ion-electron system (eV)
  ---------------------------------------------------
  alpha Z        PSCENC =       117.79976220
  Ewald energy   TEWEN  =     -1171.43779597
  -Hartree energ DENC   =      -197.81895969
  -exchange      EXHF   =         0.00000000
  -V(xc)+E(xc)   XCENC  =         8.64577219
  PAW double counting   =      1330.93432921    -1347.06201104
  entropy T*S    EENTRO =         0.00047067
  eigenvalues    EBANDS =        53.85407116
  atomic energy  EATOM  =      1188.58965621
  Solvation  Ediel_sol  =         0.00000000
  ---------------------------------------------------
  free energy    TOTEN  =       -16.49470505 eV

  energy without entropy =      -16.49517573  energy(sigma->0) =      -16.49486195


--------------------------------------------------------------------------------------------------------




--------------------------------------- Iteration      1(   9)  ---------------------------------------


    POTLOK:  cpu time    0.0360: real time    0.0518
    SETDIJ:  cpu time    1.5348: real time    1.5351
     EDDAV:  cpu time    2.2537: real time    2.2555
       DOS:  cpu time    0.0050: real time    0.0058
    CHARGE:  cpu time    0.1180: real time    0.1181
    MIXING:  cpu time    0.0010: real time    0.0012
    --------------------------------------------
      LOOP:  cpu time    3.9474: real time    3.9676

 eigenvalue-minimisations  :  6652
 total energy-change (2. order) : 0.1131478E-01  (-0.2902156E-03)
 number of electron      16.0000001 magnetization       4.4743965
 augmentation part        8.3218432 magnetization       3.6968178

 Broyden mixing:
  rms(total) = 0.42449E-01    rms(broyden)= 0.42432E-01
  rms(prec ) = 0.49103E-01
  weight for this iteration     100.00

 eigenvalues of (default mixing * dielectric matrix)
  average eigenvalue GAMMA=   1.1952
  2.3620  1.0536  0.6906  0.6744

 Free energy of the ion-electron system (eV)
  ---------------------------------------------------
  alpha Z        PSCENC =       117.79976220
  Ewald energy   TEWEN  =     -1171.43779597
  -Hartree energ DENC   =      -195.35879180
  -exchange      EXHF   =         0.00000000
  -V(xc)+E(xc)   XCENC  =         8.50921186
  PAW double counting   =      1392.87308915    -1410.40580555
  entropy T*S    EENTRO =         0.00001388
  eigenvalues    EBANDS =        52.94726974
  atomic energy  EATOM  =      1188.58965621
  Solvation  Ediel_sol  =         0.00000000
  ---------------------------------------------------
  free energy    TOTEN  =       -16.48339027 eV

  energy without entropy =      -16.48340415  energy(sigma->0) =      -16.48339490


--------------------------------------------------------------------------------------------------------




--------------------------------------- Iteration      1(  10)  ---------------------------------------


    POTLOK:  cpu time    0.0350: real time    0.0512
    SETDIJ:  cpu time    1.5418: real time    1.5414
     EDDAV:  cpu time    1.8757: real time    1.8788
       DOS:  cpu time    0.0060: real time    0.0058
    CHARGE:  cpu time    0.1170: real time    0.1181
    MIXING:  cpu time    0.0010: real time    0.0013
    --------------------------------------------
      LOOP:  cpu time    3.5775: real time    3.5966

 eigenvalue-minimisations  :  5352
 total energy-change (2. order) : 0.3493332E-03  (-0.1539521E-03)
 number of electron      16.0000001 magnetization       4.4835132
 augmentation part        8.3096456 magnetization       3.7008837

 Broyden mixing:
  rms(total) = 0.59566E-02    rms(broyden)= 0.59533E-02
  rms(prec ) = 0.79831E-02
  weight for this iteration     100.00

 eigenvalues of (default mixing * dielectric matrix)
  average eigenvalue GAMMA=   1.1265
  2.4153  1.1001  0.6308  0.7431  0.7431

 Free energy of the ion-electron system (eV)
  ---------------------------------------------------
  alpha Z        PSCENC =       117.79976220
  Ewald energy   TEWEN  =     -1171.43779597
  -Hartree energ DENC   =      -195.22145387
  -exchange      EXHF   =         0.00000000
  -V(xc)+E(xc)   XCENC  =         8.54694696
  PAW double counting   =      1409.97930831    -1427.97710205
  entropy T*S    EENTRO =         0.00049440
  eigenvalues    EBANDS =        53.23714287
  atomic energy  EATOM  =      1188.58965621
  Solvation  Ediel_sol  =         0.00000000
  ---------------------------------------------------
  free energy    TOTEN  =       -16.48304094 eV

  energy without entropy =      -16.48353534  energy(sigma->0) =      -16.48320574


--------------------------------------------------------------------------------------------------------




--------------------------------------- Iteration      1(  11)  ---------------------------------------


    POTLOK:  cpu time    0.0360: real time    0.0516
    SETDIJ:  cpu time    1.5438: real time    1.5436
     EDDAV:  cpu time    1.8507: real time    1.8531
       DOS:  cpu time    0.0050: real time    0.0055
    CHARGE:  cpu time    0.1180: real time    0.1182
    MIXING:  cpu time    0.0010: real time    0.0014
    --------------------------------------------
      LOOP:  cpu time    3.5545: real time    3.5732

 eigenvalue-minimisations  :  5280
 total energy-change (2. order) :-0.2297493E-04  (-0.6317761E-05)
 number of electron      16.0000001 magnetization       4.4812669
 augmentation part        8.3108492 magnetization       3.6988667

 Broyden mixing:
  rms(total) = 0.46396E-02    rms(broyden)= 0.46394E-02
  rms(prec ) = 0.50505E-02
  weight for this iteration     100.00

 eigenvalues of (default mixing * dielectric matrix)
  average eigenvalue GAMMA=   1.1207
  2.4093  1.2889  1.0180  0.6944  0.6944  0.6191

 Free energy of the ion-electron system (eV)
  ---------------------------------------------------
  alpha Z        PSCENC =       117.79976220
  Ewald energy   TEWEN  =     -1171.43779597
  -Hartree energ DENC   =      -195.18419060
  -exchange      EXHF   =         0.00000000
  -V(xc)+E(xc)   XCENC  =         8.55827572
  PAW double counting   =      1411.90197759    -1429.91979100
  entropy T*S    EENTRO =         0.00047236
  eigenvalues    EBANDS =        53.20856957
  atomic energy  EATOM  =      1188.58965621
  Solvation  Ediel_sol  =         0.00000000
  ---------------------------------------------------
  free energy    TOTEN  =       -16.48306391 eV

  energy without entropy =      -16.48353628  energy(sigma->0) =      -16.48322137


--------------------------------------------------------------------------------------------------------




--------------------------------------- Iteration      1(  12)  ---------------------------------------


    POTLOK:  cpu time    0.0350: real time    0.0512
    SETDIJ:  cpu time    1.5398: real time    1.5399
     EDDAV:  cpu time    1.6797: real time    1.6813
       DOS:  cpu time    0.0050: real time    0.0059
    CHARGE:  cpu time    0.1180: real time    0.1181
    MIXING:  cpu time    0.0020: real time    0.0013
    --------------------------------------------
      LOOP:  cpu time    3.3785: real time    3.3979

 eigenvalue-minimisations  :  4628
 total energy-change (2. order) : 0.7428660E-05  (-0.3280321E-06)
 number of electron      16.0000001 magnetization       4.4799476
 augmentation part        8.3110940 magnetization       3.6977372

 Broyden mixing:
  rms(total) = 0.18626E-02    rms(broyden)= 0.18625E-02
  rms(prec ) = 0.21508E-02
  weight for this iteration     100.00

 eigenvalues of (default mixing * dielectric matrix)
  average eigenvalue GAMMA=   1.2563
  2.4478  2.4478  1.0780  0.8192  0.6733  0.6733  0.6550

 Free energy of the ion-electron system (eV)
  ---------------------------------------------------
  alpha Z        PSCENC =       117.79976220
  Ewald energy   TEWEN  =     -1171.43779597
  -Hartree energ DENC   =      -195.19533246
  -exchange      EXHF   =         0.00000000
  -V(xc)+E(xc)   XCENC  =         8.55697665
  PAW double counting   =      1412.17877143    -1430.17573521
  entropy T*S    EENTRO =         0.00048562
  eigenvalues    EBANDS =        53.20015505
  atomic energy  EATOM  =      1188.58965621
  Solvation  Ediel_sol  =         0.00000000
  ---------------------------------------------------
  free energy    TOTEN  =       -16.48305649 eV

  energy without entropy =      -16.48354211  energy(sigma->0) =      -16.48321836


--------------------------------------------------------------------------------------------------------




--------------------------------------- Iteration      1(  13)  ---------------------------------------


    POTLOK:  cpu time    0.0350: real time    0.0512
    SETDIJ:  cpu time    1.5358: real time    1.5365
     EDDAV:  cpu time    1.6238: real time    1.6253
       DOS:  cpu time    0.0050: real time    0.0057
    --------------------------------------------
      LOOP:  cpu time    3.2005: real time    3.2187

 eigenvalue-minimisations  :  4420
 total energy-change (2. order) :-0.1263309E-06  (-0.1838859E-06)
 number of electron      16.0000001 magnetization       4.4799476
 augmentation part        8.3110940 magnetization       3.6977372

 Free energy of the ion-electron system (eV)
  ---------------------------------------------------
  alpha Z        PSCENC =       117.79976220
  Ewald energy   TEWEN  =     -1171.43779597
  -Hartree energ DENC   =      -195.20201355
  -exchange      EXHF   =         0.00000000
  -V(xc)+E(xc)   XCENC  =         8.55696907
  PAW double counting   =      1412.62785913    -1430.61193976
  entropy T*S    EENTRO =         0.00048168
  eigenvalues    EBANDS =        53.19396437
  atomic energy  EATOM  =      1188.58965621
  Solvation  Ediel_sol  =         0.00000000
  ---------------------------------------------------
  free energy    TOTEN  =       -16.48305661 eV

  energy without entropy =      -16.48353830  energy(sigma->0) =      -16.48321717


--------------------------------------------------------------------------------------------------------




 average (electrostatic) potential at core
  the test charge radii are     1.0103
  (the norm of the test charge is              1.0000)
       1 -43.5998       2 -43.5998
 
 
 
 E-fermi :   5.4888     XC(G=0): -12.9351     alpha+bet :-13.2097

 Fermi energy:         5.4887773950

 spin component 1

 k-point     1 :       0.0000    0.0000    0.0000
  band No.  band energies     occupation 
      1      -2.7406      1.00000
      2       0.8431      1.00000
      3       0.8431      1.00000
      4       3.2524      1.00000
      5       3.2524      1.00000
      6       3.2524      1.00000
      7       4.4098      1.00000
      8       4.4098      1.00000
      9       5.5547      0.23698
     10       5.5547      0.23698
     11       5.5547      0.23698
     12      15.2098      0.00000
     13      15.2098      0.00000
     14      15.2098      0.00000
     15      20.8260      0.00000
     16      20.8260      0.00000
     17      25.5407      0.00000
     18      30.2107      0.00000
     19      30.2107      0.00000
     20      30.2107      0.00000

 k-point     2 :       0.1000    0.0000    0.0000
  band No.  band energies     occupation 
      1      -2.5387      1.00000
      2       0.9278      1.00000
      3       0.9289      1.00000
      4       3.2516      1.00000
      5       3.2516      1.00000
      6       3.3065      1.00000
      7       4.3228      1.00000
      8       4.4441      1.00000
      9       5.3933      0.85729
     10       5.3933      0.85729
     11       5.4965      0.46735
     12      13.8701      0.00000
     13      15.5852      0.00000
     14      15.5852      0.00000
     15      20.8882      0.00000
     16      21.7650      0.00000
     17      26.2513      0.00000
     18      28.9689      0.00000
     19      29.9720      0.00000
     20      29.9720      0.00000

 k-point     3 :       0.2000    0.0000    0.0000
  band No.  band energies     occupation 
      1      -1.9510      1.00000
      2       1.1488      1.00000
      3       1.1743      1.00000
      4       3.2614      1.00000
      5       3.2614      1.00000
      6       3.4642      1.00000
      7       4.0691      1.00000
      8       4.5428      1.00000
      9       4.9883      1.00115
     10       4.9883      1.00115
     11       5.3274      0.99178
     12      11.4291      0.00000
     13      16.6270      0.00000
     14      16.6270      0.00000
     15      21.0812      0.00000
     16      22.7768      0.00000
     17      26.9925      0.00000
     18      28.6550      0.00000
     19      28.8142      0.00000
     20      28.8142      0.00000

 k-point     4 :       0.3000   -0.0000    0.0000
  band No.  band energies     occupation 
      1      -1.0415      1.00000
      2       1.3854      1.00000
      3       1.5620      1.00000
      4       3.3122      1.00000
      5       3.3122      1.00000
      6       3.6711      1.00000
      7       3.7118      1.00000
      8       4.4954      1.00000
      9       4.4954      1.00000
     10       4.7067      1.00000
     11       5.0657      1.00541
     12       9.0139     -0.00000
     13      18.1651      0.00000
     14      18.1651      0.00000
     15      21.4288      0.00000
     16      23.3502      0.00000
     17      25.2321      0.00000
     18      26.7634      0.00000
     19      26.7634      0.00000
     20      28.4834      0.00000

 k-point     5 :       0.4000    0.0000    0.0000
  band No.  band energies     occupation 
      1       0.0407      1.00000
      2       1.4232      1.00000
      3       2.0564      1.00000
      4       3.1675      1.00000
      5       3.4417      1.00000
      6       3.4417      1.00000
      7       4.0271      1.00000
      8       4.0377      1.00000
      9       4.0377      1.00000
     10       4.7389      1.00000
     11       4.9997      1.00147
     12       6.9991     -0.00000
     13      20.0509      0.00000
     14      20.0509      0.00000
     15      21.9682      0.00000
     16      23.8198      0.00000
     17      23.9961      0.00000
     18      24.4546      0.00000
     19      24.4546      0.00000
     20      26.4955      0.00000

 k-point     6 :       0.5000    0.0000    0.0000
  band No.  band energies     occupation 
      1       0.9830      1.00000
      2       0.9830      1.00000
      3       2.6103      1.00000
      4       2.6103      1.00000
      5       3.6800      1.00000
      6       3.6800      1.00000
      7       3.6800      1.00000
      8       3.6800      1.00000
      9       4.3809      1.00000
     10       4.3809      1.00000
     11       5.6559      0.00143
     12       5.6559      0.00143
     13      22.1777      0.00000
     14      22.1777      0.00000
     15      22.1777      0.00000
     16      22.1777      0.00000
     17      22.7484      0.00000
     18      22.7484      0.00000
     19      25.0016      0.00000
     20      25.0016      0.00000

 k-point     7 :       0.1000    0.1000    0.0000
  band No.  band energies     occupation 
      1      -2.3402      1.00000
      2       1.0046      1.00000
      3       1.0189      1.00000
      4       3.1479      1.00000
      5       3.2395      1.00000
      6       3.4622      1.00000
      7       4.3159      1.00000
      8       4.4187      1.00000
      9       5.1144      1.01182
     10       5.2326      1.03501
     11       5.5792      0.15742
     12      13.9242      0.00000
     13      14.4927      0.00000
     14      15.9375      0.00000
     15      21.3616      0.00000
     16      22.4949      0.00000
     17      26.8271      0.00000
     18      27.7778      0.00000
     19      29.5157      0.00000
     20      29.9022      0.00000

 k-point     8 :       0.2000    0.1000    0.0000
  band No.  band energies     occupation 
      1      -1.7645      1.00000
      2       1.2138      1.00000
      3       1.2636      1.00000
      4       3.0758      1.00000
      5       3.2166      1.00000
      6       3.6973      1.00000
      7       4.1362      1.00000
      8       4.5033      1.00000
      9       4.6554      1.00000
     10       4.8396      1.00002
     11       5.5180      0.37780
     12      11.6652      0.00000
     13      15.1973      0.00000
     14      16.9270      0.00000
     15      21.6745      0.00000
     16      23.7795      0.00000
     17      25.6397      0.00000
     18      28.3187      0.00000
     19      28.9665      0.00000
     20      29.0048      0.00000

 k-point     9 :       0.3000    0.1000    0.0000
  band No.  band energies     occupation 
      1      -0.8807      1.00000
      2       1.4472      1.00000
      3       1.6250      1.00000
      4       3.0742      1.00000
      5       3.1819      1.00000
      6       3.8659      1.00000
      7       3.9882      1.00000
      8       4.1593      1.00000
      9       4.3911      1.00000
     10       4.6709      1.00000
     11       5.3168      1.00378
     12       9.2313     -0.00000
     13      16.5004      0.00000
     14      18.4107      0.00000
     15      22.0802      0.00000
     16      23.5426      0.00000
     17      24.6209      0.00000
     18      26.5672      0.00000
     19      26.9509      0.00000
     20      30.4487      0.00000

 k-point    10 :       0.4000    0.1000    0.0000
  band No.  band energies     occupation 
      1       0.1541      1.00000
      2       1.4709      1.00000
      3       2.0784      1.00000
      4       2.9915      1.00000
      5       3.1685      1.00000
      6       3.7168      1.00000
      7       3.7322      1.00000
      8       4.0372      1.00000
      9       4.3229      1.00000
     10       4.9807      1.00097
     11       5.0224      1.00237
     12       7.1615     -0.00000
     13      18.0530      0.00000
     14      20.2536      0.00000
     15      21.5891      0.00000
     16      22.6975      0.00000
     17      24.6230      0.00000
     18      24.9106      0.00000
     19      25.5269      0.00000
     20      28.4456      0.00000

 k-point    11 :       0.5000    0.1000    0.0000
  band No.  band energies     occupation 
      1       1.0408      1.00000
      2       1.0408      1.00000
      3       2.5678      1.00000
      4       2.5678      1.00000
      5       3.3803      1.00000
      6       3.3803      1.00000
      7       3.8282      1.00000
      8       3.8282      1.00000
      9       4.6782      1.00000
     10       4.6782      1.00000
     11       5.7148     -0.03390
     12       5.7148     -0.03390
     13      19.7605      0.00000
     14      19.7605      0.00000
     15      22.3524      0.00000
     16      22.3524      0.00000
     17      23.6151      0.00000
     18      23.6151      0.00000
     19      26.7817      0.00000
     20      26.7817      0.00000

 k-point    12 :       0.2000    0.2000    0.0000
  band No.  band energies     occupation 
      1      -1.2313      1.00000
      2       1.3430      1.00000
      3       1.5452      1.00000
      4       2.8815      1.00000
      5       3.1451      1.00000
      6       4.0395      1.00000
      7       4.1405      1.00000
      8       4.2257      1.00000
      9       4.4500      1.00000
     10       4.5033      1.00000
     11       5.6428      0.01794
     12      11.6571      0.00000
     13      13.4695      0.00000
     14      17.7915      0.00000
     15      22.0382      0.00000
     16      23.3086      0.00000
     17      25.9397      0.00000
     18      27.4958      0.00000
     19      29.3381      0.00000
     20      30.2530      0.00000

 k-point    13 :       0.3000    0.2000    0.0000
  band No.  band energies     occupation 
      1      -0.4435      1.00000
      2       1.4619      1.00000
      3       1.9337      1.00000
      4       2.7744      1.00000
      5       3.1081      1.00000
      6       3.6376      1.00000
      7       4.1486      1.00000
      8       4.1935      1.00000
      9       4.4062      1.00000
     10       4.5753      1.00000
     11       5.5975      0.10702
     12       9.6623     -0.00000
     13      14.1281      0.00000
     14      19.1334      0.00000
     15      21.0325      0.00000
     16      22.3822      0.00000
     17      26.1881      0.00000
     18      27.4825      0.00000
     19      27.4977      0.00000
     20      30.7730      0.00000

 k-point    14 :       0.4000    0.2000    0.0000
  band No.  band energies     occupation 
      1       0.4080      1.00000
      2       1.4152      1.00000
      3       2.3493      1.00000
      4       2.7844      1.00000
      5       3.0140      1.00000
      6       3.2208      1.00000
      7       4.0685      1.00000
      8       4.1114      1.00000
      9       4.7755      1.00000
     10       4.9219      1.00023
     11       5.4093      0.80880
     12       7.5335     -0.00000
     13      15.4844      0.00000
     14      18.9556      0.00000
     15      20.8536      0.00000
     16      22.9029      0.00000
     17      24.8188      0.00000
     18      25.1010      0.00000
     19      28.6991      0.00000
     20      31.4190      0.00000

 k-point    15 :       0.5000    0.2000    0.0000
  band No.  band energies     occupation 
      1       1.0715      1.00000
      2       1.0715      1.00000
      3       2.7366      1.00000
      4       2.7366      1.00000
      5       2.9314      1.00000
      6       2.9314      1.00000
      7       4.0961      1.00000
      8       4.0961      1.00000
      9       5.1215      1.01307
     10       5.1215      1.01307
     11       5.8707     -0.01058
     12       5.8707     -0.01058
     13      17.1049      0.00000
     14      17.1049      0.00000
     15      22.8661      0.00000
     16      22.8661      0.00000
     17      23.6991      0.00000
     18      23.6991      0.00000
     19      30.0003      0.00000
     20      30.0003      0.00000

 k-point    16 :       0.3000    0.3000    0.0000
  band No.  band energies     occupation 
      1       0.1215      1.00000
      2       1.3748      1.00000
      3       2.4157      1.00000
      4       2.5646      1.00000
      5       3.1558      1.00000
      6       3.2932      1.00000
      7       4.0933      1.00000
      8       4.3307      1.00000
      9       4.5043      1.00000
     10       4.8202      1.00001
     11       5.7221     -0.03489
     12       9.3830     -0.00000
     13      12.8733      0.00000
     14      18.6747      0.00000
     15      20.2918      0.00000
     16      22.6395      0.00000
     17      25.4563      0.00000
     18      27.7771      0.00000
     19      28.8774      0.00000
     20      30.2527      0.00000

 k-point    17 :       0.4000    0.3000    0.0000
  band No.  band energies     occupation 
      1       0.6094      1.00000
      2       1.1970      1.00000
      3       2.4841      1.00000
      4       2.7830      1.00000
      5       2.9251      1.00000
      6       3.5400      1.00000
      7       4.1614      1.00000
      8       4.3889      1.00000
      9       4.8179      1.00001
     10       5.1926      1.02850
     11       5.6786     -0.01902
     12       7.7829     -0.00000
     13      13.4567      0.00000
     14      16.5893      0.00000
     15      21.8268      0.00000
     16      23.0407      0.00000
     17      24.5213      0.00000
     18      25.7607      0.00000
     19      29.7662      0.00000
     20      32.0407      0.00000

 k-point    18 :       0.5000    0.3000    0.0000
  band No.  band energies     occupation 
      1       0.9489      1.00000
      2       0.9489      1.00000
      3       2.5549      1.00000
      4       2.5549      1.00000
      5       3.3465      1.00000
      6       3.3465      1.00000
      7       4.3125      1.00000
      8       4.3125      1.00000
      9       5.4906      0.49228
     10       5.4906      0.49228
     11       6.0413     -0.00033
     12       6.0413     -0.00033
     13      14.8254      0.00000
     14      14.8254      0.00000
     15      23.6676      0.00000
     16      23.6676      0.00000
     17      23.6734      0.00000
     18      23.6734      0.00000
     19      31.2065      0.00000
     20      31.2065      0.00000

 k-point    19 :       0.4000    0.4000    0.0000
  band No.  band energies     occupation 
      1       0.7080      1.00000
      2       0.9701      1.00000
      3       2.3176      1.00000
      4       2.4687      1.00000
      5       3.5901      1.00000
      6       4.2983      1.00000
      7       4.3227      1.00000
      8       4.5618      1.00000
      9       4.8342      1.00002
     10       5.5222      0.36065
     11       5.7866     -0.02813
     12       7.3301     -0.00000
     13      12.6269      0.00000
     14      14.6167      0.00000
     15      23.1244      0.00000
     16      23.2629      0.00000
     17      24.0784      0.00000
     18      25.8979      0.00000
     19      28.6056      0.00000
     20      30.9589      0.00000

 k-point    20 :       0.5000    0.4000    0.0000
  band No.  band energies     occupation 
      1       0.8060      1.00000
      2       0.8060      1.00000
      3       2.3100      1.00000
      4       2.3100      1.00000
      5       4.1419      1.00000
      6       4.1419      1.00000
      7       4.4406      1.00000
      8       4.4406      1.00000
      9       5.7292     -0.03538
     10       5.7292     -0.03538
     11       6.0920     -0.00009
     12       6.0920     -0.00009
     13      13.1878      0.00000
     14      13.1878      0.00000
     15      23.6186      0.00000
     16      23.6186      0.00000
     17      24.6379      0.00000
     18      24.6379      0.00000
     19      29.3794      0.00000
     20      29.3794      0.00000

 k-point    21 :       0.5000    0.5000    0.0000
  band No.  band energies     occupation 
      1       0.7493      1.00000
      2       0.7493      1.00000
      3       2.2254      1.00000
      4       2.2254      1.00000
      5       4.4700      1.00000
      6       4.4700      1.00000
      7       4.5871      1.00000
      8       4.5871      1.00000
      9       5.8114     -0.02246
     10       5.8114     -0.02246
     11       6.0353     -0.00038
     12       6.0353     -0.00038
     13      12.5666      0.00000
     14      12.5666      0.00000
     15      23.5959      0.00000
     16      23.5959      0.00000
     17      25.2147      0.00000
     18      25.2147      0.00000
     19      28.5172      0.00000
     20      28.5172      0.00000

 k-point    22 :       0.1000    0.1000    0.1000
  band No.  band energies     occupation 
      1      -2.1447      1.00000
      2       1.0939      1.00000
      3       1.0939      1.00000
      4       3.1304      1.00000
      5       3.1304      1.00000
      6       3.6222      1.00000
      7       4.3579      1.00000
      8       4.3579      1.00000
      9       4.7538      1.00000
     10       5.4180      0.77965
     11       5.4180      0.77965
     12      14.2593      0.00000
     13      14.2593      0.00000
     14      15.0573      0.00000
     15      22.6033      0.00000
     16      22.6033      0.00000
     17      27.3193      0.00000
     18      27.5908      0.00000
     19      27.5908      0.00000
     20      30.7589      0.00000

 k-point    23 :       0.2000    0.1000    0.1000
  band No.  band energies     occupation 
      1      -1.5792      1.00000
      2       1.3114      1.00000
      3       1.3208      1.00000
      4       3.0210      1.00000
      5       3.0825      1.00000
      6       3.9009      1.00000
      7       4.1884      1.00000
      8       4.2542      1.00000
      9       4.4703      1.00000
     10       5.0208      1.00230
     11       5.4555      0.63881
     12      11.9150      0.00000
     13      15.1687      0.00000
     14      15.7305      0.00000
     15      22.9420      0.00000
     16      24.1933      0.00000
     17      25.3301      0.00000
     18      26.4842      0.00000
     19      29.2369      0.00000
     20      30.4214      0.00000

 k-point    24 :       0.3000    0.1000    0.1000
  band No.  band energies     occupation 
      1      -0.7176      1.00000
      2       1.5522      1.00000
      3       1.6472      1.00000
      4       2.9996      1.00000
      5       3.0083      1.00000
      6       3.7886      1.00000
      7       3.9637      1.00000
      8       4.2315      1.00000
      9       4.5523      1.00000
     10       4.6444      1.00000
     11       5.3260      0.99352
     12       9.4679     -0.00000
     13      16.4614      0.00000
     14      16.9505      0.00000
     15      23.2422      0.00000
     16      23.5483      0.00000
     17      24.4300      0.00000
     18      25.1393      0.00000
     19      29.1114      0.00000
     20      29.8931      0.00000

 k-point    25 :       0.4000    0.1000    0.1000
  band No.  band energies     occupation 
      1       0.2763      1.00000
      2       1.5537      1.00000
      3       2.0597      1.00000
      4       2.8202      1.00000
      5       3.1168      1.00000
      6       3.4739      1.00000
      7       3.8141      1.00000
      8       4.1431      1.00000
      9       4.5440      1.00000
     10       5.0108      1.00187
     11       5.0848      1.00749
     12       7.3715     -0.00000
     13      17.9739      0.00000
     14      18.4777      0.00000
     15      21.3524      0.00000
     16      22.2530      0.00000
     17      24.4735      0.00000
     18      26.0292      0.00000
     19      27.3560      0.00000
     20      28.6234      0.00000

 k-point    26 :       0.5000    0.1000    0.1000
  band No.  band energies     occupation 
      1       1.1192      1.00000
      2       1.1192      1.00000
[...]

 k-point    50 :       0.4000    0.4000    0.3000
  band No.  band energies     occupation 
      1       3.2092      1.00000
      2       3.4501      1.00000
      3       4.0289      1.00000
      4       4.0954      1.00000
      5       4.2997      1.00000
      6       4.5384      1.00000
      7       7.5658     -0.00000
      8       7.6300     -0.00000
      9       7.7514     -0.00000
     10       7.7705     -0.00000
     11      10.5091     -0.00000
     12      12.4350      0.00000
     13      14.6842      0.00000
     14      17.1593      0.00000
     15      17.2290      0.00000
     16      19.7569      0.00000
     17      20.8966      0.00000
     18      23.5379      0.00000
     19      35.3560      0.00000
     20      36.9771      0.00000

 k-point    51 :       0.5000    0.4000    0.3000
  band No.  band energies     occupation 
      1       3.3361      1.00000
      2       3.3361      1.00000
      3       4.0113      1.00000
      4       4.0113      1.00000
      5       4.5527      1.00000
      6       4.5527      1.00000
      7       7.6157     -0.00000
      8       7.6157     -0.00000
      9       7.8039     -0.00000
     10       7.8039     -0.00000
     11      11.4923      0.00000
     12      11.4923      0.00000
     13      15.5810      0.00000
     14      15.5810      0.00000
     15      18.4670      0.00000
     16      18.4670      0.00000
     17      21.7790      0.00000
     18      21.7790      0.00000
     19      36.4810      0.00000
     20      36.4810      0.00000

 k-point    52 :       0.5000    0.5000    0.3000
  band No.  band energies     occupation 
      1       3.3244      1.00000
      2       3.3244      1.00000
      3       3.9537      1.00000
      4       3.9537      1.00000
      5       4.7074      1.00000
      6       4.7074      1.00000
      7       7.6621     -0.00000
      8       7.6621     -0.00000
      9       7.8258     -0.00000
     10       7.8258     -0.00000
     11      11.9181      0.00000
     12      11.9181      0.00000
     13      14.8164      0.00000
     14      14.8164      0.00000
     15      19.3961      0.00000
     16      19.3961      0.00000
     17      20.4001      0.00000
     18      20.4001      0.00000
     19      37.0709      0.00000
     20      37.0709      0.00000

 k-point    53 :       0.4000    0.4000    0.4000
  band No.  band energies     occupation 
      1       3.6343      1.00000
      2       3.8032      1.00000
      3       3.9700      1.00000
      4       3.9701      1.00000
      5       4.2099      1.00000
      6       4.2100      1.00000
      7       7.7379     -0.00000
      8       7.7381     -0.00000
      9       7.7653     -0.00000
     10       7.7654     -0.00000
     11      11.5769      0.00000
     12      14.0601      0.00000
     13      14.0602      0.00000
     14      16.3525      0.00000
     15      17.7425      0.00000
     16      17.7425      0.00000
     17      19.0868      0.00000
     18      21.4453      0.00000
     19      38.6103      0.00000
     20      38.6103      0.00000

 k-point    54 :       0.5000    0.4000    0.4000
  band No.  band energies     occupation 
      1       3.7119      1.00000
      2       3.7119      1.00000
      3       4.0200      1.00000
      4       4.0200      1.00000
      5       4.2262      1.00000
      6       4.2262      1.00000
      7       7.7512     -0.00000
      8       7.7512     -0.00000
      9       7.8139     -0.00000
     10       7.8139     -0.00000
     11      12.7650      0.00000
     12      12.7650      0.00000
     13      15.8359      0.00000
     14      15.8359      0.00000
     15      16.9697      0.00000
     16      16.9697      0.00000
     17      19.7137      0.00000
     18      19.7137      0.00000
     19      39.6151      0.00000
     20      39.6151      0.00000

 k-point    55 :       0.5000    0.5000    0.4000
  band No.  band energies     occupation 
      1       3.8151      1.00000
      2       3.8151      1.00000
      3       3.9231      1.00000
      4       3.9231      1.00000
      5       4.2688      1.00000
      6       4.2688      1.00000
      7       7.7886     -0.00000
      8       7.7886     -0.00000
      9       7.8377     -0.00000
     10       7.8377     -0.00000
     11      13.6087      0.00000
     12      13.6087      0.00000
     13      15.1357      0.00000
     14      15.1357      0.00000
     15      17.3732      0.00000
     16      17.3732      0.00000
     17      18.4316      0.00000
     18      18.4316      0.00000
     19      40.8222      0.00000
     20      40.8222      0.00000

 k-point    56 :       0.5000    0.5000    0.5000
  band No.  band energies     occupation 
      1       4.0136      1.00000
      2       4.0136      1.00000
      3       4.0137      1.00000
      4       4.0137      1.00000
      5       4.0137      1.00000
      6       4.0137      1.00000
      7       7.8419     -0.00000
      8       7.8419     -0.00000
      9       7.8421     -0.00000
     10       7.8421     -0.00000
     11      15.4348      0.00000
     12      15.4348      0.00000
     13      15.4348      0.00000
     14      15.4348      0.00000
     15      15.4348      0.00000
     16      15.4348      0.00000
     17      17.5303      0.00000
     18      17.5303      0.00000
     19      44.7606      0.00000
     20      44.7606      0.00000


--------------------------------------------------------------------------------------------------------


 soft charge-density along one line, spin component           1
         0         1         2         3         4         5         6         7         8         9
 total charge-density along one line
 
 soft charge-density along one line, spin component           2
         0         1         2         3         4         5         6         7         8         9
 total charge-density along one line
 
 pseudopotential strength for first ion, spin component:           1
 -5.555  -0.000  -0.000   0.000  -0.000  -6.087   0.000  -0.000
 -0.000  -5.555   0.000   0.000   0.000   0.000  -6.087   0.000
 -0.000   0.000  -5.765   0.000   0.000  -0.000   0.000  -6.290
  0.000   0.000   0.000  -5.555  -0.000   0.000   0.000   0.000
 -0.000   0.000   0.000  -0.000  -5.765  -0.000   0.000   0.000
 -6.087   0.000  -0.000   0.000  -0.000  -6.578   0.000  -0.000
  0.000  -6.087   0.000   0.000   0.000   0.000  -6.578   0.000
 -0.000   0.000  -6.290   0.000   0.000  -0.000   0.000  -6.773
  0.000   0.000   0.000  -6.087  -0.000   0.000   0.000   0.000
 -0.000   0.000   0.000  -0.000  -6.290  -0.000   0.000   0.000
 -0.000   0.000   0.000   0.000  -0.000  -0.000   0.000   0.000
 -0.000   0.000   0.000   0.000  -0.000  -0.000   0.000   0.000
  0.000   0.000  -0.000  -0.000  -0.000   0.000   0.000  -0.000
 -0.000   0.000   0.000  -0.000  -0.000  -0.000   0.000   0.000
  0.000  -0.000  -0.000   0.000  -0.000   0.000  -0.000  -0.000
  0.000   0.000  -0.000  -0.000  -0.000   0.000   0.000  -0.000
 -0.000   0.000   0.000  -0.000  -0.000  -0.000   0.000   0.000
  0.000  -0.000  -0.000   0.000  -0.000   0.000  -0.000  -0.000
 pseudopotential strength for first ion, spin component:           2
 -4.129   0.000   0.000   0.000   0.000  -4.704   0.000   0.000
  0.000  -4.129  -0.000  -0.000  -0.000   0.000  -4.704  -0.000
  0.000  -0.000  -3.879  -0.000  -0.000   0.000  -0.000  -4.464
  0.000  -0.000  -0.000  -4.129   0.000   0.000  -0.000  -0.000
  0.000  -0.000  -0.000   0.000  -3.879   0.000  -0.000  -0.000
 -4.704   0.000   0.000   0.000   0.000  -5.237   0.000   0.000
  0.000  -4.704  -0.000  -0.000  -0.000   0.000  -5.237  -0.000
  0.000  -0.000  -4.464  -0.000  -0.000   0.000  -0.000  -5.004
  0.000  -0.000  -0.000  -4.704   0.000   0.000  -0.000  -0.000
  0.000  -0.000  -0.000   0.000  -4.463   0.000  -0.000  -0.000
  0.000  -0.000  -0.000  -0.000   0.000   0.000  -0.000  -0.000
  0.000  -0.000  -0.000  -0.000   0.000   0.000  -0.000  -0.000
  0.000   0.000  -0.000  -0.000  -0.000   0.000   0.000  -0.000
 -0.000   0.000   0.000  -0.000  -0.000  -0.000   0.000   0.000
  0.000  -0.000   0.000   0.000  -0.000   0.000  -0.000   0.000
  0.000   0.000  -0.000  -0.000  -0.000   0.000   0.000  -0.000
 -0.000   0.000   0.000  -0.000  -0.000  -0.000   0.000   0.000
  0.000  -0.000   0.000   0.000  -0.000   0.000  -0.000   0.000
 total augmentation occupancy for first ion, spin component:           1
  2.253   0.000  -0.000   0.000  -0.000  -1.255  -0.000   0.000  -0.000   0.000   0.000   0.000   0.000   0.000  -0.000   0.000
  0.000   2.253   0.000   0.000  -0.000  -0.000  -1.255  -0.000  -0.000   0.000   0.000  -0.000   0.000   0.000   0.000   0.000
 -0.000   0.000   3.658   0.000   0.000   0.000  -0.000  -2.388  -0.000   0.000  -0.000   0.000   0.000  -0.000  -0.000  -0.000
  0.000   0.000   0.000   2.253   0.000  -0.000  -0.000  -0.000  -1.255  -0.000   0.000   0.000   0.000   0.000   0.000   0.000
 -0.000  -0.000   0.000   0.000   3.658   0.000   0.000   0.000  -0.000  -2.388  -0.000  -0.000   0.000   0.000   0.000  -0.000
 -1.255  -0.000   0.000  -0.000   0.000   1.654   0.000  -0.000   0.000  -0.000   0.000  -0.000   0.000   0.000  -0.000   0.000
 -0.000  -1.255  -0.000  -0.000   0.000   0.000   1.654   0.000   0.000  -0.000  -0.000   0.000  -0.000   0.000   0.000   0.000
  0.000  -0.000  -2.388  -0.000   0.000  -0.000   0.000   2.377   0.000  -0.000  -0.000  -0.000  -0.000   0.000  -0.000  -0.000
 -0.000  -0.000  -0.000  -1.255  -0.000   0.000   0.000   0.000   1.654   0.000   0.000   0.000   0.000   0.000   0.000   0.000
  0.000   0.000  -0.000  -0.000  -2.388  -0.000  -0.000   0.000   0.000   2.377   0.000  -0.000   0.000   0.000  -0.000   0.000
  0.000   0.000  -0.000   0.000  -0.000  -0.000  -0.000  -0.000   0.000   0.000   2.436  -0.284   0.000  -0.000   0.000   0.000
  0.000  -0.000   0.000   0.000  -0.000   0.000   0.000  -0.000   0.000   0.000  -0.284   0.039   0.000  -0.000  -0.000   0.000
  0.000   0.000  -0.000   0.000   0.000   0.000  -0.000   0.000   0.000  -0.000  -0.000  -0.000   0.297   0.000   0.000  -0.026
  0.000   0.000   0.000   0.000  -0.000   0.000   0.000   0.000   0.000  -0.000  -0.000   0.000   0.000   0.297   0.000  -0.000
 -0.000   0.000  -0.000   0.000   0.000  -0.000   0.000   0.000   0.000   0.000  -0.000  -0.000   0.000   0.000   0.297  -0.000
  0.000  -0.000  -0.000   0.000   0.000  -0.000   0.000   0.000   0.000  -0.000   0.000   0.000  -0.026  -0.000  -0.000   0.003
  0.000   0.000   0.000   0.000  -0.000   0.000   0.000   0.000   0.000   0.000  -0.000   0.000  -0.000  -0.026  -0.000   0.000
  0.000   0.000  -0.000   0.000  -0.000  -0.000   0.000   0.000  -0.000   0.000   0.000   0.000  -0.000  -0.000  -0.026   0.000
 total augmentation occupancy for first ion, spin component:           2
  1.862   0.000  -0.000   0.000  -0.000  -0.777  -0.000   0.000  -0.000   0.000   0.000  -0.000   0.000   0.000  -0.000   0.000
  0.000   1.862   0.000   0.000  -0.000  -0.000  -0.777  -0.000  -0.000   0.000   0.000  -0.000   0.000   0.000   0.000   0.000
 -0.000   0.000   3.086   0.000   0.000   0.000  -0.000  -1.372  -0.000   0.000   0.000  -0.000   0.000   0.000  -0.000   0.000
  0.000   0.000   0.000   1.862   0.000  -0.000  -0.000  -0.000  -0.777  -0.000   0.000  -0.000   0.000   0.000   0.000   0.000
 -0.000  -0.000   0.000   0.000   3.086   0.000   0.000   0.000  -0.000  -1.372   0.000   0.000   0.000  -0.000  -0.000   0.000
 -0.777  -0.000   0.000  -0.000   0.000   0.086   0.000  -0.000   0.000  -0.000  -0.000   0.000   0.000  -0.000   0.000   0.000
 -0.000  -0.777  -0.000  -0.000   0.000   0.000   0.086  -0.000   0.000  -0.000   0.000  -0.000   0.000   0.000  -0.000   0.000
  0.000  -0.000  -1.372  -0.000   0.000  -0.000  -0.000   0.371   0.000  -0.000   0.000   0.000   0.000   0.000   0.000  -0.000
 -0.000  -0.000  -0.000  -0.777  -0.000   0.000   0.000  -0.000   0.086   0.000   0.000   0.000  -0.000   0.000   0.000   0.000
  0.000   0.000   0.000  -0.000  -1.372  -0.000  -0.000  -0.000   0.000   0.371  -0.000   0.000   0.000   0.000   0.000   0.000
  0.000   0.000   0.000   0.000   0.000  -0.000   0.000   0.000   0.000  -0.000  -0.331   0.099   0.000   0.000  -0.000   0.000
 -0.000  -0.000  -0.000  -0.000   0.000  -0.000  -0.000   0.000   0.000  -0.000   0.099  -0.017   0.000   0.000   0.000   0.000
  0.000   0.000   0.000   0.000  -0.000   0.000   0.000   0.000  -0.000  -0.000  -0.000   0.000  -0.038  -0.000  -0.000   0.006
  0.000  -0.000  -0.000   0.000   0.000  -0.000   0.000   0.000   0.000  -0.000   0.000   0.000  -0.000  -0.038  -0.000   0.000
 -0.000   0.000   0.000   0.000   0.000   0.000  -0.000  -0.000   0.000  -0.000   0.000   0.000  -0.000  -0.000  -0.038   0.000
  0.000  -0.000  -0.000   0.000   0.000   0.000   0.000   0.000   0.000   0.000   0.000  -0.000   0.006   0.000   0.000  -0.001
  0.000  -0.000   0.000   0.000  -0.000   0.000   0.000   0.000   0.000  -0.000   0.000   0.000   0.000   0.006   0.000  -0.000
  0.000   0.000   0.000  -0.000  -0.000  -0.000   0.000  -0.000  -0.000   0.000   0.000   0.000   0.000   0.000   0.006  -0.000


------------------------ aborting loop because EDIFF is reached ----------------------------------------





 total charge

# of ion       s       p       d       tot
------------------------------------------
    1        0.489   0.547   6.240   7.276
    2        0.489   0.547   6.240   7.276
--------------------------------------------------
tot          0.978   1.093  12.480  14.552



 magnetization (x)

# of ion       s       p       d       tot
------------------------------------------
    1       -0.014  -0.058   2.237   2.165
    2       -0.014  -0.058   2.237   2.165
--------------------------------------------------
tot         -0.028  -0.116   4.474   4.330
 
    CHARGE:  cpu time    0.1190: real time    0.1188
    FORLOC:  cpu time    0.0010: real time    0.0008
    FORNL :  cpu time    0.3010: real time    0.3021
    STRESS:  cpu time    1.0288: real time    1.0294
    FORCOR:  cpu time    0.0330: real time    0.0339
    FORHAR:  cpu time    0.0030: real time    0.0029
    MIXING:  cpu time    0.0000: real time    0.0011
    OFIELD:  cpu time    0.0010: real time    0.0002

  FORCE on cell =-STRESS in cart. coord.  units (eV):
  Direction    XX          YY          ZZ          XY          YZ          ZX
  --------------------------------------------------------------------------------------
  Alpha Z   122.34960   122.34960   122.34960
  Ewald    -395.44310  -395.44310  -395.44310    -0.00000     0.00000     0.00000
  Hartree    63.08932    63.08932    63.08932    -0.00000    -0.00000    -0.00000
  E(xc)     -79.45779   -79.45779   -79.45779     0.00000     0.00000    -0.00000
  Local     118.24016   118.24016   118.24016     0.00000    -0.00000    -0.00000
  n-local   -54.82460   -51.66920   -49.00425     2.32499    -0.80745     0.65819
  augment    77.40188    77.40188    77.40189     0.00000     0.00000     0.00000
  Kinetic   148.00360   145.30527   143.65054     2.74707    -0.52937     0.20872
  Fock        0.00000     0.00000     0.00000     0.00000     0.00000     0.00000
  -------------------------------------------------------------------------------------
  Total       0.00055     0.00055     0.00055     0.00000    -0.00000     0.00000
  in kB       0.03902     0.03902     0.03902     0.00000    -0.00000     0.00000
  external pressure =        0.04 kB  Pullay stress =        0.00 kB


 VOLUME and BASIS-vectors are now :
 -----------------------------------------------------------------------------
  energy-cutoff  :      350.00
  volume of cell :       22.60
      direct lattice vectors                 reciprocal lattice vectors
     2.827096810 -0.000000000  0.000000000     0.353719758 -0.000000000 -0.000000000
     0.000000000  2.827096810  0.000000000     0.000000000  0.353719758  0.000000000
     0.000000000 -0.000000000  2.827096810    -0.000000000 -0.000000000  0.353719758

  length of vectors
     2.827096810  2.827096810  2.827096810     0.353719758  0.353719758  0.353719758


 FORCES acting on ions
    electron-ion (+dipol)            ewald-force                    non-local-force                 convergence-correction
 -----------------------------------------------------------------------------------------------
   -.389E-14 -.147E-13 -.256E-13   0.171E-14 0.174E-15 -.233E-14   -.189E-24 0.553E-27 0.207E-24   -.186E-13 0.237E-13 0.358E-14
   0.151E-12 -.538E-12 0.522E-13   -.305E-14 0.982E-15 0.244E-14   0.121E-24 0.521E-27 0.258E-24   0.155E-13 0.181E-13 0.369E-14
 -----------------------------------------------------------------------------------------------
   0.147E-12 -.553E-12 0.266E-13   -.134E-14 0.116E-14 0.115E-15   -.681E-25 0.107E-26 0.465E-24   -.305E-14 0.418E-13 0.727E-14
 
 
 POSITION                                       TOTAL-FORCE (eV/Angst)
 -----------------------------------------------------------------------------------
     -0.00000      0.00000      0.00000         0.000000      0.000000      0.000000
      1.41355      1.41355      1.41355        -0.000000     -0.000000     -0.000000
 -----------------------------------------------------------------------------------
    total drift:                                0.000000     -0.000000      0.000000


--------------------------------------------------------------------------------------------------------



  FREE ENERGIE OF THE ION-ELECTRON SYSTEM (eV)
  ---------------------------------------------------
  free  energy   TOTEN  =       -16.50092901 eV

  energy  without entropy=      -16.49817524  energy(sigma->0) =      -16.50001109
 
 d Force = 0.0000000E+00[ 0.000E+00, 0.000E+00]  d Energy = 0.1176173E-01-0.118E-01
 d Force = 0.0000000E+00[ 0.000E+00, 0.000E+00]  d Ewald  =-0.1184065E+02 0.118E+02


--------------------------------------------------------------------------------------------------------


    POTLOK:  cpu time    1.5818: real time    1.5918


--------------------------------------------------------------------------------------------------------




--------------------------------------------------------------------------------------------------------


  
 reached required accuracy - stopping structural energy minimisation
 writing wavefunctions
     LOOP+:  cpu time   34.8357: real time   35.6335
    4ORBIT:  cpu time    0.0000: real time    0.0000



 total charge

# of ion       s       p       d       tot
------------------------------------------
    1        0.489   0.547   6.240   7.276
    2        0.489   0.547   6.240   7.276
--------------------------------------------------
tot          0.978   1.093  12.480  14.552



 magnetization (x)

# of ion       s       p       d       tot
------------------------------------------
    1       -0.014  -0.058   2.237   2.165
    2       -0.014  -0.058   2.237   2.165
--------------------------------------------------
tot         -0.028  -0.116   4.474   4.330
 

 total amount of memory used by VASP MPI-rank0    39788. kBytes
=======================================================================

   base      :      30000. kBytes
   nonl-proj :       2979. kBytes
   fftplans  :       1775. kBytes
   grid      :       1353. kBytes
   one-center:         62. kBytes
   wavefun   :       3619. kBytes
 
  
  
 General timing and accounting informations for this job:
 ========================================================
  
                  Total CPU time used (sec):      116.981
                            User time (sec):      115.148
                          System time (sec):        1.833
                         Elapsed time (sec):      123.143
  
                   Maximum memory used (kb):       71916.
                   Average memory used (kb):          N/A
  
                          Minor page faults:        11174
                          Major page faults:            1
                 Voluntary context switches:       153962
