<?xml version="1.0" encoding="ISO-8859-1"?>
<modeling>
 <generator>
  <i name="program" type="string">vasp </i>
  <i name="version" type="string">6.2.0  </i>
  <i name="subversion" type="string">18Jan21 (build Aug 12 2022 13:00:08) complex                          parallel </i>
  <i name="platform" type="string">LinuxIFC </i>
  <i name="date" type="string">2024 11 04 </i>
  <i name="time" type="string">04:59:03 </i>
 </generator>
 <incar>
  <i type="int" name="ISTART">     0</i>
  <i type="string" name="PREC">Accurate      (Accurate strictly avoids</i>
  <i type="logical" name="ADDGRID"> T  </i>
  <i type="int" name="ISPIN">     2</i>
  <i type="int" name="NELM">    90</i>
  <i type="int" name="NELMIN">     6</i>
  <i type="int" name="IBRION">     2</i>
  <i name="EDIFF">      0.00000100</i>
  <i name="EDIFFG">     -0.00200000</i>
  <i type="int" name="NSW">   100</i>
  <i type="int" name="ISIF">     3</i>
  <i type="int" name="ISYM">     2</i>
  <i name="ENCUT">    350.00000000</i>
  <v name="MAGMOM">      5.00000000      5.00000000</v>
  <i type="logical" name="LREAL"> F  </i>
  <i type="int" name="ISMEAR">     1</i>
  <i name="SIGMA">      0.20000000</i>
  <i name="KSPACING">      0.24000000</i>
  <i type="int" name="LMAXMIX">     4</i>
  <i type="int" name="LORBIT">    11</i>
  <i type="logical" name="LASPH"> T  </i>
  <i type="logical" name="GGA_COMPAT"> F  </i>
  <i type="int" name="VOSKOWN">     1</i>
 </incar>
 <primitive_cell>
  <structure name="primitive_cell" >
   <crystal>
    <varray name="basis" >
     <v>       1.43151775       1.43151775      -1.43151775 </v>
     <v>      -1.43151775       1.43151775       1.43151775 </v>
     <v>       1.43151775      -1.43151775       1.43151775 </v>
    </varray>
    <i name="volume">     11.73411129 </i>
    <varray name="rec_basis" >
     <v>       0.34927964       0.34927964       0.00000000 </v>
     <v>       0.00000000       0.34927964       0.34927964 </v>
     <v>       0.34927964      -0.00000000       0.34927964 </v>
    </varray>
   </crystal>
   <varray name="positions" >
    <v>       0.00000000       0.00000000       0.00000000 </v>
   </varray>
  </structure>
  <varray name="primitive_index" >
   <v type="int" >        1 </v>
  </varray>
 </primitive_cell>
 <kpoints>
  <generation param="Gamma">
   <v type="int" name="divisions">      10       10       10 </v>
   <v name="usershift">      0.00000000       0.00000000       0.00000000 </v>
   <v name="genvec1">      0.10000000       0.00000000       0.00000000 </v>
   <v name="genvec2">      0.00000000       0.10000000       0.00000000 </v>
   <v name="genvec3">      0.00000000       0.00000000       0.10000000 </v>
   <v name="shift">      0.00000000       0.00000000       0.00000000 </v>
  </generation>
  <varray name="kpointlist" >
   <v>       0.00000000       0.00000000       0.00000000 </v>
   <v>       0.10000000       0.00000000       0.00000000 </v>
   <v>       0.20000000       0.00000000       0.00000000 </v>
   <v>       0.30000000      -0.00000000       0.00000000 </v>
   <v>       0.40000000       0.00000000       0.00000000 </v>
   <v>       0.50000000       0.00000000       0.00000000 </v>
   <v>       0.10000000       0.10000000       0.00000000 </v>
   <v>       0.20000000       0.10000000       0.00000000 </v>
   <v>       0.30000000       0.10000000       0.00000000 </v>
   <v>       0.40000000       0.10000000       0.00000000 </v>
   <v>       0.50000000       0.10000000       0.00000000 </v>
   <v>       0.20000000       0.20000000       0.00000000 </v>
   <v>       0.30000000       0.20000000       0.00000000 </v>
   <v>       0.40000000       0.20000000       0.00000000 </v>
   <v>       0.50000000       0.20000000       0.00000000 </v>
   <v>       0.30000000       0.30000000       0.00000000 </v>
   <v>       0.40000000       0.30000000       0.00000000 </v>
   <v>       0.50000000       0.30000000       0.00000000 </v>
   <v>       0.40000000       0.40000000       0.00000000 </v>
   <v>       0.50000000       0.40000000       0.00000000 </v>
   <v>       0.50000000       0.50000000       0.00000000 </v>
   <v>       0.10000000       0.10000000       0.10000000 </v>
   <v>       0.20000000       0.10000000       0.10000000 </v>
   <v>       0.30000000       0.10000000       0.10000000 </v>
   <v>       0.40000000       0.10000000       0.10000000 </v>
   <v>       0.50000000       0.10000000       0.10000000 </v>
   <v>       0.20000000       0.20000000       0.10000000 </v>
   <v>       0.30000000       0.20000000       0.10000000 </v>
   <v>       0.40000000       0.20000000       0.10000000 </v>
   <v>       0.50000000       0.20000000       0.10000000 </v>
   <v>       0.30000000       0.30000000       0.10000000 </v>
   <v>       0.40000000       0.30000000       0.10000000 </v>
   <v>       0.50000000       0.30000000       0.10000000 </v>
   <v>       0.40000000       0.40000000       0.10000000 </v>
   <v>       0.50000000       0.40000000       0.10000000 </v>
   <v>       0.50000000       0.50000000       0.10000000 </v>
   <v>       0.20000000       0.20000000       0.20000000 </v>
   <v>       0.30000000       0.20000000       0.20000000 </v>
   <v>       0.40000000       0.20000000       0.20000000 </v>
   <v>       0.50000000       0.20000000       0.20000000 </v>
   <v>       0.30000000       0.30000000       0.20000000 </v>
   <v>       0.40000000       0.30000000       0.20000000 </v>
   <v>       0.50000000       0.30000000       0.20000000 </v>
   <v>       0.40000000       0.40000000       0.20000000 </v>
   <v>       0.50000000       0.40000000       0.20000000 </v>
   <v>       0.50000000       0.50000000       0.20000000 </v>
   <v>       0.30000000       0.30000000       0.30000000 </v>
   <v>       0.40000000       0.30000000       0.30000000 </v>
   <v>       0.50000000       0.30000000       0.30000000 </v>
   <v>       0.40000000       0.40000000       0.30000000 </v>
   <v>       0.50000000       0.40000000       0.30000000 </v>
   <v>       0.50000000       0.50000000       0.30000000 </v>
   <v>       0.40000000       0.40000000       0.40000000 </v>
   <v>       0.50000000       0.40000000       0.40000000 </v>
   <v>       0.50000000       0.50000000       0.40000000 </v>
   <v>       0.50000000       0.50000000       0.50000000 </v>
  </varray>
  <varray name="weights" >
   <v>       0.00100000 </v>
   <v>       0.00600000 </v>
   <v>       0.00600000 </v>
   <v>       0.00600000 </v>
   <v>       0.00600000 </v>
   <v>       0.00300000 </v>
   <v>       0.01200000 </v>
   <v>       0.02400000 </v>
   <v>       0.02400000 </v>
   <v>       0.02400000 </v>
   <v>       0.01200000 </v>
   <v>       0.01200000 </v>
   <v>       0.02400000 </v>
   <v>       0.02400000 </v>
   <v>       0.01200000 </v>
   <v>       0.01200000 </v>
   <v>       0.02400000 </v>
   <v>       0.01200000 </v>
   <v>       0.01200000 </v>
   <v>       0.01200000 </v>
   <v>       0.00300000 </v>
   <v>       0.00800000 </v>
   <v>       0.02400000 </v>
   <v>       0.02400000 </v>
   <v>       0.02400000 </v>
   <v>       0.01200000 </v>
   <v>       0.02400000 </v>
   <v>       0.04800000 </v>
   <v>       0.04800000 </v>
   <v>       0.02400000 </v>
   <v>       0.02400000 </v>
   <v>       0.04800000 </v>
   <v>       0.02400000 </v>
   <v>       0.02400000 </v>
   <v>       0.02400000 </v>
   <v>       0.00600000 </v>
   <v>       0.00800000 </v>
   <v>       0.02400000 </v>
   <v>       0.02400000 </v>
   <v>       0.01200000 </v>
   <v>       0.02400000 </v>
   <v>       0.04800000 </v>
   <v>       0.02400000 </v>
   <v>       0.02400000 </v>
   <v>       0.02400000 </v>
   <v>       0.00600000 </v>
   <v>       0.00800000 </v>
   <v>       0.02400000 </v>
   <v>       0.01200000 </v>
   <v>       0.02400000 </v>
   <v>       0.02400000 </v>
   <v>       0.00600000 </v>
   <v>       0.00800000 </v>
   <v>       0.01200000 </v>
   <v>       0.00600000 </v>
   <v>       0.00100000 </v>
  </varray>
 </kpoints>
 <parameters>
  <separator name="general" >
   <i type="string" name="SYSTEM">unknown system</i>
   <i type="logical" name="LCOMPAT"> F  </i>
  </separator>
  <separator name="electronic" >
   <i type="string" name="PREC">accura</i>
   <i name="ENMAX">    350.00000000</i>
   <i name="ENAUG">    511.36800000</i>
   <i name="EDIFF">      0.00000100</i>
   <i type="int" name="IALGO">    38</i>
   <i type="int" name="IWAVPR">    11</i>
   <i type="int" name="NBANDS">    20</i>
   <i type="int" name="NBANDSLOW">    -1</i>
   <i type="int" name="NBANDSHIGH">    -1</i>
   <i name="NELECT">     16.00000000</i>
   <i type="int" name="TURBO">     0</i>
   <i type="int" name="IRESTART">     0</i>
   <i type="int" name="NREBOOT">     0</i>
   <i type="int" name="NMIN">     0</i>
   <i name="EREF">      0.00000000</i>
   <separator name="electronic smearing" >
    <i type="int" name="ISMEAR">     1</i>
    <i name="SIGMA">      0.20000000</i>
    <i name="KSPACING">      0.24000000</i>
    <i type="logical" name="KGAMMA"> T  </i>
    <i type="logical" name="KBLOWUP"> T  </i>
   </separator>
   <separator name="electronic projectors" >
    <i type="logical" name="LREAL"> F  </i>
    <v name="ROPT">      0.00000000</v>
    <i type="int" name="LMAXPAW">  -100</i>
    <i type="int" name="LMAXMIX">     4</i>
    <i type="logical" name="NLSPLINE"> F  </i>
   </separator>
   <separator name="electronic startup" >
    <i type="int" name="ISTART">     0</i>
    <i type="int" name="ICHARG">     2</i>
    <i type="int" name="INIWAV">     1</i>
   </separator>
   <separator name="electronic spin" >
    <i type="int" name="ISPIN">     2</i>
    <i type="logical" name="LNONCOLLINEAR"> F  </i>
    <v name="MAGMOM">      5.00000000      5.00000000</v>
    <i name="NUPDOWN">     -1.00000000</i>
    <i type="logical" name="LSORBIT"> F  </i>
    <v name="SAXIS">      0.00000000      0.00000000      1.00000000</v>
    <i type="logical" name="LSPIRAL"> F  </i>
    <v name="QSPIRAL">      0.00000000      0.00000000      0.00000000</v>
    <i type="logical" name="LZEROZ"> F  </i>
   </separator>
   <separator name="electronic exchange-correlation" >
    <i type="logical" name="LASPH"> T  </i>
    <i type="logical" name="LMETAGGA"> F  </i>
   </separator>
   <separator name="electronic convergence" >
    <i type="int" name="NELM">    90</i>
    <i type="int" name="NELMDL">    -5</i>
    <i type="int" name="NELMIN">     6</i>
    <i name="ENINI">    350.00000000</i>
    <separator name="electronic convergence detail" >
     <i type="logical" name="LDIAG"> T  </i>
     <i type="logical" name="LSUBROT"> F  </i>
     <i name="WEIMIN">      0.00100000</i>
     <i name="EBREAK">      0.00000001</i>
     <i name="DEPER">      0.30000000</i>
     <i type="int" name="NRMM">     4</i>
     <i name="TIME">      0.40000000</i>
    </separator>
   </separator>
   <separator name="electronic mixer" >
    <i name="AMIX">      0.40000000</i>
    <i name="BMIX">      1.00000000</i>
    <i name="AMIN">      0.10000000</i>
    <i name="AMIX_MAG">      1.60000000</i>
    <i name="BMIX_MAG">      1.00000000</i>
    <separator name="electronic mixer details" >
     <i type="int" name="IMIX">     4</i>
     <i type="logical" name="MIXFIRST"> F  </i>
     <i type="int" name="MAXMIX">   -45</i>
     <i name="WC">    100.00000000</i>
     <i type="int" name="INIMIX">     1</i>
     <i type="int" name="MIXPRE">     1</i>
     <i type="int" name="MREMOVE">     5</i>
    </separator>
   </separator>
   <separator name="electronic dipolcorrection" >
    <i type="logical" name="LDIPOL"> F  </i>
    <i type="logical" name="LMONO"> F  </i>
    <i type="int" name="IDIPOL">     0</i>
    <i name="EPSILON">      1.00000000</i>
    <v name="DIPOL">   -100.00000000   -100.00000000   -100.00000000</v>
    <i name="EFIELD">      0.00000000</i>
   </separator>
  </separator>
  <separator name="grids" >
   <i type="int" name="NGX">    18</i>
   <i type="int" name="NGY">    18</i>
   <i type="int" name="NGZ">    18</i>
   <i type="int" name="NGXF">    36</i>
   <i type="int" name="NGYF">    36</i>
   <i type="int" name="NGZF">    36</i>
   <i type="logical" name="ADDGRID"> T  </i>
  </separator>
  <separator name="ionic" >
   <i type="int" name="NSW">   100</i>
   <i type="int" name="IBRION">     2</i>
   <i type="int" name="MDALGO">     0</i>
   <i type="int" name="ISIF">     3</i>
   <i name="PSTRESS">      0.00000000</i>
   <i name="EDIFFG">     -0.00200000</i>
   <i type="int" name="NFREE">     1</i>
   <i name="POTIM">      0.50000000</i>
   <i name="SMASS">     -3.00000000</i>
   <i name="SCALEE">      1.00000000</i>
  </separator>
  <separator name="ionic md" >
   <i name="TEBEG">      0.00010000</i>
   <i name="TEEND">      0.00010000</i>
   <i type="int" name="NBLOCK">     1</i>
   <i type="int" name="KBLOCK">   100</i>
   <i type="int" name="NPACO">   256</i>
   <i name="APACO">     16.00000000</i>
  </separator>
  <separator name="symmetry" >
   <i type="int" name="ISYM">     2</i>
   <i name="SYMPREC">      0.00001000</i>
  </separator>
  <separator name="dos" >
   <i type="int" name="LORBIT">    11</i>
   <v name="RWIGS">     -1.00000000</v>
   <i type="int" name="NEDOS">   301</i>
   <i name="EMIN">     10.00000000</i>
   <i name="EMAX">    -10.00000000</i>
   <i name="EFERMI">      0.00000000</i>
  </separator>
  <separator name="writing" >
   <i type="int" name="NWRITE">     2</i>
   <i type="logical" name="LWAVE"> T  </i>
   <i type="logical" name="LDOWNSAMPLE"> F  </i>
   <i type="logical" name="LCHARG"> T  </i>
   <i type="logical" name="LPARD"> F  </i>
   <i type="logical" name="LVTOT"> F  </i>
   <i type="logical" name="LVHAR"> F  </i>
   <i type="logical" name="LELF"> F  </i>
   <i type="logical" name="LOPTICS"> F  </i>
   <v name="STM">      0.00000000      0.00000000      0.00000000      0.00000000      0.00000000      0.00000000      0.00000000</v>
  </separator>
  <separator name="performance" >
   <i type="int" name="NPAR">     4</i>
   <i type="int" name="NSIM">     4</i>
   <i type="int" name="NBLK">    -1</i>
   <i type="logical" name="LPLANE"> T  </i>
   <i type="logical" name="LSCALAPACK"> T  </i>
   <i type="logical" name="LSCAAWARE"> F  </i>
   <i type="logical" name="LSCALU"> F  </i>
   <i type="logical" name="LASYNC"> F  </i>
   <i type="logical" name="LORBITALREAL"> F  </i>
  </separator>
  <separator name="miscellaneous" >
   <i type="int" name="IDIOT">     3</i>
   <i type="int" name="PHON_NSTRUCT">    -1</i>
   <i type="logical" name="LMUSIC"> F  </i>
   <v name="POMASS">     55.84700000</v>
   <v name="DARWINR">      0.00000000</v>
   <v name="DARWINV">      1.00000000</v>
   <i type="logical" name="LCORR"> T  </i>
  </separator>
  <i type="logical" name="GGA_COMPAT"> F  </i>
  <i type="logical" name="LBERRY"> F  </i>
  <i type="int" name="ICORELEVEL">     0</i>
  <i type="logical" name="LDAU"> F  </i>
  <i type="int" name="I_CONSTRAINED_M">     0</i>
  <separator name="electronic exchange-correlation" >
   <i type="string" name="GGA">--</i>
   <i type="int" name="VOSKOWN">     1</i>
   <i type="logical" name="LHFCALC"> F  </i>
   <i type="string" name="PRECFOCK"></i>
   <i type="logical" name="LSYMGRAD"> F  </i>
   <i type="logical" name="LHFONE"> F  </i>
   <i type="logical" name="LRHFCALC"> F  </i>
   <i type="logical" name="LTHOMAS"> F  </i>
   <i type="logical" name="LMODELHF"> F  </i>
   <i type="logical" name="LFOCKACE"> F  </i>
   <i name="ENCUT4O">     -1.00000000</i>
   <i type="int" name="EXXOEP">     0</i>
   <i type="int" name="FOURORBIT">     0</i>
   <i name="AEXX">      0.00000000</i>
   <i name="HFALPHA">      0.00000000</i>
   <i name="MCALPHA">      0.00000000</i>
   <i name="ALDAX">      1.00000000</i>
   <i name="AGGAX">      1.00000000</i>
   <i name="ALDAC">      1.00000000</i>
   <i name="AGGAC">      1.00000000</i>
   <i type="int" name="NKREDX">     1</i>
   <i type="int" name="NKREDY">     1</i>
   <i type="int" name="NKREDZ">     1</i>
   <i type="logical" name="SHIFTRED"> F  </i>
   <i type="logical" name="ODDONLY"> F  </i>
   <i type="logical" name="EVENONLY"> F  </i>
   <i type="int" name="LMAXFOCK">     0</i>
   <i type="int" name="NMAXFOCKAE">     0</i>
   <i type="logical" name="LFOCKAEDFT"> F  </i>
   <i name="HFSCREEN">      0.00000000</i>
   <i name="HFSCREENC">      0.00000000</i>
   <i type="int" name="NBANDSGWLOW">     0</i>
  </separator>
  <separator name="vdW DFT" >
   <i type="logical" name="LUSE_VDW"> F  </i>
   <i name="Zab_VDW">     -0.84910000</i>
   <i name="PARAM1">      0.12340000</i>
   <i name="PARAM2">      1.00000000</i>
   <i name="PARAM3">      0.00000000</i>
  </separator>
  <separator name="model GW" >
   <i type="int" name="MODEL_GW">     0</i>
   <i name="MODEL_EPS0">      7.04046678</i>
   <i name="MODEL_ALPHA">      1.00000000</i>
  </separator>
  <separator name="linear response parameters" >
   <i type="logical" name="LEPSILON"> F  </i>
   <i type="logical" name="LRPA"> F  </i>
   <i type="logical" name="LNABLA"> F  </i>
   <i type="logical" name="LVEL"> F  </i>
   <i type="int" name="KINTER">     0</i>
   <i name="CSHIFT">      0.10000000</i>
   <i name="OMEGAMAX">     -1.00000000</i>
   <i name="DEG_THRESHOLD">      0.00200000</i>
   <i name="RTIME">     -0.10000000</i>
   <i name="WPLASMAI">      0.00000000</i>
   <v name="DFIELD">      0.00000000      0.00000000      0.00000000</v>
   <v name="WPLASMA">      0.00000000      0.00000000      0.00000000      0.00000000      0.00000000      0.00000000      0.00000000      0.00000000      0.00000000</v>
  </separator>
  <separator name="orbital magnetization" >
   <i type="logical" name="NUCIND"> F  </i>
   <v name="MAGPOS">      0.00000000      0.00000000      0.00000000</v>
   <i type="logical" name="LNICSALL"> T  </i>
   <i type="logical" name="ORBITALMAG"> F  </i>
   <i type="logical" name="LMAGBLOCH"> F  </i>
   <i type="logical" name="LCHIMAG"> F  </i>
   <i type="logical" name="LGAUGE"> T  </i>
   <i type="int" name="MAGATOM">     0</i>
   <v name="MAGDIPOL">      0.00000000      0.00000000      0.00000000</v>
   <v name="AVECCONST">      0.00000000      0.00000000      0.00000000</v>
  </separator>
  <separator name="response functions" >
   <i type="logical" name="LFINITE_TEMPERATURE"> F  </i>
   <i type="logical" name="LADDER"> F  </i>
   <i type="logical" name="LRPAFORCE"> F  </i>
   <i type="logical" name="LFXC"> F  </i>
   <i type="logical" name="LHARTREE"> T  </i>
   <i type="int" name="IBSE">     0</i>
   <v type="int" name="KPOINT">    -1     0     0     0</v>
   <i type="logical" name="LTCTC"> F  </i>
   <i type="logical" name="LTCTE"> F  </i>
   <i type="logical" name="LTETE"> F  </i>
   <i type="logical" name="LTRIPLET"> F  </i>
   <i type="logical" name="LFXCEPS"> F  </i>
   <i type="logical" name="LFXHEG"> F  </i>
   <i type="int" name="NATURALO">     2</i>
   <i type="logical" name="LHOLEGF"> F  </i>
   <i type="logical" name="L2ORDER"> F  </i>
   <i type="logical" name="LDMP1"> F  </i>
   <i type="logical" name="LMP2LT"> F  </i>
   <i type="logical" name="LSMP2LT"> F  </i>
   <i type="logical" name="LGWLF"> F  </i>
   <i name="ENCUTGW">     -2.00000000</i>
   <i name="ENCUTGWSOFT">     -2.00000000</i>
   <i name="ENCUTLF">     -1.00000000</i>
   <i type="logical" name="LESF_SPLINES"> F  </i>
   <i type="int" name="LMAXMP2">    -1</i>
   <i name="SCISSOR">      0.00000000</i>
   <i type="int" name="NOMEGA">     0</i>
   <i type="int" name="NOMEGAR">     0</i>
   <i type="int" name="NBANDSGW">    -1</i>
   <i type="int" name="NBANDSO">    -1</i>
   <i type="int" name="NBANDSV">    -1</i>
   <i type="int" name="NELM">    90</i>
   <i type="int" name="NELMHF">     1</i>
   <i type="int" name="DIM">     3</i>
   <i type="int" name="IESPILON">     4</i>
   <i type="int" name="ANTIRES">     0</i>
   <i name="OMEGAMAX">    -30.00000000</i>
   <i name="OMEGAMIN">    -30.00000000</i>
   <i name="OMEGATL">   -200.00000000</i>
   <i type="int" name="OMEGAGRID">     0</i>
   <i name="CSHIFT">     -0.10000000</i>
   <i type="logical" name="LSELFENERGY"> F  </i>
   <i type="logical" name="LSPECTRAL"> F  </i>
   <i type="logical" name="LSPECTRALGW"> F  </i>
   <i type="logical" name="LSINGLES"> F  </i>
   <i type="logical" name="LFERMIGW"> F  </i>
   <i type="logical" name="ODDONLYGW"> F  </i>
   <i type="logical" name="EVENONLYGW"> F  </i>
   <i type="int" name="NKREDLFX">     1</i>
   <i type="int" name="NKREDLFY">     1</i>
   <i type="int" name="NKREDLFZ">     1</i>
   <i type="int" name="MAXMEM">  2800</i>
   <i type="int" name="TELESCOPE">     0</i>
   <i type="int" name="NTAUPAR">    -1</i>
   <i type="int" name="NOMEGAPAR">    -1</i>
   <i name="DAMP_NEWTON">      0.80000001</i>
   <i name="LAMBDA">      1.00000000</i>
  </separator>
  <separator name="External order field" >
   <i name="OFIELD_KAPPA">      0.00000000</i>
   <v name="OFIELD_K">      0.00000000      0.00000000      0.00000000</v>
   <i name="OFIELD_Q6_NEAR">      0.00000000</i>
   <i name="OFIELD_Q6_FAR">      0.00000000</i>
   <i name="OFIELD_A">      0.00000000</i>
  </separator>
 </parameters>
 <atominfo>
  <atoms>       2 </atoms>
  <types>       1 </types>
  <array name="atoms" >
   <dimension dim="1">ion</dimension>
   <field type="string">element</field>
   <field type="int">atomtype</field>
   <set>
    <rc><c>Fe</c><c>   1</c></rc>
    <rc><c>Fe</c><c>   1</c></rc>
   </set>
  </array>
  <array name="atomtypes" >
   <dimension dim="1">type</dimension>
   <field type="int">atomspertype</field>
   <field type="string">element</field>
   <field>mass</field>
   <field>valence</field>
   <field type="string">pseudopotential</field>
   <set>
    <rc><c>   2</c><c>Fe</c><c>     55.84700000</c><c>      8.00000000</c><c>  PAW_PBE Fe 06Sep2000                  </c></rc>
   </set>
  </array>
 </atominfo>
 <structure name="initialpos" >
  <crystal>
   <varray name="basis" >
    <v>       2.86303550       0.00000000       0.00000000 </v>
    <v>       0.00000000       2.86303550       0.00000000 </v>
    <v>       0.00000000       0.00000000       2.86303550 </v>
   </varray>
   <i name="volume">     23.46822259 </i>
   <varray name="rec_basis" >
    <v>       0.34927964      -0.00000000       0.00000000 </v>
    <v>       0.00000000       0.34927964       0.00000000 </v>
    <v>      -0.00000000      -0.00000000       0.34927964 </v>
   </varray>
  </crystal>
  <varray name="positions" >
   <v>       0.00000000       0.00000000       0.00000000 </v>
   <v>       0.50000000       0.50000000       0.50000000 </v>
  </varray>
 </structure>
 <calculation>
  <scstep>
   <time name="dav">    1.79    1.79</time>
   <time name="total">    3.38    3.38</time>
   <energy>
    <i name="alphaZ">    117.79976220 </i>
    <i name="ewald">  -1171.43779597 </i>
    <i name="hartreedc">   -228.04061711 </i>
    <i name="XCdc">     14.27160946 </i>
    <i name="pawpsdc">   1103.49540010 </i>
    <i name="pawaedc">  -1119.11610375 </i>
    <i name="eentropy">      0.00219579 </i>
    <i name="bandstr">    157.76032494 </i>
    <i name="atom">   1188.58965621 </i>
    <i name="e_fr_energy">     63.32443187 </i>
    <i name="e_wo_entrp">     63.32223608 </i>
    <i name="e_0_energy">     63.32369994 </i>
   </energy>
  </scstep>
  <scstep>
   <time name="dav">    1.65    1.67</time>
   <time name="total">    1.66    1.68</time>
   <energy>
    <i name="e_fr_energy">    -13.42929051 </i>
    <i name="e_wo_entrp">    -13.43091280 </i>
    <i name="e_0_energy">    -13.42983127 </i>
   </energy>
  </scstep>
  <scstep>
   <time name="dav">    1.78    1.80</time>
   <time name="total">    1.79    1.81</time>
   <energy>
    <i name="e_fr_energy">    -16.06518404 </i>
    <i name="e_wo_entrp">    -16.06633526 </i>
    <i name="e_0_energy">    -16.06556778 </i>
   </energy>
  </scstep>
  <scstep>
   <time name="dav">    1.74    1.76</time>
   <time name="total">    1.75    1.76</time>
   <energy>
    <i name="e_fr_energy">    -16.08469295 </i>
    <i name="e_wo_entrp">    -16.08583016 </i>
    <i name="e_0_energy">    -16.08507202 </i>
   </energy>
  </scstep>
  <scstep>
   <time name="dav">    1.77    1.79</time>
   <time name="total">    1.91    1.93</time>
   <energy>
    <i name="e_fr_energy">    -16.08494018 </i>
    <i name="e_wo_entrp">    -16.08607729 </i>
    <i name="e_0_energy">    -16.08531922 </i>
   </energy>
  </scstep>
  <scstep>
   <time name="dav">    1.76    1.76</time>
   <time name="total">    3.46    3.48</time>
   <energy>
    <i name="e_fr_energy">    -16.57369473 </i>
    <i name="e_wo_entrp">    -16.57525693 </i>
    <i name="e_0_energy">    -16.57421546 </i>
   </energy>
  </scstep>
  <scstep>
   <time name="dav">    1.86    1.86</time>
   <time name="total">    3.55    3.57</time>
   <energy>
    <i name="e_fr_energy">    -16.51164147 </i>
    <i name="e_wo_entrp">    -16.51236619 </i>
    <i name="e_0_energy">    -16.51188304 </i>
   </energy>
  </scstep>
  <scstep>
   <time name="dav">    1.98    1.99</time>
   <time name="total">    3.69    3.70</time>
   <energy>
    <i name="e_fr_energy">    -16.49470505 </i>
    <i name="e_wo_entrp">    -16.49517573 </i>
    <i name="e_0_energy">    -16.49486195 </i>
   </energy>
  </scstep>
  <scstep>
   <time name="dav">    2.25    2.26</time>
   <time name="total">    3.95    3.97</time>
   <energy>
    <i name="e_fr_energy">    -16.48339027 </i>
    <i name="e_wo_entrp">    -16.48340415 </i>
    <i name="e_0_energy">    -16.48339490 </i>
   </energy>
  </scstep>
  <scstep>
   <time name="dav">    1.88    1.88</time>
   <time name="total">    3.58    3.60</time>
   <energy>
    <i name="e_fr_energy">    -16.48304094 </i>
    <i name="e_wo_entrp">    -16.48353534 </i>
    <i name="e_0_energy">    -16.48320574 </i>
   </energy>
  </scstep>
  <scstep>
   <time name="dav">    1.85    1.85</time>
   <time name="total">    3.55    3.57</time>
   <energy>
    <i name="e_fr_energy">    -16.48306391 </i>
    <i name="e_wo_entrp">    -16.48353628 </i>
    <i name="e_0_energy">    -16.48322137 </i>
   </energy>
  </scstep>
  <scstep>
   <time name="dav">    1.68    1.68</time>
   <time name="total">    3.38    3.40</time>
   <energy>
    <i name="e_fr_energy">    -16.48305649 </i>
    <i name="e_wo_entrp">    -16.48354211 </i>
    <i name="e_0_energy">    -16.48321836 </i>
   </energy>
  </scstep>
  <scstep>
   <time name="dav">    1.62    1.63</time>
   <time name="total">    3.20    3.22</time>
   <energy>
    <i name="alphaZ">    117.79976220 </i>
    <i name="ewald">  -1171.43779597 </i>
    <i name="hartreedc">   -195.20201355 </i>
    <i name="XCdc">      8.55696907 </i>
    <i name="pawpsdc">   1412.62785913 </i>
    <i name="pawaedc">  -1430.61193976 </i>
    <i name="eentropy">      0.00048168 </i>
    <i name="bandstr">     53.19396437 </i>
    <i name="atom">   1188.58965621 </i>
    <i name="e_fr_energy">    -16.48305661 </i>
    <i name="e_wo_entrp">    -16.48353830 </i>
    <i name="e_0_energy">    -16.48321717 </i>
   </energy>
  </scstep>
  <structure>
   <crystal>
    <varray name="basis" >
     <v>       2.86303550       0.00000000       0.00000000 </v>
     <v>       0.00000000       2.86303550       0.00000000 </v>
     <v>       0.00000000       0.00000000       2.86303550 </v>
    </varray>
    <i name="volume">     23.46822259 </i>
    <varray name="rec_basis" >
     <v>       0.34927964      -0.00000000       0.00000000 </v>
     <v>       0.00000000       0.34927964       0.00000000 </v>
     <v>      -0.00000000      -0.00000000       0.34927964 </v>
    </varray>
   </crystal>
   <varray name="positions" >
    <v>       0.00000000       0.00000000       0.00000000 </v>
    <v>       0.50000000       0.50000000       0.50000000 </v>
   </varray>
  </structure>
  <varray name="forces" >
   <v>      -0.00000000       0.00000000       0.00000000 </v>
   <v>       0.00000000      -0.00000000      -0.00000000 </v>
  </varray>
  <varray name="stress" >
   <v>     -63.14601130      -0.00000000       0.00000000 </v>
   <v>      -0.00000000     -63.14601130      -0.00000000 </v>
   <v>       0.00000000      -0.00000000     -63.14601130 </v>
  </varray>
  <energy>
   <i name="e_fr_energy">    -16.48305661 </i>
   <i name="e_wo_entrp">    -16.48353830 </i>
   <i name="e_0_energy">    -16.48321717 </i>
  </energy>
  <time name="totalsc">   44.19   45.33</time>
 </calculation>
 <calculation>
  <scstep>
   <time name="dav">    1.75    1.75</time>
   <time name="total">    3.45    3.46</time>
   <energy>
    <i name="alphaZ">    126.04977344 </i>
    <i name="ewald">  -1198.17002585 </i>
    <i name="hartreedc">   -199.65864450 </i>
    <i name="XCdc">      9.87826740 </i>
    <i name="pawpsdc">   1412.62970588 </i>
    <i name="pawaedc">  -1430.61402082 </i>
    <i name="eentropy">      0.00202937 </i>
    <i name="bandstr">     74.07971104 </i>
    <i name="atom">   1188.58965621 </i>
    <i name="e_fr_energy">    -17.21354783 </i>
    <i name="e_wo_entrp">    -17.21557721 </i>
    <i name="e_0_energy">    -17.21422429 </i>
   </energy>
  </scstep>
  <scstep>
   <time name="dav">    1.74    1.75</time>
   <time name="total">    3.45    3.47</time>
   <energy>
    <i name="e_fr_energy">    -16.53607886 </i>
    <i name="e_wo_entrp">    -16.53797922 </i>
    <i name="e_0_energy">    -16.53671231 </i>
   </energy>
  </scstep>
  <scstep>
   <time name="dav">    1.85    1.85</time>
   <time name="total">    3.55    3.57</time>
   <energy>
    <i name="e_fr_energy">    -16.50227401 </i>
    <i name="e_wo_entrp">    -16.50258739 </i>
    <i name="e_0_energy">    -16.50237847 </i>
   </energy>
  </scstep>
  <scstep>
   <time name="dav">    1.94    1.94</time>
   <time name="total">    3.65    3.67</time>
   <energy>
    <i name="e_fr_energy">    -16.49486473 </i>
    <i name="e_wo_entrp">    -16.49466850 </i>
    <i name="e_0_energy">    -16.49479932 </i>
   </energy>
  </scstep>
  <scstep>
   <time name="dav">    1.91    1.92</time>
   <time name="total">    3.62    3.64</time>
   <energy>
    <i name="e_fr_energy">    -16.48905561 </i>
    <i name="e_wo_entrp">    -16.48832380 </i>
    <i name="e_0_energy">    -16.48881167 </i>
   </energy>
  </scstep>
  <scstep>
   <time name="dav">    1.78    1.78</time>
   <time name="total">    3.48    3.50</time>
   <energy>
    <i name="e_fr_energy">    -16.48916617 </i>
    <i name="e_wo_entrp">    -16.48843593 </i>
    <i name="e_0_energy">    -16.48892276 </i>
   </energy>
  </scstep>
  <scstep>
   <time name="dav">    1.67    1.67</time>
   <time name="total">    3.38    3.40</time>
   <energy>
    <i name="e_fr_energy">    -16.48917210 </i>
    <i name="e_wo_entrp">    -16.48847435 </i>
    <i name="e_0_energy">    -16.48893952 </i>
   </energy>
  </scstep>
  <scstep>
   <time name="dav">    1.48    1.48</time>
   <time name="total">    3.18    3.20</time>
   <energy>
    <i name="e_fr_energy">    -16.48916762 </i>
    <i name="e_wo_entrp">    -16.48847526 </i>
    <i name="e_0_energy">    -16.48893683 </i>
   </energy>
  </scstep>
  <scstep>
   <time name="dav">    1.12    1.12</time>
   <time name="total">    2.71    2.72</time>
   <energy>
    <i name="alphaZ">    126.04977344 </i>
    <i name="ewald">  -1198.17002585 </i>
    <i name="hartreedc">   -184.67635839 </i>
    <i name="XCdc">      8.66257386 </i>
    <i name="pawpsdc">   1472.67518460 </i>
    <i name="pawaedc">  -1491.03891717 </i>
    <i name="eentropy">     -0.00070244 </i>
    <i name="bandstr">     61.41964846 </i>
    <i name="atom">   1188.58965621 </i>
    <i name="e_fr_energy">    -16.48916729 </i>
    <i name="e_wo_entrp">    -16.48846484 </i>
    <i name="e_0_energy">    -16.48893314 </i>
   </energy>
  </scstep>
  <structure>
   <crystal>
    <varray name="basis" >
     <v>       2.79915865      -0.00000000       0.00000000 </v>
     <v>       0.00000000       2.79915865       0.00000000 </v>
     <v>       0.00000000      -0.00000000       2.79915865 </v>
    </varray>
    <i name="volume">     21.93221744 </i>
    <varray name="rec_basis" >
     <v>       0.35725020      -0.00000000      -0.00000000 </v>
     <v>       0.00000000       0.35725020       0.00000000 </v>
     <v>      -0.00000000      -0.00000000       0.35725020 </v>
    </varray>
   </crystal>
   <varray name="positions" >
    <v>      -0.00000000       0.00000000       0.00000000 </v>
    <v>       0.50000000       0.50000000       0.50000000 </v>
   </varray>
  </structure>
  <varray name="forces" >
   <v>       0.00000000      -0.00000000      -0.00000000 </v>
   <v>      -0.00000000       0.00000000       0.00000000 </v>
  </varray>
  <varray name="stress" >
   <v>      59.68673621       0.00000000       0.00000000 </v>
   <v>       0.00000000      59.68673621       0.00000000 </v>
   <v>       0.00000000       0.00000000      59.68673621 </v>
  </varray>
  <energy>
   <i name="e_fr_energy">    -16.48916729 </i>
   <i name="e_wo_entrp">    -16.48846484 </i>
   <i name="e_0_energy">    -16.48893314 </i>
  </energy>
  <time name="totalsc">   35.34   35.73</time>
 </calculation>
 <calculation>
  <scstep>
   <time name="dav">    1.73    1.73</time>
   <time name="total">    3.43    3.44</time>
   <energy>
    <i name="alphaZ">    122.34960474 </i>
    <i name="ewald">  -1186.32937597 </i>
    <i name="hartreedc">   -182.85461767 </i>
    <i name="XCdc">      8.09639796 </i>
    <i name="pawpsdc">   1472.68998680 </i>
    <i name="pawaedc">  -1491.05180816 </i>
    <i name="eentropy">     -0.00398804 </i>
    <i name="bandstr">     51.86889466 </i>
    <i name="atom">   1188.58965621 </i>
    <i name="e_fr_energy">    -16.64524948 </i>
    <i name="e_wo_entrp">    -16.64126144 </i>
    <i name="e_0_energy">    -16.64392013 </i>
   </energy>
  </scstep>
  <scstep>
   <time name="dav">    1.75    1.75</time>
   <time name="total">    3.45    3.47</time>
   <energy>
    <i name="e_fr_energy">    -16.51602275 </i>
    <i name="e_wo_entrp">    -16.51339038 </i>
    <i name="e_0_energy">    -16.51514529 </i>
   </energy>
  </scstep>
  <scstep>
   <time name="dav">    1.85    1.86</time>
   <time name="total">    3.57    3.59</time>
   <energy>
    <i name="e_fr_energy">    -16.50365338 </i>
    <i name="e_wo_entrp">    -16.50092085 </i>
    <i name="e_0_energy">    -16.50274254 </i>
   </energy>
  </scstep>
  <scstep>
   <time name="dav">    2.01    2.01</time>
   <time name="total">    3.71    3.73</time>
   <energy>
    <i name="e_fr_energy">    -16.50209565 </i>
    <i name="e_wo_entrp">    -16.49935457 </i>
    <i name="e_0_energy">    -16.50118196 </i>
   </energy>
  </scstep>
  <scstep>
   <time name="dav">    1.80    1.80</time>
   <time name="total">    3.50    3.52</time>
   <energy>
    <i name="e_fr_energy">    -16.50090036 </i>
    <i name="e_wo_entrp">    -16.49814919 </i>
    <i name="e_0_energy">    -16.49998330 </i>
   </energy>
  </scstep>
  <scstep>
   <time name="dav">    1.70    1.71</time>
   <time name="total">    3.41    3.43</time>
   <energy>
    <i name="e_fr_energy">    -16.50092235 </i>
    <i name="e_wo_entrp">    -16.49816798 </i>
    <i name="e_0_energy">    -16.50000423 </i>
   </energy>
  </scstep>
  <scstep>
   <time name="dav">    1.63    1.63</time>
   <time name="total">    3.33    3.35</time>
   <energy>
    <i name="e_fr_energy">    -16.50092676 </i>
    <i name="e_wo_entrp">    -16.49817270 </i>
    <i name="e_0_energy">    -16.50000874 </i>
   </energy>
  </scstep>
  <scstep>
   <time name="dav">    1.11    1.11</time>
   <time name="total">    2.81    2.83</time>
   <energy>
    <i name="e_fr_energy">    -16.50092892 </i>
    <i name="e_wo_entrp">    -16.49817503 </i>
    <i name="e_0_energy">    -16.50001096 </i>
   </energy>
  </scstep>
  <scstep>
   <time name="dav">    1.10    1.10</time>
   <time name="total">    2.68    2.70</time>
   <energy>
    <i name="alphaZ">    122.34960474 </i>
    <i name="ewald">  -1186.32937597 </i>
    <i name="hartreedc">   -189.27043879 </i>
    <i name="XCdc">      8.61024116 </i>
    <i name="pawpsdc">   1444.91676372 </i>
    <i name="pawaedc">  -1463.09930240 </i>
    <i name="eentropy">     -0.00275378 </i>
    <i name="bandstr">     57.73467608 </i>
    <i name="atom">   1188.58965621 </i>
    <i name="e_fr_energy">    -16.50092901 </i>
    <i name="e_wo_entrp">    -16.49817524 </i>
    <i name="e_0_energy">    -16.50001109 </i>
   </energy>
  </scstep>
  <structure>
   <crystal>
    <varray name="basis" >
     <v>       2.82709681      -0.00000000       0.00000000 </v>
     <v>       0.00000000       2.82709681       0.00000000 </v>
     <v>       0.00000000      -0.00000000       2.82709681 </v>
    </varray>
    <i name="volume">     22.59550446 </i>
    <varray name="rec_basis" >
     <v>       0.35371976      -0.00000000      -0.00000000 </v>
     <v>       0.00000000       0.35371976       0.00000000 </v>
     <v>      -0.00000000      -0.00000000       0.35371976 </v>
    </varray>
   </crystal>
   <varray name="positions" >
    <v>      -0.00000000       0.00000000       0.00000000 </v>
    <v>       0.50000000       0.50000000       0.50000000 </v>
   </varray>
  </structure>
  <varray name="forces" >
   <v>       0.00000000       0.00000000       0.00000000 </v>
   <v>      -0.00000000      -0.00000000      -0.00000000 </v>
  </varray>
  <varray name="stress" >
   <v>       0.03901662       0.00000000       0.00000000 </v>
   <v>       0.00000000       0.03901662      -0.00000000 </v>
   <v>       0.00000000      -0.00000000       0.03901662 </v>
  </varray>
  <energy>
   <i name="e_fr_energy">    -16.50092901 </i>
   <i name="e_wo_entrp">    -16.49817524 </i>
   <i name="e_0_energy">    -16.50001109 </i>
  </energy>
  <time name="totalsc">   34.84   35.63</time>
  <eigenvalues>
   <array>
    <dimension dim="1">band</dimension>
    <dimension dim="2">kpoint</dimension>
    <dimension dim="3">spin</dimension>
    <field>eigene</field>
    <field>occ</field>
    <set>
     <set comment="spin 1">
      <set comment="kpoint 1">
       <r>   -2.5807    1.0000 </r>
       <r>    1.0099    1.0000 </r>
       <r>    1.0099    1.0000 </r>
       <r>    3.5779    1.0000 </r>
       <r>    3.5779    1.0000 </r>
       <r>    3.5779    1.0000 </r>
       <r>    4.7986    1.0000 </r>
       <r>    4.7986    1.0000 </r>
       <r>    6.0174    0.0658 </r>
       <r>    6.0174    0.0658 </r>
       <r>    6.0174    0.0658 </r>
       <r>   15.8601    0.0000 </r>
       <r>   15.8601    0.0000 </r>
       <r>   15.8601    0.0000 </r>
       <r>   21.5945    0.0000 </r>
       <r>   21.5945    0.0000 </r>
       <r>   26.7709    0.0000 </r>
       <r>   30.9627    0.0000 </r>
       <r>   30.9627    0.0000 </r>
       <r>   30.9627    0.0000 </r>
      </set>
      <set comment="kpoint 2">
       <r>   -2.3728    1.0000 </r>
       <r>    1.0991    1.0000 </r>
       <r>    1.1016    1.0000 </r>
       <r>    3.5767    1.0000 </r>
       <r>    3.5767    1.0000 </r>
       <r>    3.6350    1.0000 </r>
       <r>    4.7054    1.0000 </r>
       <r>    4.8354    1.0000 </r>
       <r>    5.8450    0.6885 </r>
       <r>    5.8450    0.6885 </r>
       <r>    5.9555    0.2416 </r>
       <r>   14.5045    0.0000 </r>
       <r>   16.2517    0.0000 </r>
       <r>   16.2517    0.0000 </r>
       <r>   21.6548    0.0000 </r>
       <r>   22.5529    0.0000 </r>
       <r>   27.4760    0.0000 </r>
       <r>   29.7262    0.0000 </r>
       <r>   30.7552    0.0000 </r>
       <r>   30.7552    0.0000 </r>
      </set>
      <set comment="kpoint 3">
       <r>   -1.7683    1.0000 </r>
       <r>    1.3371    1.0000 </r>
       <r>    1.3590    1.0000 </r>
       <r>    3.5862    1.0000 </r>
       <r>    3.5862    1.0000 </r>
       <r>    3.8016    1.0000 </r>
       <r>    4.4337    1.0000 </r>
       <r>    4.9413    1.0000 </r>
       <r>    5.4134    1.0019 </r>
       <r>    5.4134    1.0019 </r>
       <r>    5.7758    0.9087 </r>
       <r>   12.0226    0.0000 </r>
       <r>   17.3351    0.0000 </r>
       <r>   17.3351    0.0000 </r>
       <r>   21.8430    0.0000 </r>
       <r>   23.6272    0.0000 </r>
       <r>   27.7393    0.0000 </r>
       <r>   29.6955    0.0000 </r>
       <r>   29.6955    0.0000 </r>
       <r>   29.8544    0.0000 </r>
      </set>
      <set comment="kpoint 4">
       <r>   -0.8358    1.0000 </r>
       <r>    1.5937    1.0000 </r>
       <r>    1.7683    1.0000 </r>
       <r>    3.6389    1.0000 </r>
       <r>    3.6389    1.0000 </r>
       <r>    4.0083    1.0000 </r>
       <r>    4.0632    1.0000 </r>
       <r>    4.8897    1.0000 </r>
       <r>    4.8897    1.0000 </r>
       <r>    5.1169    1.0000 </r>
       <r>    5.4977    1.0089 </r>
       <r>    9.5593   -0.0000 </r>
       <r>   18.9277    0.0000 </r>
       <r>   18.9277    0.0000 </r>
       <r>   22.1832    0.0000 </r>
       <r>   24.2351    0.0000 </r>
       <r>   25.9693    0.0000 </r>
       <r>   27.6959    0.0000 </r>
       <r>   27.6959    0.0000 </r>
       <r>   29.4615    0.0000 </r>
      </set>
      <set comment="kpoint 5">
       <r>    0.2669    1.0000 </r>
       <r>    1.6486    1.0000 </r>
       <r>    2.2912    1.0000 </r>
       <r>    3.4712    1.0000 </r>
       <r>    3.7749    1.0000 </r>
       <r>    3.7749    1.0000 </r>
       <r>    4.3967    1.0000 </r>
       <r>    4.4047    1.0000 </r>
       <r>    4.4047    1.0000 </r>
       <r>    5.1509    1.0000 </r>
       <r>    5.4284    1.0026 </r>
       <r>    7.4983   -0.0000 </r>
       <r>   20.8718    0.0000 </r>
       <r>   20.8718    0.0000 </r>
       <r>   22.7141    0.0000 </r>
       <r>   24.5547    0.0000 </r>
       <r>   24.8919    0.0000 </r>
       <r>   25.3731    0.0000 </r>
       <r>   25.3731    0.0000 </r>
       <r>   27.4315    0.0000 </r>
      </set>
      <set comment="kpoint 6">
       <r>    1.2162    1.0000 </r>
       <r>    1.2162    1.0000 </r>
       <r>    2.8787    1.0000 </r>
       <r>    2.8787    1.0000 </r>
       <r>    4.0264    1.0000 </r>
       <r>    4.0264    1.0000 </r>
       <r>    4.0264    1.0000 </r>
       <r>    4.0264    1.0000 </r>
       <r>    4.7715    1.0000 </r>
       <r>    4.7715    1.0000 </r>
       <r>    6.1148   -0.0335 </r>
       <r>    6.1148   -0.0335 </r>
       <r>   23.0532    0.0000 </r>
       <r>   23.0532    0.0000 </r>
       <r>   23.0532    0.0000 </r>
       <r>   23.0532    0.0000 </r>
       <r>   23.4866    0.0000 </r>
       <r>   23.4866    0.0000 </r>
       <r>   25.9103    0.0000 </r>
       <r>   25.9103    0.0000 </r>
      </set>
      <set comment="kpoint 7">
       <r>   -2.1685    1.0000 </r>
       <r>    1.1807    1.0000 </r>
       <r>    1.1968    1.0000 </r>
       <r>    3.4665    1.0000 </r>
       <r>    3.5633    1.0000 </r>
       <r>    3.7998    1.0000 </r>
       <r>    4.6982    1.0000 </r>
       <r>    4.8081    1.0000 </r>
       <r>    5.5480    1.0179 </r>
       <r>    5.6734    1.0320 </r>
       <r>    6.0434    0.0201 </r>
       <r>   14.5560    0.0000 </r>
       <r>   15.1593    0.0000 </r>
       <r>   16.6182    0.0000 </r>
       <r>   22.1399    0.0000 </r>
       <r>   23.2801    0.0000 </r>
       <r>   28.0575    0.0000 </r>
       <r>   28.5754    0.0000 </r>
       <r>   30.2915    0.0000 </r>
       <r>   30.6958    0.0000 </r>
      </set>
      <set comment="kpoint 8">
       <r>   -1.5769    1.0000 </r>
       <r>    1.4033    1.0000 </r>
       <r>    1.4562    1.0000 </r>
       <r>    3.3893    1.0000 </r>
       <r>    3.5373    1.0000 </r>
       <r>    4.0486    1.0000 </r>
       <r>    4.5064    1.0000 </r>
       <r>    4.8990    1.0000 </r>
       <r>    5.0599    1.0000 </r>
       <r>    5.2552    1.0000 </r>
       <r>    5.9783    0.1664 </r>
       <r>   12.2648    0.0000 </r>
       <r>   15.8894    0.0000 </r>
       <r>   17.6455    0.0000 </r>
       <r>   22.4570    0.0000 </r>
       <r>   24.6130    0.0000 </r>
       <r>   26.4456    0.0000 </r>
       <r>   29.1381    0.0000 </r>
       <r>   29.8859    0.0000 </r>
       <r>   30.1813    0.0000 </r>
      </set>
      <set comment="kpoint 9">
       <r>   -0.6719    1.0000 </r>
       <r>    1.6573    1.0000 </r>
       <r>    1.8370    1.0000 </r>
       <r>    3.3866    1.0000 </r>
       <r>    3.4968    1.0000 </r>
       <r>    4.2193    1.0000 </r>
       <r>    4.3561    1.0000 </r>
       <r>    4.5336    1.0000 </r>
       <r>    4.7794    1.0000 </r>
       <r>    5.0787    1.0000 </r>
       <r>    5.7644    0.9341 </r>
       <r>    9.7820   -0.0000 </r>
       <r>   17.2341    0.0000 </r>
       <r>   19.1805    0.0000 </r>
       <r>   22.8633    0.0000 </r>
       <r>   24.3496    0.0000 </r>
       <r>   25.4984    0.0000 </r>
       <r>   27.3997    0.0000 </r>
       <r>   27.8920    0.0000 </r>
       <r>   31.4558    0.0000 </r>
      </set>
      <set comment="kpoint 10">
       <r>    0.3809    1.0000 </r>
       <r>    1.6975    1.0000 </r>
       <r>    2.3160    1.0000 </r>
       <r>    3.2880    1.0000 </r>
       <r>    3.4855    1.0000 </r>
       <r>    4.0650    1.0000 </r>
       <r>    4.0803    1.0000 </r>
       <r>    4.4044    1.0000 </r>
       <r>    4.7103    1.0000 </r>
       <r>    5.4077    1.0017 </r>
       <r>    5.4517    1.0040 </r>
       <r>    7.6637   -0.0000 </r>
       <r>   18.8242    0.0000 </r>
       <r>   21.0797    0.0000 </r>
       <r>   22.3958    0.0000 </r>
       <r>   23.4832    0.0000 </r>
       <r>   25.5477    0.0000 </r>
       <r>   25.7237    0.0000 </r>
       <r>   26.4276    0.0000 </r>
       <r>   29.4101    0.0000 </r>
      </set>
      <set comment="kpoint 11">
       <r>    1.2737    1.0000 </r>
       <r>    1.2737    1.0000 </r>
       <r>    2.8352    1.0000 </r>
       <r>    2.8352    1.0000 </r>
       <r>    3.7091    1.0000 </r>
       <r>    3.7091    1.0000 </r>
       <r>    4.1826    1.0000 </r>
       <r>    4.1826    1.0000 </r>
       <r>    5.0866    1.0000 </r>
       <r>    5.0866    1.0000 </r>
       <r>    6.1740   -0.0312 </r>
       <r>    6.1740   -0.0312 </r>
       <r>   20.5569    0.0000 </r>
       <r>   20.5569    0.0000 </r>
       <r>   23.2329    0.0000 </r>
       <r>   23.2329    0.0000 </r>
       <r>   24.4096    0.0000 </r>
       <r>   24.4096    0.0000 </r>
       <r>   27.7089    0.0000 </r>
       <r>   27.7089    0.0000 </r>
      </set>
      <set comment="kpoint 12">
       <r>   -1.0309    1.0000 </r>
       <r>    1.5405    1.0000 </r>
       <r>    1.7554    1.0000 </r>
       <r>    3.1828    1.0000 </r>
       <r>    3.4591    1.0000 </r>
       <r>    4.4110    1.0000 </r>
       <r>    4.5136    1.0000 </r>
       <r>    4.6038    1.0000 </r>
       <r>    4.8420    1.0000 </r>
       <r>    4.8985    1.0000 </r>
       <r>    6.1111   -0.0327 </r>
       <r>   12.2418    0.0000 </r>
       <r>   14.1600    0.0000 </r>
       <r>   18.5392    0.0000 </r>
       <r>   22.8339    0.0000 </r>
       <r>   24.1247    0.0000 </r>
       <r>   26.7696    0.0000 </r>
       <r>   28.2849    0.0000 </r>
       <r>   30.1977    0.0000 </r>
       <r>   31.4951    0.0000 </r>
      </set>
      <set comment="kpoint 13">
       <r>   -0.2286    1.0000 </r>
       <r>    1.6710    1.0000 </r>
       <r>    2.1669    1.0000 </r>
       <r>    3.0686    1.0000 </r>
       <r>    3.4169    1.0000 </r>
       <r>    3.9808    1.0000 </r>
       <r>    4.5225    1.0000 </r>
       <r>    4.5706    1.0000 </r>
       <r>    4.7993    1.0000 </r>
       <r>    4.9765    1.0000 </r>
       <r>    6.0628   -0.0037 </r>
       <r>   10.2140   -0.0000 </r>
       <r>   14.8340    0.0000 </r>
       <r>   19.9241    0.0000 </r>
       <r>   21.8353    0.0000 </r>
       <r>   23.1741    0.0000 </r>
       <r>   26.9720    0.0000 </r>
       <r>   28.3778    0.0000 </r>
       <r>   28.4535    0.0000 </r>
       <r>   31.8018    0.0000 </r>
      </set>
      <set comment="kpoint 14">
       <r>    0.6310    1.0000 </r>
       <r>    1.6341    1.0000 </r>
       <r>    2.6067    1.0000 </r>
       <r>    3.0785    1.0000 </r>
       <r>    3.3133    1.0000 </r>
       <r>    3.5397    1.0000 </r>
       <r>    4.4378    1.0000 </r>
       <r>    4.4832    1.0000 </r>
       <r>    5.1904    1.0000 </r>
       <r>    5.3429    1.0004 </r>
       <r>    5.8627    0.6181 </r>
       <r>    8.0375   -0.0000 </r>
       <r>   16.2183    0.0000 </r>
       <r>   19.7393    0.0000 </r>
       <r>   21.6953    0.0000 </r>
       <r>   23.6866    0.0000 </r>
       <r>   25.5979    0.0000 </r>
       <r>   26.0450    0.0000 </r>
       <r>   29.6272    0.0000 </r>
       <r>   32.4377    0.0000 </r>
      </set>
      <set comment="kpoint 15">
       <r>    1.2947    1.0000 </r>
       <r>    1.2947    1.0000 </r>
       <r>    3.0171    1.0000 </r>
       <r>    3.0171    1.0000 </r>
       <r>    3.2336    1.0000 </r>
       <r>    3.2336    1.0000 </r>
       <r>    4.4667    1.0000 </r>
       <r>    4.4667    1.0000 </r>
       <r>    5.5573    1.0200 </r>
       <r>    5.5573    1.0200 </r>
       <r>    6.3279   -0.0042 </r>
       <r>    6.3279   -0.0042 </r>
       <r>   17.8655    0.0000 </r>
       <r>   17.8655    0.0000 </r>
       <r>   23.7610    0.0000 </r>
       <r>   23.7610    0.0000 </r>
       <r>   24.4773    0.0000 </r>
       <r>   24.4773    0.0000 </r>
       <r>   30.9693    0.0000 </r>
       <r>   30.9693    0.0000 </r>
      </set>
      <set comment="kpoint 16">
       <r>    0.3374    1.0000 </r>
       <r>    1.5832    1.0000 </r>
       <r>    2.6767    1.0000 </r>
       <r>    2.8459    1.0000 </r>
       <r>    3.4706    1.0000 </r>
       <r>    3.6113    1.0000 </r>
       <r>    4.4648    1.0000 </r>
       <r>    4.7178    1.0000 </r>
       <r>    4.9007    1.0000 </r>
       <r>    5.2382    1.0000 </r>
       <r>    6.1954   -0.0266 </r>
       <r>    9.9047   -0.0000 </r>
       <r>   13.5833    0.0000 </r>
       <r>   19.4551    0.0000 </r>
       <r>   21.1160    0.0000 </r>
       <r>   23.4185    0.0000 </r>
       <r>   26.2099    0.0000 </r>
       <r>   28.8478    0.0000 </r>
       <r>   29.7864    0.0000 </r>
       <r>   31.1494    0.0000 </r>
      </set>
      <set comment="kpoint 17">
       <r>    0.8193    1.0000 </r>
       <r>    1.4035    1.0000 </r>
       <r>    2.7603    1.0000 </r>
       <r>    3.0762    1.0000 </r>
       <r>    3.2154    1.0000 </r>
       <r>    3.8672    1.0000 </r>
       <r>    4.5373    1.0000 </r>
       <r>    4.7787    1.0000 </r>
       <r>    5.2274    1.0000 </r>
       <r>    5.6330    1.0349 </r>
       <r>    6.1491   -0.0348 </r>
       <r>    8.2695   -0.0000 </r>
       <r>   14.1749    0.0000 </r>
       <r>   17.3457    0.0000 </r>
       <r>   22.6946    0.0000 </r>
       <r>   23.8018    0.0000 </r>
       <r>   25.2634    0.0000 </r>
       <r>   26.7391    0.0000 </r>
       <r>   30.7490    0.0000 </r>
       <r>   33.0073    0.0000 </r>
      </set>
      <set comment="kpoint 18">
       <r>    1.1548    1.0000 </r>
       <r>    1.1548    1.0000 </r>
       <r>    2.8350    1.0000 </r>
       <r>    2.8350    1.0000 </r>
       <r>    3.6616    1.0000 </r>
       <r>    3.6616    1.0000 </r>
       <r>    4.6979    1.0000 </r>
       <r>    4.6979    1.0000 </r>
       <r>    5.9494    0.2639 </r>
       <r>    5.9494    0.2639 </r>
       <r>    6.4857   -0.0001 </r>
       <r>    6.4857   -0.0001 </r>
       <r>   15.5602    0.0000 </r>
       <r>   15.5602    0.0000 </r>
       <r>   24.4140    0.0000 </r>
       <r>   24.4140    0.0000 </r>
       <r>   24.5923    0.0000 </r>
       <r>   24.5923    0.0000 </r>
       <r>   32.2310    0.0000 </r>
       <r>   32.2310    0.0000 </r>
      </set>
      <set comment="kpoint 19">
       <r>    0.9056    1.0000 </r>
       <r>    1.1670    1.0000 </r>
       <r>    2.5839    1.0000 </r>
       <r>    2.7436    1.0000 </r>
       <r>    3.9183    1.0000 </r>
       <r>    4.6839    1.0000 </r>
       <r>    4.7013    1.0000 </r>
       <r>    4.9632    1.0000 </r>
       <r>    5.2101    1.0000 </r>
       <r>    5.9830    0.1522 </r>
       <r>    6.2640   -0.0120 </r>
       <r>    7.7769   -0.0000 </r>
       <r>   13.3497    0.0000 </r>
       <r>   15.3526    0.0000 </r>
       <r>   23.9971    0.0000 </r>
       <r>   24.0288    0.0000 </r>
       <r>   24.7957    0.0000 </r>
       <r>   26.9037    0.0000 </r>
       <r>   29.5429    0.0000 </r>
       <r>   31.9798    0.0000 </r>
      </set>
      <set comment="kpoint 20">
       <r>    0.9990    1.0000 </r>
       <r>    0.9990    1.0000 </r>
       <r>    2.5757    1.0000 </r>
       <r>    2.5757    1.0000 </r>
       <r>    4.5060    1.0000 </r>
       <r>    4.5060    1.0000 </r>
       <r>    4.8353    1.0000 </r>
       <r>    4.8353    1.0000 </r>
       <r>    6.2029   -0.0249 </r>
       <r>    6.2029   -0.0249 </r>
       <r>    6.4996   -0.0001 </r>
       <r>    6.4996   -0.0001 </r>
       <r>   13.9138    0.0000 </r>
       <r>   13.9138    0.0000 </r>
       <r>   24.3344    0.0000 </r>
       <r>   24.3344    0.0000 </r>
       <r>   25.5906    0.0000 </r>
       <r>   25.5906    0.0000 </r>
       <r>   30.3575    0.0000 </r>
       <r>   30.3575    0.0000 </r>
      </set>
      <set comment="kpoint 21">
       <r>    0.9379    1.0000 </r>
       <r>    0.9379    1.0000 </r>
       <r>    2.4861    1.0000 </r>
       <r>    2.4861    1.0000 </r>
       <r>    4.8678    1.0000 </r>
       <r>    4.8678    1.0000 </r>
       <r>    4.9907    1.0000 </r>
       <r>    4.9907    1.0000 </r>
       <r>    6.2903   -0.0081 </r>
       <r>    6.2903   -0.0081 </r>
       <r>    6.4040   -0.0009 </r>
       <r>    6.4040   -0.0009 </r>
       <r>   13.2940    0.0000 </r>
       <r>   13.2940    0.0000 </r>
       <r>   24.2989    0.0000 </r>
       <r>   24.2989    0.0000 </r>
       <r>   26.1949    0.0000 </r>
       <r>   26.1949    0.0000 </r>
       <r>   29.4637    0.0000 </r>
       <r>   29.4637    0.0000 </r>
      </set>
      <set comment="kpoint 22">
       <r>   -1.9674    1.0000 </r>
       <r>    1.2759    1.0000 </r>
       <r>    1.2759    1.0000 </r>
       <r>    3.4473    1.0000 </r>
       <r>    3.4473    1.0000 </r>
       <r>    3.9693    1.0000 </r>
       <r>    4.7432    1.0000 </r>
       <r>    4.7432    1.0000 </r>
       <r>    5.1643    1.0000 </r>
       <r>    5.8713    0.5826 </r>
       <r>    5.8713    0.5825 </r>
       <r>   14.9050    0.0000 </r>
       <r>   14.9050    0.0000 </r>
       <r>   15.7526    0.0000 </r>
       <r>   23.3891    0.0000 </r>
       <r>   23.3891    0.0000 </r>
       <r>   28.3920    0.0000 </r>
       <r>   28.3920    0.0000 </r>
       <r>   28.5575    0.0000 </r>
       <r>   31.5249    0.0000 </r>
      </set>
      <set comment="kpoint 23">
       <r>   -1.3867    1.0000 </r>
       <r>    1.5053    1.0000 </r>
       <r>    1.5184    1.0000 </r>
       <r>    3.3307    1.0000 </r>
       <r>    3.3946    1.0000 </r>
       <r>    4.2641    1.0000 </r>
       <r>    4.5625    1.0000 </r>
       <r>    4.6342    1.0000 </r>
       <r>    4.8639    1.0000 </r>
       <r>    5.4481    1.0038 </r>
       <r>    5.9114    0.4139 </r>
       <r>   12.5226    0.0000 </r>
       <r>   15.8482    0.0000 </r>
       <r>   16.4513    0.0000 </r>
       <r>   23.7307    0.0000 </r>
       <r>   25.0290    0.0000 </r>
       <r>   26.1247    0.0000 </r>
       <r>   27.3365    0.0000 </r>
       <r>   30.4622    0.0000 </r>
       <r>   31.3179    0.0000 </r>
      </set>
      <set comment="kpoint 24">
       <r>   -0.5052    1.0000 </r>
       <r>    1.7692    1.0000 </r>
       <r>    1.8600    1.0000 </r>
       <r>    3.3033    1.0000 </r>
       <r>    3.3166    1.0000 </r>
       <r>    4.1409    1.0000 </r>
       <r>    4.3239    1.0000 </r>
       <r>    4.6137    1.0000 </r>
       <r>    4.9504    1.0000 </r>
       <r>    5.0503    1.0000 </r>
       <r>    5.7739    0.9131 </r>
       <r>   10.0258   -0.0000 </r>
       <r>   17.1798    0.0000 </r>
       <r>   17.7109    0.0000 </r>
       <r>   24.0281    0.0000 </r>
       <r>   24.3452    0.0000 </r>
       <r>   25.3153    0.0000 </r>
       <r>   26.0279    0.0000 </r>
       <r>   29.9803    0.0000 </r>
       <r>   30.9464    0.0000 </r>
      </set>
      <set comment="kpoint 25">
       <r>    0.5047    1.0000 </r>
       <r>    1.7847    1.0000 </r>
       <r>    2.2966    1.0000 </r>
       <r>    3.1079    1.0000 </r>
       <r>    3.4306    1.0000 </r>
       <r>    3.8070    1.0000 </r>
       <r>    4.1668    1.0000 </r>
       <r>    4.5168    1.0000 </r>
       <r>    4.9447    1.0000 </r>
       <r>    5.4379    1.0031 </r>
       <r>    5.5181    1.0121 </r>
       <r>    7.8801   -0.0000 </r>
       <r>   18.7245    0.0000 </r>
       <r>   19.2795    0.0000 </r>
       <r>   22.1321    0.0000 </r>
       <r>   23.1235    0.0000 </r>
       <r>   25.2875    0.0000 </r>
       <r>   26.9467    0.0000 </r>
       <r>   28.2231    0.0000 </r>
       <r>   29.6125    0.0000 </r>
      </set>
      <set comment="kpoint 26">
       <r>    1.3537    1.0000 </r>
       <r>    1.3537    1.0000 </r>
       <r>    2.7467    1.0000 </r>
       <r>    2.7467    1.0000 </r>
       <r>    3.6134    1.0000 </r>
       <r>    3.6134    1.0000 </r>
       <r>    4.2336    1.0000 </r>
       <r>    4.2336    1.0000 </r>
       <r>    5.2218    1.0000 </r>
       <r>    5.2218    1.0000 </r>
       <r>    6.3224   -0.0046 </r>
       <r>    6.3224   -0.0046 </r>
       <r>   20.3808    0.0000 </r>
       <r>   20.3808    0.0000 </r>
       <r>   21.0901    0.0000 </r>
       <r>   21.0901    0.0000 </r>
       <r>   26.5934    0.0000 </r>
       <r>   26.5934    0.0000 </r>
       <r>   28.1349    0.0000 </r>
       <r>   28.1349    0.0000 </r>
      </set>
      <set comment="kpoint 27">
       <r>   -0.8451    1.0000 </r>
       <r>    1.6540    1.0000 </r>
       <r>    1.8049    1.0000 </r>
       <r>    3.1435    1.0000 </r>
       <r>    3.2882    1.0000 </r>
       <r>    4.0857    1.0000 </r>
       <r>    4.6319    1.0000 </r>
       <r>    4.6612    1.0000 </r>
       <r>    4.8208    1.0000 </r>
       <r>    5.2273    1.0000 </r>
       <r>    5.9334    0.3243 </r>
       <r>   12.5876    0.0000 </r>
       <r>   14.2265    0.0000 </r>
       <r>   16.9710    0.0000 </r>
       <r>   24.1775    0.0000 </r>
       <r>   24.6005    0.0000 </r>
       <r>   26.4822    0.0000 </r>
       <r>   26.9084    0.0000 </r>
       <r>   29.4708    0.0000 </r>
       <r>   31.5772    0.0000 </r>
      </set>
      <set comment="kpoint 28">
       <r>   -0.0543    1.0000 </r>
       <r>    1.8043    1.0000 </r>
       <r>    2.1744    1.0000 </r>
       <r>    3.0192    1.0000 </r>
       <r>    3.2321    1.0000 </r>
       <r>    3.6376    1.0000 </r>
       <r>    4.5506    1.0000 </r>
       <r>    4.8433    1.0000 </r>
       <r>    4.9438    1.0000 </r>
       <r>    5.1046    1.0000 </r>
       <r>    5.8975    0.4721 </r>
       <r>   10.5251   -0.0000 </r>
       <r>   14.9398    0.0000 </r>
       <r>   18.0908    0.0000 </r>
       <r>   21.9204    0.0000 </r>
       <r>   24.9748    0.0000 </r>
       <r>   25.2125    0.0000 </r>
       <r>   28.5042    0.0000 </r>
       <r>   28.7533    0.0000 </r>
       <r>   31.2303    0.0000 </r>
      </set>
      <set comment="kpoint 29">
       <r>    0.7812    1.0000 </r>
       <r>    1.7713    1.0000 </r>
       <r>    2.5133    1.0000 </r>
       <r>    2.9383    1.0000 </r>
       <r>    3.2605    1.0000 </r>
       <r>    3.4119    1.0000 </r>
       <r>    4.4703    1.0000 </r>
       <r>    4.5749    1.0000 </r>
       <r>    5.1352    1.0000 </r>
       <r>    5.6986    1.0206 </r>
       <r>    5.7106    1.0116 </r>
       <r>    8.3642   -0.0000 </r>
       <r>   16.3261    0.0000 </r>
       <r>   19.5124    0.0000 </r>
       <r>   19.8357    0.0000 </r>
       <r>   23.0145    0.0000 </r>
       <r>   26.0440    0.0000 </r>
       <r>   28.2168    0.0000 </r>
       <r>   29.5638    0.0000 </r>
       <r>   30.6375    0.0000 </r>
      </set>
      <set comment="kpoint 30">
       <r>    1.4228    1.0000 </r>
       <r>    1.4228    1.0000 </r>
       <r>    2.7812    1.0000 </r>
       <r>    2.7812    1.0000 </r>
       <r>    3.3318    1.0000 </r>
       <r>    3.3318    1.0000 </r>
       <r>    4.4800    1.0000 </r>
       <r>    4.4800    1.0000 </r>
       <r>    5.4164    1.0020 </r>
       <r>    5.4164    1.0020 </r>
       <r>    6.7056   -0.0000 </r>
       <r>    6.7056   -0.0000 </r>
       <r>   17.9680    0.0000 </r>
       <r>   17.9680    0.0000 </r>
       <r>   21.1633    0.0000 </r>
       <r>   21.1633    0.0000 </r>
       <r>   27.1218    0.0000 </r>
       <r>   27.1218    0.0000 </r>
       <r>   30.3310    0.0000 </r>
       <r>   30.3310    0.0000 </r>
      </set>
      <set comment="kpoint 31">
       <r>    0.5171    1.0000 </r>
       <r>    1.7173    1.0000 </r>
       <r>    2.6750    1.0000 </r>
       <r>    2.8091    1.0000 </r>
       <r>    3.2296    1.0000 </r>
       <r>    3.3570    1.0000 </r>
       <r>    4.6667    1.0000 </r>
       <r>    4.7199    1.0000 </r>
       <r>    4.9014    1.0000 </r>
       <r>    5.5939    1.0283 </r>
       <r>    5.9767    0.1712 </r>
       <r>   10.3248   -0.0000 </r>
       <r>   13.6264    0.0000 </r>
       <r>   19.0251    0.0000 </r>
       <r>   19.5654    0.0000 </r>
       <r>   24.7549    0.0000 </r>
       <r>   25.6807    0.0000 </r>
       <r>   27.0385    0.0000 </r>
       <r>   31.2974    0.0000 </r>
       <r>   31.3804    0.0000 </r>
      </set>
      <set comment="kpoint 32">
       <r>    0.9851    1.0000 </r>
       <r>    1.5374    1.0000 </r>
       <r>    2.7166    1.0000 </r>
       <r>    2.8968    1.0000 </r>
       <r>    3.2376    1.0000 </r>
       <r>    3.6421    1.0000 </r>
       <r>    4.6344    1.0000 </r>
       <r>    4.7398    1.0000 </r>
       <r>    5.0768    1.0000 </r>
       <r>    5.8741    0.5708 </r>
       <r>    6.1797   -0.0301 </r>
       <r>    8.7490   -0.0000 </r>
       <r>   14.2457    0.0000 </r>
       <r>   17.4529    0.0000 </r>
       <r>   20.2666    0.0000 </r>
       <r>   23.4181    0.0000 </r>
       <r>   26.1926    0.0000 </r>
       <r>   26.6867    0.0000 </r>
       <r>   30.9332    0.0000 </r>
       <r>   31.5091    0.0000 </r>
      </set>
      <set comment="kpoint 33">
       <r>    1.2979    1.0000 </r>
       <r>    1.2979    1.0000 </r>
       <r>    2.7505    1.0000 </r>
       <r>    2.7505    1.0000 </r>
       <r>    3.5975    1.0000 </r>
       <r>    3.5975    1.0000 </r>
       <r>    4.7103    1.0000 </r>
       <r>    4.7103    1.0000 </r>
       <r>    5.5327    1.0148 </r>
       <r>    5.5327    1.0148 </r>
       <r>    7.1576   -0.0000 </r>
       <r>    7.1576   -0.0000 </r>
       <r>   15.6547    0.0000 </r>
       <r>   15.6547    0.0000 </r>
       <r>   21.7597    0.0000 </r>
       <r>   21.7597    0.0000 </r>
       <r>   26.6047    0.0000 </r>
       <r>   26.6047    0.0000 </r>
       <r>   30.8099    0.0000 </r>
       <r>   30.8099    0.0000 </r>
      </set>
      <set comment="kpoint 34">
       <r>    1.0622    1.0000 </r>
       <r>    1.3012    1.0000 </r>
       <r>    2.5593    1.0000 </r>
       <r>    2.6875    1.0000 </r>
       <r>    3.8369    1.0000 </r>
       <r>    4.4198    1.0000 </r>
       <r>    4.7387    1.0000 </r>
       <r>    4.8764    1.0000 </r>
       <r>    4.9675    1.0000 </r>
       <r>    5.8480    0.6768 </r>
       <r>    6.7337   -0.0000 </r>
       <r>    8.4655   -0.0000 </r>
       <r>   13.3811    0.0000 </r>
       <r>   15.4433    0.0000 </r>
       <r>   21.3059    0.0000 </r>
       <r>   23.5625    0.0000 </r>
       <r>   25.4013    0.0000 </r>
       <r>   26.0323    0.0000 </r>
       <r>   30.8531    0.0000 </r>
       <r>   30.9927    0.0000 </r>
      </set>
      <set comment="kpoint 35">
       <r>    1.1418    1.0000 </r>
       <r>    1.1418    1.0000 </r>
       <r>    2.5469    1.0000 </r>
       <r>    2.5469    1.0000 </r>
       <r>    4.3819    1.0000 </r>
       <r>    4.3819    1.0000 </r>
       <r>    4.8465    1.0000 </r>
       <r>    4.8465    1.0000 </r>
       <r>    5.4794    1.0066 </r>
       <r>    5.4794    1.0066 </r>
       <r>    7.5241   -0.0000 </r>
       <r>    7.5241   -0.0000 </r>
       <r>   13.9711    0.0000 </r>
       <r>   13.9711    0.0000 </r>
       <r>   22.5573    0.0000 </r>
       <r>   22.5573    0.0000 </r>
       <r>   25.5394    0.0000 </r>
       <r>   25.5394    0.0000 </r>
       <r>   30.7631    0.0000 </r>
       <r>   30.7631    0.0000 </r>
      </set>
      <set comment="kpoint 36">
       <r>    1.0798    1.0000 </r>
       <r>    1.0798    1.0000 </r>
       <r>    2.4675    1.0000 </r>
       <r>    2.4675    1.0000 </r>
       <r>    4.8861    1.0000 </r>
       <r>    4.8861    1.0000 </r>
       <r>    4.9941    1.0000 </r>
       <r>    4.9941    1.0000 </r>
       <r>    5.2065    1.0000 </r>
       <r>    5.2065    1.0000 </r>
       <r>    7.6728   -0.0000 </r>
       <r>    7.6728   -0.0000 </r>
       <r>   13.3234    0.0000 </r>
       <r>   13.3234    0.0000 </r>
       <r>   23.1373    0.0000 </r>
       <r>   23.1373    0.0000 </r>
       <r>   24.7992    0.0000 </r>
       <r>   24.7992    0.0000 </r>
       <r>   30.8567    0.0000 </r>
       <r>   30.8567    0.0000 </r>
      </set>
      <set comment="kpoint 37">
       <r>   -0.3211    1.0000 </r>
       <r>    1.9445    1.0000 </r>
       <r>    1.9445    1.0000 </r>
       <r>    3.0401    1.0000 </r>
       <r>    3.0401    1.0000 </r>
       <r>    3.5236    1.0000 </r>
       <r>    4.7592    1.0000 </r>
       <r>    4.7592    1.0000 </r>
       <r>    5.1118    1.0000 </r>
       <r>    5.5225    1.0129 </r>
       <r>    5.5225    1.0129 </r>
       <r>   13.5032    0.0000 </r>
       <r>   13.5032    0.0000 </r>
       <r>   15.5432    0.0000 </r>
       <r>   24.0970    0.0000 </r>
       <r>   24.0970    0.0000 </r>
       <r>   27.0122    0.0000 </r>
       <r>   27.3328    0.0000 </r>
       <r>   27.3328    0.0000 </r>
       <r>   31.7874    0.0000 </r>
      </set>
      <set comment="kpoint 38">
       <r>    0.4210    1.0000 </r>
       <r>    2.1461    1.0000 </r>
       <r>    2.1981    1.0000 </r>
       <r>    2.9015    1.0000 </r>
       <r>    2.9423    1.0000 </r>
       <r>    3.1476    1.0000 </r>
       <r>    4.6707    1.0000 </r>
       <r>    4.9146    1.0000 </r>
       <r>    5.0855    1.0000 </r>
       <r>    5.6154    1.0326 </r>
       <r>    5.6507    1.0354 </r>
       <r>   11.2328   -0.0000 </r>
       <r>   14.7821    0.0000 </r>
       <r>   16.1157    0.0000 </r>
       <r>   21.8619    0.0000 </r>
       <r>   22.7836    0.0000 </r>
       <r>   26.2569    0.0000 </r>
       <r>   28.0523    0.0000 </r>
       <r>   29.0562    0.0000 </r>
       <r>   32.0782    0.0000 </r>
      </set>
      <set comment="kpoint 39">
       <r>    1.1465    1.0000 </r>
       <r>    2.0483    1.0000 </r>
       <r>    2.3690    1.0000 </r>
       <r>    2.7477    1.0000 </r>
       <r>    3.0781    1.0000 </r>
       <r>    3.1988    1.0000 </r>
       <r>    4.5958    1.0000 </r>
       <r>    4.7606    1.0000 </r>
       <r>    5.0855    1.0000 </r>
       <r>    5.5155    1.0117 </r>
       <r>    6.3360   -0.0036 </r>
       <r>    9.0721   -0.0000 </r>
       <r>   16.2907    0.0000 </r>
       <r>   17.2721    0.0000 </r>
       <r>   19.8249    0.0000 </r>
       <r>   20.7082    0.0000 </r>
       <r>   26.8381    0.0000 </r>
       <r>   28.8333    0.0000 </r>
       <r>   29.0765    0.0000 </r>
       <r>   31.8611    0.0000 </r>
      </set>
      <set comment="kpoint 40">
       <r>    1.6696    1.0000 </r>
       <r>    1.6696    1.0000 </r>
       <r>    2.5740    1.0000 </r>
       <r>    2.5740    1.0000 </r>
       <r>    3.2629    1.0000 </r>
       <r>    3.2629    1.0000 </r>
       <r>    4.6031    1.0000 </r>
       <r>    4.6031    1.0000 </r>
       <r>    5.2967    1.0001 </r>
       <r>    5.2967    1.0001 </r>
       <r>    7.4083   -0.0000 </r>
       <r>    7.4083   -0.0000 </r>
       <r>   17.9736    0.0000 </r>
       <r>   17.9736    0.0000 </r>
       <r>   18.8144    0.0000 </r>
       <r>   18.8144    0.0000 </r>
       <r>   27.8159    0.0000 </r>
       <r>   27.8159    0.0000 </r>
       <r>   30.3814    0.0000 </r>
       <r>   30.3814    0.0000 </r>
      </set>
      <set comment="kpoint 41">
       <r>    1.0168    1.0000 </r>
       <r>    2.0824    1.0000 </r>
       <r>    2.6627    1.0000 </r>
       <r>    2.7171    1.0000 </r>
       <r>    2.8043    1.0000 </r>
       <r>    2.9137    1.0000 </r>
       <r>    4.7860    1.0000 </r>
       <r>    4.8992    1.0000 </r>
       <r>    4.9791    1.0000 </r>
       <r>    5.5472    1.0177 </r>
       <r>    6.2842   -0.0089 </r>
       <r>   11.3617    0.0000 </r>
       <r>   13.6436    0.0000 </r>
       <r>   16.5159    0.0000 </r>
       <r>   19.8901    0.0000 </r>
       <r>   22.4571    0.0000 </r>
       <r>   24.2597    0.0000 </r>
       <r>   28.4418    0.0000 </r>
       <r>   30.6092    0.0000 </r>
       <r>   31.7426    0.0000 </r>
      </set>
      <set comment="kpoint 42">
       <r>    1.4364    1.0000 </r>
       <r>    1.8808    1.0000 </r>
       <r>    2.6187    1.0000 </r>
       <r>    2.6263    1.0000 </r>
       <r>    3.1527    1.0000 </r>
       <r>    3.1695    1.0000 </r>
       <r>    4.7769    1.0000 </r>
       <r>    4.8283    1.0000 </r>
       <r>    5.0203    1.0000 </r>
       <r>    5.4589    1.0046 </r>
       <r>    7.0481   -0.0000 </r>
       <r>    9.7605   -0.0000 </r>
       <r>   14.4463    0.0000 </r>
       <r>   17.6345    0.0000 </r>
       <r>   17.7843    0.0000 </r>
       <r>   20.9313    0.0000 </r>
       <r>   24.4569    0.0000 </r>
       <r>   27.1206    0.0000 </r>
       <r>   31.0561    0.0000 </r>
       <r>   33.3483    0.0000 </r>
      </set>
      <set comment="kpoint 43">
       <r>    1.6653    1.0000 </r>
       <r>    1.6653    1.0000 </r>
       <r>    2.5887    1.0000 </r>
       <r>    2.5887    1.0000 </r>
       <r>    3.3633    1.0000 </r>
       <r>    3.3633    1.0000 </r>
       <r>    4.7776    1.0000 </r>
       <r>    4.7776    1.0000 </r>
       <r>    5.2330    1.0000 </r>
       <r>    5.2330    1.0000 </r>
       <r>    8.1606   -0.0000 </r>
       <r>    8.1606   -0.0000 </r>
       <r>   15.9488    0.0000 </r>
       <r>   15.9488    0.0000 </r>
       <r>   19.1357    0.0000 </r>
       <r>   19.1357    0.0000 </r>
       <r>   25.6191    0.0000 </r>
       <r>   25.6191    0.0000 </r>
       <r>   32.1384    0.0000 </r>
       <r>   32.1384    0.0000 </r>
      </set>
      <set comment="kpoint 44">
       <r>    1.4948    1.0000 </r>
       <r>    1.6546    1.0000 </r>
       <r>    2.5020    1.0000 </r>
       <r>    2.5760    1.0000 </r>
       <r>    3.5800    1.0000 </r>
       <r>    3.6861    1.0000 </r>
       <r>    4.8623    1.0000 </r>
       <r>    4.8859    1.0000 </r>
       <r>    4.9777    1.0000 </r>
       <r>    5.3643    1.0006 </r>
       <r>    7.8482   -0.0000 </r>
       <r>    9.7761   -0.0000 </r>
       <r>   13.4818    0.0000 </r>
       <r>   15.7436    0.0000 </r>
       <r>   18.6857    0.0000 </r>
       <r>   21.3869    0.0000 </r>
       <r>   22.7648    0.0000 </r>
       <r>   25.1898    0.0000 </r>
       <r>   32.2002    0.0000 </r>
       <r>   33.8124    0.0000 </r>
      </set>
      <set comment="kpoint 45">
       <r>    1.5280    1.0000 </r>
       <r>    1.5280    1.0000 </r>
       <r>    2.4863    1.0000 </r>
       <r>    2.4863    1.0000 </r>
       <r>    3.9088    1.0000 </r>
       <r>    3.9088    1.0000 </r>
       <r>    4.8943    1.0000 </r>
       <r>    4.8943    1.0000 </r>
       <r>    5.1259    1.0000 </r>
       <r>    5.1259    1.0000 </r>
       <r>    8.8391   -0.0000 </r>
       <r>    8.8391   -0.0000 </r>
       <r>   14.1734    0.0000 </r>
       <r>   14.1734    0.0000 </r>
       <r>   20.0975    0.0000 </r>
       <r>   20.0975    0.0000 </r>
       <r>   23.5472    0.0000 </r>
       <r>   23.5472    0.0000 </r>
       <r>   33.2198    0.0000 </r>
       <r>   33.2198    0.0000 </r>
      </set>
      <set comment="kpoint 46">
       <r>    1.4684    1.0000 </r>
       <r>    1.4684    1.0000 </r>
       <r>    2.4272    1.0000 </r>
       <r>    2.4272    1.0000 </r>
       <r>    4.2643    1.0000 </r>
       <r>    4.2643    1.0000 </r>
       <r>    4.9318    1.0000 </r>
       <r>    4.9318    1.0000 </r>
       <r>    5.0032    1.0000 </r>
       <r>    5.0032    1.0000 </r>
       <r>    9.1683   -0.0000 </r>
       <r>    9.1683   -0.0000 </r>
       <r>   13.4355    0.0000 </r>
       <r>   13.4355    0.0000 </r>
       <r>   21.0134    0.0000 </r>
       <r>   21.0134    0.0000 </r>
       <r>   22.2476    0.0000 </r>
       <r>   22.2476    0.0000 </r>
       <r>   33.6804    0.0000 </r>
       <r>   33.6804    0.0000 </r>
      </set>
      <set comment="kpoint 47">
       <r>    1.6671    1.0000 </r>
       <r>    2.3632    1.0000 </r>
       <r>    2.6137    1.0000 </r>
       <r>    2.6137    1.0000 </r>
       <r>    2.6259    1.0000 </r>
       <r>    2.6259    1.0000 </r>
       <r>    4.8880    1.0000 </r>
       <r>    4.8880    1.0000 </r>
       <r>    5.1795    1.0000 </r>
       <r>    5.1795    1.0000 </r>
       <r>    7.0715   -0.0000 </r>
       <r>   12.7413    0.0000 </r>
       <r>   12.7413    0.0000 </r>
       <r>   15.4045    0.0000 </r>
       <r>   20.1961    0.0000 </r>
       <r>   20.1961    0.0000 </r>
       <r>   21.9641    0.0000 </r>
       <r>   27.2462    0.0000 </r>
       <r>   32.4811    0.0000 </r>
       <r>   32.4811    0.0000 </r>
      </set>
      <set comment="kpoint 48">
       <r>    1.9625    1.0000 </r>
       <r>    2.1124    1.0000 </r>
       <r>    2.5438    1.0000 </r>
       <r>    2.5710    1.0000 </r>
       <r>    2.8227    1.0000 </r>
       <r>    3.0327    1.0000 </r>
       <r>    4.8739    1.0000 </r>
       <r>    4.9655    1.0000 </r>
       <r>    4.9943    1.0000 </r>
       <r>    5.2110    1.0000 </r>
       <r>    7.9898   -0.0000 </r>
       <r>   10.8759   -0.0000 </r>
       <r>   14.3440    0.0000 </r>
       <r>   15.9574    0.0000 </r>
       <r>   18.0799    0.0000 </r>
       <r>   18.8852    0.0000 </r>
       <r>   22.0244    0.0000 </r>
       <r>   25.1312    0.0000 </r>
       <r>   33.4985    0.0000 </r>
       <r>   35.2694    0.0000 </r>
      </set>
      <set comment="kpoint 49">
       <r>    1.9850    1.0000 </r>
       <r>    1.9850    1.0000 </r>
       <r>    2.5318    1.0000 </r>
       <r>    2.5318    1.0000 </r>
       <r>    3.1465    1.0000 </r>
       <r>    3.1465    1.0000 </r>
       <r>    4.8831    1.0000 </r>
       <r>    4.8831    1.0000 </r>
       <r>    5.1122    1.0000 </r>
       <r>    5.1122    1.0000 </r>
       <r>    9.2173   -0.0000 </r>
       <r>    9.2173   -0.0000 </r>
       <r>   16.1275    0.0000 </r>
       <r>   16.1275    0.0000 </r>
       <r>   17.1906    0.0000 </r>
       <r>   17.1906    0.0000 </r>
       <r>   23.3439    0.0000 </r>
       <r>   23.3439    0.0000 </r>
       <r>   34.7305    0.0000 </r>
       <r>   34.7305    0.0000 </r>
      </set>
      <set comment="kpoint 50">
       <r>    2.0310    1.0000 </r>
       <r>    2.0810    1.0000 </r>
       <r>    2.4557    1.0000 </r>
       <r>    2.5806    1.0000 </r>
       <r>    3.0720    1.0000 </r>
       <r>    3.2035    1.0000 </r>
       <r>    4.9461    1.0000 </r>
       <r>    4.9780    1.0000 </r>
       <r>    4.9882    1.0000 </r>
       <r>    5.1223    1.0000 </r>
       <r>    9.0232   -0.0000 </r>
       <r>   11.3337   -0.0000 </r>
       <r>   13.5989    0.0000 </r>
       <r>   16.3157    0.0000 </r>
       <r>   16.4515    0.0000 </r>
       <r>   19.1464    0.0000 </r>
       <r>   20.2377    0.0000 </r>
       <r>   22.9963    0.0000 </r>
       <r>   35.2671    0.0000 </r>
       <r>   37.0740    0.0000 </r>
      </set>
      <set comment="kpoint 51">
       <r>    2.0092    1.0000 </r>
       <r>    2.0092    1.0000 </r>
       <r>    2.4739    1.0000 </r>
       <r>    2.4739    1.0000 </r>
       <r>    3.3381    1.0000 </r>
       <r>    3.3381    1.0000 </r>
       <r>    4.9602    1.0000 </r>
       <r>    4.9602    1.0000 </r>
       <r>    5.0464    1.0000 </r>
       <r>    5.0464    1.0000 </r>
       <r>   10.2386   -0.0000 </r>
       <r>   10.2386   -0.0000 </r>
       <r>   14.5931    0.0000 </r>
       <r>   14.5931    0.0000 </r>
       <r>   17.7772    0.0000 </r>
       <r>   17.7772    0.0000 </r>
       <r>   21.1958    0.0000 </r>
       <r>   21.1958    0.0000 </r>
       <r>   36.4700    0.0000 </r>
       <r>   36.4700    0.0000 </r>
      </set>
      <set comment="kpoint 52">
       <r>    1.9888    1.0000 </r>
       <r>    1.9888    1.0000 </r>
       <r>    2.4076    1.0000 </r>
       <r>    2.4076    1.0000 </r>
       <r>    3.5252    1.0000 </r>
       <r>    3.5252    1.0000 </r>
       <r>    4.9834    1.0000 </r>
       <r>    4.9834    1.0000 </r>
       <r>    5.0142    1.0000 </r>
       <r>    5.0142    1.0000 </r>
       <r>   10.8231   -0.0000 </r>
       <r>   10.8231   -0.0000 </r>
       <r>   13.6970    0.0000 </r>
       <r>   13.6970    0.0000 </r>
       <r>   18.7872    0.0000 </r>
       <r>   18.7872    0.0000 </r>
       <r>   19.7571    0.0000 </r>
       <r>   19.7571    0.0000 </r>
       <r>   37.0918    0.0000 </r>
       <r>   37.0918    0.0000 </r>
      </set>
      <set comment="kpoint 53">
       <r>    2.1701    1.0000 </r>
       <r>    2.4724    1.0000 </r>
       <r>    2.4724    1.0000 </r>
       <r>    2.7906    1.0000 </r>
       <r>    2.8458    1.0000 </r>
       <r>    2.8458    1.0000 </r>
       <r>    4.9960    1.0000 </r>
       <r>    4.9960    1.0000 </r>
       <r>    5.0328    1.0000 </r>
       <r>    5.0328    1.0000 </r>
       <r>   10.2628   -0.0000 </r>
       <r>   13.0701    0.0000 </r>
       <r>   13.0701    0.0000 </r>
       <r>   15.4804    0.0000 </r>
       <r>   16.9919    0.0000 </r>
       <r>   16.9919    0.0000 </r>
       <r>   18.4039    0.0000 </r>
       <r>   20.8558    0.0000 </r>
       <r>   38.5952    0.0000 </r>
       <r>   38.5952    0.0000 </r>
      </set>
      <set comment="kpoint 54">
       <r>    2.2902    1.0000 </r>
       <r>    2.2902    1.0000 </r>
       <r>    2.5955    1.0000 </r>
       <r>    2.5955    1.0000 </r>
       <r>    2.9737    1.0000 </r>
       <r>    2.9737    1.0000 </r>
       <r>    5.0052    1.0000 </r>
       <r>    5.0052    1.0000 </r>
       <r>    5.0271    1.0000 </r>
       <r>    5.0271    1.0000 </r>
       <r>   11.6460    0.0000 </r>
       <r>   11.6460    0.0000 </r>
       <r>   14.9610    0.0000 </r>
       <r>   14.9610    0.0000 </r>
       <r>   16.1752    0.0000 </r>
       <r>   16.1752    0.0000 </r>
       <r>   19.0734    0.0000 </r>
       <r>   19.0734    0.0000 </r>
       <r>   39.6948    0.0000 </r>
       <r>   39.6948    0.0000 </r>
      </set>
      <set comment="kpoint 55">
       <r>    2.4525    1.0000 </r>
       <r>    2.4525    1.0000 </r>
       <r>    2.4623    1.0000 </r>
       <r>    2.4623    1.0000 </r>
       <r>    2.9884    1.0000 </r>
       <r>    2.9884    1.0000 </r>
       <r>    5.0172    1.0000 </r>
       <r>    5.0172    1.0000 </r>
       <r>    5.0233    1.0000 </r>
       <r>    5.0233    1.0000 </r>
       <r>   12.6249    0.0000 </r>
       <r>   12.6249    0.0000 </r>
       <r>   14.1689    0.0000 </r>
       <r>   14.1689    0.0000 </r>
       <r>   16.6226    0.0000 </r>
       <r>   16.6226    0.0000 </r>
       <r>   17.7465    0.0000 </r>
       <r>   17.7465    0.0000 </r>
       <r>   40.9331    0.0000 </r>
[...]
       </set>
       <set comment="band 16">
        <r>  0.0000  0.0803  0.0000  0.0803  0.0000  0.1064  0.0000  0.1064  0.0000 </r>
        <r>  0.0000  0.0803  0.0000  0.0803  0.0000  0.1064  0.0000  0.1064  0.0000 </r>
       </set>
       <set comment="band 17">
        <r>  0.1928  0.0000  0.1671  0.0000  0.0247  0.0000  0.0116  0.0000  0.0000 </r>
        <r>  0.1928  0.0000  0.1671  0.0000  0.0247  0.0000  0.0116  0.0000  0.0000 </r>
       </set>
       <set comment="band 18">
        <r>  0.1928  0.0000  0.1671  0.0000  0.0247  0.0000  0.0116  0.0000  0.0000 </r>
        <r>  0.1928  0.0000  0.1671  0.0000  0.0247  0.0000  0.0116  0.0000  0.0000 </r>
       </set>
       <set comment="band 19">
        <r>  0.0000  0.0001  0.0000  0.0001  0.0000  0.1002  0.0000  0.1002  0.0000 </r>
        <r>  0.0000  0.0001  0.0000  0.0001  0.0000  0.1002  0.0000  0.1002  0.0000 </r>
       </set>
       <set comment="band 20">
        <r>  0.0000  0.0001  0.0000  0.0001  0.0000  0.1002  0.0000  0.1002  0.0000 </r>
        <r>  0.0000  0.0001  0.0000  0.0001  0.0000  0.1002  0.0000  0.1002  0.0000 </r>
       </set>
      </set>
      <set comment="kpoint 53">
       <set comment="band 1">
        <r>  0.0197  0.0075  0.0075  0.0075  0.1392  0.1392  0.0000  0.1392  0.0000 </r>
        <r>  0.0197  0.0075  0.0075  0.0075  0.1392  0.1392  0.0000  0.1392  0.0000 </r>
       </set>
       <set comment="band 2">
        <r>  0.0481  0.0420  0.0421  0.0420  0.0815  0.0814  0.0000  0.0813  0.0000 </r>
        <r>  0.0481  0.0420  0.0421  0.0420  0.0815  0.0814  0.0000  0.0813  0.0000 </r>
       </set>
       <set comment="band 3">
        <r>  0.0000  0.0071  0.0306  0.0083  0.2633  0.0712  0.0160  0.0608  0.0000 </r>
        <r>  0.0000  0.0071  0.0306  0.0083  0.2633  0.0712  0.0160  0.0608  0.0000 </r>
       </set>
       <set comment="band 4">
        <r>  0.0000  0.0236  0.0000  0.0224  0.0001  0.1924  0.0000  0.2028  0.0160 </r>
        <r>  0.0000  0.0236  0.0000  0.0224  0.0001  0.1924  0.0000  0.2028  0.0160 </r>
       </set>
       <set comment="band 5">
        <r>  0.0000  0.0161  0.0661  0.0170  0.1997  0.0514  0.0392  0.0485  0.0000 </r>
        <r>  0.0000  0.0161  0.0661  0.0170  0.1997  0.0514  0.0392  0.0485  0.0000 </r>
       </set>
       <set comment="band 6">
        <r>  0.0000  0.0501  0.0000  0.0491  0.0000  0.1483  0.0000  0.1512  0.0392 </r>
        <r>  0.0000  0.0501  0.0000  0.0491  0.0000  0.1483  0.0000  0.1512  0.0392 </r>
       </set>
       <set comment="band 7">
        <r>  0.0000  0.0001  0.0003  0.0001  0.0369  0.0069  0.4333  0.0119  0.0027 </r>
        <r>  0.0000  0.0001  0.0003  0.0001  0.0369  0.0069  0.4333  0.0119  0.0027 </r>
       </set>
       <set comment="band 8">
        <r>  0.0000  0.0002  0.0000  0.0003  0.0002  0.0302  0.0027  0.0252  0.4333 </r>
        <r>  0.0000  0.0002  0.0000  0.0003  0.0002  0.0302  0.0027  0.0252  0.4333 </r>
       </set>
       <set comment="band 9">
        <r>  0.0000  0.0000  0.0000  0.0000  0.0141  0.0026  0.4680  0.0046  0.0033 </r>
        <r>  0.0000  0.0000  0.0000  0.0000  0.0141  0.0026  0.4680  0.0046  0.0033 </r>
       </set>
       <set comment="band 10">
        <r>  0.0000  0.0000  0.0000  0.0000  0.0001  0.0116  0.0033  0.0096  0.4680 </r>
        <r>  0.0000  0.0000  0.0000  0.0000  0.0001  0.0116  0.0033  0.0096  0.4680 </r>
       </set>
       <set comment="band 11">
        <r>  0.0387  0.0362  0.0362  0.0362  0.0997  0.0997  0.0000  0.0997  0.0000 </r>
        <r>  0.0387  0.0362  0.0362  0.0362  0.0997  0.0997  0.0000  0.0997  0.0000 </r>
       </set>
       <set comment="band 12">
        <r>  0.0000  0.0296  0.1231  0.0319  0.1410  0.0366  0.0257  0.0340  0.0000 </r>
        <r>  0.0000  0.0296  0.1231  0.0319  0.1410  0.0366  0.0257  0.0340  0.0000 </r>
       </set>
       <set comment="band 13">
        <r>  0.0000  0.0934  0.0000  0.0912  0.0000  0.1045  0.0000  0.1071  0.0257 </r>
        <r>  0.0000  0.0934  0.0000  0.0912  0.0000  0.1045  0.0000  0.1071  0.0257 </r>
       </set>
       <set comment="band 14">
        <r>  0.2773  0.0033  0.0033  0.0033  0.0432  0.0432  0.0000  0.0432  0.0000 </r>
        <r>  0.2773  0.0033  0.0033  0.0033  0.0432  0.0432  0.0000  0.0432  0.0000 </r>
       </set>
       <set comment="band 15">
        <r>  0.0000  0.0254  0.1150  0.0323  0.1415  0.0397  0.0140  0.0313  0.0000 </r>
        <r>  0.0000  0.0254  0.1150  0.0323  0.1415  0.0397  0.0140  0.0313  0.0000 </r>
       </set>
       <set comment="band 16">
        <r>  0.0000  0.0897  0.0001  0.0828  0.0002  0.1020  0.0000  0.1104  0.0140 </r>
        <r>  0.0000  0.0897  0.0001  0.0828  0.0002  0.1020  0.0000  0.1104  0.0140 </r>
       </set>
       <set comment="band 17">
        <r>  0.3114  0.0301  0.0301  0.0301  0.0000  0.0000  0.0000  0.0000  0.0000 </r>
        <r>  0.3114  0.0301  0.0301  0.0301  0.0000  0.0000  0.0000  0.0000  0.0000 </r>
       </set>
       <set comment="band 18">
        <r>  0.0947  0.0587  0.0587  0.0587  0.0382  0.0382  0.0000  0.0382  0.0000 </r>
        <r>  0.0947  0.0587  0.0587  0.0587  0.0382  0.0382  0.0000  0.0382  0.0000 </r>
       </set>
       <set comment="band 19">
        <r>  0.0000  0.0106  0.0002  0.0080  0.0005  0.0224  0.0013  0.0295  0.0941 </r>
        <r>  0.0000  0.0106  0.0002  0.0080  0.0005  0.0224  0.0013  0.0295  0.0941 </r>
       </set>
       <set comment="band 20">
        <r>  0.0000  0.0019  0.0123  0.0045  0.0344  0.0125  0.0941  0.0054  0.0013 </r>
        <r>  0.0000  0.0019  0.0123  0.0045  0.0344  0.0125  0.0941  0.0054  0.0013 </r>
       </set>
      </set>
      <set comment="kpoint 54">
       <set comment="band 1">
        <r>  0.0169  0.0233  0.0233  0.0006  0.1586  0.0651  0.0015  0.1585  0.0044 </r>
        <r>  0.0169  0.0233  0.0233  0.0006  0.1586  0.0651  0.0015  0.1585  0.0044 </r>
       </set>
       <set comment="band 2">
        <r>  0.0169  0.0233  0.0233  0.0006  0.1586  0.0651  0.0015  0.1585  0.0044 </r>
        <r>  0.0169  0.0233  0.0233  0.0006  0.1586  0.0651  0.0015  0.1585  0.0044 </r>
       </set>
       <set comment="band 3">
        <r>  0.0000  0.0353  0.0353  0.0000  0.1762  0.0000  0.0188  0.1763  0.0063 </r>
        <r>  0.0000  0.0353  0.0353  0.0000  0.1762  0.0000  0.0188  0.1763  0.0063 </r>
       </set>
       <set comment="band 4">
        <r>  0.0000  0.0353  0.0353  0.0000  0.1762  0.0000  0.0188  0.1763  0.0063 </r>
        <r>  0.0000  0.0353  0.0353  0.0000  0.1762  0.0000  0.0188  0.1763  0.0063 </r>
       </set>
       <set comment="band 5">
        <r>  0.0056  0.0124  0.0124  0.0815  0.0117  0.2985  0.0009  0.0117  0.0027 </r>
        <r>  0.0056  0.0124  0.0124  0.0815  0.0117  0.2985  0.0009  0.0117  0.0027 </r>
       </set>
       <set comment="band 6">
        <r>  0.0056  0.0124  0.0124  0.0815  0.0117  0.2985  0.0009  0.0117  0.0027 </r>
        <r>  0.0056  0.0124  0.0124  0.0815  0.0117  0.2985  0.0009  0.0117  0.0027 </r>
       </set>
       <set comment="band 7">
        <r>  0.0000  0.0001  0.0001  0.0000  0.0172  0.0000  0.3438  0.0172  0.1141 </r>
        <r>  0.0000  0.0001  0.0001  0.0000  0.0172  0.0000  0.3438  0.0172  0.1141 </r>
       </set>
       <set comment="band 8">
        <r>  0.0000  0.0001  0.0001  0.0000  0.0172  0.0000  0.3438  0.0172  0.1141 </r>
        <r>  0.0000  0.0001  0.0001  0.0000  0.0172  0.0000  0.3438  0.0172  0.1141 </r>
       </set>
       <set comment="band 9">
        <r>  0.0001  0.0000  0.0000  0.0000  0.0062  0.0015  0.1194  0.0063  0.3598 </r>
        <r>  0.0001  0.0000  0.0000  0.0000  0.0062  0.0015  0.1194  0.0063  0.3598 </r>
       </set>
       <set comment="band 10">
        <r>  0.0001  0.0000  0.0000  0.0000  0.0062  0.0015  0.1194  0.0063  0.3598 </r>
        <r>  0.0001  0.0000  0.0000  0.0000  0.0062  0.0015  0.1194  0.0063  0.3598 </r>
       </set>
       <set comment="band 11">
        <r>  0.0280  0.0344  0.0344  0.0764  0.0708  0.1116  0.0014  0.0708  0.0041 </r>
        <r>  0.0280  0.0344  0.0344  0.0764  0.0708  0.1116  0.0014  0.0708  0.0041 </r>
       </set>
       <set comment="band 12">
        <r>  0.0280  0.0344  0.0344  0.0764  0.0708  0.1116  0.0014  0.0708  0.0041 </r>
        <r>  0.0280  0.0344  0.0344  0.0764  0.0708  0.1116  0.0014  0.0708  0.0041 </r>
       </set>
       <set comment="band 13">
        <r>  0.0000  0.0911  0.0911  0.0000  0.1060  0.0000  0.0138  0.1060  0.0046 </r>
        <r>  0.0000  0.0912  0.0912  0.0000  0.1060  0.0000  0.0138  0.1060  0.0046 </r>
       </set>
       <set comment="band 14">
        <r>  0.0000  0.0912  0.0912  0.0000  0.1060  0.0000  0.0138  0.1060  0.0046 </r>
        <r>  0.0000  0.0911  0.0911  0.0000  0.1060  0.0000  0.0138  0.1060  0.0046 </r>
       </set>
       <set comment="band 15">
        <r>  0.1932  0.0010  0.0010  0.0715  0.0294  0.0813  0.0001  0.0294  0.0003 </r>
        <r>  0.1932  0.0010  0.0010  0.0715  0.0294  0.0813  0.0001  0.0294  0.0003 </r>
       </set>
       <set comment="band 16">
        <r>  0.1932  0.0010  0.0010  0.0715  0.0294  0.0813  0.0001  0.0294  0.0003 </r>
        <r>  0.1932  0.0010  0.0010  0.0715  0.0294  0.0813  0.0001  0.0294  0.0003 </r>
       </set>
       <set comment="band 17">
        <r>  0.1550  0.0607  0.0607  0.0252  0.0240  0.0412  0.0004  0.0240  0.0012 </r>
        <r>  0.1550  0.0607  0.0607  0.0252  0.0240  0.0412  0.0004  0.0240  0.0012 </r>
       </set>
       <set comment="band 18">
        <r>  0.1550  0.0607  0.0607  0.0252  0.0240  0.0412  0.0004  0.0240  0.0012 </r>
        <r>  0.1550  0.0607  0.0607  0.0252  0.0240  0.0412  0.0004  0.0240  0.0012 </r>
       </set>
       <set comment="band 19">
        <r>  0.0000  0.0040  0.0040  0.0000  0.0300  0.0000  0.0316  0.0300  0.0105 </r>
        <r>  0.0000  0.0040  0.0040  0.0000  0.0300  0.0000  0.0316  0.0300  0.0105 </r>
       </set>
       <set comment="band 20">
        <r>  0.0000  0.0040  0.0040  0.0000  0.0300  0.0000  0.0316  0.0300  0.0105 </r>
        <r>  0.0000  0.0040  0.0040  0.0000  0.0300  0.0000  0.0316  0.0300  0.0105 </r>
       </set>
      </set>
      <set comment="kpoint 55">
       <set comment="band 1">
        <r>  0.0111  0.0000  0.0685  0.0000  0.3502  0.0000  0.0161  0.0000  0.0000 </r>
        <r>  0.0111  0.0000  0.0685  0.0000  0.3503  0.0000  0.0161  0.0000  0.0000 </r>
       </set>
       <set comment="band 2">
        <r>  0.0111  0.0000  0.0685  0.0000  0.3503  0.0000  0.0161  0.0000  0.0000 </r>
        <r>  0.0111  0.0000  0.0685  0.0000  0.3502  0.0000  0.0161  0.0000  0.0000 </r>
       </set>
       <set comment="band 3">
        <r>  0.0000  0.0249  0.0000  0.0249  0.0000  0.2037  0.0000  0.2037  0.0000 </r>
        <r>  0.0000  0.0249  0.0000  0.0249  0.0000  0.2037  0.0000  0.2037  0.0000 </r>
       </set>
       <set comment="band 4">
        <r>  0.0000  0.0249  0.0000  0.0249  0.0000  0.2037  0.0000  0.2037  0.0000 </r>
        <r>  0.0000  0.0249  0.0000  0.0249  0.0000  0.2037  0.0000  0.2037  0.0000 </r>
       </set>
       <set comment="band 5">
        <r>  0.0000  0.0547  0.0000  0.0547  0.0000  0.1643  0.0000  0.1643  0.0000 </r>
        <r>  0.0000  0.0547  0.0000  0.0547  0.0000  0.1643  0.0000  0.1643  0.0000 </r>
       </set>
       <set comment="band 6">
        <r>  0.0000  0.0547  0.0000  0.0547  0.0000  0.1643  0.0000  0.1643  0.0000 </r>
        <r>  0.0000  0.0547  0.0000  0.0547  0.0000  0.1643  0.0000  0.1643  0.0000 </r>
       </set>
       <set comment="band 7">
        <r>  0.0001  0.0000  0.0001  0.0000  0.0225  0.0000  0.4705  0.0000  0.0000 </r>
        <r>  0.0001  0.0000  0.0001  0.0000  0.0225  0.0000  0.4705  0.0000  0.0000 </r>
       </set>
       <set comment="band 8">
        <r>  0.0001  0.0000  0.0001  0.0000  0.0225  0.0000  0.4705  0.0000  0.0000 </r>
        <r>  0.0001  0.0000  0.0001  0.0000  0.0225  0.0000  0.4705  0.0000  0.0000 </r>
       </set>
       <set comment="band 9">
        <r>  0.0000  0.0000  0.0000  0.0000  0.0000  0.0000  0.0000  0.0000  0.4937 </r>
        <r>  0.0000  0.0000  0.0000  0.0000  0.0000  0.0000  0.0000  0.0000  0.4937 </r>
       </set>
       <set comment="band 10">
        <r>  0.0000  0.0000  0.0000  0.0000  0.0000  0.0000  0.0000  0.0000  0.4937 </r>
        <r>  0.0000  0.0000  0.0000  0.0000  0.0000  0.0000  0.0000  0.0000  0.4937 </r>
       </set>
       <set comment="band 11">
        <r>  0.0000  0.0902  0.0000  0.0902  0.0000  0.1199  0.0000  0.1199  0.0000 </r>
        <r>  0.0000  0.0902  0.0000  0.0902  0.0000  0.1199  0.0000  0.1199  0.0000 </r>
       </set>
       <set comment="band 12">
        <r>  0.0000  0.0902  0.0000  0.0902  0.0000  0.1199  0.0000  0.1199  0.0000 </r>
        <r>  0.0000  0.0902  0.0000  0.0902  0.0000  0.1199  0.0000  0.1199  0.0000 </r>
       </set>
       <set comment="band 13">
        <r>  0.0932  0.0000  0.1121  0.0000  0.2077  0.0000  0.0101  0.0000  0.0000 </r>
        <r>  0.0932  0.0000  0.1121  0.0000  0.2077  0.0000  0.0101  0.0000  0.0000 </r>
       </set>
       <set comment="band 14">
        <r>  0.0932  0.0000  0.1121  0.0000  0.2077  0.0000  0.0101  0.0000  0.0000 </r>
        <r>  0.0932  0.0000  0.1121  0.0000  0.2077  0.0000  0.0101  0.0000  0.0000 </r>
       </set>
       <set comment="band 15">
        <r>  0.0000  0.0872  0.0000  0.0872  0.0000  0.1119  0.0000  0.1119  0.0000 </r>
        <r>  0.0000  0.0872  0.0000  0.0872  0.0000  0.1119  0.0000  0.1119  0.0000 </r>
       </set>
       <set comment="band 16">
        <r>  0.0000  0.0872  0.0000  0.0872  0.0000  0.1119  0.0000  0.1119  0.0000 </r>
        <r>  0.0000  0.0872  0.0000  0.0872  0.0000  0.1119  0.0000  0.1119  0.0000 </r>
       </set>
       <set comment="band 17">
        <r>  0.2984  0.0000  0.0794  0.0000  0.0208  0.0000  0.0021  0.0000  0.0000 </r>
        <r>  0.2984  0.0000  0.0794  0.0000  0.0208  0.0000  0.0021  0.0000  0.0000 </r>
       </set>
       <set comment="band 18">
        <r>  0.2984  0.0000  0.0794  0.0000  0.0208  0.0000  0.0021  0.0000  0.0000 </r>
        <r>  0.2984  0.0000  0.0794  0.0000  0.0208  0.0000  0.0021  0.0000  0.0000 </r>
       </set>
       <set comment="band 19">
        <r>  0.0000  0.0003  0.0000  0.0003  0.0000  0.0490  0.0000  0.0490  0.0000 </r>
        <r>  0.0000  0.0003  0.0000  0.0003  0.0000  0.0490  0.0000  0.0490  0.0000 </r>
       </set>
       <set comment="band 20">
        <r>  0.0000  0.0003  0.0000  0.0003  0.0000  0.0490  0.0000  0.0490  0.0000 </r>
        <r>  0.0000  0.0003  0.0000  0.0003  0.0000  0.0490  0.0000  0.0490  0.0000 </r>
       </set>
      </set>
      <set comment="kpoint 56">
       <set comment="band 1">
        <r>  0.0000  0.0000  0.0264  0.0000  0.6154  0.0000  0.0000  0.0000  0.0000 </r>
        <r>  0.0000  0.0000  0.1272  0.0000  0.1277  0.0000  0.0000  0.0000  0.0000 </r>
       </set>
       <set comment="band 2">
        <r>  0.0000  0.0000  0.1272  0.0000  0.1277  0.0000  0.0000  0.0000  0.0000 </r>
        <r>  0.0000  0.0000  0.0264  0.0000  0.6154  0.0000  0.0000  0.0000  0.0000 </r>
       </set>
       <set comment="band 3">
        <r>  0.0000  0.0000  0.0000  0.1186  0.0000  0.1694  0.0000  0.0000  0.0000 </r>
        <r>  0.0000  0.0000  0.0000  0.0350  0.0000  0.5737  0.0000  0.0000  0.0000 </r>
       </set>
       <set comment="band 4">
        <r>  0.0000  0.0000  0.0000  0.0350  0.0000  0.5737  0.0000  0.0000  0.0000 </r>
        <r>  0.0000  0.0000  0.0000  0.1186  0.0000  0.1694  0.0000  0.0000  0.0000 </r>
       </set>
       <set comment="band 5">
        <r>  0.0000  0.1413  0.0000  0.0000  0.0000  0.0000  0.0000  0.0595  0.0000 </r>
        <r>  0.0000  0.0123  0.0000  0.0000  0.0000  0.0000  0.0000  0.6836  0.0000 </r>
       </set>
       <set comment="band 6">
        <r>  0.0000  0.0123  0.0000  0.0000  0.0000  0.0000  0.0000  0.6836  0.0000 </r>
        <r>  0.0000  0.1413  0.0000  0.0000  0.0000  0.0000  0.0000  0.0595  0.0000 </r>
       </set>
       <set comment="band 7">
        <r>  0.0000  0.0000  0.0000  0.0000  0.0000  0.0000  0.9096  0.0000  0.0068 </r>
        <r>  0.0000  0.0000  0.0000  0.0000  0.0000  0.0000  0.0708  0.0000  0.0005 </r>
       </set>
       <set comment="band 8">
        <r>  0.0000  0.0000  0.0000  0.0000  0.0000  0.0000  0.0708  0.0000  0.0005 </r>
        <r>  0.0000  0.0000  0.0000  0.0000  0.0000  0.0000  0.9096  0.0000  0.0068 </r>
       </set>
       <set comment="band 9">
        <r>  0.0000  0.0000  0.0000  0.0000  0.0000  0.0000  0.0008  0.0000  0.1069 </r>
        <r>  0.0000  0.0000  0.0000  0.0000  0.0000  0.0000  0.0066  0.0000  0.8734 </r>
       </set>
       <set comment="band 10">
        <r>  0.0000  0.0000  0.0000  0.0000  0.0000  0.0000  0.0066  0.0000  0.8734 </r>
        <r>  0.0000  0.0000  0.0000  0.0000  0.0000  0.0000  0.0008  0.0000  0.1069 </r>
       </set>
       <set comment="band 11">
        <r>  0.0000  0.0000  0.3631  0.0000  0.0006  0.0000  0.0000  0.0000  0.0000 </r>
        <r>  0.0000  0.0000  0.0005  0.0000  0.4586  0.0000  0.0000  0.0000  0.0000 </r>
       </set>
       <set comment="band 12">
        <r>  0.0000  0.0000  0.0005  0.0000  0.4586  0.0000  0.0000  0.0000  0.0000 </r>
        <r>  0.0000  0.0000  0.3631  0.0000  0.0006  0.0000  0.0000  0.0000  0.0000 </r>
       </set>
       <set comment="band 13">
        <r>  0.0000  0.0000  0.0000  0.0475  0.0000  0.3991  0.0000  0.0000  0.0000 </r>
        <r>  0.0000  0.0000  0.0000  0.3160  0.0000  0.0600  0.0000  0.0000  0.0000 </r>
       </set>
       <set comment="band 14">
        <r>  0.0000  0.0000  0.0000  0.3160  0.0000  0.0600  0.0000  0.0000  0.0000 </r>
        <r>  0.0000  0.0000  0.0000  0.0475  0.0000  0.3991  0.0000  0.0000  0.0000 </r>
       </set>
       <set comment="band 15">
        <r>  0.0000  0.0433  0.0000  0.0000  0.0000  0.0000  0.0000  0.4045  0.0000 </r>
        <r>  0.0000  0.3203  0.0000  0.0000  0.0000  0.0000  0.0000  0.0547  0.0000 </r>
       </set>
       <set comment="band 16">
        <r>  0.0000  0.3203  0.0000  0.0000  0.0000  0.0000  0.0000  0.0547  0.0000 </r>
        <r>  0.0000  0.0433  0.0000  0.0000  0.0000  0.0000  0.0000  0.4045  0.0000 </r>
       </set>
       <set comment="band 17">
        <r>  0.7043  0.0000  0.0000  0.0000  0.0000  0.0000  0.0000  0.0000  0.0000 </r>
        <r>  0.1091  0.0000  0.0000  0.0000  0.0000  0.0000  0.0000  0.0000  0.0000 </r>
       </set>
       <set comment="band 18">
        <r>  0.1091  0.0000  0.0000  0.0000  0.0000  0.0000  0.0000  0.0000  0.0000 </r>
        <r>  0.7043  0.0000  0.0000  0.0000  0.0000  0.0000  0.0000  0.0000  0.0000 </r>
       </set>
       <set comment="band 19">
        <r>  0.0000  0.0000  0.0000  0.0000  0.0000  0.0000  0.0000  0.0000  0.0000 </r>
        <r>  0.0000  0.0000  0.0000  0.0000  0.0000  0.0000  0.0000  0.0000  0.0000 </r>
       </set>
       <set comment="band 20">
        <r>  0.0000  0.0000  0.0000  0.0000  0.0000  0.0000  0.0000  0.0000  0.0000 </r>
        <r>  0.0000  0.0000  0.0000  0.0000  0.0000  0.0000  0.0000  0.0000  0.0000 </r>
       </set>
      </set>
     </set>
    </set>
   </array>
  </projected>
 </calculation>
 <structure name="finalpos" >
  <crystal>
   <varray name="basis" >
    <v>       2.82709681      -0.00000000       0.00000000 </v>
    <v>       0.00000000       2.82709681       0.00000000 </v>
    <v>       0.00000000      -0.00000000       2.82709681 </v>
   </varray>
   <i name="volume">     22.59550446 </i>
   <varray name="rec_basis" >
    <v>       0.35371976      -0.00000000      -0.00000000 </v>
    <v>       0.00000000       0.35371976       0.00000000 </v>
    <v>      -0.00000000      -0.00000000       0.35371976 </v>
   </varray>
  </crystal>
  <varray name="positions" >
   <v>      -0.00000000       0.00000000       0.00000000 </v>
   <v>       0.50000000       0.50000000       0.50000000 </v>
  </varray>
 </structure>
</modeling>
