   2   2   1   0
  0.1173411E+02  0.2863036E-09  0.2863036E-09  0.2863036E-09  0.5000000E-15
  1.000000000000000E-004
  CAR 
 unknown system                          
     47.61099498     -4.92038296  301      6.00494263      1.00000000
     -4.920  0.0000E+00  0.0000E+00  0.0000E+00  0.0000E+00
     -4.745  0.0000E+00  0.0000E+00  0.0000E+00  0.0000E+00
     -4.570  0.0000E+00  0.0000E+00  0.0000E+00  0.0000E+00
     -4.395  0.0000E+00  0.0000E+00  0.0000E+00  0.0000E+00
     -4.220 -0.7682E-34  0.0000E+00 -0.1345E-34  0.0000E+00
     -4.045 -0.8336E-28 -0.4609E-32 -0.1460E-28 -0.8070E-33
     -3.870 -0.1927E-22 -0.3228E-26 -0.3374E-23 -0.5652E-27
     -3.695 -0.9153E-18 -0.4810E-21 -0.1603E-18 -0.8423E-22
     -3.520 -0.9378E-14 -0.1470E-16 -0.1642E-14 -0.2575E-17
     -3.344 -0.1988E-10 -0.9644E-13 -0.3483E-11 -0.1689E-13
     -3.169 -0.8501E-08 -0.1304E-09 -0.1492E-08 -0.2285E-10
     -2.994 -0.6822E-06 -0.3509E-07 -0.1209E-06 -0.6168E-08
     -2.819 -0.7378E-05 -0.1697E-05 -0.1413E-05 -0.3033E-06
     -2.644  0.3453E-04 -0.7574E-05  0.4634E-05 -0.1629E-05
     -2.469  0.1716E-03  0.7582E-04  0.3469E-04  0.1165E-04
     -2.294  0.4418E-04  0.1686E-03  0.4242E-04  0.4118E-04
     -2.119  0.4138E-04 -0.1047E-04  0.4967E-04  0.3934E-04
     -1.944  0.8788E-03  0.1905E-03  0.2035E-03  0.7269E-04
     -1.769  0.6669E-03  0.1029E-02  0.3203E-03  0.2529E-03
     -1.593  0.2494E-04  0.3845E-03  0.3247E-03  0.3202E-03
     -1.418  0.1601E-02  0.1665E-03  0.6051E-03  0.3494E-03
     -1.243  0.1557E-02  0.1918E-02  0.8778E-03  0.6853E-03
     -1.068  0.5781E-04  0.1157E-02  0.8879E-03  0.8879E-03
     -0.893  0.1055E-02  0.4697E-04  0.1073E-02  0.8961E-03
     -0.718  0.9943E-03  0.1217E-02  0.1247E-02  0.1109E-02
     -0.543  0.1515E-03  0.8199E-03  0.1273E-02  0.1253E-02
     -0.368  0.8674E-03  0.9095E-04  0.1425E-02  0.1269E-02
     -0.193  0.6263E-03  0.9184E-03  0.1535E-02  0.1430E-02
     -0.017  0.3244E-02  0.3916E-03  0.2103E-02  0.1498E-02
      0.158  0.2909E-02  0.1910E-02  0.2612E-02  0.1833E-02
      0.333  0.1509E-02  0.3969E-02  0.2876E-02  0.2527E-02
      0.508  0.4079E-02  0.8343E-03  0.3591E-02  0.2674E-02
      0.683  0.2317E-02  0.3223E-02  0.3996E-02  0.3238E-02
      0.858  0.1421E-02  0.2998E-02  0.4245E-02  0.3763E-02
      1.033  0.1750E-02 -0.9260E-04  0.4552E-02  0.3747E-02
      1.208  0.9073E-02  0.7771E-03  0.6140E-02  0.3883E-02
      1.383  0.1366E-01  0.1994E-02  0.8533E-02  0.4232E-02
      1.558  0.1898E-01  0.3305E-03  0.1186E-01  0.4290E-02
      1.734  0.1872E-01  0.2931E-02  0.1513E-01  0.4803E-02
      1.909  0.1108E-01  0.4651E-02  0.1708E-01  0.5617E-02
      2.084  0.8608E-02  0.4191E-02  0.1858E-01  0.6351E-02
      2.259  0.1921E-01  0.7613E-02  0.2195E-01  0.7684E-02
      2.434  0.1069E-01  0.7302E-02  0.2382E-01  0.8963E-02
      2.609  0.1364E-01  0.7110E-02  0.2621E-01  0.1021E-01
      2.784  0.2938E-01  0.1031E-01  0.3135E-01  0.1201E-01
      2.959  0.2367E-01  0.5358E-02  0.3550E-01  0.1295E-01
      3.134  0.2110E-01  0.5836E-02  0.3919E-01  0.1397E-01
      3.310  0.2553E-01  0.1302E-01  0.4366E-01  0.1625E-01
      3.485  0.2747E-01  0.1616E-01  0.4847E-01  0.1908E-01
      3.660  0.1954E-01  0.9839E-02  0.5190E-01  0.2081E-01
      3.835  0.1393E-01  0.2417E-02  0.5433E-01  0.2123E-01
      4.010  0.1031E-01  0.1283E-01  0.5614E-01  0.2348E-01
      4.185  0.1290E-01  0.1953E-01  0.5840E-01  0.2690E-01
      4.360  0.7157E-02  0.2212E-01  0.5965E-01  0.3077E-01
      4.535  0.1293E-01  0.2685E-01  0.6192E-01  0.3547E-01
      4.710  0.2325E-01  0.2060E-01  0.6599E-01  0.3908E-01
      4.885  0.3547E-01  0.2142E-01  0.7220E-01  0.4283E-01
      5.061  0.5535E-01  0.2789E-01  0.8189E-01  0.4771E-01
      5.236  0.3869E-01  0.2495E-01  0.8867E-01  0.5208E-01
      5.411  0.2012E-01  0.1371E-01  0.9219E-01  0.5448E-01
      5.586  0.1880E-01  0.1031E-01  0.9548E-01  0.5629E-01
      5.761  0.1588E-01  0.6209E-02  0.9826E-01  0.5737E-01
      5.936  0.1201E-01  0.7565E-02  0.1004E+00  0.5870E-01
      6.111  0.8138E-02  0.4547E-02  0.1018E+00  0.5950E-01
      6.286  0.1076E-01  0.2615E-02  0.1037E+00  0.5995E-01
      6.461  0.1059E-01  0.4074E-02  0.1055E+00  0.6067E-01
      6.637  0.1051E-01  0.1222E-01  0.1074E+00  0.6281E-01
      6.812  0.4903E-02  0.1790E-01  0.1082E+00  0.6594E-01
      6.987  0.1044E-02  0.1650E-01  0.1084E+00  0.6883E-01
      7.162  0.4089E-02  0.1645E-01  0.1091E+00  0.7171E-01
      7.337  0.1249E-02  0.2406E-01  0.1093E+00  0.7592E-01
      7.512 -0.1923E-03  0.2650E-01  0.1093E+00  0.8057E-01
      7.687 -0.6658E-04  0.3077E-01  0.1093E+00  0.8595E-01
      7.862 -0.4118E-03  0.4646E-01  0.1092E+00  0.9409E-01
      8.037  0.2044E-02  0.3656E-01  0.1096E+00  0.1005E+00
      8.212  0.9663E-02  0.1079E-01  0.1113E+00  0.1024E+00
      8.388  0.4036E-02  0.1214E-01  0.1120E+00  0.1045E+00
      8.563 -0.5071E-03  0.1605E-01  0.1119E+00  0.1073E+00
      8.738  0.1062E-02  0.5453E-02  0.1121E+00  0.1083E+00
      8.913  0.2557E-02  0.2231E-02  0.1125E+00  0.1087E+00
      9.088  0.1031E-02  0.3532E-02  0.1127E+00  0.1093E+00
      9.263  0.1417E-02  0.2097E-03  0.1130E+00  0.1093E+00
      9.438  0.4874E-02 -0.5616E-03  0.1138E+00  0.1092E+00
      9.613  0.3422E-02  0.3591E-02  0.1144E+00  0.1098E+00
      9.788 -0.2200E-03  0.9628E-02  0.1144E+00  0.1115E+00
      9.964  0.4675E-03  0.3506E-02  0.1145E+00  0.1121E+00
     10.139  0.7084E-02  0.1677E-02  0.1157E+00  0.1124E+00
     10.314  0.5684E-02  0.1585E-02  0.1167E+00  0.1127E+00
     10.489  0.3533E-02  0.2303E-02  0.1173E+00  0.1131E+00
     10.664  0.2581E-02  0.3144E-02  0.1178E+00  0.1137E+00
     10.839 -0.7771E-04  0.3834E-02  0.1177E+00  0.1143E+00
     11.014 -0.7667E-04  0.3279E-03  0.1177E+00  0.1144E+00
     11.189 -0.4816E-04 -0.3315E-03  0.1177E+00  0.1143E+00
     11.364  0.5753E-05  0.5266E-02  0.1177E+00  0.1153E+00
     11.539  0.1534E-02  0.8920E-02  0.1180E+00  0.1168E+00
     11.715  0.1679E-02  0.4711E-02  0.1183E+00  0.1177E+00
     11.890  0.5751E-04  0.6772E-03  0.1183E+00  0.1178E+00
     12.065 -0.5422E-04 -0.2004E-03  0.1183E+00  0.1177E+00
     12.240 -0.2617E-05 -0.9066E-04  0.1183E+00  0.1177E+00
     12.415 -0.1506E-04  0.2029E-03  0.1183E+00  0.1178E+00
     12.590 -0.1345E-03  0.1921E-02  0.1183E+00  0.1181E+00
     12.765  0.6757E-03  0.1219E-02  0.1184E+00  0.1183E+00
     12.940  0.3111E-02 -0.6189E-04  0.1189E+00  0.1183E+00
     13.115  0.2911E-02 -0.3178E-04  0.1194E+00  0.1183E+00
     13.290  0.2038E-02 -0.2124E-04  0.1198E+00  0.1183E+00
     13.466  0.1599E-02 -0.5282E-04  0.1201E+00  0.1183E+00
     13.641  0.5639E-02  0.4897E-03  0.1211E+00  0.1184E+00
     13.816  0.6394E-02  0.2679E-02  0.1222E+00  0.1188E+00
     13.991  0.3643E-02  0.4916E-02  0.1228E+00  0.1197E+00
     14.166  0.4170E-02  0.1217E-02  0.1235E+00  0.1199E+00
     14.341  0.7100E-03 -0.2453E-03  0.1237E+00  0.1199E+00
     14.516  0.3839E-03 -0.4022E-03  0.1237E+00  0.1198E+00
     14.691  0.2735E-02  0.1245E-02  0.1242E+00  0.1200E+00
     14.866  0.1410E-02  0.1031E-01  0.1245E+00  0.1218E+00
     15.042  0.1777E-02  0.9412E-02  0.1248E+00  0.1235E+00
     15.217  0.5504E-02  0.1596E-02  0.1257E+00  0.1237E+00
     15.392  0.8791E-02  0.1780E-02  0.1273E+00  0.1241E+00
     15.567  0.4292E-02  0.1984E-02  0.1280E+00  0.1244E+00
     15.742  0.3124E-02  0.5334E-03  0.1286E+00  0.1245E+00
     15.917  0.5233E-02 -0.3531E-03  0.1295E+00  0.1244E+00
     16.092  0.3270E-02  0.1661E-02  0.1301E+00  0.1247E+00
     16.267  0.8237E-02  0.9116E-02  0.1315E+00  0.1263E+00
     16.442  0.3472E-02  0.1110E-01  0.1321E+00  0.1283E+00
     16.617 -0.4916E-03  0.5366E-02  0.1320E+00  0.1292E+00
     16.793 -0.2137E-03  0.2993E-02  0.1320E+00  0.1297E+00
     16.968  0.4069E-02  0.2671E-02  0.1327E+00  0.1302E+00
     17.143  0.8827E-02  0.8177E-02  0.1342E+00  0.1316E+00
     17.318  0.4024E-02  0.3168E-02  0.1350E+00  0.1322E+00
     17.493 -0.1482E-03  0.1558E-02  0.1349E+00  0.1325E+00
     17.668 -0.2190E-03  0.3823E-02  0.1349E+00  0.1331E+00
     17.843  0.3947E-04  0.7291E-02  0.1349E+00  0.1344E+00
     18.018  0.2722E-02  0.3116E-02  0.1354E+00  0.1349E+00
     18.193  0.8141E-02 -0.1513E-03  0.1368E+00  0.1349E+00
     18.369  0.6209E-02  0.1440E-02  0.1379E+00  0.1352E+00
     18.544  0.3907E-02  0.1356E-02  0.1386E+00  0.1354E+00
     18.719  0.1424E-02  0.1518E-02  0.1388E+00  0.1357E+00
     18.894  0.6027E-02  0.6877E-02  0.1399E+00  0.1369E+00
     19.069  0.6953E-02  0.4698E-02  0.1411E+00  0.1377E+00
     19.244  0.4657E-02  0.3879E-02  0.1419E+00  0.1384E+00
     19.419  0.2258E-02  0.2053E-02  0.1423E+00  0.1387E+00
     19.594  0.1340E-02  0.3058E-02  0.1425E+00  0.1393E+00
     19.769  0.6193E-02  0.1067E-01  0.1436E+00  0.1411E+00
     19.944  0.2330E-02  0.6362E-02  0.1440E+00  0.1423E+00
     20.120 -0.7644E-03  0.8310E-03  0.1439E+00  0.1424E+00
     20.295  0.2319E-02  0.4829E-02  0.1443E+00  0.1432E+00
     20.470  0.1195E-01  0.4202E-02  0.1464E+00  0.1440E+00
     20.645  0.5949E-02 -0.3746E-03  0.1474E+00  0.1439E+00
     20.820  0.8364E-03  0.2419E-02  0.1476E+00  0.1443E+00
     20.995  0.6551E-03  0.1147E-01  0.1477E+00  0.1464E+00
     21.170 -0.4719E-04  0.5941E-02  0.1477E+00  0.1474E+00
     21.345 -0.2416E-04  0.5309E-04  0.1477E+00  0.1474E+00
     21.520 -0.6979E-04  0.1256E-02  0.1477E+00  0.1476E+00
     21.696 -0.2557E-03  0.4438E-03  0.1476E+00  0.1477E+00
     21.871  0.2271E-02 -0.1011E-03  0.1480E+00  0.1477E+00
     22.046  0.1144E-01 -0.5759E-04  0.1500E+00  0.1477E+00
     22.221  0.1134E-01  0.1132E-02  0.1520E+00  0.1479E+00
     22.396  0.3205E-02  0.1849E-02  0.1526E+00  0.1482E+00
     22.571  0.7208E-03  0.6988E-02  0.1527E+00  0.1494E+00
     22.746  0.1051E-02  0.1156E-01  0.1529E+00  0.1514E+00
     22.921  0.4768E-02  0.5652E-02  0.1537E+00  0.1524E+00
     23.096  0.8103E-02  0.3137E-03  0.1551E+00  0.1525E+00
     23.271  0.5654E-02  0.2291E-02  0.1561E+00  0.1529E+00
     23.447  0.6795E-02  0.5978E-02  0.1573E+00  0.1539E+00
     23.622  0.5407E-02  0.6631E-02  0.1583E+00  0.1551E+00
     23.797  0.6847E-02  0.4574E-02  0.1595E+00  0.1559E+00
     23.972  0.3377E-02  0.5082E-02  0.1601E+00  0.1568E+00
     24.147 -0.3416E-03  0.7058E-02  0.1600E+00  0.1580E+00
     24.322 -0.2712E-03  0.8332E-02  0.1599E+00  0.1595E+00
     24.497  0.3522E-02  0.4233E-02  0.1606E+00  0.1602E+00
     24.672  0.1004E-01  0.3107E-02  0.1623E+00  0.1608E+00
     24.847  0.7630E-02  0.3404E-02  0.1637E+00  0.1614E+00
     25.023  0.2404E-02  0.3283E-02  0.1641E+00  0.1619E+00
     25.198  0.4583E-02  0.3931E-02  0.1649E+00  0.1626E+00
     25.373  0.2470E-02  0.2920E-02  0.1653E+00  0.1631E+00
     25.548  0.5290E-03  0.4625E-02  0.1654E+00  0.1639E+00
     25.723  0.1063E-01  0.5725E-02  0.1673E+00  0.1649E+00
     25.898  0.1522E-01  0.5654E-02  0.1699E+00  0.1659E+00
     26.073  0.5853E-02  0.6878E-02  0.1710E+00  0.1671E+00
     26.248  0.2089E-02  0.1297E-01  0.1713E+00  0.1694E+00
     26.423  0.7543E-03  0.6545E-02  0.1715E+00  0.1706E+00
     26.598  0.5300E-03  0.3227E-02  0.1716E+00  0.1711E+00
     26.774  0.2527E-02  0.1054E-02  0.1720E+00  0.1713E+00
     26.949  0.3561E-02  0.3372E-02  0.1726E+00  0.1719E+00
     27.124  0.3147E-02  0.4343E-02  0.1732E+00  0.1727E+00
     27.299  0.5715E-02  0.3308E-04  0.1742E+00  0.1727E+00
     27.474  0.1384E-02  0.8522E-03  0.1744E+00  0.1728E+00
     27.649  0.5492E-02  0.5981E-02  0.1754E+00  0.1739E+00
     27.824  0.7743E-02  0.2936E-02  0.1767E+00  0.1744E+00
     27.999  0.4261E-02  0.3550E-02  0.1775E+00  0.1750E+00
     28.174  0.2663E-02  0.7419E-02  0.1779E+00  0.1763E+00
     28.349  0.5848E-02  0.5918E-02  0.1790E+00  0.1773E+00
     28.525  0.5685E-02  0.2936E-02  0.1800E+00  0.1778E+00
     28.700  0.4256E-02  0.1313E-02  0.1807E+00  0.1781E+00
     28.875  0.1240E-02  0.7235E-02  0.1809E+00  0.1793E+00
     29.050  0.5676E-02  0.7837E-02  0.1819E+00  0.1807E+00
     29.225  0.9360E-02  0.2967E-02  0.1836E+00  0.1812E+00
     29.400  0.5433E-02  0.6305E-02  0.1845E+00  0.1823E+00
     29.575  0.2238E-03  0.7391E-02  0.1845E+00  0.1836E+00
     29.750  0.9392E-03  0.1445E-02  0.1847E+00  0.1839E+00
     29.925  0.2869E-02  0.7896E-03  0.1852E+00  0.1840E+00
     30.101  0.4989E-02  0.2801E-02  0.1861E+00  0.1845E+00
     30.276  0.2713E-02  0.4683E-02  0.1866E+00  0.1853E+00
     30.451  0.4217E-02  0.7448E-02  0.1873E+00  0.1866E+00
     30.626  0.4109E-02  0.4808E-02  0.1880E+00  0.1875E+00
     30.801  0.3977E-03  0.8393E-03  0.1881E+00  0.1876E+00
     30.976  0.1896E-02  0.2675E-03  0.1884E+00  0.1877E+00
     31.151  0.4874E-02 -0.2399E-03  0.1893E+00  0.1876E+00
     31.326  0.2319E-02  0.1976E-02  0.1897E+00  0.1880E+00
     31.501 -0.1537E-03  0.6097E-02  0.1897E+00  0.1890E+00
     31.676  0.1396E-02  0.2132E-02  0.1899E+00  0.1894E+00
     31.852  0.1233E-01  0.2841E-02  0.1921E+00  0.1899E+00
     32.027  0.1156E-01  0.5506E-02  0.1941E+00  0.1909E+00
     32.202  0.9195E-03  0.1326E-01  0.1942E+00  0.1932E+00
     32.377 -0.4265E-03  0.6134E-02  0.1942E+00  0.1943E+00
     32.552 -0.2899E-03 -0.4918E-03  0.1941E+00  0.1942E+00
     32.727  0.8239E-03 -0.2890E-03  0.1943E+00  0.1941E+00
     32.902  0.6718E-02  0.2719E-03  0.1954E+00  0.1942E+00
     33.077  0.5799E-02  0.3860E-02  0.1965E+00  0.1949E+00
     33.252  0.4234E-02  0.1011E-01  0.1972E+00  0.1966E+00
     33.428  0.1965E-02  0.5352E-02  0.1975E+00  0.1976E+00
     33.603 -0.1708E-03 -0.2656E-03  0.1975E+00  0.1975E+00
     33.778 -0.5093E-04 -0.1451E-03  0.1975E+00  0.1975E+00
     33.953 -0.1262E-05 -0.4466E-05  0.1975E+00  0.1975E+00
     34.128 -0.5426E-05 -0.6310E-06  0.1975E+00  0.1975E+00
     34.303 -0.9218E-04 -0.2846E-04  0.1975E+00  0.1975E+00
     34.478  0.2330E-03 -0.1189E-03  0.1975E+00  0.1975E+00
     34.653  0.2515E-02  0.1256E-02  0.1980E+00  0.1977E+00
     34.828  0.1697E-02  0.2746E-02  0.1983E+00  0.1982E+00
     35.003 -0.7144E-04  0.5010E-03  0.1982E+00  0.1983E+00
     35.179 -0.4446E-04 -0.1150E-03  0.1982E+00  0.1982E+00
     35.354 -0.1288E-05 -0.9933E-05  0.1982E+00  0.1982E+00
     35.529 -0.6447E-08 -0.1181E-06  0.1982E+00  0.1982E+00
     35.704 -0.4239E-09 -0.1500E-08  0.1982E+00  0.1982E+00
     35.879 -0.1843E-06 -0.4199E-06  0.1982E+00  0.1982E+00
     36.054 -0.1530E-04 -0.2627E-04  0.1982E+00  0.1982E+00
     36.229 -0.1738E-03 -0.1921E-03  0.1982E+00  0.1982E+00
     36.404  0.7727E-03  0.1287E-02  0.1983E+00  0.1984E+00
     36.579  0.4129E-02  0.4239E-02  0.1991E+00  0.1992E+00
     36.755  0.1855E-02  0.1256E-02  0.1994E+00  0.1994E+00
     36.930 -0.1799E-03 -0.1917E-03  0.1994E+00  0.1994E+00
     37.105 -0.4178E-04 -0.2552E-04  0.1994E+00  0.1994E+00
     37.280 -0.8781E-06 -0.4013E-06  0.1994E+00  0.1994E+00
     37.455 -0.3310E-08 -0.1163E-08  0.1994E+00  0.1994E+00
     37.630 -0.7436E-11 -0.1821E-09  0.1994E+00  0.1994E+00
     37.805 -0.4985E-08 -0.8274E-07  0.1994E+00  0.1994E+00
     37.980 -0.9879E-06 -0.7116E-05  0.1994E+00  0.1994E+00
     38.155 -0.3377E-04 -0.8505E-04  0.1993E+00  0.1993E+00
     38.330 -0.5190E-04  0.3577E-03  0.1993E+00  0.1994E+00
     38.506  0.1283E-02  0.2050E-02  0.1996E+00  0.1998E+00
     38.681  0.1879E-02  0.9679E-03  0.1999E+00  0.1999E+00
     38.856  0.1696E-03 -0.8756E-04  0.1999E+00  0.1999E+00
     39.031 -0.6857E-04 -0.2216E-04  0.1999E+00  0.1999E+00
     39.206 -0.3989E-05 -0.4834E-06  0.1999E+00  0.1999E+00
     39.381 -0.3544E-07 -0.1884E-08  0.1999E+00  0.1999E+00
     39.556 -0.6039E-10 -0.1460E-11  0.1999E+00  0.1999E+00
     39.731 -0.2091E-13 -0.2332E-15  0.1999E+00  0.1999E+00
     39.906 -0.1409E-17  0.0000E+00  0.1999E+00  0.1999E+00
     40.081  0.0000E+00  0.0000E+00  0.1999E+00  0.1999E+00
     40.257  0.0000E+00  0.0000E+00  0.1999E+00  0.1999E+00
     40.432  0.0000E+00  0.0000E+00  0.1999E+00  0.1999E+00
     40.607  0.0000E+00  0.0000E+00  0.1999E+00  0.1999E+00
     40.782  0.0000E+00  0.0000E+00  0.1999E+00  0.1999E+00
     40.957  0.0000E+00  0.0000E+00  0.1999E+00  0.1999E+00
     41.132  0.0000E+00  0.0000E+00  0.1999E+00  0.1999E+00
     41.307  0.0000E+00  0.0000E+00  0.1999E+00  0.1999E+00
     41.482  0.0000E+00  0.0000E+00  0.1999E+00  0.1999E+00
     41.657  0.0000E+00  0.0000E+00  0.1999E+00  0.1999E+00
     41.833  0.0000E+00  0.0000E+00  0.1999E+00  0.1999E+00
     42.008  0.0000E+00  0.0000E+00  0.1999E+00  0.1999E+00
     42.183  0.0000E+00  0.0000E+00  0.1999E+00  0.1999E+00
     42.358  0.0000E+00  0.0000E+00  0.1999E+00  0.1999E+00
     42.533  0.0000E+00  0.0000E+00  0.1999E+00  0.1999E+00
     42.708  0.0000E+00  0.0000E+00  0.1999E+00  0.1999E+00
     42.883  0.0000E+00  0.0000E+00  0.1999E+00  0.1999E+00
     43.058  0.0000E+00  0.0000E+00  0.1999E+00  0.1999E+00
     43.233  0.0000E+00 -0.6205E-35  0.1999E+00  0.1999E+00
     43.408  0.0000E+00 -0.9405E-29  0.1999E+00  0.1999E+00
     43.584 -0.7927E-32 -0.3038E-23  0.1999E+00  0.1999E+00
     43.759 -0.5643E-26 -0.2084E-18  0.1999E+00  0.1999E+00
     43.934 -0.8549E-21 -0.2907E-14  0.1999E+00  0.1999E+00
     44.109 -0.2656E-16 -0.8676E-11  0.1999E+00  0.1999E+00
     44.284 -0.1772E-12 -0.5264E-08  0.1999E+00  0.1999E+00
     44.459 -0.2436E-09 -0.6137E-06  0.1999E+00  0.1999E+00
     44.634 -0.6672E-07 -0.1104E-04  0.1999E+00  0.1999E+00
     44.809 -0.3289E-05  0.2484E-04  0.1999E+00  0.1999E+00
     44.984 -0.1531E-04  0.3084E-03  0.1999E+00  0.2000E+00
     45.160  0.1483E-03  0.2207E-03  0.1999E+00  0.2000E+00
     45.335  0.3462E-03 -0.7424E-05  0.2000E+00  0.2000E+00
     45.510  0.6909E-04 -0.5926E-05  0.2000E+00  0.2000E+00
     45.685 -0.1476E-04 -0.1804E-06  0.2000E+00  0.2000E+00
     45.860 -0.1364E-05 -0.9422E-09  0.2000E+00  0.2000E+00
     46.035 -0.1700E-07 -0.9677E-12  0.2000E+00  0.2000E+00
     46.210 -0.3976E-10 -0.2038E-15  0.2000E+00  0.2000E+00
     46.385 -0.1876E-13  0.0000E+00  0.2000E+00  0.2000E+00
     46.560 -0.1879E-17  0.0000E+00  0.2000E+00  0.2000E+00
     46.735  0.0000E+00  0.0000E+00  0.2000E+00  0.2000E+00
     46.911  0.0000E+00  0.0000E+00  0.2000E+00  0.2000E+00
     47.086  0.0000E+00  0.0000E+00  0.2000E+00  0.2000E+00
     47.261  0.0000E+00  0.0000E+00  0.2000E+00  0.2000E+00
     47.436  0.0000E+00  0.0000E+00  0.2000E+00  0.2000E+00
     47.611  0.0000E+00  0.0000E+00  0.2000E+00  0.2000E+00
     47.61099498     -4.92038296  301      6.00494263      1.00000000
     -4.920  0.0000E+00  0.0000E+00  0.0000E+00  0.0000E+00  0.0000E+00  0.0000E+00  0.0000E+00  0.0000E+00  0.0000E+00  0.0000E+00  0.0000E+00  0.0000E+00  0.0000E+00  0.0000E+00  0.0000E+00  0.0000E+00  0.0000E+00  0.0000E+00
     -4.745  0.0000E+00  0.0000E+00  0.0000E+00  0.0000E+00  0.0000E+00  0.0000E+00  0.0000E+00  0.0000E+00  0.0000E+00  0.0000E+00  0.0000E+00  0.0000E+00  0.0000E+00  0.0000E+00  0.0000E+00  0.0000E+00  0.0000E+00  0.0000E+00
     -4.570  0.0000E+00  0.0000E+00  0.0000E+00  0.0000E+00  0.0000E+00  0.0000E+00  0.0000E+00  0.0000E+00  0.0000E+00  0.0000E+00  0.0000E+00  0.0000E+00  0.0000E+00  0.0000E+00  0.0000E+00  0.0000E+00  0.0000E+00  0.0000E+00
     -4.395  0.0000E+00  0.0000E+00  0.0000E+00  0.0000E+00  0.0000E+00  0.0000E+00  0.0000E+00  0.0000E+00  0.0000E+00  0.0000E+00  0.0000E+00  0.0000E+00  0.0000E+00  0.0000E+00  0.0000E+00  0.0000E+00  0.0000E+00  0.0000E+00
     -4.220 -0.2852E-32  0.0000E+00 -0.3968E-62  0.0000E+00 -0.3968E-62  0.0000E+00 -0.3968E-62  0.0000E+00 -0.3000E-45  0.0000E+00 -0.3000E-45  0.0000E+00 -0.5232E-48  0.0000E+00 -0.3000E-45  0.0000E+00 -0.5232E-48  0.0000E+00
     -4.045 -0.3095E-26 -0.1711E-30 -0.4306E-56 -0.1412E-60 -0.4306E-56 -0.1412E-60 -0.4306E-56 -0.1412E-60 -0.3256E-39 -0.5939E-44 -0.3256E-39 -0.5939E-44 -0.5678E-42 -0.2993E-43 -0.3256E-39 -0.5939E-44 -0.5678E-42 -0.2993E-43
     -3.870 -0.7153E-21 -0.1198E-24 -0.9951E-51 -0.9892E-55 -0.9951E-51 -0.9892E-55 -0.9951E-51 -0.9892E-55 -0.7525E-34 -0.4159E-38 -0.7525E-34 -0.4159E-38 -0.1312E-36 -0.2096E-37 -0.7525E-34 -0.4159E-38 -0.1312E-36 -0.2096E-37
     -3.695 -0.3398E-16 -0.1786E-19 -0.5478E-35 -0.1604E-49 -0.5478E-35 -0.1637E-49 -0.5478E-35 -0.1604E-49 -0.3575E-29 -0.6198E-33 -0.3575E-29 -0.6198E-33 -0.6234E-32 -0.3123E-32 -0.3575E-29 -0.6198E-33 -0.6234E-32 -0.3123E-32
     -3.520 -0.3482E-12 -0.5459E-15 -0.9052E-29 -0.2618E-33 -0.9052E-29 -0.2618E-33 -0.9052E-29 -0.2618E-33 -0.3663E-25 -0.1895E-28 -0.3663E-25 -0.1895E-28 -0.6455E-28 -0.9547E-28 -0.3663E-25 -0.1895E-28 -0.6455E-28 -0.9547E-28
     -3.344 -0.7381E-09 -0.3581E-11 -0.3189E-23 -0.2898E-27 -0.3189E-23 -0.2898E-27 -0.3189E-23 -0.2898E-27 -0.7764E-22 -0.1243E-24 -0.7764E-22 -0.1243E-24 -0.3761E-24 -0.6262E-24 -0.7764E-22 -0.1243E-24 -0.3761E-24 -0.6262E-24
     -3.169 -0.3156E-06 -0.4841E-08 -0.2386E-18 -0.6833E-22 -0.2386E-18 -0.6833E-22 -0.2386E-18 -0.6833E-22 -0.3320E-19 -0.1680E-21 -0.3320E-19 -0.1680E-21 -0.1807E-19 -0.8501E-21 -0.3320E-19 -0.1680E-21 -0.1807E-19 -0.8501E-21
     -2.994 -0.2533E-04 -0.1303E-05 -0.3635E-14 -0.3298E-17 -0.3635E-14 -0.3298E-17 -0.3635E-14 -0.3298E-17 -0.2664E-17 -0.4522E-19 -0.2664E-17 -0.4522E-19 -0.2744E-15 -0.3982E-18 -0.2664E-17 -0.4522E-19 -0.2744E-15 -0.3982E-18
     -2.819 -0.2739E-03 -0.6300E-04 -0.1185E-10 -0.3464E-13 -0.1185E-10 -0.3464E-13 -0.1185E-10 -0.3464E-13 -0.2882E-16 -0.2186E-17 -0.2882E-16 -0.2186E-17 -0.8945E-12 -0.1800E-14 -0.2882E-16 -0.2186E-17 -0.8945E-12 -0.1800E-14
     -2.644  0.1282E-02 -0.2812E-03 -0.7868E-08 -0.7494E-10 -0.7868E-08 -0.7494E-10 -0.7868E-08 -0.7494E-10  0.1348E-15 -0.9759E-17  0.1348E-15 -0.9759E-17 -0.5940E-09 -0.3871E-11  0.1348E-15 -0.9759E-17 -0.5940E-09 -0.3871E-11
     -2.469  0.6375E-02  0.2815E-02 -0.1009E-05 -0.3273E-07 -0.1009E-05 -0.3273E-07 -0.1009E-05 -0.3273E-07 -0.1534E-15  0.9751E-16 -0.1534E-15  0.9751E-16 -0.7617E-07 -0.1690E-08 -0.1534E-15  0.9751E-16 -0.7617E-07 -0.1690E-08
     -2.294  0.1703E-02  0.6269E-02 -0.2047E-04 -0.2686E-05 -0.2047E-04 -0.2686E-05 -0.2047E-04 -0.2686E-05 -0.3069E-11 -0.3005E-14 -0.3069E-11 -0.3005E-14 -0.1546E-05 -0.1388E-06 -0.3069E-11 -0.3005E-14 -0.1546E-05 -0.1388E-06
     -2.119  0.1433E-02 -0.2967E-03  0.3350E-04 -0.3003E-04  0.3350E-04 -0.3003E-04  0.3350E-04 -0.3003E-04 -0.2329E-08 -0.8757E-11 -0.2329E-08 -0.8757E-11  0.2530E-05 -0.1551E-05 -0.2329E-08 -0.8757E-11  0.2530E-05 -0.1551E-05
     -1.944  0.3078E-01  0.6654E-02  0.6005E-03  0.1358E-03  0.6005E-03  0.1358E-03  0.6005E-03  0.1358E-03 -0.3437E-06 -0.4822E-08 -0.3437E-06 -0.4822E-08  0.4539E-04  0.7015E-05 -0.3437E-06 -0.4822E-08  0.4539E-04  0.7015E-05
     -1.769  0.2346E-01  0.3605E-01  0.4265E-03  0.7044E-03  0.4265E-03  0.7044E-03  0.4265E-03  0.7044E-03 -0.8291E-05 -0.5071E-06 -0.8291E-05 -0.5071E-06  0.3345E-04  0.3649E-04 -0.8291E-05 -0.5071E-06  0.3345E-04  0.3649E-04
     -1.593  0.7982E-03  0.1362E-01  0.3747E-04  0.2204E-03  0.3747E-04  0.2204E-03  0.3747E-04  0.2204E-03  0.5777E-05 -0.7980E-05  0.5777E-05 -0.7980E-05  0.1957E-05  0.1300E-04  0.5777E-05 -0.7980E-05  0.1957E-05  0.1300E-04
     -1.418  0.5263E-01  0.5393E-02  0.2029E-02  0.2411E-03  0.2029E-02  0.2411E-03  0.2029E-02  0.2411E-03  0.2643E-03  0.2316E-04  0.2643E-03  0.2316E-04  0.1134E-03  0.7763E-05  0.2643E-03  0.2316E-04  0.1134E-03  0.7763E-05
     -1.243  0.5129E-01  0.6319E-01  0.1944E-02  0.2470E-02  0.1944E-02  0.2470E-02  0.1944E-02  0.2470E-02  0.2460E-03  0.2104E-03  0.2460E-03  0.2104E-03  0.1123E-03  0.8505E-04  0.2460E-03  0.2104E-03  0.1123E-03  0.8505E-04
     -1.068  0.1834E-02  0.3822E-01  0.9084E-04  0.1461E-02  0.9084E-04  0.1461E-02  0.9084E-04  0.1461E-02  0.1719E-04  0.1190E-03  0.1719E-04  0.1190E-03  0.1708E-05  0.5319E-04  0.1719E-04  0.1190E-03  0.1708E-05  0.5319E-04
     -0.893  0.3243E-01  0.1324E-02  0.1928E-02  0.1230E-03  0.1928E-02  0.1230E-03  0.1928E-02  0.1230E-03  0.4314E-03  0.2357E-04  0.4314E-03  0.2357E-04 -0.6708E-05 -0.2854E-05  0.4314E-03  0.2357E-04 -0.6708E-05 -0.2854E-05
     -0.718  0.3077E-01  0.3760E-01  0.1770E-02  0.2266E-02  0.1770E-02  0.2266E-02  0.1770E-02  0.2266E-02  0.4112E-03  0.3407E-03  0.4112E-03  0.3407E-03 -0.4361E-04 -0.3098E-05  0.4112E-03  0.3407E-03 -0.4361E-04 -0.3098E-05
     -0.543  0.4292E-02  0.2545E-01  0.3606E-03  0.1493E-02  0.3606E-03  0.1493E-02  0.3606E-03  0.1493E-02 -0.1215E-05  0.2363E-03 -0.1215E-05  0.2363E-03  0.1546E-03 -0.2547E-04 -0.1215E-05  0.2363E-03  0.1546E-03 -0.2547E-04
     -0.368  0.2457E-01  0.2518E-02  0.2107E-02  0.2451E-03  0.2107E-02  0.2451E-03  0.2107E-02  0.2451E-03 -0.1144E-03 -0.9901E-05 -0.1144E-03 -0.9901E-05  0.9648E-03  0.8276E-04 -0.1144E-03 -0.9901E-05  0.9648E-03  0.8276E-04
     -0.193  0.1735E-01  0.2626E-01  0.1518E-02  0.2269E-02  0.1518E-02  0.2269E-02  0.1518E-02  0.2269E-02  0.9280E-04 -0.3166E-04  0.9280E-04 -0.3166E-04  0.6813E-03  0.6245E-03  0.9280E-04 -0.3166E-04  0.6813E-03  0.6245E-03
     -0.017  0.8289E-01  0.1153E-01  0.8016E-02  0.9258E-03  0.8016E-02  0.9258E-03  0.8016E-02  0.9258E-03  0.3141E-02 -0.9900E-04  0.3141E-02 -0.9900E-04  0.3652E-02  0.2641E-03  0.3141E-02 -0.9900E-04  0.3652E-02  0.2641E-03
      0.158  0.7472E-01  0.5059E-01  0.7137E-02  0.5160E-02  0.7137E-02  0.5160E-02  0.7137E-02  0.5160E-02  0.2677E-02  0.1102E-02  0.2677E-02  0.1102E-02  0.3318E-02  0.1218E-02  0.2677E-02  0.1102E-02  0.3318E-02  0.1218E-02
      0.333  0.3579E-01  0.1055E+00  0.4221E-02  0.1067E-01  0.4221E-02  0.1067E-01  0.4221E-02  0.1067E-01  0.2382E-02  0.2210E-02  0.2382E-02  0.2210E-02  0.1176E-02  0.2550E-02  0.2382E-02  0.2210E-02  0.1176E-02  0.2550E-02
      0.508  0.9607E-01  0.2188E-01  0.1140E-01  0.2301E-02  0.1140E-01  0.2301E-02  0.1140E-01  0.2301E-02  0.6698E-02  0.5319E-03  0.6698E-02  0.5319E-03  0.3243E-02  0.5085E-03  0.6698E-02  0.5319E-03  0.3243E-02  0.5085E-03
      0.683  0.4595E-01  0.7899E-01  0.4961E-02  0.9984E-02  0.4961E-02  0.9984E-02  0.4961E-02  0.9984E-02  0.7393E-02  0.3352E-02  0.7393E-02  0.3352E-02  0.4543E-02  0.1441E-02  0.7393E-02  0.3352E-02  0.4543E-02  0.1441E-02
      0.858  0.2317E-01  0.7384E-01  0.1977E-02  0.9243E-02  0.1977E-02  0.9243E-02  0.1977E-02  0.9243E-02  0.6960E-02  0.3017E-02  0.6960E-02  0.3017E-02  0.4214E-02  0.1345E-02  0.6960E-02  0.3017E-02  0.4214E-02  0.1345E-02
      1.033  0.1407E-01 -0.1839E-02  0.5023E-03 -0.2296E-03  0.5023E-03 -0.2296E-03  0.5023E-03 -0.2296E-03  0.1208E-01 -0.2705E-03  0.1208E-01 -0.2705E-03  0.1224E-01 -0.1470E-03  0.1208E-01 -0.2705E-03  0.1224E-01 -0.1470E-03
      1.208  0.9342E-01  0.1502E-01  0.1123E-01  0.1873E-02  0.1123E-01  0.1873E-02  0.1123E-01  0.1873E-02  0.4787E-01  0.2438E-02  0.4787E-01  0.2438E-02  0.5702E-01  0.1334E-02  0.4787E-01  0.2438E-02  0.5702E-01  0.1334E-02
      1.383  0.1222E+00  0.3974E-01  0.2025E-01  0.4880E-02  0.2025E-01  0.4880E-02  0.2025E-01  0.4880E-02  0.5313E-01  0.5819E-02  0.5313E-01  0.5819E-02  0.1179E+00  0.3195E-02  0.5313E-01  0.5819E-02  0.1179E+00  0.3195E-02
      1.558  0.1157E+00  0.6808E-02  0.2100E-01  0.7042E-03  0.2100E-01  0.7042E-03  0.2100E-01  0.7042E-03  0.9129E-01  0.1098E-02  0.9129E-01  0.1098E-02  0.1846E+00  0.4027E-03  0.9129E-01  0.1098E-02  0.1846E+00  0.4027E-03
      1.734  0.9349E-01  0.5312E-01  0.2200E-01  0.9582E-02  0.2200E-01  0.9582E-02  0.2200E-01  0.9582E-02  0.7604E-01  0.8641E-02  0.7604E-01  0.8641E-02  0.2125E+00  0.3433E-02  0.7604E-01  0.8641E-02  0.2125E+00  0.3433E-02
      1.909  0.2751E-01  0.8379E-01  0.1128E-01  0.1616E-01  0.1128E-01  0.1616E-01  0.1128E-01  0.1616E-01  0.2823E-01  0.1067E-01  0.2823E-01  0.1067E-01  0.1695E+00  0.8228E-02  0.2823E-01  0.1067E-01  0.1695E+00  0.8228E-02
      2.084  0.1532E-01  0.6430E-01  0.7865E-02  0.1423E-01  0.7865E-02  0.1423E-01  0.7865E-02  0.1423E-01  0.4068E-01  0.7682E-02  0.4068E-01  0.7682E-02  0.1111E+00  0.1704E-01  0.4068E-01  0.7682E-02  0.1111E+00  0.1704E-01
      2.259  0.3963E-01  0.9440E-01  0.2321E-01  0.1548E-01  0.2321E-01  0.1548E-01  0.2321E-01  0.1548E-01  0.1029E+00  0.3364E-01  0.1029E+00  0.3364E-01  0.2183E+00  0.3497E-01  0.1029E+00  0.3364E-01  0.2183E+00  0.3497E-01
      2.434  0.2425E-01  0.9082E-01  0.1332E-01  0.1681E-01  0.1332E-01  0.1681E-01  0.1332E-01  0.1681E-01  0.7050E-01  0.3219E-01  0.7050E-01  0.3219E-01  0.1009E+00  0.3010E-01  0.7050E-01  0.3219E-01  0.1009E+00  0.3010E-01
      2.609 -0.3174E-03  0.7076E-01  0.9580E-02  0.1304E-01  0.9580E-02  0.1304E-01  0.9580E-02  0.1304E-01  0.1848E+00  0.4525E-01  0.1848E+00  0.4525E-01  0.2855E-01  0.2645E-01  0.1848E+00  0.4525E-01  0.2855E-01  0.2645E-01
      2.784 -0.1835E-03  0.9060E-01  0.1821E-01  0.1524E-01  0.1821E-01  0.1524E-01  0.1821E-01  0.1524E-01  0.3735E+00  0.7407E-01  0.3735E+00  0.7407E-01  0.1015E+00  0.4019E-01  0.3735E+00  0.7407E-01  0.1015E+00  0.4019E-01
      2.959  0.3620E-02  0.4014E-01  0.1538E-01  0.1003E-01  0.1538E-01  0.1003E-01  0.1538E-01  0.1003E-01  0.2521E+00  0.2549E-01  0.2521E+00  0.2549E-01  0.1486E+00  0.3896E-01  0.2521E+00  0.2549E-01  0.1486E+00  0.3896E-01
      3.134  0.7162E-02  0.1733E-01  0.2563E-01  0.8601E-02  0.2563E-01  0.8601E-02  0.2563E-01  0.8601E-02  0.1489E+00  0.7317E-02  0.1489E+00  0.7317E-02  0.2171E+00  0.8993E-01  0.1489E+00  0.7317E-02  0.2171E+00  0.8993E-01
      3.310  0.1661E-01  0.3582E-01  0.3243E-01  0.1791E-01  0.3243E-01  0.1791E-01  0.3243E-01  0.1791E-01  0.2934E+00  0.3865E-01  0.2934E+00  0.3865E-01  0.9548E-01  0.1745E+00  0.2934E+00  0.3865E-01  0.9548E-01  0.1745E+00
      3.485  0.1925E-01  0.4975E-01  0.2699E-01  0.2624E-01  0.2699E-01  0.2624E-01  0.2699E-01  0.2624E-01  0.3597E+00  0.8585E-01  0.3597E+00  0.8585E-01  0.5450E-01  0.1549E+00  0.3597E+00  0.8585E-01  0.5450E-01  0.1549E+00
      3.660  0.1071E-01  0.2997E-01  0.1924E-01  0.1919E-01  0.1924E-01  0.1919E-01  0.1924E-01  0.1919E-01  0.2388E+00  0.5814E-01  0.2388E+00  0.5814E-01  0.6614E-01  0.8102E-01  0.2388E+00  0.5814E-01  0.6614E-01  0.8102E-01
      3.835  0.1110E-01  0.5266E-02  0.2678E-01  0.1774E-02  0.2678E-01  0.1774E-02  0.2678E-01  0.1774E-02  0.1278E+00  0.2056E-01  0.1278E+00  0.2056E-01  0.8258E-01  0.1788E-01  0.1278E+00  0.2056E-01  0.8258E-01  0.1788E-01