    2    2  100    1
  0.2016476E+02  0.3849278E-09  0.3849279E-09  0.3849278E-09  0.5000000E-15
  1.000000000000000E-004
  CAR 
 unknown system                          
      8    120      8
 
  0.0000000E+00  0.0000000E+00  0.0000000E+00  0.2962963E-03
    1       -6.196608   1.000000
    2        5.623588   1.000000
    3        5.623589   1.000000
    4        5.623592   1.000000
    5        8.181307   0.000000
    6        8.181315   0.000000
    7        8.181316   0.000000
    8        8.764177   0.000000
 
  0.6666667E-01 -0.3469447E-17  0.0000000E+00  0.2370370E-02
    1       -6.139327   1.000000
    2        5.030553   1.000000
    3        5.530468   1.000000
    4        5.530470   1.000000
    5        8.217854   0.000000
    6        8.318326   0.000000
    7        8.318333   0.000000
    8        9.224394   0.000000
 
  0.1333333E+00 -0.6938894E-17  0.0000000E+00  0.2370370E-02
    1       -5.968574   1.000000
    2        3.879273   1.000000
    3        5.309834   1.000000
    4        5.309836   1.000000
    5        8.039809   0.000000
    6        8.642371   0.000000
    7        8.642378   0.000000
    8       10.309304   0.000000
 
  0.2000000E+00  0.0000000E+00  0.0000000E+00  0.2370370E-02
    1       -5.688295   1.000000
    2        2.640526   1.000000
    3        5.055470   1.000000
    4        5.055473   1.000000
    5        7.779014   0.000000
    6        8.970074   0.000000
    7        8.970082   0.000000
    8       11.507812   0.000000
 
  0.2666667E+00 -0.1387779E-16  0.0000000E+00  0.2370370E-02
    1       -5.307369   1.000000
    2        1.444106   1.000000
    3        4.823703   1.000000
    4        4.823705   1.000000
    5        7.525787   0.000000
    6        9.138998   0.000000
    7        9.139006   0.000000
    8       12.653057   0.000000
 
  0.3333333E+00 -0.1387779E-16  0.0000000E+00  0.2370370E-02
    1       -4.845677   1.000000
    2        0.351491   1.000000
    3        4.640123   1.000000
    4        4.640126   1.000000
    5        7.318924   0.000000
    6        9.129181   0.000000
    7        9.129190   0.000000
    8       13.410737   0.000000
 
  0.4000000E+00 -0.2775558E-16  0.0000000E+00  0.2370370E-02
    1       -4.354212   1.000000
    2       -0.567861   1.000000
    3        4.514996   1.000000
    4        4.514999   1.000000
    5        7.175341   0.000000
    6        9.046221   0.000000
    7        9.046230   0.000000
    8       13.431054   0.000000
 
  0.4666667E+00 -0.2775558E-16  0.0000000E+00  0.2370370E-02
    1       -3.976094   1.000000
    2       -1.161894   1.000000
    3        4.451929   1.000000
    4        4.451932   1.000000
    5        7.102466   0.000000
    6        8.983797   0.000000
    7        8.983806   0.000000
    8       13.341210   0.000000
 
  0.6666667E-01  0.6666667E-01  0.0000000E+00  0.1777778E-02
    1       -6.120165   1.000000
    2        5.140065   1.000000
    3        5.337257   1.000000
    4        5.337258   1.000000
    5        8.003153   0.000000
    6        8.562536   0.000000
    7        8.562542   0.000000
    8        9.224922   0.000000
 
  0.1333333E+00  0.6666667E-01  0.0000000E+00  0.7111111E-02
    1       -5.987035   1.000000
    2        4.216087   1.000000
    3        5.064155   1.000000
    4        5.229997   1.000000
    5        8.000575   0.000000
    6        8.627166   0.000000
    7        8.957139   0.000000
    8       10.017218   0.000000
 
  0.2000000E+00  0.6666667E-01  0.0000000E+00  0.7111111E-02
    1       -5.742784   1.000000
    2        3.029242   1.000000
    3        4.793518   1.000000
    4        5.014550   1.000000
    5        8.077719   0.000000
    6        8.624585   0.000000
    7        9.340935   0.000000
    8       10.896266   0.000000
 
  0.2666667E+00  0.6666667E-01  0.0000000E+00  0.7111111E-02
    1       -5.394206   1.000000
    2        1.834396   1.000000
    3        4.568720   1.000000
    4        4.744016   1.000000
    5        7.934752   0.000000
    6        8.812902   0.000000
    7        9.553310   0.000000
    8       11.381849   0.000000
 
  0.3333333E+00  0.6666667E-01  0.0000000E+00  0.7111111E-02
    1       -4.956214   1.000000
    2        0.714274   1.000000
    3        4.409408   1.000000
    4        4.484343   1.000000
    5        7.741692   0.000000
    6        8.906989   0.000000
    7        9.543601   0.000000
    8       11.947463   0.000000
 
  0.4000000E+00  0.6666667E-01  0.0000000E+00  0.7111111E-02
    1       -4.465282   1.000000
    2       -0.266252   1.000000
    3        4.266127   1.000000
    4        4.322911   1.000000
    5        7.586544   0.000000
    6        8.895322   0.000000
    7        9.408546   0.000000
    8       12.748228   0.000000
 
  0.4666667E+00  0.6666667E-01  0.0000000E+00  0.7111111E-02
    1       -4.023083   1.000000
    2       -0.991875   1.000000
    3        4.103856   1.000000
    4        4.310103   1.000000
    5        7.492769   0.000000
    6        8.884354   0.000000
    7        9.259282   0.000000
    8       13.391086   0.000000
 
 -0.4666667E+00  0.6666667E-01  0.0000000E+00  0.7111111E-02
    1       -3.872036   1.000000
    2       -1.213911   1.000000
    3        4.006113   1.000000
    4        4.368226   1.000000
    5        7.468055   0.000000
    6        8.932990   0.000000
    7        9.156107   0.000000
    8       13.529814   0.000000
 
 -0.4000000E+00  0.6666667E-01  0.0000000E+00  0.7111111E-02
    1       -4.153938   1.000000
    2       -0.789274   1.000000
    3        3.979024   1.000000
    4        4.491903   1.000000
    5        7.514100   0.000000
    6        9.051415   0.000000
    7        9.115147   0.000000
    8       13.500974   0.000000
 
 -0.3333333E+00  0.6666667E-01  0.0000000E+00  0.7111111E-02
    1       -4.631429   1.000000
    2        0.041658   1.000000
    3        4.027249   1.000000
    4        4.673490   1.000000
    5        7.629173   0.000000
    6        9.111832   0.000000
    7        9.209870   0.000000
    8       13.092813   0.000000
 
 -0.2666667E+00  0.6666667E-01  0.0000000E+00  0.7111111E-02
    1       -5.111181   1.000000
    2        1.076804   1.000000
    3        4.153863   1.000000
    4        4.901637   1.000000
    5        7.807359   0.000000
    6        9.071404   0.000000
    7        9.323158   0.000000
    8       12.337601   0.000000
 
 -0.2000000E+00  0.6666667E-01  0.0000000E+00  0.7111111E-02
    1       -5.521773   1.000000
    2        2.225126   1.000000
    3        4.359753   1.000000
    4        5.156216   1.000000
    5        8.033937   0.000000
    6        8.893299   0.000000
    7        9.243123   0.000000
    8       11.601158   0.000000
 
 -0.1333333E+00  0.6666667E-01  0.0000000E+00  0.7111111E-02
    1       -5.836554   1.000000
    2        3.412530   1.000000
    3        4.646369   1.000000
    4        5.397402   1.000000
    5        8.274619   0.000000
    6        8.590549   0.000000
    7        8.897101   0.000000
    8       10.786826   0.000000
 
 -0.6666667E-01  0.6666667E-01  0.0000000E+00  0.3555556E-02
    1       -6.044127   1.000000
    2        4.468015   1.000000
    3        5.049331   1.000000
    4        5.550984   1.000000
    5        8.338892   0.000000
    6        8.440830   0.000000
    7        8.447685   0.000000
    8        9.851473   0.000000
 
  0.1333333E+00  0.1333333E+00  0.0000000E+00  0.1777778E-02
    1       -5.891562   1.000000
    2        4.134674   1.000000
    3        4.760063   1.000000
    4        4.760063   1.000000
    5        7.580897   0.000000
    6        9.419170   0.000000
    7        9.419174   0.000000
    8        9.894461   0.000000
 
  0.2000000E+00  0.1333333E+00  0.0000000E+00  0.7111111E-02
    1       -5.684046   1.000000
    2        3.260273   1.000000
    3        4.472406   1.000000
    4        4.542041   1.000000
    5        7.547529   0.000000
    6        9.435020   0.000000
    7        9.885069   0.000000
    8       10.229475   0.000000
 
  0.2666667E+00  0.1333333E+00  0.0000000E+00  0.7111111E-02
    1       -5.369636   1.000000
    2        2.168503   1.000000
    3        4.240483   1.000000
    4        4.256615   1.000000
    5        7.738221   0.000000
    6        9.348704   0.000000
    7       10.191950   0.000000
    8       10.277296   0.000000
 
  0.3333333E+00  0.1333333E+00  0.0000000E+00  0.7111111E-02
    1       -4.959479   1.000000
    2        1.077872   1.000000
    3        3.929965   1.000000
    4        4.082829   1.000000
    5        7.835045   0.000000
    6        9.363649   0.000000
    7       10.241949   0.000000
    8       10.488846   0.000000
 
  0.4000000E+00  0.1333333E+00  0.0000000E+00  0.7111111E-02
    1       -4.479779   1.000000
    2        0.077128   1.000000
    3        3.626169   1.000000
    4        4.007304   1.000000
    5        7.808153   0.000000
    6        9.303784   0.000000
    7       10.104672   0.000000
    8       11.190575   0.000000
 
  0.4666667E+00  0.1333333E+00  0.0000000E+00  0.7111111E-02
    1       -4.001395   1.000000
    2       -0.735044   1.000000
    3        3.376320   1.000000
    4        4.015364   1.000000
    5        7.777882   0.000000
    6        9.227036   0.000000
    7        9.907703   0.000000
    8       12.199665   0.000000
 
 -0.4666667E+00  0.1333333E+00  0.0000000E+00  0.7111111E-02
    1       -3.719375   1.000000
    2       -1.150696   1.000000
    3        3.196927   1.000000
    4        4.104284   1.000000
    5        7.805105   0.000000
    6        9.204628   0.000000
    7        9.730722   0.000000
    8       13.304310   0.000000
 
 -0.4000000E+00  0.1333333E+00  0.0000000E+00  0.7111111E-02
    1       -3.875162   1.000000
    2       -0.924370   1.000000
    3        3.099209   1.000000
    4        4.267333   1.000000
    5        7.902319   0.000000
    6        9.257279   0.000000
    7        9.603026   0.000000
    8       13.737155   0.000000
 
 -0.3333333E+00  0.1333333E+00  0.0000000E+00  0.7111111E-02
    1       -4.320160   1.000000
    2       -0.208176   1.000000
    3        3.093215   1.000000
    4        4.493376   1.000000
    5        8.061771   0.000000
    6        9.375825   0.000000
    7        9.511795   0.000000
    8       12.891939   0.000000
 
 -0.2666667E+00  0.1333333E+00  0.0000000E+00  0.7111111E-02
    1       -4.810632   1.000000
    2        0.739274   1.000000
    3        3.191695   1.000000
    4        4.763964   1.000000
    5        8.264750   0.000000
    6        9.390368   0.000000
    7        9.493460   0.000000
    8       11.992747   0.000000
 
 -0.2000000E+00  0.1333333E+00  0.0000000E+00  0.7111111E-02
    1       -5.246978   1.000000
    2        1.775755   1.000000
    3        3.423264   1.000000
    4        5.047549   1.000000
    5        8.481404   0.000000
    6        9.144437   0.000000
    7        9.418673   0.000000
    8       11.376262   0.000000
 
 -0.1333333E+00  0.1333333E+00  0.0000000E+00  0.3555556E-02
    1       -5.593806   1.000000
    2        2.737382   1.000000
    3        3.877940   1.000000
    4        5.287642   1.000000
    5        8.608694   0.000000
    6        8.810598   0.000000
    7        9.045170   0.000000
    8       11.123786   0.000000
 
  0.2000000E+00  0.2000000E+00  0.0000000E+00  0.1777778E-02
    1       -5.513145   1.000000
    2        2.989044   1.000000
    3        4.167916   1.000000
    4        4.167917   1.000000
    5        7.100572   0.000000
    6        9.479646   0.000000
    7       10.468706   0.000000
    8       10.468707   0.000000
 
  0.2666667E+00  0.2000000E+00  0.0000000E+00  0.7111111E-02
    1       -5.233761   1.000000
    2        2.222667   1.000000
    3        3.859530   1.000000
    4        3.920664   1.000000
    5        7.091658   0.000000
    6        9.125068   0.000000
    7       10.739677   0.000000
    8       10.928000   0.000000
 
  0.3333333E+00  0.2000000E+00  0.0000000E+00  0.7111111E-02
    1       -4.854261   1.000000
    2        1.292949   1.000000
    3        3.456237   1.000000
    4        3.750708   1.000000
    5        7.303636   0.000000
    6        9.141644   0.000000
    7       10.655076   0.000000
    8       11.107439   0.000000
 
  0.4000000E+00  0.2000000E+00  0.0000000E+00  0.7111111E-02
    1       -4.393473   1.000000
    2        0.358178   1.000000
    3        3.044889   1.000000
    4        3.667316   1.000000
    5        7.411652   0.000000
    6        9.695831   0.000000
    7       10.488164   0.000000
    8       11.023487   0.000000
 
  0.4666667E+00  0.2000000E+00  0.0000000E+00  0.7111111E-02
    1       -3.900398   1.000000
    2       -0.471776   1.000000
    3        2.689950   1.000000
    4        3.673141   1.000000
    5        7.445915   0.000000
    6       10.327384   0.000000
    7       10.657060   0.000000
    8       10.817886   0.000000
 
 -0.4666667E+00  0.2000000E+00  0.0000000E+00  0.7111111E-02
    1       -3.519378   1.000000
    2       -1.022428   1.000000
    3        2.419930   1.000000
    4        3.766770   1.000000
    5        7.523377   0.000000
    6       10.222423   0.000000
    7       10.598140   0.000000
    8       11.831490   0.000000
 
 -0.4000000E+00  0.2000000E+00  0.0000000E+00  0.7111111E-02
    1       -3.531821   1.000000
    2       -1.001338   1.000000
    3        2.251732   1.000000
    4        3.942155   1.000000
    5        7.683462   0.000000
    6       10.173972   0.000000
    7       10.407457   0.000000
    8       13.123393   0.000000
 
 -0.3333333E+00  0.2000000E+00  0.0000000E+00  0.7111111E-02
    1       -3.923669   1.000000
    2       -0.429021   1.000000
    3        2.204596   1.000000
    4        4.187839   1.000000
    5        7.923834   0.000000
    6       10.179488   0.000000
    7       10.234172   0.000000
    8       12.770611   0.000000
 
 -0.2666667E+00  0.2000000E+00  0.0000000E+00  0.7111111E-02
    1       -4.415665   1.000000
    2        0.377928   1.000000
    3        2.317482   1.000000
    4        4.483282   1.000000
    5        8.214000   0.000000
    6        9.995049   0.000000
    7       10.175203   0.000000
    8       11.783869   0.000000
 
 -0.2000000E+00  0.2000000E+00  0.0000000E+00  0.3555556E-02
    1       -4.872207   1.000000
    2        1.175600   1.000000
    3        2.687741   1.000000
    4        4.791632   1.000000
    5        8.477066   0.000000
    6        9.591590   0.000000
    7        9.896315   0.000000
    8       11.284429   0.000000
 
  0.2666667E+00  0.2666667E+00  0.0000000E+00  0.1777778E-02
    1       -4.989058   1.000000
    2        1.809159   1.000000
    3        3.654750   1.000000
    4        3.654752   1.000000
    5        6.680264   0.000000
    6        8.519909   0.000000
    7       11.608831   0.000000
    8       11.608831   0.000000
 
  0.3333333E+00  0.2666667E+00  0.0000000E+00  0.7111111E-02
    1       -4.641623   1.000000
    2        1.129289   1.000000
    3        3.306922   1.000000
    4        3.465675   1.000000
    5        6.722741   0.000000
    6        8.217416   0.000000
    7       11.887180   0.000000
    8       12.025127   0.000000
 
  0.4000000E+00  0.2666667E+00  0.0000000E+00  0.7111111E-02
    1       -4.204920   1.000000
    2        0.368937   1.000000
    3        2.797738   1.000000
    4        3.364335   1.000000
    5        6.932996   0.000000
    6        8.415409   0.000000
    7       11.822644   0.000000
    8       12.077340   0.000000
 
  0.4666667E+00  0.2666667E+00  0.0000000E+00  0.7111111E-02
    1       -3.712625   1.000000
    2       -0.373074   1.000000
    3        2.296904   1.000000
    4        3.355169   1.000000
    5        7.027863   0.000000
    6        9.181353   0.000000
    7       11.678216   0.000000
    8       11.906944   0.000000
 
 -0.4666667E+00  0.2666667E+00  0.0000000E+00  0.7111111E-02
    1       -3.266303   1.000000
    2       -0.961887   1.000000
    3        1.896276   1.000000
    4        3.437771   1.000000
    5        7.121138   0.000000
    6       10.266755   0.000000
    7       11.556703   0.000000
    8       11.669460   0.000000
 
 -0.4000000E+00  0.2666667E+00  0.0000000E+00  0.7111111E-02
    1       -3.140121   1.000000
    2       -1.109389   1.000000
    3        1.637189   1.000000
    4        3.607483   1.000000
    5        7.294994   0.000000
    6       11.245363   0.000000
    7       11.426853   0.000000
    8       11.760035   0.000000
 
 -0.3333333E+00  0.2666667E+00  0.0000000E+00  0.7111111E-02
    1       -3.464349   1.000000
    2       -0.703049   1.000000
    3        1.561380   1.000000
    4        3.854051   1.000000
    5        7.560326   0.000000
    6       11.147023   0.000000
    7       11.287461   0.000000
    8       12.676696   0.000000
 
 -0.2666667E+00  0.2666667E+00  0.0000000E+00  0.3555556E-02
    1       -3.947973   1.000000
    2       -0.111444   1.000000
    3        1.753298   1.000000
    4        4.158081   1.000000
    5        7.892772   0.000000
    6       10.673188   0.000000
    7       11.013554   0.000000
    8       11.870411   0.000000
 
  0.3333333E+00  0.3333333E+00  0.0000000E+00  0.1777778E-02
    1       -4.325648   1.000000
    2        0.632224   1.000000
    3        3.254430   1.000000
    4        3.254432   1.000000
    5        6.381953   0.000000
    6        7.645930   0.000000
    7       12.801448   0.000000
    8       12.801448   0.000000
 
  0.4000000E+00  0.3333333E+00  0.0000000E+00  0.7111111E-02
    1       -3.915769   1.000000
    2        0.016799   1.000000
    3        2.910419   1.000000
    4        3.130553   1.000000
    5        6.485342   0.000000
    6        7.470882   0.000000
    7       13.104479   0.000000
    8       13.160851   0.000000
 
  0.4666667E+00  0.3333333E+00  0.0000000E+00  0.7111111E-02
    1       -3.434707   1.000000
    2       -0.605682   1.000000
    3        2.353617   1.000000
    4        3.099679   1.000000
    5        6.669338   0.000000
    6        7.908110   0.000000
    7       13.060054   0.000000
    8       13.110127   0.000000
 
 -0.4666667E+00  0.3333333E+00  0.0000000E+00  0.7111111E-02
    1       -2.951603   1.000000
    2       -1.150120   1.000000
    3        1.814179   1.000000
    4        3.162824   1.000000
    5        6.775012   0.000000
    6        8.875020   0.000000
    7       12.882557   0.000000
    8       12.928165   0.000000
 
 -0.4000000E+00  0.3333333E+00  0.0000000E+00  0.7111111E-02
    1       -2.720046   1.000000
    2       -1.379858   1.000000
    3        1.431260   1.000000
    4        3.316738   1.000000
    5        6.945011   0.000000
    6       10.093797   0.000000
    7       12.571414   0.000000
    8       12.800425   0.000000
 
 -0.3333333E+00  0.3333333E+00  0.0000000E+00  0.3555556E-02
    1       -2.997663   1.000000
    2       -1.092267   1.000000
    3        1.309341   1.000000
    4        3.552787   1.000000
    5        7.212155   0.000000
    6       11.404803   0.000000
    7       12.035487   0.000000
    8       12.599859   0.000000
 
  0.4000000E+00  0.4000000E+00  0.0000000E+00  0.1777778E-02
    1       -3.531937   1.000000
    2       -0.515399   1.000000
    3        2.981938   1.000000
    4        2.981940   1.000000
    5        6.241414   0.000000
    6        6.973597   0.000000
    7       14.030648   0.000000
    8       14.030649   0.000000
 
  0.4666667E+00  0.4000000E+00  0.0000000E+00  0.7111111E-02
    1       -3.067985   1.000000
    2       -1.075639   1.000000
    3        2.672807   1.000000
    4        2.926167   1.000000
    5        6.397372   0.000000
    6        6.953577   0.000000
    7       14.323993   0.000000
    8       14.349450   0.000000
 
 -0.4666667E+00  0.4000000E+00  0.0000000E+00  0.7111111E-02
    1       -2.569160   1.000000
    2       -1.584542   1.000000
    3        2.134739   1.000000
    4        2.965474   1.000000
    5        6.532624   0.000000
    6        7.653424   0.000000
    7       14.159412   0.000000
    8       14.321134   0.000000
 
 -0.4000000E+00  0.4000000E+00  0.0000000E+00  0.3555556E-02
    1       -2.355585   1.000000
    2       -1.752292   1.000000
    3        1.650916   1.000000
    4        3.097951   1.000000
    5        6.687554   0.000000
    6        8.774328   0.000000
    7       13.626972   0.000000
    8       14.202918   0.000000
 
  0.4666667E+00  0.4666667E+00  0.0000000E+00  0.1777778E-02
    1       -2.620461   1.000000
    2       -1.607870   1.000000
    3        2.844229   1.000000
    4        2.844232   1.000000
    5        6.281426   0.000000
    6        6.520728   0.000000
    7       15.230635   0.000000
    8       15.230637   0.000000
 
 -0.4666667E+00  0.4666667E+00  0.0000000E+00  0.3555556E-02
    1       -2.143341   1.000000
    2       -2.084024   1.000000
    3        2.593697   1.000000
    4        2.857550   1.000000
    5        6.410406   0.000000
    6        6.737390   0.000000
    7       15.205202   0.000000
    8       15.350050   0.000000
 
  0.2000000E+00  0.1333333E+00  0.6666667E-01  0.7111111E-02
    1       -5.816863   1.000000
    2        3.564474   1.000000
    3        4.467717   1.000000
    4        5.153647   1.000000
    5        7.986389   0.000000
    6        8.888137   0.000000
    7        9.281656   0.000000
    8       10.505789   0.000000
 
  0.2666667E+00  0.1333333E+00  0.6666667E-01  0.1422222E-01
    1       -5.537494   1.000000
    2        2.553007   1.000000
    3        4.030527   1.000000
    4        4.975316   1.000000
    5        8.170913   0.000000
    6        8.880039   0.000000
    7        9.671813   0.000000
    8       10.735203   0.000000
 
  0.3333333E+00  0.1333333E+00  0.6666667E-01  0.1422222E-01
    1       -5.157590   1.000000
    2        1.445302   1.000000
    3        3.756336   1.000000
    4        4.722464   1.000000
    5        8.205024   0.000000
    6        8.931387   0.000000
    7        9.868180   0.000000
    8       10.970464   0.000000
 
  0.4000000E+00  0.1333333E+00  0.6666667E-01  0.1422222E-01
    1       -4.696679   1.000000
    2        0.394568   1.000000
    3        3.580252   1.000000
    4        4.475599   1.000000
    5        8.095863   0.000000
    6        8.937210   0.000000
    7        9.844221   0.000000
    8       11.587741   0.000000
 
  0.4666667E+00  0.1333333E+00  0.6666667E-01  0.1422222E-01
    1       -4.204746   1.000000
    2       -0.504670   1.000000
    3        3.479393   1.000000
    4        4.282824   1.000000
    5        7.989055   0.000000
    6        8.865117   0.000000
    7        9.746642   0.000000
    8       12.504236   0.000000
 
 -0.4666667E+00  0.1333333E+00  0.6666667E-01  0.1422222E-01
    1       -3.824159   1.000000
    2       -1.092326   1.000000
    3        3.436046   1.000000
    4        4.176327   1.000000
    5        7.930298   0.000000
    6        8.807013   0.000000
    7        9.676561   0.000000
    8       13.462172   0.000000
 
  0.2666667E+00  0.2000000E+00  0.6666667E-01  0.7111111E-02
    1       -5.440912   1.000000
    2        2.598852   1.000000
    3        3.872925   1.000000
    4        4.462006   1.000000
    5        7.525125   0.000000
    6        9.498653   0.000000
    7       10.158308   0.000000
    8       10.364610   0.000000
 
  0.3333333E+00  0.2000000E+00  0.6666667E-01  0.1422222E-01
    1       -5.093917   1.000000
    2        1.689630   1.000000
    3        3.434485   1.000000
    4        4.261833   1.000000
    5        7.757610   0.000000
    6        9.487209   0.000000
    7       10.009764   0.000000
    8       10.734524   0.000000
 
  0.4000000E+00  0.2000000E+00  0.6666667E-01  0.1422222E-01
    1       -4.657455   1.000000
    2        0.710559   1.000000
    3        3.138267   1.000000
    4        4.029240   1.000000
    5        7.909895   0.000000
    6        9.601015   0.000000
    7       10.098312   0.000000
    8       10.834982   0.000000
 
  0.4666667E+00  0.2000000E+00  0.6666667E-01  0.1422222E-01
    1       -4.166515   1.000000
    2       -0.197887   1.000000
    3        2.919360   1.000000
    4        3.861481   1.000000
    5        7.944081   0.000000
    6        9.418024   0.000000
    7       10.715262   0.000000
    8       10.959815   0.000000
 
 -0.4666667E+00  0.2000000E+00  0.6666667E-01  0.1422222E-01
    1       -3.721049   1.000000
    2       -0.891126   1.000000
    3        2.751928   1.000000
    4        3.804061   1.000000
    5        7.986425   0.000000
    6        9.228763   0.000000
    7       10.638975   0.000000
    8       12.034826   0.000000
 
 -0.4000000E+00  0.2000000E+00  0.6666667E-01  0.1422222E-01
    1       -3.570089   1.000000
    2       -1.102531   1.000000
    3        2.639048   1.000000
    4        3.863923   1.000000
    5        8.092708   0.000000
    6        9.096893   0.000000
    7       10.567050   0.000000
    8       13.260485   0.000000
 
 -0.3333333E+00  0.2000000E+00  0.6666667E-01  0.1422222E-01
    1       -3.860182   1.000000
    2       -0.682920   1.000000
    3        2.599088   1.000000
    4        4.026304   1.000000
    5        8.266527   0.000000
    6        9.034388   0.000000
    7       10.536486   0.000000
    8       12.377723   0.000000
 
 -0.2666667E+00  0.2000000E+00  0.6666667E-01  0.1422222E-01
    1       -4.340344   1.000000
    2        0.104520   1.000000
    3        2.656912   1.000000
    4        4.266651   1.000000
    5        8.481226   0.000000
    6        9.017859   0.000000
    7       10.509921   0.000000
    8       11.375545   0.000000
 
 -0.2000000E+00  0.2000000E+00  0.6666667E-01  0.1422222E-01
    1       -4.818242   1.000000
    2        1.026274   1.000000
    3        2.853062   1.000000
    4        4.549828   1.000000
    5        8.666083   0.000000
    6        8.948047   0.000000
    7       10.396312   0.000000
    8       10.709238   0.000000
 
 -0.1333333E+00  0.2000000E+00  0.6666667E-01  0.7111111E-02
    1       -5.225682   1.000000
    2        1.901360   1.000000
    3        3.280416   1.000000
    4        4.817789   1.000000
    5        8.500428   0.000000
    6        8.938532   0.000000
    7       10.099601   0.000000
    8       10.523966   0.000000
 
  0.3333333E+00  0.2666667E+00  0.6666667E-01  0.7111111E-02
    1       -4.920846   1.000000
    2        1.581370   1.000000
    3        3.362819   1.000000
    4        3.793356   1.000000
    5        7.114674   0.000000
    6        8.783310   0.000000
    7       10.906636   0.000000
    8       11.541934   0.000000
 
  0.4000000E+00  0.2666667E+00  0.6666667E-01  0.1422222E-01
    1       -4.512662   1.000000
    2        0.800654   1.000000
    3        2.913927   1.000000
    4        3.587903   1.000000
    5        7.378268   0.000000
    6        8.834598   0.000000
    7       10.754732   0.000000
    8       11.889964   0.000000
 
  0.4666667E+00  0.2666667E+00  0.6666667E-01  0.1422222E-01
    1       -4.033725   1.000000
    2       -0.010146   1.000000
    3        2.523485   1.000000
    4        3.439566   1.000000
    5        7.521722   0.000000
    6        9.454295   0.000000
    7       10.524029   0.000000
    8       11.918204   0.000000
 
 -0.4666667E+00  0.2666667E+00  0.6666667E-01  0.1422222E-01
    1       -3.552298   1.000000
    2       -0.719122   1.000000
    3        2.200221   1.000000
    4        3.408548   1.000000
    5        7.600535   0.000000
    6       10.208556   0.000000
    7       10.556394   0.000000
    8       11.819171   0.000000
 
 -0.4000000E+00  0.2666667E+00  0.6666667E-01  0.1422222E-01
    1       -3.270833   1.000000
    2       -1.088747   1.000000
    3        1.967864   1.000000
    4        3.494076   1.000000
    5        7.734580   0.000000
    6       10.059326   0.000000
    7       11.662169   0.000000
    8       11.780338   0.000000
 
 -0.3333333E+00  0.2666667E+00  0.6666667E-01  0.1422222E-01
    1       -3.447613   1.000000
    2       -0.853311   1.000000
    3        1.854163   1.000000
    4        3.680466   1.000000
    5        7.952988   0.000000
    6        9.912412   0.000000
    7       11.586323   0.000000
    8       12.334775   0.000000
 
 -0.2666667E+00  0.2666667E+00  0.6666667E-01  0.1422222E-01
    1       -3.902564   1.000000
    2       -0.220635   1.000000
    3        1.902918   1.000000
    4        3.945893   1.000000
    5        8.245333   0.000000
    6        9.761349   0.000000
    7       11.200347   0.000000
    8       11.546755   0.000000
 
 -0.2000000E+00  0.2666667E+00  0.6666667E-01  0.7111111E-02
    1       -4.389414   1.000000
    2        0.474144   1.000000
    3        2.203534   1.000000
    4        4.256145   1.000000
    5        8.565801   0.000000
    6        9.399096   0.000000
    7       10.659654   0.000000
    8       11.118168   0.000000
 
  0.4000000E+00  0.3333333E+00  0.6666667E-01  0.7111111E-02
    1       -4.263763   1.000000
    2        0.521424   1.000000
    3        2.973711   1.000000
    4        3.256609   1.000000
    5        6.817439   0.000000
    6        7.955796   0.000000
    7       11.960178   0.000000
    8       12.770365   0.000000
 
  0.4666667E+00  0.3333333E+00  0.6666667E-01  0.1422222E-01
    1       -3.804366   1.000000
    2       -0.136052   1.000000
    3        2.500052   1.000000
    4        3.094223   1.000000
    5        7.096156   0.000000
    6        8.193338   0.000000
    7       11.769710   0.000000
    8       13.108347   0.000000
 
 -0.4666667E+00  0.3333333E+00  0.6666667E-01  0.1422222E-01
    1       -3.308874   1.000000
    2       -0.764121   1.000000
    3        2.006545   1.000000
    4        3.066147   1.000000
    5        7.223750   0.000000
    6        9.036249   0.000000
    7       11.528249   0.000000
    8       13.098893   0.000000
 