 vasp.6.2.0 18Jan21 (build Aug 12 2022 13:00:08) complex                        
  
 executed on             LinuxIFC date 2024.11.03  21:58:21
 running on    4 total cores
 distrk:  each k-point on    4 cores,    1 groups
 distr:  one band on NCORE=   1 cores,    4 groups


--------------------------------------------------------------------------------------------------------


 INCAR:
   ISTART = 0            (Read existing wavefunction, if there)
   ISPIN = 1            (Non-Spin polarised DFT)
   LREAL = .FALSE.       (Projection operators: automatic)
   LWAVE = .FALSE.        (Write WAVECAR or not)
   LCHARG = .FALSE.        (Write CHGCAR or not)
   ADDGRID = .TRUE.        (Increase grid, helps GGA convergence)
   LASPH = .TRUE.        (Give more accurate total energies and band structure calculations)
   PREC = Accurate      (Accurate strictly avoids any aliasing or wrap around errors)
   ENCUT = 350          (Cut-off energy for plane wave basis set, in eV)
   ISMEAR = 0            (Gaussian smearing, metals:1)
   SIGMA = 0.05         (Smearing value in eV, metals:0.2)
   NELM = 90           (Max electronic SCF steps)
   NELMIN = 6            (Min electronic SCF steps)
   EDIFF = 1E-06        (SCF energy convergence, in eV)
   NSW = 100          (Max ionic steps)
   IBRION = 2            (Algorithm: 0-MD, 1-Quasi-New, 2-CG)
   ISIF = 3            (Stress/relaxation: 2-Ions, 3-Shape/Ions/V, 4-Shape/Ions)
   EDIFFG = -2E-03        (Ionic convergence, eV/AA)
   ISYM = 2              (Symmetry: 0\=none, 2\=GGA, 3\=hybrids)

 POTCAR:    PAW_PBE Si 05Jan2001                  
 POTCAR:    PAW_PBE Si 05Jan2001                  
   VRHFIN =Si: s2p2                                                                                 
   LEXCH  = PE                                                                                      
   EATOM  =   103.0669 eV,    7.5752 Ry                                                             
                                                                                                    
   TITEL  = PAW_PBE Si 05Jan2001                                                                    
   LULTRA =        F    use ultrasoft PP ?                                                          
   IUNSCR =        1    unscreen: 0-lin 1-nonlin 2-no                                               
   RPACOR =    1.500    partial core radius                                                         
   POMASS =   28.085; ZVAL   =    4.000    mass and valenz                                          
   RCORE  =    1.900    outmost cutoff radius                                                       
   RWIGS  =    2.480; RWIGS  =    1.312    wigner-seitz radius (au A)                               
   ENMAX  =  245.345; ENMIN  =  184.009 eV                                                          
   ICORE  =        2    local potential                                                             
   LCOR   =        T    correct aug charges                                                         
   LPAW   =        T    paw PP                                                                      
   EAUG   =  322.069                                                                                
   DEXC   =    0.000                                                                                
   RMAX   =    1.950    core radius for proj-oper                                                   
   RAUG   =    1.300    factor for augmentation sphere                                              
   RDEP   =    1.993    radius for radial grids                                                     
   RDEPT  =    1.837    core radius for aug-charge                                                  
                                                                                                    
   Atomic configuration                                                                             
    6 entries                                                                                       
     n  l   j            E        occ.                                                              
     1  0  0.50     -1785.8828   2.0000                                                             
     2  0  0.50      -139.4969   2.0000                                                             
     2  1  1.50       -95.5546   6.0000                                                             
     3  0  0.50       -10.8127   2.0000                                                             
     3  1  0.50        -4.0811   2.0000                                                             
     3  2  1.50        -4.0817   0.0000                                                             
   Description                                                                                      
     l       E           TYP  RCUT    TYP  RCUT                                                     
     0    -10.8127223     23  1.900                                                                 
     0     -7.6451159     23  1.900                                                                 
     1     -4.0811372     23  1.900                                                                 
     1      2.4879257     23  1.900                                                                 
     2     -4.0817478      7  1.900                                                                 
  local pseudopotential read in
  partial core-charges read in
  partial kinetic energy density read in
  atomic valenz-charges read in
  non local Contribution for L=           0  read in
    real space projection operators read in
  non local Contribution for L=           0  read in
    real space projection operators read in
  non local Contribution for L=           1  read in
    real space projection operators read in
  non local Contribution for L=           1  read in
    real space projection operators read in
    PAW grid and wavefunctions read in
 
   number of l-projection  operators is LMAX  =           4
   number of lm-projection operators is LMMAX =           8
 
  PAW_PBE Si 05Jan2001                  :
 energy of atom  1       EATOM= -103.0669
 kinetic energy error for atom=    0.0013 (will be added to EATOM!!)
 
 
 POSCAR: Si2
  positions in direct lattice
  No initial velocities read in
 exchange correlation table for  LEXCH =        8
   RHO(1)=    0.500       N(1)  =     2000
   RHO(2)=  100.500       N(2)  =     4000
 


--------------------------------------------------------------------------------------------------------


 ion  position               nearest neighbor table
   1  0.875  0.875  0.875-   2 2.36   2 2.36   2 2.36   2 2.36
   2  0.125  0.125  0.125-   1 2.36   1 2.36   1 2.36   1 2.36
 
  LATTYP: Found a face centered cubic cell.
 ALAT       =     5.4437031493
  
  Lattice vectors:
  
 A1 = (   3.3335730000,   0.0000000000,   1.9246390000)
 A2 = (   1.1111910000,   3.1429240000,   1.9246390000)
 A3 = (   0.0000000000,   0.0000000000,   3.8492780000)


Analysis of symmetry for initial positions (statically):
=====================================================================
 Subroutine PRICEL returns:
 Original cell was already a primitive cell.
 

 Routine SETGRP: Setting up the symmetry group for a 
 face centered cubic supercell.


 Subroutine GETGRP returns: Found 48 space group operations
 (whereof 12 operations were pure point group operations)
 out of a pool of 48 trial point group operations.


The static configuration has the point symmetry D_3d.
 The point group associated with its full space group is O_h .


Analysis of symmetry for dynamics (positions and initial velocities):
=====================================================================
 Subroutine PRICEL returns:
 Original cell was already a primitive cell.
 

 Routine SETGRP: Setting up the symmetry group for a 
 face centered cubic supercell.


 Subroutine GETGRP returns: Found 48 space group operations
 (whereof 12 operations were pure point group operations)
 out of a pool of 48 trial point group operations.


The dynamic configuration has the point symmetry D_3d.
 The point group associated with its full space group is O_h .


 Subroutine INISYM returns: Found 48 space group operations
 (whereof 12 operations are pure point group operations),
 and found     1 'primitive' translations


----------------------------------------------------------------------------------------

                                     Primitive cell                                     

  volume of cell :      40.3295

  direct lattice vectors                    reciprocal lattice vectors
     3.333573000  0.000000000  1.924639000     0.299978432 -0.106058350  0.000000000
     1.111191000  3.142924000  1.924639000     0.000000000  0.318175050  0.000000000
     0.000000000  0.000000000  3.849278000    -0.149989216 -0.106058350  0.259788979

  length of vectors
     3.849278403  3.849279412  3.849278000     0.318175161  0.318175050  0.318175190

  position of ions in fractional coordinates (direct lattice)
     0.875000000  0.875000000  0.875000000
     0.125000000  0.125000000  0.125000000

  ion indices of the primitive-cell ions
   primitive index   ion index
                 1           1
                 2           2

----------------------------------------------------------------------------------------

 
 
 KPOINTS: Automatic                               

Automatic generation of k-mesh.
 Grid dimensions read from file:
 generate k-points for:   15   15   15

 Generating k-lattice:

  Cartesian coordinates                     Fractional coordinates (reciprocal lattice)
     0.019998562 -0.007070557  0.000000000     0.066666667  0.000000000  0.000000000
     0.000000000  0.021211670  0.000000000     0.000000000  0.066666667  0.000000000
    -0.009999281 -0.007070557  0.017319265     0.000000000  0.000000000  0.066666667

  Length of vectors
     0.021211677  0.021211670  0.021211679

  Shift w.r.t. Gamma in fractional coordinates (k-lattice)
     0.000000000  0.000000000  0.000000000

 
 Subroutine IBZKPT returns following result:
 ===========================================
 
 Found    120 irreducible k-points:
 
 Following reciprocal coordinates:
            Coordinates               Weight
  0.000000  0.000000  0.000000      1.000000
  0.066667 -0.000000  0.000000      8.000000
  0.133333 -0.000000  0.000000      8.000000
  0.200000  0.000000  0.000000      8.000000
  0.266667 -0.000000  0.000000      8.000000
  0.333333 -0.000000  0.000000      8.000000
  0.400000 -0.000000  0.000000      8.000000
  0.466667 -0.000000  0.000000      8.000000
  0.066667  0.066667  0.000000      6.000000
  0.133333  0.066667  0.000000     24.000000
  0.200000  0.066667  0.000000     24.000000
  0.266667  0.066667  0.000000     24.000000
  0.333333  0.066667  0.000000     24.000000
  0.400000  0.066667  0.000000     24.000000
  0.466667  0.066667  0.000000     24.000000
 -0.466667  0.066667  0.000000     24.000000
 -0.400000  0.066667  0.000000     24.000000
 -0.333333  0.066667  0.000000     24.000000
 -0.266667  0.066667  0.000000     24.000000
 -0.200000  0.066667  0.000000     24.000000
 -0.133333  0.066667  0.000000     24.000000
 -0.066667  0.066667  0.000000     12.000000
  0.133333  0.133333  0.000000      6.000000
  0.200000  0.133333  0.000000     24.000000
  0.266667  0.133333  0.000000     24.000000
  0.333333  0.133333  0.000000     24.000000
  0.400000  0.133333  0.000000     24.000000
  0.466667  0.133333  0.000000     24.000000
 -0.466667  0.133333  0.000000     24.000000
 -0.400000  0.133333  0.000000     24.000000
 -0.333333  0.133333  0.000000     24.000000
 -0.266667  0.133333  0.000000     24.000000
 -0.200000  0.133333  0.000000     24.000000
 -0.133333  0.133333  0.000000     12.000000
  0.200000  0.200000  0.000000      6.000000
  0.266667  0.200000  0.000000     24.000000
  0.333333  0.200000  0.000000     24.000000
  0.400000  0.200000  0.000000     24.000000
  0.466667  0.200000  0.000000     24.000000
 -0.466667  0.200000  0.000000     24.000000
 -0.400000  0.200000  0.000000     24.000000
 -0.333333  0.200000  0.000000     24.000000
 -0.266667  0.200000  0.000000     24.000000
 -0.200000  0.200000  0.000000     12.000000
  0.266667  0.266667  0.000000      6.000000
  0.333333  0.266667  0.000000     24.000000
  0.400000  0.266667  0.000000     24.000000
  0.466667  0.266667  0.000000     24.000000
 -0.466667  0.266667  0.000000     24.000000
 -0.400000  0.266667  0.000000     24.000000
 -0.333333  0.266667  0.000000     24.000000
 -0.266667  0.266667  0.000000     12.000000
  0.333333  0.333333  0.000000      6.000000
  0.400000  0.333333  0.000000     24.000000
  0.466667  0.333333  0.000000     24.000000
 -0.466667  0.333333  0.000000     24.000000
 -0.400000  0.333333  0.000000     24.000000
 -0.333333  0.333333  0.000000     12.000000
  0.400000  0.400000  0.000000      6.000000
  0.466667  0.400000  0.000000     24.000000
 -0.466667  0.400000  0.000000     24.000000
 -0.400000  0.400000  0.000000     12.000000
  0.466667  0.466667  0.000000      6.000000
 -0.466667  0.466667  0.000000     12.000000
  0.200000  0.133333  0.066667     24.000000
  0.266667  0.133333  0.066667     48.000000
  0.333333  0.133333  0.066667     48.000000
  0.400000  0.133333  0.066667     48.000000
  0.466667  0.133333  0.066667     48.000000
 -0.466667  0.133333  0.066667     48.000000
  0.266667  0.200000  0.066667     24.000000
  0.333333  0.200000  0.066667     48.000000
  0.400000  0.200000  0.066667     48.000000
  0.466667  0.200000  0.066667     48.000000
 -0.466667  0.200000  0.066667     48.000000
 -0.400000  0.200000  0.066667     48.000000
 -0.333333  0.200000  0.066667     48.000000
 -0.266667  0.200000  0.066667     48.000000
 -0.200000  0.200000  0.066667     48.000000
 -0.133333  0.200000  0.066667     24.000000
  0.333333  0.266667  0.066667     24.000000
  0.400000  0.266667  0.066667     48.000000
  0.466667  0.266667  0.066667     48.000000
 -0.466667  0.266667  0.066667     48.000000
 -0.400000  0.266667  0.066667     48.000000
 -0.333333  0.266667  0.066667     48.000000
 -0.266667  0.266667  0.066667     48.000000
 -0.200000  0.266667  0.066667     24.000000
  0.400000  0.333333  0.066667     24.000000
  0.466667  0.333333  0.066667     48.000000
 -0.466667  0.333333  0.066667     48.000000
 -0.400000  0.333333  0.066667     48.000000
 -0.333333  0.333333  0.066667     48.000000
 -0.266667  0.333333  0.066667     24.000000
  0.466667  0.400000  0.066667     24.000000
 -0.466667  0.400000  0.066667     48.000000
 -0.400000  0.400000  0.066667     48.000000
 -0.333333  0.400000  0.066667     24.000000
 -0.466667  0.466667  0.066667     24.000000
 -0.400000  0.466667  0.066667     24.000000
  0.400000  0.266667  0.133333     24.000000
  0.466667  0.266667  0.133333     48.000000
 -0.466667  0.266667  0.133333     48.000000
 -0.400000  0.266667  0.133333     48.000000
  0.466667  0.333333  0.133333     24.000000
 -0.466667  0.333333  0.133333     48.000000
 -0.400000  0.333333  0.133333     48.000000
 -0.333333  0.333333  0.133333     48.000000
 -0.266667  0.333333  0.133333     48.000000
 -0.200000  0.333333  0.133333     24.000000
 -0.466667  0.400000  0.133333     24.000000
 -0.400000  0.400000  0.133333     48.000000
 -0.333333  0.400000  0.133333     48.000000
 -0.266667  0.400000  0.133333     24.000000
 -0.400000  0.466667  0.133333     24.000000
 -0.333333  0.466667  0.133333     24.000000
 -0.400000  0.400000  0.200000     24.000000
 -0.333333  0.400000  0.200000     48.000000
 -0.333333  0.466667  0.200000     24.000000
 -0.266667  0.466667  0.200000     24.000000
 
 Following cartesian coordinates:
            Coordinates               Weight
  0.000000  0.000000  0.000000      1.000000
  0.019999 -0.007071  0.000000      8.000000
  0.039997 -0.014141  0.000000      8.000000
  0.059996 -0.021212  0.000000      8.000000
  0.079994 -0.028282  0.000000      8.000000
  0.099993 -0.035353  0.000000      8.000000
  0.119991 -0.042423  0.000000      8.000000
  0.139990 -0.049494  0.000000      8.000000
  0.019999  0.014141  0.000000      6.000000
  0.039997  0.007071  0.000000     24.000000
  0.059996  0.000000  0.000000     24.000000
  0.079994 -0.007071  0.000000     24.000000
  0.099993 -0.014141  0.000000     24.000000
  0.119991 -0.021212  0.000000     24.000000
  0.139990 -0.028282  0.000000     24.000000
 -0.139990  0.070706  0.000000     24.000000
 -0.119991  0.063635  0.000000     24.000000
 -0.099993  0.056564  0.000000     24.000000
 -0.079994  0.049494  0.000000     24.000000
 -0.059996  0.042423  0.000000     24.000000
 -0.039997  0.035353  0.000000     24.000000
 -0.019999  0.028282  0.000000     12.000000
  0.039997  0.028282  0.000000      6.000000
  0.059996  0.021212  0.000000     24.000000
  0.079994  0.014141  0.000000     24.000000
  0.099993  0.007071  0.000000     24.000000
  0.119991  0.000000  0.000000     24.000000
  0.139990 -0.007071  0.000000     24.000000
 -0.139990  0.091917  0.000000     24.000000
 -0.119991  0.084847  0.000000     24.000000
 -0.099993  0.077776  0.000000     24.000000
 -0.079994  0.070706  0.000000     24.000000
 -0.059996  0.063635  0.000000     24.000000
 -0.039997  0.056564  0.000000     12.000000
  0.059996  0.042423  0.000000      6.000000
  0.079994  0.035353  0.000000     24.000000
  0.099993  0.028282  0.000000     24.000000
  0.119991  0.021212  0.000000     24.000000
  0.139990  0.014141  0.000000     24.000000
 -0.139990  0.113129  0.000000     24.000000
 -0.119991  0.106058  0.000000     24.000000
 -0.099993  0.098988  0.000000     24.000000
 -0.079994  0.091917  0.000000     24.000000
 -0.059996  0.084847  0.000000     12.000000
  0.079994  0.056564  0.000000      6.000000
  0.099993  0.049494  0.000000     24.000000
  0.119991  0.042423  0.000000     24.000000
  0.139990  0.035353  0.000000     24.000000
 -0.139990  0.134341  0.000000     24.000000
 -0.119991  0.127270  0.000000     24.000000
 -0.099993  0.120199  0.000000     24.000000
 -0.079994  0.113129  0.000000     12.000000
  0.099993  0.070706  0.000000      6.000000
  0.119991  0.063635  0.000000     24.000000
  0.139990  0.056564  0.000000     24.000000
 -0.139990  0.155552  0.000000     24.000000
 -0.119991  0.148482  0.000000     24.000000
 -0.099993  0.141411  0.000000     12.000000
  0.119991  0.084847  0.000000      6.000000
  0.139990  0.077776  0.000000     24.000000
 -0.139990  0.176764  0.000000     24.000000
 -0.119991  0.169693  0.000000     12.000000
  0.139990  0.098988  0.000000      6.000000
 -0.139990  0.197976  0.000000     12.000000
  0.049996  0.014141  0.017319     24.000000
  0.069995  0.007071  0.017319     48.000000
  0.089994 -0.000000  0.017319     48.000000
  0.109992 -0.007071  0.017319     48.000000
  0.129991 -0.014141  0.017319     48.000000
 -0.149989  0.084847  0.017319     48.000000
  0.069995  0.028282  0.017319     24.000000
  0.089994  0.021212  0.017319     48.000000
  0.109992  0.014141  0.017319     48.000000
  0.129991  0.007071  0.017319     48.000000
 -0.149989  0.106058  0.017319     48.000000
 -0.129991  0.098988  0.017319     48.000000
 -0.109992  0.091917  0.017319     48.000000
 -0.089994  0.084847  0.017319     48.000000
 -0.069995  0.077776  0.017319     48.000000
 -0.049996  0.070706  0.017319     24.000000
  0.089994  0.042423  0.017319     24.000000
  0.109992  0.035353  0.017319     48.000000
  0.129991  0.028282  0.017319     48.000000
 -0.149989  0.127270  0.017319     48.000000
 -0.129991  0.120199  0.017319     48.000000
 -0.109992  0.113129  0.017319     48.000000
 -0.089994  0.106058  0.017319     48.000000
 -0.069995  0.098988  0.017319     24.000000
  0.109992  0.056564  0.017319     24.000000
  0.129991  0.049494  0.017319     48.000000
 -0.149989  0.148482  0.017319     48.000000
 -0.129991  0.141411  0.017319     48.000000
 -0.109992  0.134341  0.017319     48.000000
 -0.089994  0.127270  0.017319     24.000000
  0.129991  0.070706  0.017319     24.000000
 -0.149989  0.169693  0.017319     48.000000
 -0.129991  0.162623  0.017319     48.000000
 -0.109992  0.155552  0.017319     24.000000
 -0.149989  0.190905  0.017319     24.000000
 -0.129991  0.183834  0.017319     24.000000
  0.099993  0.028282  0.034639     24.000000
  0.119991  0.021212  0.034639     48.000000
 -0.159988  0.120199  0.034639     48.000000
 -0.139990  0.113129  0.034639     48.000000
  0.119991  0.042423  0.034639     24.000000
 -0.159988  0.141411  0.034639     48.000000
 -0.139990  0.134341  0.034639     48.000000
 -0.119991  0.127270  0.034639     48.000000
 -0.099993  0.120199  0.034639     48.000000
 -0.079994  0.113129  0.034639     24.000000
 -0.159988  0.162623  0.034639     24.000000
 -0.139990  0.155552  0.034639     48.000000
 -0.119991  0.148482  0.034639     48.000000
 -0.099993  0.141411  0.034639     24.000000
 -0.139990  0.176764  0.034639     24.000000
 -0.119991  0.169693  0.034639     24.000000
 -0.149989  0.148482  0.051958     24.000000
 -0.129991  0.141411  0.051958     48.000000
 -0.129991  0.162623  0.051958     24.000000
 -0.109992  0.155552  0.051958     24.000000
 


--------------------------------------------------------------------------------------------------------




 Dimension of arrays:
   k-points           NKPTS =    120   k-points in BZ     NKDIM =    120   number of bands    NBANDS=      8
   number of dos      NEDOS =    301   number of ions     NIONS =      2
   non local maximal  LDIM  =      4   non local SUM 2l+1 LMDIM =      8
   total plane-waves  NPLWV =  13824
   max r-space proj   IRMAX =      1   max aug-charges    IRDMAX=  91874
   dimension x,y,z NGX =    24 NGY =   24 NGZ =   24
   dimension x,y,z NGXF=    48 NGYF=   48 NGZF=   48
   support grid    NGXF=    96 NGYF=   96 NGZF=   96
   ions per type =               2
   NGX,Y,Z   is equivalent  to a cutoff of  10.37, 10.37, 10.37 a.u.
   NGXF,Y,Z  is equivalent  to a cutoff of  20.73, 20.73, 20.73 a.u.

 SYSTEM =  unknown system                          
 POSCAR =  Si2                                     

 Startparameter for this run:
   NWRITE =      2    write-flag & timer
   PREC   = accura    normal or accurate (medium, high low for compatibility)
   ISTART =      0    job   : 0-new  1-cont  2-samecut
   ICHARG =      2    charge: 1-file 2-atom 10-const
   ISPIN  =      1    spin polarized calculation?
   LNONCOLLINEAR =      F non collinear calculations
   LSORBIT =      F    spin-orbit coupling
   INIWAV =      1    electr: 0-lowe 1-rand  2-diag
   LASPH  =      T    aspherical Exc in radial PAW
   METAGGA=      F    non-selfconsistent MetaGGA calc.

 Electronic Relaxation 1
   ENCUT  =  350.0 eV  25.72 Ry    5.07 a.u.   5.87  5.87  5.87*2*pi/ulx,y,z
   ENINI  =  350.0     initial cutoff
   ENAUG  =  322.1 eV  augmentation charge cutoff
   NELM   =     90;   NELMIN=  6; NELMDL= -5     # of ELM steps 
   EDIFF  = 0.1E-05   stopping-criterion for ELM
   LREAL  =      F    real-space projection
   NLSPLINE    = F    spline interpolate recip. space projectors
   LCOMPAT=      F    compatible to vasp.4.4
   GGA_COMPAT  = T    GGA compatible to vasp.4.4-vasp.4.6
   LMAXPAW     = -100 max onsite density
   LMAXMIX     =    2 max onsite mixed and CHGCAR
   VOSKOWN=      0    Vosko Wilk Nusair interpolation
   ROPT   =    0.00000
 Ionic relaxation
   EDIFFG = -.2E-02   stopping-criterion for IOM
   NSW    =    100    number of steps for IOM
   NBLOCK =      1;   KBLOCK =    100    inner block; outer block 
   IBRION =      2    ionic relax: 0-MD 1-quasi-New 2-CG
   NFREE  =      1    steps in history (QN), initial steepest desc. (CG)
   ISIF   =      3    stress and relaxation
   IWAVPR =     11    prediction:  0-non 1-charg 2-wave 3-comb
   ISYM   =      2    0-nonsym 1-usesym 2-fastsym
   LCORR  =      T    Harris-Foulkes like correction to forces

   POTIM  = 0.5000    time-step for ionic-motion
   TEIN   =    0.0    initial temperature
   TEBEG  =    0.0;   TEEND  =   0.0 temperature during run
   SMASS  =  -3.00    Nose mass-parameter (am)
   estimated Nose-frequenzy (Omega)   =  0.10E-29 period in steps = 0.13E+47 mass=  -0.339E-27a.u.
   SCALEE = 1.0000    scale energy and forces
   NPACO  =    256;   APACO  = 16.0  distance and # of slots for P.C.
   PSTRESS=    0.0 pullay stress

  Mass of Ions in am
   POMASS =  28.09
  Ionic Valenz
   ZVAL   =   4.00
  Atomic Wigner-Seitz radii
   RWIGS  =  -1.00
  virtual crystal weights 
   VCA    =   1.00
   NELECT =       8.0000    total number of electrons
   NUPDOWN=      -1.0000    fix difference up-down

 DOS related values:
   EMIN   =  10.00;   EMAX   =-10.00  energy-range for DOS
   EFERMI =   0.00
   ISMEAR =     0;   SIGMA  =   0.05  broadening in eV -4-tet -1-fermi 0-gaus

 Electronic relaxation 2 (details)
   IALGO  =     38    algorithm
   LDIAG  =      T    sub-space diagonalisation (order eigenvalues)
   LSUBROT=      F    optimize rotation matrix (better conditioning)
   TURBO    =      0    0=normal 1=particle mesh
   IRESTART =      0    0=no restart 2=restart with 2 vectors
   NREBOOT  =      0    no. of reboots
   NMIN     =      0    reboot dimension
   EREF     =   0.00    reference energy to select bands
   IMIX   =      4    mixing-type and parameters
     AMIX     =   0.40;   BMIX     =  1.00
     AMIX_MAG =   1.60;   BMIX_MAG =  1.00
     AMIN     =   0.10
     WC   =   100.;   INIMIX=   1;  MIXPRE=   1;  MAXMIX= -45

 Intra band minimization:
   WEIMIN = 0.0010     energy-eigenvalue tresh-hold
   EBREAK =  0.31E-07  absolut break condition
   DEPER  =   0.30     relativ break condition  

   TIME   =   0.40     timestep for ELM

  volume/ion in A,a.u.               =      20.16       136.08
  Fermi-wavevector in a.u.,A,eV,Ry     =   0.954766  1.804247 12.402783  0.911579
  Thomas-Fermi vector in A             =   2.083543
 
 Write flags
   LWAVE        =      F    write WAVECAR
   LDOWNSAMPLE  =      F    k-point downsampling of WAVECAR
   LCHARG       =      F    write CHGCAR
   LVTOT        =      F    write LOCPOT, total local potential
   LVHAR        =      F    write LOCPOT, Hartree potential only
   LELF         =      F    write electronic localiz. function (ELF)
   LORBIT       =      0    0 simple, 1 ext, 2 COOP (PROOUT), +10 PAW based schemes


 Dipole corrections
   LMONO  =      F    monopole corrections only (constant potential shift)
   LDIPOL =      F    correct potential (dipole corrections)
   IDIPOL =      0    1-x, 2-y, 3-z, 4-all directions 
   EPSILON=  1.0000000 bulk dielectric constant

 Exchange correlation treatment:
   GGA     =    --    GGA type
   LEXCH   =     8    internal setting for exchange type
   VOSKOWN=      0    Vosko Wilk Nusair interpolation
   LHFCALC =     F    Hartree Fock is set to
   LHFONE  =     F    Hartree Fock one center treatment
   AEXX    =    0.0000 exact exchange contribution

 Linear response parameters
   LEPSILON=     F    determine dielectric tensor
   LRPA    =     F    only Hartree local field effects (RPA)
   LNABLA  =     F    use nabla operator in PAW spheres
   LVEL    =     F    velocity operator in full k-point grid
   LINTERFAST=   F  fast interpolation
   KINTER  =     0    interpolate to denser k-point grid
   CSHIFT  =0.1000    complex shift for real part using Kramers Kronig
   OMEGAMAX=  -1.0    maximum frequency
   DEG_THRESHOLD= 0.2000000E-02 threshold for treating states as degnerate
   RTIME   =   -0.100 relaxation time in fs
  (WPLASMAI=    0.000 imaginary part of plasma frequency in eV, 0.658/RTIME)
   DFIELD  = 0.0000000 0.0000000 0.0000000 field for delta impulse in time
 
 Orbital magnetization related:
   ORBITALMAG=     F  switch on orbital magnetization
   LCHIMAG   =     F  perturbation theory with respect to B field
   DQ        =  0.001000  dq finite difference perturbation B field
   LLRAUG    =     F  two centre corrections for induced B field



--------------------------------------------------------------------------------------------------------


 conjugate gradient relaxation of ions
 charge density and potential will be updated during run
 non-spin polarized calculation
 Variant of blocked Davidson
 Davidson routine will perform the subspace rotation
 perform sub-space diagonalisation
    after iterative eigenvector-optimisation
 modified Broyden-mixing scheme, WC =      100.0
 initial mixing is a Kerker type mixing with AMIX =  0.4000 and BMIX =      1.0000
 Hartree-type preconditioning will be used
 using additional bands            4
 reciprocal scheme for non local part
 use partial core corrections
 calculate Harris-corrections to forces 
   (improved forces if not selfconsistent)
 use gradient corrections 
 use of overlap-Matrix (Vanderbilt PP)
 Gauss-broadening in eV      SIGMA  =   0.05


--------------------------------------------------------------------------------------------------------


  energy-cutoff  :      350.00
  volume of cell :       40.33
      direct lattice vectors                 reciprocal lattice vectors
     3.333573000  0.000000000  1.924639000     0.299978432 -0.106058350  0.000000000
     1.111191000  3.142924000  1.924639000     0.000000000  0.318175050  0.000000000
     0.000000000  0.000000000  3.849278000    -0.149989216 -0.106058350  0.259788979

  length of vectors
     3.849278403  3.849279412  3.849278000     0.318175161  0.318175050  0.318175190


 
 k-points in units of 2pi/SCALE and weight: Automatic                               
   0.00000000  0.00000000  0.00000000       0.000
   0.01999856 -0.00707056  0.00000000       0.002
   0.03999712 -0.01414111  0.00000000       0.002
   0.05999569 -0.02121167  0.00000000       0.002
   0.07999425 -0.02828223  0.00000000       0.002
   0.09999281 -0.03535278  0.00000000       0.002
   0.11999137 -0.04242334  0.00000000       0.002
   0.13998993 -0.04949390  0.00000000       0.002
   0.01999856  0.01414111  0.00000000       0.002
   0.03999712  0.00707056  0.00000000       0.007
   0.05999569  0.00000000  0.00000000       0.007
   0.07999425 -0.00707056  0.00000000       0.007
   0.09999281 -0.01414111  0.00000000       0.007
   0.11999137 -0.02121167  0.00000000       0.007
   0.13998993 -0.02828223  0.00000000       0.007
  -0.13998993  0.07070557  0.00000000       0.007
  -0.11999137  0.06363501  0.00000000       0.007
  -0.09999281  0.05656445  0.00000000       0.007
  -0.07999425  0.04949390  0.00000000       0.007
  -0.05999569  0.04242334  0.00000000       0.007
  -0.03999712  0.03535278  0.00000000       0.007
  -0.01999856  0.02828223  0.00000000       0.004
   0.03999712  0.02828223  0.00000000       0.002
   0.05999569  0.02121167  0.00000000       0.007
   0.07999425  0.01414111  0.00000000       0.007
   0.09999281  0.00707056  0.00000000       0.007
   0.11999137  0.00000000  0.00000000       0.007
   0.13998993 -0.00707056  0.00000000       0.007
  -0.13998993  0.09191724  0.00000000       0.007
  -0.11999137  0.08484668  0.00000000       0.007
  -0.09999281  0.07777612  0.00000000       0.007
  -0.07999425  0.07070557  0.00000000       0.007
  -0.05999569  0.06363501  0.00000000       0.007
  -0.03999712  0.05656445  0.00000000       0.004
   0.05999569  0.04242334  0.00000000       0.002
   0.07999425  0.03535278  0.00000000       0.007
   0.09999281  0.02828223  0.00000000       0.007
   0.11999137  0.02121167  0.00000000       0.007
   0.13998993  0.01414111  0.00000000       0.007
  -0.13998993  0.11312891  0.00000000       0.007
  -0.11999137  0.10605835  0.00000000       0.007
  -0.09999281  0.09898779  0.00000000       0.007
  -0.07999425  0.09191724  0.00000000       0.007
  -0.05999569  0.08484668  0.00000000       0.004
   0.07999425  0.05656445  0.00000000       0.002
   0.09999281  0.04949390  0.00000000       0.007
   0.11999137  0.04242334  0.00000000       0.007
   0.13998993  0.03535278  0.00000000       0.007
  -0.13998993  0.13434058  0.00000000       0.007
  -0.11999137  0.12727002  0.00000000       0.007
  -0.09999281  0.12019946  0.00000000       0.007
  -0.07999425  0.11312891  0.00000000       0.004
   0.09999281  0.07070557  0.00000000       0.002
   0.11999137  0.06363501  0.00000000       0.007
   0.13998993  0.05656445  0.00000000       0.007
  -0.13998993  0.15555225  0.00000000       0.007
  -0.11999137  0.14848169  0.00000000       0.007
  -0.09999281  0.14141113  0.00000000       0.004
   0.11999137  0.08484668  0.00000000       0.002
   0.13998993  0.07777612  0.00000000       0.007
  -0.13998993  0.17676392  0.00000000       0.007
  -0.11999137  0.16969336  0.00000000       0.004
   0.13998993  0.09898779  0.00000000       0.002
  -0.13998993  0.19797559  0.00000000       0.004
   0.04999641  0.01414111  0.01731927       0.007
   0.06999497  0.00707056  0.01731927       0.014
   0.08999353 -0.00000000  0.01731927       0.014
   0.10999209 -0.00707056  0.01731927       0.014
   0.12999065 -0.01414111  0.01731927       0.014
  -0.14998922  0.08484668  0.01731927       0.014
   0.06999497  0.02828223  0.01731927       0.007
   0.08999353  0.02121167  0.01731927       0.014
   0.10999209  0.01414111  0.01731927       0.014
   0.12999065  0.00707056  0.01731927       0.014
  -0.14998922  0.10605835  0.01731927       0.014
  -0.12999065  0.09898779  0.01731927       0.014
  -0.10999209  0.09191724  0.01731927       0.014
  -0.08999353  0.08484668  0.01731927       0.014
  -0.06999497  0.07777612  0.01731927       0.014
  -0.04999641  0.07070557  0.01731927       0.007
   0.08999353  0.04242334  0.01731927       0.007
   0.10999209  0.03535278  0.01731927       0.014
   0.12999065  0.02828223  0.01731927       0.014
  -0.14998922  0.12727002  0.01731927       0.014
  -0.12999065  0.12019946  0.01731927       0.014
  -0.10999209  0.11312891  0.01731927       0.014
  -0.08999353  0.10605835  0.01731927       0.014
  -0.06999497  0.09898779  0.01731927       0.007
   0.10999209  0.05656445  0.01731927       0.007
   0.12999065  0.04949390  0.01731927       0.014
  -0.14998922  0.14848169  0.01731927       0.014
  -0.12999065  0.14141113  0.01731927       0.014
  -0.10999209  0.13434058  0.01731927       0.014
  -0.08999353  0.12727002  0.01731927       0.007
   0.12999065  0.07070557  0.01731927       0.007
  -0.14998922  0.16969336  0.01731927       0.014
  -0.12999065  0.16262280  0.01731927       0.014
  -0.10999209  0.15555225  0.01731927       0.007
  -0.14998922  0.19090503  0.01731927       0.007
  -0.12999065  0.18383447  0.01731927       0.007
   0.09999281  0.02828223  0.03463853       0.007
   0.11999137  0.02121167  0.03463853       0.014
  -0.15998850  0.12019946  0.03463853       0.014
  -0.13998993  0.11312891  0.03463853       0.014
   0.11999137  0.04242334  0.03463853       0.007
  -0.15998850  0.14141113  0.03463853       0.014
  -0.13998993  0.13434058  0.03463853       0.014
  -0.11999137  0.12727002  0.03463853       0.014
  -0.09999281  0.12019946  0.03463853       0.014
  -0.07999425  0.11312891  0.03463853       0.007
  -0.15998850  0.16262280  0.03463853       0.007
  -0.13998993  0.15555225  0.03463853       0.014
  -0.11999137  0.14848169  0.03463853       0.014
  -0.09999281  0.14141113  0.03463853       0.007
  -0.13998993  0.17676392  0.03463853       0.007
  -0.11999137  0.16969336  0.03463853       0.007
  -0.14998922  0.14848169  0.05195780       0.007
  -0.12999065  0.14141113  0.05195780       0.014
  -0.12999065  0.16262280  0.05195780       0.007
  -0.10999209  0.15555225  0.05195780       0.007
 
 k-points in reciprocal lattice and weights: Automatic                               
   0.00000000  0.00000000  0.00000000       0.000
   0.06666667 -0.00000000  0.00000000       0.002
   0.13333333 -0.00000000  0.00000000       0.002
   0.20000000  0.00000000  0.00000000       0.002
   0.26666667 -0.00000000  0.00000000       0.002
   0.33333333 -0.00000000  0.00000000       0.002
   0.40000000 -0.00000000  0.00000000       0.002
   0.46666667 -0.00000000  0.00000000       0.002
   0.06666667  0.06666667  0.00000000       0.002
   0.13333333  0.06666667  0.00000000       0.007
   0.20000000  0.06666667  0.00000000       0.007
   0.26666667  0.06666667  0.00000000       0.007
   0.33333333  0.06666667  0.00000000       0.007
   0.40000000  0.06666667  0.00000000       0.007
   0.46666667  0.06666667  0.00000000       0.007
  -0.46666667  0.06666667  0.00000000       0.007
  -0.40000000  0.06666667  0.00000000       0.007
  -0.33333333  0.06666667  0.00000000       0.007
  -0.26666667  0.06666667  0.00000000       0.007
  -0.20000000  0.06666667  0.00000000       0.007
  -0.13333333  0.06666667  0.00000000       0.007
  -0.06666667  0.06666667  0.00000000       0.004
   0.13333333  0.13333333  0.00000000       0.002
   0.20000000  0.13333333  0.00000000       0.007
   0.26666667  0.13333333  0.00000000       0.007
   0.33333333  0.13333333  0.00000000       0.007
   0.40000000  0.13333333  0.00000000       0.007
   0.46666667  0.13333333  0.00000000       0.007
  -0.46666667  0.13333333  0.00000000       0.007
  -0.40000000  0.13333333  0.00000000       0.007
  -0.33333333  0.13333333  0.00000000       0.007
  -0.26666667  0.13333333  0.00000000       0.007
  -0.20000000  0.13333333  0.00000000       0.007
  -0.13333333  0.13333333  0.00000000       0.004
   0.20000000  0.20000000  0.00000000       0.002
   0.26666667  0.20000000  0.00000000       0.007
   0.33333333  0.20000000  0.00000000       0.007
   0.40000000  0.20000000  0.00000000       0.007
   0.46666667  0.20000000  0.00000000       0.007
  -0.46666667  0.20000000  0.00000000       0.007
  -0.40000000  0.20000000  0.00000000       0.007
  -0.33333333  0.20000000  0.00000000       0.007
  -0.26666667  0.20000000  0.00000000       0.007
  -0.20000000  0.20000000  0.00000000       0.004
   0.26666667  0.26666667  0.00000000       0.002
   0.33333333  0.26666667  0.00000000       0.007
   0.40000000  0.26666667  0.00000000       0.007
   0.46666667  0.26666667  0.00000000       0.007
  -0.46666667  0.26666667  0.00000000       0.007
  -0.40000000  0.26666667  0.00000000       0.007
  -0.33333333  0.26666667  0.00000000       0.007
  -0.26666667  0.26666667  0.00000000       0.004
   0.33333333  0.33333333  0.00000000       0.002
   0.40000000  0.33333333  0.00000000       0.007
   0.46666667  0.33333333  0.00000000       0.007
  -0.46666667  0.33333333  0.00000000       0.007
  -0.40000000  0.33333333  0.00000000       0.007
  -0.33333333  0.33333333  0.00000000       0.004
   0.40000000  0.40000000  0.00000000       0.002
   0.46666667  0.40000000  0.00000000       0.007
  -0.46666667  0.40000000  0.00000000       0.007
  -0.40000000  0.40000000  0.00000000       0.004
   0.46666667  0.46666667  0.00000000       0.002
  -0.46666667  0.46666667  0.00000000       0.004
   0.20000000  0.13333333  0.06666667       0.007
   0.26666667  0.13333333  0.06666667       0.014
   0.33333333  0.13333333  0.06666667       0.014
   0.40000000  0.13333333  0.06666667       0.014
   0.46666667  0.13333333  0.06666667       0.014
  -0.46666667  0.13333333  0.06666667       0.014
   0.26666667  0.20000000  0.06666667       0.007
   0.33333333  0.20000000  0.06666667       0.014
   0.40000000  0.20000000  0.06666667       0.014
   0.46666667  0.20000000  0.06666667       0.014
  -0.46666667  0.20000000  0.06666667       0.014
  -0.40000000  0.20000000  0.06666667       0.014
  -0.33333333  0.20000000  0.06666667       0.014
  -0.26666667  0.20000000  0.06666667       0.014
  -0.20000000  0.20000000  0.06666667       0.014
  -0.13333333  0.20000000  0.06666667       0.007
   0.33333333  0.26666667  0.06666667       0.007
   0.40000000  0.26666667  0.06666667       0.014
   0.46666667  0.26666667  0.06666667       0.014
  -0.46666667  0.26666667  0.06666667       0.014
  -0.40000000  0.26666667  0.06666667       0.014
  -0.33333333  0.26666667  0.06666667       0.014
  -0.26666667  0.26666667  0.06666667       0.014
  -0.20000000  0.26666667  0.06666667       0.007
   0.40000000  0.33333333  0.06666667       0.007
   0.46666667  0.33333333  0.06666667       0.014
  -0.46666667  0.33333333  0.06666667       0.014
  -0.40000000  0.33333333  0.06666667       0.014
  -0.33333333  0.33333333  0.06666667       0.014
  -0.26666667  0.33333333  0.06666667       0.007
   0.46666667  0.40000000  0.06666667       0.007
  -0.46666667  0.40000000  0.06666667       0.014
  -0.40000000  0.40000000  0.06666667       0.014
  -0.33333333  0.40000000  0.06666667       0.007
  -0.46666667  0.46666667  0.06666667       0.007
  -0.40000000  0.46666667  0.06666667       0.007
   0.40000000  0.26666667  0.13333333       0.007
   0.46666667  0.26666667  0.13333333       0.014
  -0.46666667  0.26666667  0.13333333       0.014
  -0.40000000  0.26666667  0.13333333       0.014
   0.46666667  0.33333333  0.13333333       0.007
  -0.46666667  0.33333333  0.13333333       0.014
  -0.40000000  0.33333333  0.13333333       0.014
  -0.33333333  0.33333333  0.13333333       0.014
  -0.26666667  0.33333333  0.13333333       0.014
  -0.20000000  0.33333333  0.13333333       0.007
  -0.46666667  0.40000000  0.13333333       0.007
  -0.40000000  0.40000000  0.13333333       0.014
  -0.33333333  0.40000000  0.13333333       0.014
  -0.26666667  0.40000000  0.13333333       0.007
  -0.40000000  0.46666667  0.13333333       0.007
  -0.33333333  0.46666667  0.13333333       0.007
  -0.40000000  0.40000000  0.20000000       0.007
  -0.33333333  0.40000000  0.20000000       0.014
  -0.33333333  0.46666667  0.20000000       0.007
  -0.26666667  0.46666667  0.20000000       0.007
 
 position of ions in fractional coordinates (direct lattice) 
   0.87500000  0.87500000  0.87500000
   0.12500000  0.12500000  0.12500000
 
 position of ions in cartesian coordinates  (Angst):
   3.88916850  2.75005850  6.73623650
   0.55559550  0.39286550  0.96231950
 


--------------------------------------------------------------------------------------------------------


 k-point   1 :   0.0000 0.0000 0.0000  plane waves:     609
 k-point   2 :   0.0667-0.0000 0.0000  plane waves:     600
 k-point   3 :   0.1333-0.0000 0.0000  plane waves:     591
 k-point   4 :   0.2000 0.0000 0.0000  plane waves:     591
 k-point   5 :   0.2667-0.0000 0.0000  plane waves:     598
 k-point   6 :   0.3333-0.0000 0.0000  plane waves:     601
 k-point   7 :   0.4000-0.0000 0.0000  plane waves:     601
 k-point   8 :   0.4667-0.0000 0.0000  plane waves:     598
 k-point   9 :   0.0667 0.0667 0.0000  plane waves:     593
 k-point  10 :   0.1333 0.0667 0.0000  plane waves:     590
 k-point  11 :   0.2000 0.0667 0.0000  plane waves:     588
 k-point  12 :   0.2667 0.0667 0.0000  plane waves:     592
 k-point  13 :   0.3333 0.0667 0.0000  plane waves:     602
 k-point  14 :   0.4000 0.0667 0.0000  plane waves:     602
 k-point  15 :   0.4667 0.0667 0.0000  plane waves:     599
 k-point  16 :  -0.4667 0.0667 0.0000  plane waves:     595
 k-point  17 :  -0.4000 0.0667 0.0000  plane waves:     597
 k-point  18 :  -0.3333 0.0667 0.0000  plane waves:     604
 k-point  19 :  -0.2667 0.0667 0.0000  plane waves:     598
 k-point  20 :  -0.2000 0.0667 0.0000  plane waves:     591
 k-point  21 :  -0.1333 0.0667 0.0000  plane waves:     591
 k-point  22 :  -0.0667 0.0667 0.0000  plane waves:     592
 k-point  23 :   0.1333 0.1333 0.0000  plane waves:     593
 k-point  24 :   0.2000 0.1333 0.0000  plane waves:     588
 k-point  25 :   0.2667 0.1333 0.0000  plane waves:     593
 k-point  26 :   0.3333 0.1333 0.0000  plane waves:     600
 k-point  27 :   0.4000 0.1333 0.0000  plane waves:     597
 k-point  28 :   0.4667 0.1333 0.0000  plane waves:     598
 k-point  29 :  -0.4667 0.1333 0.0000  plane waves:     594
 k-point  30 :  -0.4000 0.1333 0.0000  plane waves:     598
 k-point  31 :  -0.3333 0.1333 0.0000  plane waves:     600
 k-point  32 :  -0.2667 0.1333 0.0000  plane waves:     601
 k-point  33 :  -0.2000 0.1333 0.0000  plane waves:     594
 k-point  34 :  -0.1333 0.1333 0.0000  plane waves:     594
 k-point  35 :   0.2000 0.2000 0.0000  plane waves:     584
 k-point  36 :   0.2667 0.2000 0.0000  plane waves:     586
 k-point  37 :   0.3333 0.2000 0.0000  plane waves:     603
 k-point  38 :   0.4000 0.2000 0.0000  plane waves:     600
 k-point  39 :   0.4667 0.2000 0.0000  plane waves:     605
 k-point  40 :  -0.4667 0.2000 0.0000  plane waves:     596
 k-point  41 :  -0.4000 0.2000 0.0000  plane waves:     597
 k-point  42 :  -0.3333 0.2000 0.0000  plane waves:     599
 k-point  43 :  -0.2667 0.2000 0.0000  plane waves:     602
 k-point  44 :  -0.2000 0.2000 0.0000  plane waves:     600
 k-point  45 :   0.2667 0.2667 0.0000  plane waves:     592
 k-point  46 :   0.3333 0.2667 0.0000  plane waves:     599
 k-point  47 :   0.4000 0.2667 0.0000  plane waves:     603
 k-point  48 :   0.4667 0.2667 0.0000  plane waves:     603
 k-point  49 :  -0.4667 0.2667 0.0000  plane waves:     603
 k-point  50 :  -0.4000 0.2667 0.0000  plane waves:     597
 k-point  51 :  -0.3333 0.2667 0.0000  plane waves:     599
 k-point  52 :  -0.2667 0.2667 0.0000  plane waves:     602
 k-point  53 :   0.3333 0.3333 0.0000  plane waves:     612
 k-point  54 :   0.4000 0.3333 0.0000  plane waves:     601
 k-point  55 :   0.4667 0.3333 0.0000  plane waves:     600
 k-point  56 :  -0.4667 0.3333 0.0000  plane waves:     603
 k-point  57 :  -0.4000 0.3333 0.0000  plane waves:     602
 k-point  58 :  -0.3333 0.3333 0.0000  plane waves:     606
 k-point  59 :   0.4000 0.4000 0.0000  plane waves:     608
 k-point  60 :   0.4667 0.4000 0.0000  plane waves:     610
 k-point  61 :  -0.4667 0.4000 0.0000  plane waves:     609
 k-point  62 :  -0.4000 0.4000 0.0000  plane waves:     604
 k-point  63 :   0.4667 0.4667 0.0000  plane waves:     604
 k-point  64 :  -0.4667 0.4667 0.0000  plane waves:     608
 k-point  65 :   0.2000 0.1333 0.0667  plane waves:     590
 k-point  66 :   0.2667 0.1333 0.0667  plane waves:     595
 k-point  67 :   0.3333 0.1333 0.0667  plane waves:     597
 k-point  68 :   0.4000 0.1333 0.0667  plane waves:     599
 k-point  69 :   0.4667 0.1333 0.0667  plane waves:     600
 k-point  70 :  -0.4667 0.1333 0.0667  plane waves:     598
 k-point  71 :   0.2667 0.2000 0.0667  plane waves:     590
 k-point  72 :   0.3333 0.2000 0.0667  plane waves:     595
 k-point  73 :   0.4000 0.2000 0.0667  plane waves:     603
 k-point  74 :   0.4667 0.2000 0.0667  plane waves:     601
 k-point  75 :  -0.4667 0.2000 0.0667  plane waves:     600
 k-point  76 :  -0.4000 0.2000 0.0667  plane waves:     597
 k-point  77 :  -0.3333 0.2000 0.0667  plane waves:     597
 k-point  78 :  -0.2667 0.2000 0.0667  plane waves:     600
 k-point  79 :  -0.2000 0.2000 0.0667  plane waves:     600
 k-point  80 :  -0.1333 0.2000 0.0667  plane waves:     595
 k-point  81 :   0.3333 0.2667 0.0667  plane waves:     599
 k-point  82 :   0.4000 0.2667 0.0667  plane waves:     602
 k-point  83 :   0.4667 0.2667 0.0667  plane waves:     601
 k-point  84 :  -0.4667 0.2667 0.0667  plane waves:     602
 k-point  85 :  -0.4000 0.2667 0.0667  plane waves:     600
 k-point  86 :  -0.3333 0.2667 0.0667  plane waves:     600
 k-point  87 :  -0.2667 0.2667 0.0667  plane waves:     601
 k-point  88 :  -0.2000 0.2667 0.0667  plane waves:     603
 k-point  89 :   0.4000 0.3333 0.0667  plane waves:     597
 k-point  90 :   0.4667 0.3333 0.0667  plane waves:     601
 k-point  91 :  -0.4667 0.3333 0.0667  plane waves:     596
 k-point  92 :  -0.4000 0.3333 0.0667  plane waves:     603
 k-point  93 :  -0.3333 0.3333 0.0667  plane waves:     600
 k-point  94 :  -0.2667 0.3333 0.0667  plane waves:     596
 k-point  95 :   0.4667 0.4000 0.0667  plane waves:     602
 k-point  96 :  -0.4667 0.4000 0.0667  plane waves:     602
 k-point  97 :  -0.4000 0.4000 0.0667  plane waves:     602
 k-point  98 :  -0.3333 0.4000 0.0667  plane waves:     606
 k-point  99 :  -0.4667 0.4667 0.0667  plane waves:     608
 k-point 100 :  -0.4000 0.4667 0.0667  plane waves:     608
 k-point 101 :   0.4000 0.2667 0.1333  plane waves:     599
 k-point 102 :   0.4667 0.2667 0.1333  plane waves:     601
 k-point 103 :  -0.4667 0.2667 0.1333  plane waves:     601
 k-point 104 :  -0.4000 0.2667 0.1333  plane waves:     598
 k-point 105 :   0.4667 0.3333 0.1333  plane waves:     601
 k-point 106 :  -0.4667 0.3333 0.1333  plane waves:     602
 k-point 107 :  -0.4000 0.3333 0.1333  plane waves:     601
 k-point 108 :  -0.3333 0.3333 0.1333  plane waves:     604
 k-point 109 :  -0.2667 0.3333 0.1333  plane waves:     597
 k-point 110 :  -0.2000 0.3333 0.1333  plane waves:     598
 k-point 111 :  -0.4667 0.4000 0.1333  plane waves:     600
 k-point 112 :  -0.4000 0.4000 0.1333  plane waves:     602
 k-point 113 :  -0.3333 0.4000 0.1333  plane waves:     605
 k-point 114 :  -0.2667 0.4000 0.1333  plane waves:     600
 k-point 115 :  -0.4000 0.4667 0.1333  plane waves:     603
 k-point 116 :  -0.3333 0.4667 0.1333  plane waves:     607
 k-point 117 :  -0.4000 0.4000 0.2000  plane waves:     609
 k-point 118 :  -0.3333 0.4000 0.2000  plane waves:     604
 k-point 119 :  -0.3333 0.4667 0.2000  plane waves:     607
 k-point 120 :  -0.2667 0.4667 0.2000  plane waves:     609

 maximum and minimum number of plane-waves per node :       612      584

 maximum number of plane-waves:       612
 maximum index in each direction: 
   IXMAX=    6   IYMAX=    5   IZMAX=    5
   IXMIN=   -6   IYMIN=   -6   IZMIN=   -6


 serial   3D FFT for wavefunctions
 parallel 3D FFT for charge:
    minimum data exchange during FFTs selected (reduces bandwidth)


 total amount of memory used by VASP MPI-rank0    43239. kBytes
=======================================================================

   base      :      30000. kBytes
   nonl-proj :       4719. kBytes
   fftplans  :       4177. kBytes
   grid      :       1926. kBytes
   one-center:          6. kBytes
   wavefun   :       2411. kBytes
 
     INWAV:  cpu time    0.0000: real time    0.0007
 Broyden mixing: mesh for mixing (old mesh)
   NGX = 11   NGY = 11   NGZ = 11
  (NGX  = 48   NGY  = 48   NGZ  = 48)
  gives a total of   1331 points

 initial charge density was supplied:
 charge density of overlapping atoms calculated
 number of electron       8.0000000 magnetization 
 keeping initial charge density in first step


--------------------------------------------------------------------------------------------------------


 Maximum index for augmentation-charges        22271 (set IRDMAX)


--------------------------------------------------------------------------------------------------------


 First call to EWALD:  gamma=   0.517
 Maximum number of real-space cells 3x 3x 3
 Maximum number of reciprocal cells 3x 3x 3

    FEWALD:  cpu time    0.0030: real time    0.0036


--------------------------------------- Iteration      1(   1)  ---------------------------------------


    POTLOK:  cpu time    0.0310: real time    0.0348
    SETDIJ:  cpu time    0.1770: real time    0.1780
     EDDAV:  cpu time    0.9629: real time    0.9633
       DOS:  cpu time    0.0020: real time    0.0026
    --------------------------------------------
      LOOP:  cpu time    1.1728: real time    1.1790

 eigenvalue-minimisations  :  1920
 total energy-change (2. order) : 0.7598019E+00  (-0.2528961E+03)
 number of electron       8.0000000 magnetization 
 augmentation part        8.0000000 magnetization 

 Free energy of the ion-electron system (eV)
  ---------------------------------------------------
  alpha Z        PSCENC =         3.33880741
  Ewald energy   TEWEN  =      -227.98820643
  -Hartree energ DENC   =       -11.11484531
  -exchange      EXHF   =         0.00000000
  -V(xc)+E(xc)   XCENC  =       -18.63153637
  PAW double counting   =       176.24759923     -141.06103558
  entropy T*S    EENTRO =        -0.00100314
  eigenvalues    EBANDS =        13.83876796
  atomic energy  EATOM  =       206.13125414
  Solvation  Ediel_sol  =         0.00000000
  ---------------------------------------------------
  free energy    TOTEN  =         0.75980191 eV

  energy without entropy =        0.76080505  energy(sigma->0) =        0.76030348


--------------------------------------------------------------------------------------------------------




--------------------------------------- Iteration      1(   2)  ---------------------------------------


     EDDAV:  cpu time    1.4348: real time    1.4535
       DOS:  cpu time    0.0020: real time    0.0017
    --------------------------------------------
      LOOP:  cpu time    1.4368: real time    1.4552

 eigenvalue-minimisations  :  3056
 total energy-change (2. order) :-0.1165555E+02  (-0.1130764E+02)
 number of electron       8.0000000 magnetization 
 augmentation part        8.0000000 magnetization 

 Free energy of the ion-electron system (eV)
  ---------------------------------------------------
  alpha Z        PSCENC =         3.33880741
  Ewald energy   TEWEN  =      -227.98820643
  -Hartree energ DENC   =       -11.11484531
  -exchange      EXHF   =         0.00000000
  -V(xc)+E(xc)   XCENC  =       -18.63153637
  PAW double counting   =       176.24759923     -141.06103558
  entropy T*S    EENTRO =        -0.00000000
  eigenvalues    EBANDS =         2.18221125
  atomic energy  EATOM  =       206.13125414
  Solvation  Ediel_sol  =         0.00000000
  ---------------------------------------------------
  free energy    TOTEN  =       -10.89575166 eV

  energy without entropy =      -10.89575166  energy(sigma->0) =      -10.89575166


--------------------------------------------------------------------------------------------------------




--------------------------------------- Iteration      1(   3)  ---------------------------------------


     EDDAV:  cpu time    1.1608: real time    1.1789
       DOS:  cpu time    0.0010: real time    0.0015
    --------------------------------------------
      LOOP:  cpu time    1.1628: real time    1.1805

 eigenvalue-minimisations  :  2384
 total energy-change (2. order) :-0.1251647E+00  (-0.1251647E+00)
 number of electron       8.0000000 magnetization 
 augmentation part        8.0000000 magnetization 

 Free energy of the ion-electron system (eV)
  ---------------------------------------------------
  alpha Z        PSCENC =         3.33880741
  Ewald energy   TEWEN  =      -227.98820643
  -Hartree energ DENC   =       -11.11484531
  -exchange      EXHF   =         0.00000000
  -V(xc)+E(xc)   XCENC  =       -18.63153637
  PAW double counting   =       176.24759923     -141.06103558
  entropy T*S    EENTRO =        -0.00000000
  eigenvalues    EBANDS =         2.05704652
  atomic energy  EATOM  =       206.13125414
  Solvation  Ediel_sol  =         0.00000000
  ---------------------------------------------------
  free energy    TOTEN  =       -11.02091639 eV

  energy without entropy =      -11.02091639  energy(sigma->0) =      -11.02091639


--------------------------------------------------------------------------------------------------------




--------------------------------------- Iteration      1(   4)  ---------------------------------------


     EDDAV:  cpu time    1.5058: real time    1.5238
       DOS:  cpu time    0.0020: real time    0.0014
    --------------------------------------------
      LOOP:  cpu time    1.5068: real time    1.5252

 eigenvalue-minimisations  :  3128
 total energy-change (2. order) :-0.5364290E-03  (-0.5364290E-03)
 number of electron       8.0000000 magnetization 
 augmentation part        8.0000000 magnetization 

 Free energy of the ion-electron system (eV)
  ---------------------------------------------------
  alpha Z        PSCENC =         3.33880741
  Ewald energy   TEWEN  =      -227.98820643
  -Hartree energ DENC   =       -11.11484531
  -exchange      EXHF   =         0.00000000
  -V(xc)+E(xc)   XCENC  =       -18.63153637
  PAW double counting   =       176.24759923     -141.06103558
  entropy T*S    EENTRO =        -0.00000000
  eigenvalues    EBANDS =         2.05651009
  atomic energy  EATOM  =       206.13125414
  Solvation  Ediel_sol  =         0.00000000
  ---------------------------------------------------
  free energy    TOTEN  =       -11.02145282 eV

  energy without entropy =      -11.02145282  energy(sigma->0) =      -11.02145282


--------------------------------------------------------------------------------------------------------




--------------------------------------- Iteration      1(   5)  ---------------------------------------


     EDDAV:  cpu time    1.2288: real time    1.2411
       DOS:  cpu time    0.0000: real time    0.0014
    CHARGE:  cpu time    0.0850: real time    0.0853
    MIXING:  cpu time    0.0020: real time    0.0016
    --------------------------------------------
      LOOP:  cpu time    1.3158: real time    1.3294

 eigenvalue-minimisations  :  2464
 total energy-change (2. order) :-0.7698050E-06  (-0.7698330E-06)
 number of electron       8.0000000 magnetization 
 augmentation part       -0.4703846 magnetization 

 Broyden mixing:
  rms(total) = 0.48589E+00    rms(broyden)= 0.48588E+00
  rms(prec ) = 0.94657E+00
  weight for this iteration     100.00

 Free energy of the ion-electron system (eV)
  ---------------------------------------------------
  alpha Z        PSCENC =         3.33880741
  Ewald energy   TEWEN  =      -227.98820643
  -Hartree energ DENC   =       -11.11484531
  -exchange      EXHF   =         0.00000000
  -V(xc)+E(xc)   XCENC  =       -18.63153637
  PAW double counting   =       176.24759923     -141.06103558
  entropy T*S    EENTRO =        -0.00000000
  eigenvalues    EBANDS =         2.05650932
  atomic energy  EATOM  =       206.13125414
  Solvation  Ediel_sol  =         0.00000000
  ---------------------------------------------------
  free energy    TOTEN  =       -11.02145359 eV

  energy without entropy =      -11.02145359  energy(sigma->0) =      -11.02145359


--------------------------------------------------------------------------------------------------------




--------------------------------------- Iteration      1(   6)  ---------------------------------------


    POTLOK:  cpu time    0.0320: real time    0.0430
    SETDIJ:  cpu time    0.1740: real time    0.1747
     EDDAV:  cpu time    1.1378: real time    1.1389
       DOS:  cpu time    0.0010: real time    0.0018
    CHARGE:  cpu time    0.0790: real time    0.0784
    MIXING:  cpu time    0.0010: real time    0.0016
    --------------------------------------------
      LOOP:  cpu time    1.4248: real time    1.4384

 eigenvalue-minimisations  :  2344
 total energy-change (2. order) : 0.1215031E+00  (-0.8002921E-02)
 number of electron       8.0000000 magnetization 
 augmentation part       -0.4646281 magnetization 

 Broyden mixing:
  rms(total) = 0.29726E+00    rms(broyden)= 0.29726E+00
  rms(prec ) = 0.56298E+00
  weight for this iteration     100.00

 eigenvalues of (default mixing * dielectric matrix)
  average eigenvalue GAMMA=   2.5664
  2.5664

 Free energy of the ion-electron system (eV)
  ---------------------------------------------------
  alpha Z        PSCENC =         3.33880741
  Ewald energy   TEWEN  =      -227.98820643
  -Hartree energ DENC   =       -12.60001802
  -exchange      EXHF   =         0.00000000
  -V(xc)+E(xc)   XCENC  =       -18.39630624
  PAW double counting   =       378.74212575     -343.66360962
  entropy T*S    EENTRO =        -0.00000000
  eigenvalues    EBANDS =         3.53600255
  atomic energy  EATOM  =       206.13125414
  Solvation  Ediel_sol  =         0.00000000
  ---------------------------------------------------
  free energy    TOTEN  =       -10.89995047 eV

  energy without entropy =      -10.89995047  energy(sigma->0) =      -10.89995047


--------------------------------------------------------------------------------------------------------




--------------------------------------- Iteration      1(   7)  ---------------------------------------


    POTLOK:  cpu time    0.0320: real time    0.0507
    SETDIJ:  cpu time    0.1730: real time    0.1728
     EDDAV:  cpu time    1.1988: real time    1.1998
       DOS:  cpu time    0.0000: real time    0.0016
    CHARGE:  cpu time    0.0790: real time    0.0783
    MIXING:  cpu time    0.0010: real time    0.0016
    --------------------------------------------
      LOOP:  cpu time    1.4838: real time    1.5047

 eigenvalue-minimisations  :  2472
 total energy-change (2. order) : 0.5555333E-01  (-0.1520297E-01)
 number of electron       8.0000000 magnetization 
 augmentation part       -0.4576286 magnetization 

 Broyden mixing:
  rms(total) = 0.18593E-01    rms(broyden)= 0.18593E-01
  rms(prec ) = 0.41264E-01
  weight for this iteration     100.00

 eigenvalues of (default mixing * dielectric matrix)
  average eigenvalue GAMMA=   2.0677
  1.7522  2.3832

 Free energy of the ion-electron system (eV)
  ---------------------------------------------------
  alpha Z        PSCENC =         3.33880741
  Ewald energy   TEWEN  =      -227.98820643
  -Hartree energ DENC   =       -15.02715015
  -exchange      EXHF   =         0.00000000
  -V(xc)+E(xc)   XCENC  =       -18.00432434
  PAW double counting   =       862.88900245     -827.95025184
  entropy T*S    EENTRO =        -0.00000000
  eigenvalues    EBANDS =         5.76647161
  atomic energy  EATOM  =       206.13125414
  Solvation  Ediel_sol  =         0.00000000
  ---------------------------------------------------
  free energy    TOTEN  =       -10.84439714 eV

  energy without entropy =      -10.84439714  energy(sigma->0) =      -10.84439714


--------------------------------------------------------------------------------------------------------




--------------------------------------- Iteration      1(   8)  ---------------------------------------


    POTLOK:  cpu time    0.0320: real time    0.0443
    SETDIJ:  cpu time    0.1730: real time    0.1733
     EDDAV:  cpu time    1.0508: real time    1.0524
       DOS:  cpu time    0.0020: real time    0.0016
    CHARGE:  cpu time    0.0780: real time    0.0783
    MIXING:  cpu time    0.0010: real time    0.0016
    --------------------------------------------
      LOOP:  cpu time    1.3378: real time    1.3515

 eigenvalue-minimisations  :  2136
 total energy-change (2. order) :-0.1059836E-02  (-0.3837205E-03)
 number of electron       8.0000000 magnetization 
 augmentation part       -0.4585914 magnetization 

 Broyden mixing:
  rms(total) = 0.74046E-02    rms(broyden)= 0.74043E-02
  rms(prec ) = 0.13164E-01
  weight for this iteration     100.00

 eigenvalues of (default mixing * dielectric matrix)
  average eigenvalue GAMMA=   2.2610
  2.8574  1.9628  1.9628

 Free energy of the ion-electron system (eV)
  ---------------------------------------------------
  alpha Z        PSCENC =         3.33880741
  Ewald energy   TEWEN  =      -227.98820643
  -Hartree energ DENC   =       -14.95484891
  -exchange      EXHF   =         0.00000000
  -V(xc)+E(xc)   XCENC  =       -18.00440603
  PAW double counting   =       872.60727312     -837.64174388
  entropy T*S    EENTRO =        -0.00000000
  eigenvalues    EBANDS =         5.66641360
  atomic energy  EATOM  =       206.13125414
  Solvation  Ediel_sol  =         0.00000000
  ---------------------------------------------------
  free energy    TOTEN  =       -10.84545697 eV

  energy without entropy =      -10.84545697  energy(sigma->0) =      -10.84545697


--------------------------------------------------------------------------------------------------------




--------------------------------------- Iteration      1(   9)  ---------------------------------------


    POTLOK:  cpu time    0.0320: real time    0.0514
    SETDIJ:  cpu time    0.1730: real time    0.1729
     EDDAV:  cpu time    1.3618: real time    1.3632
       DOS:  cpu time    0.0010: real time    0.0018
    CHARGE:  cpu time    0.0790: real time    0.0786
    MIXING:  cpu time    0.0010: real time    0.0015
    --------------------------------------------
      LOOP:  cpu time    1.6467: real time    1.6695

 eigenvalue-minimisations  :  2888
 total energy-change (2. order) :-0.1924406E-03  (-0.1898713E-04)
 number of electron       8.0000000 magnetization 
 augmentation part       -0.4587058 magnetization 

 Broyden mixing:
  rms(total) = 0.57155E-02    rms(broyden)= 0.57155E-02
  rms(prec ) = 0.65888E-02
  weight for this iteration     100.00

 eigenvalues of (default mixing * dielectric matrix)
  average eigenvalue GAMMA=   2.1135
  0.9401  2.5703  2.5703  2.3733

 Free energy of the ion-electron system (eV)
  ---------------------------------------------------
  alpha Z        PSCENC =         3.33880741
  Ewald energy   TEWEN  =      -227.98820643
  -Hartree energ DENC   =       -14.99851082
  -exchange      EXHF   =         0.00000000
  -V(xc)+E(xc)   XCENC  =       -17.99589645
  PAW double counting   =       875.04315717     -840.07532969
  entropy T*S    EENTRO =        -0.00000000
  eigenvalues    EBANDS =         5.69907525
  atomic energy  EATOM  =       206.13125414
  Solvation  Ediel_sol  =         0.00000000
  ---------------------------------------------------
  free energy    TOTEN  =       -10.84564942 eV

  energy without entropy =      -10.84564942  energy(sigma->0) =      -10.84564942


--------------------------------------------------------------------------------------------------------




--------------------------------------- Iteration      1(  10)  ---------------------------------------


    POTLOK:  cpu time    0.0310: real time    0.0502
    SETDIJ:  cpu time    0.1730: real time    0.1729
     EDDAV:  cpu time    1.1038: real time    1.1049
       DOS:  cpu time    0.0020: real time    0.0016
    CHARGE:  cpu time    0.0770: real time    0.0783
    MIXING:  cpu time    0.0020: real time    0.0017
    --------------------------------------------
      LOOP:  cpu time    1.3888: real time    1.4096

 eigenvalue-minimisations  :  2248
 total energy-change (2. order) :-0.2560284E-04  (-0.3057699E-05)
 number of electron       8.0000000 magnetization 
 augmentation part       -0.4586844 magnetization 

 Broyden mixing:
  rms(total) = 0.10004E-02    rms(broyden)= 0.10004E-02
  rms(prec ) = 0.10837E-02
  weight for this iteration     100.00

 eigenvalues of (default mixing * dielectric matrix)
  average eigenvalue GAMMA=   1.9090
  2.9016  2.4351  2.0729  1.0677  1.0677

 Free energy of the ion-electron system (eV)
  ---------------------------------------------------
  alpha Z        PSCENC =         3.33880741
  Ewald energy   TEWEN  =      -227.98820643
  -Hartree energ DENC   =       -15.00582192
  -exchange      EXHF   =         0.00000000
  -V(xc)+E(xc)   XCENC  =       -17.99566544
  PAW double counting   =       863.31768518     -828.34969238
  entropy T*S    EENTRO =        -0.00000000
  eigenvalues    EBANDS =         5.70596442
  atomic energy  EATOM  =       206.13125414
  Solvation  Ediel_sol  =         0.00000000
  ---------------------------------------------------
  free energy    TOTEN  =       -10.84567502 eV

  energy without entropy =      -10.84567502  energy(sigma->0) =      -10.84567502


--------------------------------------------------------------------------------------------------------




--------------------------------------- Iteration      1(  11)  ---------------------------------------


    POTLOK:  cpu time    0.0320: real time    0.0510
    SETDIJ:  cpu time    0.1730: real time    0.1733
     EDDAV:  cpu time    1.2788: real time    1.2801
       DOS:  cpu time    0.0010: real time    0.0016
    --------------------------------------------
      LOOP:  cpu time    1.4858: real time    1.5060

 eigenvalue-minimisations  :  2664
 total energy-change (2. order) : 0.3571878E-06  (-0.5432719E-07)
 number of electron       8.0000000 magnetization 
 augmentation part       -0.4586844 magnetization 

 Free energy of the ion-electron system (eV)
  ---------------------------------------------------
  alpha Z        PSCENC =         3.33880741
  Ewald energy   TEWEN  =      -227.98820643
  -Hartree energ DENC   =       -15.00451115
  -exchange      EXHF   =         0.00000000
  -V(xc)+E(xc)   XCENC  =       -17.99569749
  PAW double counting   =       864.81717980     -829.84873633
  entropy T*S    EENTRO =        -0.00000000
  eigenvalues    EBANDS =         5.70423539
  atomic energy  EATOM  =       206.13125414
  Solvation  Ediel_sol  =         0.00000000
  ---------------------------------------------------
  free energy    TOTEN  =       -10.84567466 eV

  energy without entropy =      -10.84567466  energy(sigma->0) =      -10.84567466


--------------------------------------------------------------------------------------------------------




 average (electrostatic) potential at core
  the test charge radii are     0.9892
  (the norm of the test charge is              1.0000)
       1 -83.3297       2 -83.3297
 
 
 
 E-fermi :   5.9953     XC(G=0):  -9.3816     alpha+bet :-11.8943

 Fermi energy:         5.9953003322

 k-point     1 :       0.0000    0.0000    0.0000
  band No.  band energies     occupation 
      1      -6.1551      2.00000
      2       5.7539      2.00000
      3       5.7539      2.00000
      4       5.7539      2.00000
      5       8.3173      0.00000
      6       8.3173      0.00000
      7       8.3173      0.00000
      8       9.0440      0.00000

 k-point     2 :       0.0667   -0.0000    0.0000
  band No.  band energies     occupation 
      1      -6.0971      2.00000
      2       5.1619      2.00000
      3       5.6595      2.00000
      4       5.6595      2.00000
      5       8.3714      0.00000
      6       8.4563      0.00000
      7       8.4563      0.00000
      8       9.4841      0.00000

 k-point     3 :       0.1333   -0.0000    0.0000
  band No.  band energies     occupation 
      1      -5.9244      2.00000
      2       4.0050      2.00000
      3       5.4361      2.00000
      4       5.4361      2.00000
      5       8.2105      0.00000
      6       8.7841      0.00000
      7       8.7842      0.00000
      8      10.5529      0.00000

 k-point     4 :       0.2000    0.0000    0.0000
  band No.  band energies     occupation 
      1      -5.6409      2.00000
      2       2.7561      2.00000
      3       5.1791      2.00000
      4       5.1791      2.00000
      5       7.9538      0.00000
      6       9.1135      0.00000
      7       9.1135      0.00000
      8      11.7490      0.00000

 k-point     5 :       0.2667   -0.0000    0.0000
  band No.  band energies     occupation 
      1      -5.2553      2.00000
      2       1.5482      2.00000
      3       4.9453      2.00000
      4       4.9453      2.00000
      5       7.7016      0.00000
      6       9.2788      0.00000
      7       9.2788      0.00000
      8      12.8873      0.00000

 k-point     6 :       0.3333   -0.0000    0.0000
  band No.  band energies     occupation 
      1      -4.7875      2.00000
      2       0.4438      2.00000
      3       4.7603      2.00000
      4       4.7603      2.00000
      5       7.4951      0.00000
      6       9.2625      0.00000
      7       9.2625      0.00000
      8      13.5963      0.00000

 k-point     7 :       0.4000   -0.0000    0.0000
  band No.  band energies     occupation 
      1      -4.2885      2.00000
      2      -0.4870      2.00000
      3       4.6344      2.00000
      4       4.6344      2.00000
      5       7.3516      0.00000
      6       9.1743      0.00000
      7       9.1743      0.00000
      8      13.5844      0.00000

 k-point     8 :       0.4667   -0.0000    0.0000
  band No.  band energies     occupation 
      1      -3.9032      2.00000
      2      -1.0902      2.00000
      3       4.5709      2.00000
      4       4.5709      2.00000
      5       7.2787      0.00000
      6       9.1091      0.00000
      7       9.1091      0.00000
      8      13.4887      0.00000

 k-point     9 :       0.0667    0.0667    0.0000
  band No.  band energies     occupation 
      1      -6.0778      2.00000
      2       5.2789      2.00000
      3       5.4628      2.00000
      4       5.4628      2.00000
      5       8.1370      0.00000
      6       8.7043      0.00000
      7       8.7043      0.00000
      8       9.4954      0.00000

 k-point    10 :       0.1333    0.0667    0.0000
  band No.  band energies     occupation 
      1      -5.9431      2.00000
      2       4.3476      2.00000
      3       5.1860      2.00000
      4       5.3583      2.00000
      5       8.1359      0.00000
      6       8.7943      0.00000
      7       9.1039      0.00000
      8      10.2576      0.00000

 k-point    11 :       0.2000    0.0667    0.0000
  band No.  band energies     occupation 
      1      -5.6960      2.00000
      2       3.1506      2.00000
      3       4.9124      2.00000
      4       5.1412      2.00000
      5       8.2301      0.00000
      6       8.7859      0.00000
      7       9.4906      0.00000
      8      11.0986      0.00000

 k-point    12 :       0.2667    0.0667    0.0000
  band No.  band energies     occupation 
      1      -5.3432      2.00000
      2       1.9440      2.00000
      3       4.6856      2.00000
      4       4.8683      2.00000
      5       8.1026      0.00000
      6       8.9590      0.00000
      7       9.7006      0.00000
      8      11.5414      0.00000

 k-point    13 :       0.3333    0.0667    0.0000
  band No.  band energies     occupation 
      1      -4.8996      2.00000
      2       0.8119      2.00000
      3       4.5253      2.00000
      4       4.6063      2.00000
      5       7.9136      0.00000
      6       9.0431      0.00000
      7       9.6842      0.00000
      8      12.1035      0.00000

 k-point    14 :       0.4000    0.0667    0.0000
  band No.  band energies     occupation 
      1      -4.4017      2.00000
      2      -0.1804      2.00000
      3       4.3860      2.00000
      4       4.4386      2.00000
      5       7.7598      0.00000
      6       9.0244      0.00000
      7       9.5426      0.00000
      8      12.9119      0.00000

 k-point    15 :       0.4667    0.0667    0.0000
  band No.  band energies     occupation 
      1      -3.9517      2.00000
      2      -0.9165      2.00000
      3       4.2218      2.00000
      4       4.4264      2.00000
      5       7.6668      0.00000
      6       9.0099      0.00000
      7       9.3888      0.00000
      8      13.5526      0.00000

 k-point    16 :      -0.4667    0.0667    0.0000
  band No.  band energies     occupation 
      1      -3.7974      2.00000
      2      -1.1425      2.00000
      3       4.1225      2.00000
      4       4.4858      2.00000
      5       7.6427      0.00000
      6       9.0580      0.00000
      7       9.2836      0.00000
      8      13.6856      0.00000

 k-point    17 :      -0.4000    0.0667    0.0000
  band No.  band energies     occupation 
      1      -4.0850      2.00000
      2      -0.7107      2.00000
      3       4.0942      2.00000
      4       4.6112      2.00000
      5       7.6894      0.00000
      6       9.1787      0.00000
      7       9.2433      0.00000
      8      13.6636      0.00000

 k-point    18 :      -0.3333    0.0667    0.0000
  band No.  band energies     occupation 
      1      -4.5703      2.00000
      2       0.1314      2.00000
      3       4.1419      2.00000
      4       4.7949      2.00000
      5       7.8049      0.00000
      6       9.2435      0.00000
      7       9.3422      0.00000
      8      13.2738      0.00000

 k-point    19 :      -0.2667    0.0667    0.0000
  band No.  band energies     occupation 
      1      -5.0566      2.00000
      2       1.1784      2.00000
      3       4.2686      2.00000
      4       5.0254      2.00000
      5       7.9832      0.00000
      6       9.2086      0.00000
      7       9.4629      0.00000
      8      12.5275      0.00000

 k-point    20 :      -0.2000    0.0667    0.0000
  band No.  band energies     occupation 
      1      -5.4724      2.00000
      2       2.3388      2.00000
      3       4.4753      2.00000
      4       5.2826      2.00000
      5       8.2091      0.00000
      6       9.0343      0.00000
      7       9.3903      0.00000
      8      11.8085      0.00000

 k-point    21 :      -0.1333    0.0667    0.0000
  band No.  band energies     occupation 
      1      -5.7909      2.00000
      2       3.5378      2.00000
      3       4.7635      2.00000
      4       5.5263      2.00000
      5       8.4464      0.00000
      6       8.7305      0.00000
      7       9.0479      0.00000
      8      11.0170      0.00000

 k-point    22 :      -0.0667    0.0667    0.0000
  band No.  band energies     occupation 
      1      -6.0009      2.00000
      2       4.6009      2.00000
      3       5.1702      2.00000
      4       5.6813      2.00000
      5       8.4764      0.00000
      6       8.5893      0.00000
      7       8.6112      0.00000
      8      10.0946      0.00000

 k-point    23 :       0.1333    0.1333    0.0000
  band No.  band energies     occupation 
      1      -5.8466      2.00000
      2       4.2778      2.00000
      3       4.8776      2.00000
      4       4.8776      2.00000
      5       7.7095      0.00000
      6       9.5718      0.00000
      7       9.5718      0.00000
      8      10.1308      0.00000

 k-point    24 :       0.2000    0.1333    0.0000
  band No.  band energies     occupation 
      1      -5.6367      2.00000
      2       3.3926      2.00000
      3       4.5867      2.00000
      4       4.6619      2.00000
      5       7.6762      0.00000
      6       9.6189      0.00000
      7      10.0422      0.00000
      8      10.3891      0.00000

 k-point    25 :       0.2667    0.1333    0.0000
  band No.  band energies     occupation 
      1      -5.3185      2.00000
      2       2.2876      2.00000
      3       4.3525      2.00000
      4       4.3757      2.00000
      5       7.8708      0.00000
      6       9.5352      0.00000
      7      10.3489      0.00000
      8      10.4088      0.00000

 k-point    26 :       0.3333    0.1333    0.0000
  band No.  band energies     occupation 
      1      -4.9033      2.00000
      2       1.1840      2.00000
      3       4.0466      2.00000
      4       4.1937      2.00000
      5       7.9724      0.00000
      6       9.5402      0.00000
      7      10.3930      0.00000
      8      10.6242      0.00000

 k-point    27 :       0.4000    0.1333    0.0000
  band No.  band energies     occupation 
      1      -4.4170      2.00000
      2       0.1709      2.00000
      3       3.7399      2.00000
      4       4.1180      2.00000
      5       7.9490      0.00000
      6       9.4662      0.00000
      7      10.2485      0.00000
      8      11.3419      0.00000

 k-point    28 :       0.4667    0.1333    0.0000
  band No.  band energies     occupation 
      1      -3.9309      2.00000
      2      -0.6527      2.00000
      3       3.4871      2.00000
      4       4.1268      2.00000
      5       7.9222      0.00000
      6       9.3814      0.00000
      7      10.0460      0.00000
      8      12.3644      0.00000

 k-point    29 :      -0.4667    0.1333    0.0000
  band No.  band energies     occupation 
      1      -3.6431      2.00000
      2      -1.0756      2.00000
      3       3.3050      2.00000
      4       4.2174      2.00000
      5       7.9542      0.00000
      6       9.3537      0.00000
      7       9.8658      0.00000
      8      13.4806      0.00000

 k-point    30 :      -0.4000    0.1333    0.0000
  band No.  band energies     occupation 
      1      -3.8022      2.00000
      2      -0.8453      2.00000
      3       3.2051      2.00000
      4       4.3829      2.00000
      5       8.0577      0.00000
      6       9.4023      0.00000
[...]
      8      11.7803      0.00000

 k-point    86 :      -0.3333    0.2667    0.0667
  band No.  band energies     occupation 
      1      -3.4476      2.00000
      2      -0.8533      2.00000
      3       1.8542      2.00000
      4       3.6805      2.00000
      5       7.9530      0.00000
      6       9.9124      0.00000
      7      11.5863      0.00000
      8      12.3348      0.00000

 k-point    87 :      -0.2667    0.2667    0.0667
  band No.  band energies     occupation 
      1      -3.9026      2.00000
      2      -0.2206      2.00000
      3       1.9029      2.00000
      4       3.9459      2.00000
      5       8.2453      0.00000
      6       9.7613      0.00000
      7      11.2003      0.00000
      8      11.5468      0.00000

 k-point    88 :      -0.2000    0.2667    0.0667
  band No.  band energies     occupation 
      1      -4.3894      2.00000
      2       0.4741      2.00000
      3       2.2035      2.00000
      4       4.2561      2.00000
      5       8.5658      0.00000
      6       9.3991      0.00000
      7      10.6597      0.00000
      8      11.1182      0.00000

 k-point    89 :       0.4000    0.3333    0.0667
  band No.  band energies     occupation 
      1      -4.2638      2.00000
      2       0.5214      2.00000
      3       2.9737      2.00000
      4       3.2566      2.00000
      5       6.8174      0.00000
      6       7.9558      0.00000
      7      11.9602      0.00000
      8      12.7704      0.00000

 k-point    90 :       0.4667    0.3333    0.0667
  band No.  band energies     occupation 
      1      -3.8044      2.00000
      2      -0.1361      2.00000
      3       2.5001      2.00000
      4       3.0942      2.00000
      5       7.0962      0.00000
      6       8.1933      0.00000
      7      11.7697      0.00000
      8      13.1083      0.00000

 k-point    91 :      -0.4667    0.3333    0.0667
  band No.  band energies     occupation 
      1      -3.3089      2.00000
      2      -0.7641      2.00000
      3       2.0065      2.00000
      4       3.0661      2.00000
      5       7.2237      0.00000
      6       9.0362      0.00000
      7      11.5282      0.00000
      8      13.0989      0.00000

 k-point    92 :      -0.4000    0.3333    0.0667
  band No.  band energies     occupation 
      1      -2.9298      2.00000
      2      -1.1970      2.00000
      3       1.6229      2.00000
      4       3.1554      2.00000
      5       7.3601      0.00000
      6      10.1758      0.00000
      7      11.3172      0.00000
      8      12.9577      0.00000

 k-point    93 :      -0.3333    0.3333    0.0667
  band No.  band energies     occupation 
      1      -2.9945      2.00000
      2      -1.1159      2.00000
      3       1.4219      2.00000
      4       3.3461      2.00000
      5       7.5819      0.00000
      6      10.9516      0.00000
      7      11.6357      0.00000
      8      12.3590      0.00000

 k-point    94 :      -0.2667    0.3333    0.0667
  band No.  band energies     occupation 
      1      -3.4184      2.00000
      2      -0.6605      2.00000
      3       1.4836      2.00000
      4       3.6197      2.00000
      5       7.8894      0.00000
      6      10.6097      0.00000
      7      11.4624      0.00000
      8      12.3424      0.00000

 k-point    95 :       0.4667    0.4000    0.0667
  band No.  band energies     occupation 
      1      -3.4801      2.00000
      2      -0.5518      2.00000
      3       2.7225      2.00000
      4       2.8811      2.00000
      5       6.6682      0.00000
      6       7.3226      0.00000
      7      13.0776      0.00000
      8      14.0251      0.00000

 k-point    96 :      -0.4667    0.4000    0.0667
  band No.  band energies     occupation 
      1      -2.9860      2.00000
      2      -1.1052      2.00000
      3       2.2317      2.00000
      4       2.8091      2.00000
      5       6.9292      0.00000
      6       7.7920      0.00000
      7      12.8631      0.00000
      8      14.3258      0.00000

 k-point    97 :      -0.4000    0.4000    0.0667
  band No.  band energies     occupation 
      1      -2.5453      2.00000
      2      -1.5382      2.00000
      3       1.7197      2.00000
      4       2.8897      2.00000
      5       7.0651      0.00000
      6       8.8314      0.00000
      7      12.6105      0.00000
      8      13.7922      0.00000

 k-point    98 :      -0.3333    0.4000    0.0667
  band No.  band energies     occupation 
      1      -2.5771      2.00000
      2      -1.4813      2.00000
      3       1.4017      2.00000
      4       3.0740      2.00000
      5       7.2764      0.00000
      6      10.0959      0.00000
      7      12.2063      0.00000
      8      12.6796      0.00000

 k-point    99 :      -0.4667    0.4667    0.0667
  band No.  band energies     occupation 
      1      -2.5850      2.00000
      2      -1.5993      2.00000
      3       2.6189      2.00000
      4       2.6699      2.00000
      5       6.6905      0.00000
      6       6.9034      0.00000
      7      14.2422      0.00000
      8      15.0930      0.00000

 k-point   100 :      -0.4000    0.4667    0.0667
  band No.  band energies     occupation 
      1      -2.1676      2.00000
      2      -1.9774      2.00000
      3       2.1392      2.00000
      4       2.7170      2.00000
      5       6.8753      0.00000
      6       7.6551      0.00000
      7      13.9318      0.00000
      8      14.1147      0.00000

 k-point   101 :       0.4000    0.2667    0.1333
  band No.  band energies     occupation 
      1      -4.7185      2.00000
      2       1.0685      2.00000
      3       2.7786      2.00000
      4       4.0610      2.00000
      5       8.1246      0.00000
      6       9.4674      0.00000
      7       9.7578      0.00000
      8      11.3606      0.00000

 k-point   102 :       0.4667    0.2667    0.1333
  band No.  band energies     occupation 
      1      -4.2613      2.00000
      2       0.3043      2.00000
      3       2.3841      2.00000
      4       3.7855      2.00000
      5       8.4448      0.00000
      6       9.4157      0.00000
      7       9.8989      0.00000
      8      11.7197      0.00000

 k-point   103 :      -0.4667    0.2667    0.1333
  band No.  band energies     occupation 
      1      -3.7685      2.00000
      2      -0.4597      2.00000
      3       2.1858      2.00000
      4       3.5490      2.00000
      5       8.5732      0.00000
      6       9.1221      0.00000
      7      10.7945      0.00000
      8      11.8023      0.00000

 k-point   104 :      -0.4000    0.2667    0.1333
  band No.  band energies     occupation 
      1      -3.3781      2.00000
      2      -1.0024      2.00000
      3       2.1056      2.00000
      4       3.4153      2.00000
      5       8.6878      0.00000
      6       8.8753      0.00000
      7      11.7738      0.00000
      8      11.9825      0.00000

 k-point   105 :       0.4667    0.3333    0.1333
  band No.  band energies     occupation 
      1      -4.0819      2.00000
      2       0.2164      2.00000
      3       2.4129      2.00000
      4       3.3134      2.00000
      5       7.8412      0.00000
      6       8.7926      0.00000
      7      10.5213      0.00000
      8      12.6779      0.00000

 k-point   106 :      -0.4667    0.3333    0.1333
  band No.  band energies     occupation 
      1      -3.5929      2.00000
      2      -0.4227      2.00000
      3       2.0435      2.00000
      4       3.0629      2.00000
      5       8.1631      0.00000
      6       9.3352      0.00000
      7      10.2466      0.00000
      8      13.0460      0.00000

 k-point   107 :      -0.4000    0.3333    0.1333
  band No.  band energies     occupation 
      1      -3.1383      2.00000
      2      -0.9813      2.00000
      3       1.7897      2.00000
      4       2.9474      2.00000
      5       8.3066      0.00000
      6       9.8714      0.00000
      7      10.5042      0.00000
      8      13.0909      0.00000

 k-point   108 :      -0.3333    0.3333    0.1333
  band No.  band energies     occupation 
      1      -2.9893      2.00000
      2      -1.1527      2.00000
      3       1.6477      2.00000
      4       2.9920      2.00000
      5       8.4904      0.00000
      6       9.6911      0.00000
      7      11.6667      0.00000
      8      12.1088      0.00000

 k-point   109 :      -0.2667    0.3333    0.1333
  band No.  band energies     occupation 
      1      -3.3075      2.00000
      2      -0.7768      2.00000
      3       1.6521      2.00000
      4       3.1768      2.00000
      5       8.7524      0.00000
      6       9.5106      0.00000
      7      10.7927      0.00000
      8      12.9261      0.00000

 k-point   110 :      -0.2000    0.3333    0.1333
  band No.  band energies     occupation 
      1      -3.7924      2.00000
      2      -0.2060      2.00000
      3       1.8742      2.00000
      4       3.4624      2.00000
      5       9.0784      0.00000
      6       9.1504      0.00000
      7      10.0147      0.00000
      8      12.5370      0.00000

 k-point   111 :      -0.4667    0.4000    0.1333
  band No.  band energies     occupation 
      1      -3.3311      2.00000
      2      -0.6737      2.00000
      3       2.2058      2.00000
      4       2.7219      2.00000
      5       7.6884      0.00000
      6       8.2293      0.00000
      7      11.4974      0.00000
      8      14.0042      0.00000

 k-point   112 :      -0.4000    0.4000    0.1333
  band No.  band energies     occupation 
      1      -2.8428      2.00000
      2      -1.1847      2.00000
      3       1.8427      2.00000
      4       2.5642      2.00000
      5       7.9814      0.00000
      6       9.0085      0.00000
      7      11.2196      0.00000
      8      13.5426      0.00000

 k-point   113 :      -0.3333    0.4000    0.1333
  band No.  band energies     occupation 
      1      -2.5718      2.00000
      2      -1.4481      2.00000
      3       1.5341      2.00000
      4       2.6348      2.00000
      5       8.1611      0.00000
      6      10.1609      0.00000
      7      11.0219      0.00000
      8      12.1573      0.00000

 k-point   114 :      -0.2667    0.4000    0.1333
  band No.  band energies     occupation 
      1      -2.8381      2.00000
      2      -1.1804      2.00000
      3       1.4380      2.00000
      4       2.8535      2.00000
      5       8.4187      0.00000
      6      10.4579      0.00000
      7      11.0389      0.00000
      8      11.7477      0.00000

 k-point   115 :      -0.4000    0.4667    0.1333
  band No.  band energies     occupation 
      1      -2.4889      2.00000
      2      -1.5888      2.00000
      3       2.1758      2.00000
      4       2.3421      2.00000
      5       7.6904      0.00000
      6       7.8653      0.00000
      7      12.5860      0.00000
      8      13.7665      0.00000

 k-point   116 :      -0.3333    0.4667    0.1333
  band No.  band energies     occupation 
      1      -2.1914      2.00000
      2      -1.8373      2.00000
      3       1.7782      2.00000
      4       2.3871      2.00000
      5       7.9190      0.00000
      6       8.8996      0.00000
      7      12.2547      0.00000
      8      12.4074      0.00000

 k-point   117 :      -0.4000    0.4000    0.2000
  band No.  band energies     occupation 
      1      -3.1051      2.00000
      2      -0.8929      2.00000
      3       1.7312      2.00000
      4       2.6990      2.00000
      5       9.0082      0.00000
      6       9.4052      0.00000
      7       9.9984      0.00000
      8      13.3321      0.00000

 k-point   118 :      -0.3333    0.4000    0.2000
  band No.  band energies     occupation 
      1      -2.6835      2.00000
      2      -1.3146      2.00000
      3       1.5936      2.00000
      4       2.4827      2.00000
      5       9.2773      0.00000
      6       9.6010      0.00000
      7      10.5387      0.00000
      8      11.9023      0.00000

 k-point   119 :      -0.3333    0.4667    0.2000
  band No.  band energies     occupation 
      1      -2.3636      2.00000
      2      -1.6136      2.00000
      3       1.8057      2.00000
      4       2.1267      2.00000
      5       9.0000      0.00000
      6       9.1402      0.00000
      7      10.9402      0.00000
      8      12.0755      0.00000

 k-point   120 :      -0.2667    0.4667    0.2000
  band No.  band energies     occupation 
      1      -2.2538      2.00000
      2      -1.7013      2.00000
      3       1.6550      2.00000
      4       2.1456      2.00000
      5       9.2504      0.00000
      6      10.1387      0.00000
      7      10.7854      0.00000
      8      10.8363      0.00000


--------------------------------------------------------------------------------------------------------


 soft charge-density along one line, spin component           1
         0         1         2         3         4         5         6         7         8         9
 total charge-density along one line
 
 pseudopotential strength for first ion, spin component:           1
 18.437  25.722   0.000  -0.000   0.000   0.000  -0.000   0.000
 25.722  35.892   0.000  -0.000   0.000   0.000  -0.000   0.000
  0.000   0.000   4.181  -0.000  -0.000   7.791  -0.000  -0.000
 -0.000  -0.000  -0.000   4.181  -0.000  -0.000   7.791  -0.000
  0.000   0.000  -0.000  -0.000   4.181  -0.000  -0.000   7.791
  0.000   0.000   7.791  -0.000  -0.000  14.528  -0.000  -0.000
 -0.000  -0.000  -0.000   7.791  -0.000  -0.000  14.528  -0.000
  0.000   0.000  -0.000  -0.000   7.791  -0.000  -0.000  14.528
 total augmentation occupancy for first ion, spin component:           1
  5.531  -2.065   0.000  -0.000   0.000   0.000  -0.000   0.000
 -2.065   0.887  -0.000  -0.000   0.000  -0.000   0.000  -0.000
 -0.000  -0.000   2.942  -0.000   0.000  -0.663   0.000  -0.000
 -0.000  -0.000  -0.000   2.942   0.000   0.000  -0.663  -0.000
  0.000   0.000   0.000   0.000   2.942  -0.000  -0.000  -0.663
 -0.000  -0.000  -0.663   0.000  -0.000   0.158  -0.000   0.000
 -0.000   0.000   0.000  -0.663  -0.000  -0.000   0.158   0.000
  0.000  -0.000  -0.000  -0.000  -0.663   0.000   0.000   0.158


------------------------ aborting loop because EDIFF is reached ----------------------------------------


    CHARGE:  cpu time    0.0780: real time    0.0785
    FORLOC:  cpu time    0.0020: real time    0.0017
    FORNL :  cpu time    0.1300: real time    0.1300
    STRESS:  cpu time    0.9739: real time    0.9735
    FORCOR:  cpu time    0.0310: real time    0.0310
    FORHAR:  cpu time    0.0050: real time    0.0059
    MIXING:  cpu time    0.0000: real time    0.0012
    OFIELD:  cpu time    0.0010: real time    0.0002

  FORCE on cell =-STRESS in cart. coord.  units (eV):
  Direction    XX          YY          ZZ          XY          YZ          ZX
  --------------------------------------------------------------------------------------
  Alpha Z     3.29544     3.29544     3.29544
  Ewald     -75.66561   -75.66568   -75.66560     0.00001    -0.00000    -0.00000
  Hartree     5.05401     5.05401     5.05401     0.00000     0.00000     0.00000
  E(xc)     -25.25217   -25.25217   -25.25218    -0.00000    -0.00000    -0.00000
  Local     -29.52424   -29.52422   -29.52422    -0.00000     0.00001     0.00001
  n-local    73.87628    77.22713    81.36143    -0.89684    -0.95020    -0.02235
  augment   -11.64873   -11.64873   -11.64875    -0.00000    -0.00001    -0.00001
  Kinetic    53.04295    55.01132    60.71017     0.86689     1.26805    -0.56596
  Fock        0.00000     0.00000     0.00000     0.00000     0.00000     0.00000
  -------------------------------------------------------------------------------------
  Total       0.00178     0.00178     0.00178     0.00000    -0.00000     0.00000
  in kB       0.06982     0.06982     0.06982     0.00000    -0.00000     0.00000
  external pressure =        0.07 kB  Pullay stress =        0.00 kB


 VOLUME and BASIS-vectors are now :
 -----------------------------------------------------------------------------
  energy-cutoff  :      350.00
  volume of cell :       40.86
      direct lattice vectors                 reciprocal lattice vectors
     3.348132621  0.000000000  1.933044998     0.298673951 -0.105597146 -0.000000000
     1.116044207  3.156650958  1.933044998    -0.000000000  0.316791439  0.000000000
     0.000000000 -0.000000000  3.866089995    -0.149336976 -0.105597146  0.258659266

  length of vectors
     3.866090404  3.866091425  3.866089995     0.316791551  0.316791439  0.316791581


 FORCES acting on ions
    electron-ion (+dipol)            ewald-force                    non-local-force                 convergence-correction
 -----------------------------------------------------------------------------------------------
   0.525E-05 0.245E-04 0.591E-07   -.892E-05 -.418E-04 0.123E-13   -.590E-16 0.697E-17 0.513E-15   -.472E-07 -.331E-07 -.818E-07
   -.525E-05 -.245E-04 -.591E-07   0.892E-05 0.418E-04 -.125E-13   0.555E-16 0.208E-16 -.444E-15   0.472E-07 0.331E-07 0.818E-07
 -----------------------------------------------------------------------------------------------
   0.521E-13 -.477E-13 0.125E-12   0.268E-15 0.880E-16 -.166E-15   -.347E-17 0.278E-16 0.694E-16   0.189E-14 -.785E-15 -.279E-15
 
 
 POSITION                                       TOTAL-FORCE (eV/Angst)
 -----------------------------------------------------------------------------------
      3.90615      2.76207      6.76566         0.000000     -0.000000      0.000000
      0.55802      0.39458      0.96652        -0.000000      0.000000     -0.000000
 -----------------------------------------------------------------------------------
    total drift:                                0.000000     -0.000000      0.000000


--------------------------------------------------------------------------------------------------------



  FREE ENERGIE OF THE ION-ELECTRON SYSTEM (eV)
  ---------------------------------------------------
  free  energy   TOTEN  =       -10.84765132 eV

  energy  without entropy=      -10.84765132  energy(sigma->0) =      -10.84765132
 
 d Force = 0.0000000E+00[ 0.000E+00, 0.000E+00]  d Energy = 0.8992068E-03-0.899E-03
 d Force = 0.0000000E+00[ 0.000E+00, 0.000E+00]  d Ewald  = 0.6761705E+00-0.676E+00


--------------------------------------------------------------------------------------------------------


    POTLOK:  cpu time    0.2480: real time    0.2594


--------------------------------------------------------------------------------------------------------




--------------------------------------------------------------------------------------------------------


  
 reached required accuracy - stopping structural energy minimisation
     LOOP+:  cpu time    9.7405: real time    9.9895
    4ORBIT:  cpu time    0.0000: real time    0.0000

 total amount of memory used by VASP MPI-rank0    43239. kBytes
=======================================================================

   base      :      30000. kBytes
   nonl-proj :       4719. kBytes
   fftplans  :       4177. kBytes
   grid      :       1926. kBytes
   one-center:          6. kBytes
   wavefun   :       2411. kBytes
 
  
  
 General timing and accounting informations for this job:
 ========================================================
  
                  Total CPU time used (sec):       37.883
                            User time (sec):       37.254
                          System time (sec):        0.629
                         Elapsed time (sec):       39.623
  
                   Maximum memory used (kb):       66568.
                   Average memory used (kb):          N/A
  
                          Minor page faults:        14636
                          Major page faults:            1
                 Voluntary context switches:        22472
