   2   2   0   0
  0.2016476E+02  0.3849278E-09  0.3849279E-09  0.3849278E-09  0.5000000E-15
  1.000000000000000E-004
  CAR 
 unknown system                          
     16.27328610     -7.23284768  301      5.77632823      1.00000000
     -7.233  0.0000E+00  0.0000E+00
     -7.154  0.0000E+00  0.0000E+00
     -7.076  0.0000E+00  0.0000E+00
     -6.998  0.0000E+00  0.0000E+00
     -6.919  0.0000E+00  0.0000E+00
     -6.841  0.0000E+00  0.0000E+00
     -6.763  0.0000E+00  0.0000E+00
     -6.684  0.0000E+00  0.0000E+00
     -6.606  0.0000E+00  0.0000E+00
     -6.528  0.0000E+00  0.0000E+00
     -6.449  0.1984E-18  0.1554E-19
     -6.371  0.1311E-11  0.1028E-12
     -6.293  0.7334E-07  0.5746E-08
     -6.214  0.4047E-04  0.3176E-05
     -6.136  0.4429E-03  0.3788E-04
     -6.058  0.1187E-02  0.1309E-03
     -5.979  0.1414E-02  0.2417E-03
     -5.901  0.1702E-02  0.3750E-03
     -5.822  0.2383E-02  0.5618E-03
     -5.744  0.2177E-02  0.7324E-03
     -5.666  0.1973E-02  0.8870E-03
     -5.587  0.3335E-02  0.1148E-02
     -5.509  0.3459E-02  0.1419E-02
     -5.431  0.2094E-02  0.1583E-02
     -5.352  0.3465E-02  0.1855E-02
     -5.274  0.3881E-02  0.2159E-02
     -5.196  0.3473E-02  0.2431E-02
     -5.117  0.4398E-02  0.2776E-02
     -5.039  0.4247E-02  0.3108E-02
     -4.961  0.3287E-02  0.3366E-02
     -4.882  0.3171E-02  0.3614E-02
     -4.804  0.6549E-02  0.4127E-02
     -4.726  0.5221E-02  0.4537E-02
     -4.647  0.4567E-02  0.4894E-02
     -4.569  0.5072E-02  0.5292E-02
     -4.490  0.3207E-02  0.5543E-02
     -4.412  0.6988E-02  0.6091E-02
     -4.334  0.6490E-02  0.6599E-02
     -4.255  0.5397E-02  0.7022E-02
     -4.177  0.6167E-02  0.7505E-02
     -4.099  0.8855E-02  0.8199E-02
     -4.020  0.5817E-02  0.8655E-02
     -3.942  0.7727E-02  0.9260E-02
     -3.864  0.6143E-02  0.9742E-02
     -3.785  0.9020E-02  0.1045E-01
     -3.707  0.1300E-01  0.1147E-01
     -3.629  0.7610E-02  0.1206E-01
     -3.550  0.5658E-02  0.1251E-01
     -3.472  0.8629E-02  0.1318E-01
     -3.394  0.1133E-01  0.1407E-01
     -3.315  0.3364E-02  0.1433E-01
     -3.237  0.5135E-02  0.1474E-01
     -3.158  0.5217E-02  0.1515E-01
     -3.080  0.8080E-02  0.1578E-01
     -3.002  0.1085E-01  0.1663E-01
     -2.923  0.6313E-02  0.1712E-01
     -2.845  0.4837E-02  0.1750E-01
     -2.767  0.3997E-02  0.1782E-01
     -2.688  0.2012E-02  0.1797E-01
     -2.610  0.2985E-02  0.1821E-01
     -2.532  0.3354E-02  0.1847E-01
     -2.453  0.7402E-02  0.1905E-01
     -2.375  0.5793E-02  0.1950E-01
     -2.297  0.4536E-02  0.1986E-01
     -2.218  0.1765E-02  0.2000E-01
     -2.140  0.3584E-04  0.2000E-01
     -2.061  0.1081E-07  0.2000E-01
     -1.983  0.3203E-13  0.2000E-01
     -1.905  0.1491E-08  0.2000E-01
     -1.826  0.1182E-04  0.2000E-01
     -1.748  0.1530E-02  0.2012E-01
     -1.670  0.9312E-02  0.2085E-01
     -1.591  0.6774E-02  0.2138E-01
     -1.513  0.2471E-02  0.2157E-01
     -1.435  0.2785E-02  0.2179E-01
     -1.356  0.2294E-02  0.2197E-01
     -1.278  0.2749E-02  0.2219E-01
     -1.200  0.6681E-02  0.2271E-01
     -1.121  0.1317E-01  0.2374E-01
     -1.043  0.1979E-01  0.2529E-01
     -0.965  0.1571E-01  0.2652E-01
     -0.886  0.1404E-01  0.2762E-01
     -0.808  0.3579E-02  0.2791E-01
     -0.729  0.5069E-02  0.2830E-01
     -0.651  0.1103E-01  0.2917E-01
     -0.573  0.7297E-02  0.2974E-01
     -0.494  0.3770E-02  0.3003E-01
     -0.416  0.2578E-02  0.3024E-01
     -0.338  0.4982E-02  0.3063E-01
     -0.259  0.1327E-01  0.3167E-01
     -0.181  0.6167E-02  0.3215E-01
     -0.103  0.2481E-02  0.3234E-01
     -0.024  0.1244E-02  0.3244E-01
      0.054  0.3080E-02  0.3268E-01
      0.132  0.7300E-02  0.3325E-01
      0.211  0.7132E-02  0.3381E-01
      0.289  0.1119E-02  0.3390E-01
      0.367  0.2437E-02  0.3409E-01
      0.446  0.1732E-02  0.3423E-01
      0.524  0.1149E-02  0.3432E-01
      0.603  0.6421E-02  0.3482E-01
      0.681  0.8400E-02  0.3548E-01
      0.759  0.2095E-02  0.3564E-01
      0.838  0.4761E-03  0.3568E-01
      0.916  0.1423E-03  0.3569E-01
      0.994  0.2078E-02  0.3585E-01
      1.073  0.2955E-02  0.3609E-01
      1.151  0.4257E-02  0.3642E-01
      1.229  0.4084E-02  0.3674E-01
      1.308  0.6921E-03  0.3679E-01
      1.386  0.5192E-02  0.3720E-01
      1.464  0.6131E-02  0.3768E-01
      1.543  0.7972E-02  0.3830E-01
      1.621  0.9320E-02  0.3904E-01
      1.699  0.1781E-01  0.4043E-01
      1.778  0.1468E-01  0.4158E-01
      1.856  0.9756E-02  0.4235E-01
      1.935  0.7830E-02  0.4296E-01
      2.013  0.6503E-02  0.4347E-01
      2.091  0.9659E-02  0.4423E-01
      2.170  0.1403E-01  0.4532E-01
      2.248  0.1511E-01  0.4651E-01
      2.326  0.8514E-02  0.4718E-01
      2.405  0.9084E-02  0.4789E-01
      2.483  0.1088E-01  0.4874E-01
      2.561  0.1450E-01  0.4988E-01
      2.640  0.8727E-02  0.5056E-01
      2.718  0.1025E-01  0.5136E-01
      2.796  0.1493E-01  0.5253E-01
      2.875  0.2035E-01  0.5413E-01
      2.953  0.1593E-01  0.5538E-01
      3.031  0.1345E-01  0.5643E-01
      3.110  0.1037E-01  0.5724E-01
      3.188  0.1145E-01  0.5814E-01
      3.267  0.2249E-01  0.5990E-01
      3.345  0.1633E-01  0.6118E-01
      3.423  0.1121E-01  0.6206E-01
      3.502  0.1176E-01  0.6298E-01
      3.580  0.1318E-01  0.6401E-01
      3.658  0.1345E-01  0.6507E-01
      3.737  0.1739E-01  0.6643E-01
      3.815  0.1322E-01  0.6747E-01
      3.893  0.1008E-01  0.6826E-01
      3.972  0.1259E-01  0.6924E-01
      4.050  0.6301E-02  0.6974E-01
      4.128  0.1678E-01  0.7105E-01
      4.207  0.1812E-01  0.7247E-01
      4.285  0.1181E-01  0.7340E-01
      4.364  0.7019E-02  0.7395E-01
      4.442  0.8657E-02  0.7462E-01
      4.520  0.8179E-02  0.7527E-01
      4.599  0.1372E-01  0.7634E-01
      4.677  0.7721E-02  0.7695E-01
      4.755  0.4767E-02  0.7732E-01
      4.834  0.4119E-02  0.7764E-01
      4.912  0.5963E-02  0.7811E-01
      4.990  0.4952E-02  0.7850E-01
      5.069  0.4517E-02  0.7885E-01
      5.147  0.2021E-02  0.7901E-01
      5.225  0.2352E-02  0.7919E-01
      5.304  0.4787E-02  0.7957E-01
      5.382  0.1905E-02  0.7972E-01
      5.460  0.1247E-02  0.7982E-01
      5.539  0.1363E-02  0.7992E-01
      5.617  0.8961E-03  0.7999E-01
      5.696  0.9144E-04  0.8000E-01
      5.774  0.1886E-06  0.8000E-01
      5.852  0.3878E-11  0.8000E-01
      5.931  0.6801E-18  0.8000E-01
      6.009  0.0000E+00  0.8000E-01
      6.087  0.5342E-15  0.8000E-01
      6.166  0.5315E-09  0.8000E-01
      6.244  0.4760E-05  0.8000E-01
      6.322  0.5865E-03  0.8005E-01
      6.401  0.2943E-02  0.8028E-01
      6.479  0.1149E-02  0.8037E-01
      6.557  0.1751E-02  0.8050E-01
      6.636  0.3296E-02  0.8076E-01
      6.714  0.6050E-02  0.8124E-01
      6.792  0.4427E-02  0.8158E-01
      6.871  0.4272E-02  0.8192E-01
      6.949  0.6195E-02  0.8240E-01
      7.028  0.5968E-02  0.8287E-01
      7.106  0.3366E-02  0.8313E-01
      7.184  0.6146E-02  0.8362E-01
      7.263  0.6703E-02  0.8414E-01
      7.341  0.1076E-01  0.8498E-01
      7.419  0.1438E-01  0.8611E-01
      7.498  0.9760E-02  0.8688E-01
      7.576  0.6800E-02  0.8741E-01
      7.654  0.7777E-02  0.8802E-01
      7.733  0.1585E-01  0.8926E-01
      7.811  0.1713E-01  0.9060E-01
      7.889  0.1644E-01  0.9189E-01
      7.968  0.1492E-01  0.9306E-01
      8.046  0.1409E-01  0.9416E-01
      8.124  0.1578E-01  0.9540E-01
      8.203  0.1503E-01  0.9658E-01
      8.281  0.1623E-01  0.9785E-01
      8.360  0.1295E-01  0.9886E-01
      8.438  0.9287E-02  0.9959E-01
      8.516  0.9764E-02  0.1004E+00
      8.595  0.1148E-01  0.1013E+00
      8.673  0.1104E-01  0.1021E+00
      8.751  0.8552E-02  0.1028E+00
      8.830  0.1559E-01  0.1040E+00
      8.908  0.1803E-01  0.1054E+00
      8.986  0.2242E-01  0.1072E+00
      9.065  0.2300E-01  0.1090E+00
      9.143  0.1787E-01  0.1104E+00
      9.221  0.2030E-01  0.1120E+00
      9.300  0.1869E-01  0.1134E+00
      9.378  0.1334E-01  0.1145E+00
      9.457  0.1426E-01  0.1156E+00
      9.535  0.1346E-01  0.1167E+00
      9.613  0.1896E-01  0.1181E+00
      9.692  0.8520E-02  0.1188E+00
      9.770  0.9215E-02  0.1195E+00
      9.848  0.1647E-01  0.1208E+00
      9.927  0.1674E-01  0.1221E+00
     10.005  0.1163E-01  0.1230E+00
     10.083  0.1150E-01  0.1239E+00
     10.162  0.1186E-01  0.1249E+00
     10.240  0.1532E-01  0.1261E+00
     10.318  0.1155E-01  0.1270E+00
     10.397  0.9716E-02  0.1277E+00
     10.475  0.1076E-01  0.1286E+00
     10.553  0.1276E-01  0.1296E+00
     10.632  0.1803E-01  0.1310E+00
     10.710  0.1430E-01  0.1321E+00
     10.789  0.1331E-01  0.1332E+00
     10.867  0.1235E-01  0.1341E+00
     10.945  0.1129E-01  0.1350E+00
     11.024  0.8543E-02  0.1357E+00
     11.102  0.9121E-02  0.1364E+00
     11.180  0.8797E-02  0.1371E+00
     11.259  0.7141E-02  0.1376E+00
     11.337  0.1793E-01  0.1391E+00
     11.415  0.1245E-01  0.1400E+00
     11.494  0.1329E-01  0.1411E+00
     11.572  0.1100E-01  0.1419E+00
     11.650  0.1417E-01  0.1430E+00
     11.729  0.1052E-01  0.1439E+00
     11.807  0.8095E-02  0.1445E+00
     11.885  0.4764E-02  0.1449E+00
     11.964  0.3092E-02  0.1451E+00
     12.042  0.8591E-02  0.1458E+00
     12.121  0.9058E-02  0.1465E+00
     12.199  0.1019E-01  0.1473E+00
     12.277  0.1415E-01  0.1484E+00
     12.356  0.1081E-01  0.1493E+00
     12.434  0.1049E-01  0.1501E+00
     12.512  0.1546E-01  0.1513E+00
     12.591  0.6810E-02  0.1518E+00
     12.669  0.3573E-02  0.1521E+00
     12.747  0.5003E-02  0.1525E+00
     12.826  0.5425E-02  0.1529E+00
     12.904  0.4036E-02  0.1532E+00
     12.982  0.4651E-02  0.1536E+00
     13.061  0.2397E-02  0.1538E+00
     13.139  0.2948E-02  0.1540E+00
     13.217  0.5936E-02  0.1545E+00
     13.296  0.4981E-02  0.1549E+00
     13.374  0.1648E-01  0.1562E+00
     13.453  0.1198E-01  0.1571E+00
     13.531  0.5965E-02  0.1576E+00
     13.609  0.4183E-03  0.1576E+00
     13.688  0.5629E-03  0.1576E+00
     13.766  0.1443E-02  0.1578E+00
     13.844  0.3831E-02  0.1581E+00
     13.923  0.3220E-02  0.1583E+00
     14.001  0.1609E-03  0.1583E+00
     14.079  0.8731E-03  0.1584E+00
     14.158  0.1182E-02  0.1585E+00
     14.236  0.2782E-02  0.1587E+00
     14.314  0.6727E-02  0.1592E+00
     14.393  0.3643E-02  0.1595E+00
     14.471  0.7210E-04  0.1595E+00
     14.550  0.2152E-07  0.1595E+00
     14.628  0.6454E-13  0.1595E+00
     14.706  0.1260E-11  0.1595E+00
     14.785  0.1332E-06  0.1595E+00
     14.863  0.1341E-03  0.1595E+00
     14.941  0.1993E-02  0.1597E+00
     15.020  0.9267E-03  0.1598E+00
     15.098  0.1497E-03  0.1598E+00
     15.176  0.1422E-02  0.1599E+00
     15.255  0.1378E-02  0.1600E+00
     15.333  0.1226E-03  0.1600E+00
     15.411  0.2201E-06  0.1600E+00
     15.490  0.3934E-11  0.1600E+00
     15.568  0.6801E-18  0.1600E+00
     15.646  0.0000E+00  0.1600E+00
     15.725  0.0000E+00  0.1600E+00
     15.803  0.0000E+00  0.1600E+00
     15.882  0.0000E+00  0.1600E+00
     15.960  0.0000E+00  0.1600E+00
     16.038  0.0000E+00  0.1600E+00
     16.117  0.0000E+00  0.1600E+00
     16.195  0.0000E+00  0.1600E+00
     16.273  0.0000E+00  0.1600E+00
