    2    2  100    1
  0.2016476E+02  0.3849278E-09  0.3849279E-09  0.3849278E-09  0.5000000E-15
  1.000000000000000E-004
  CAR 
 unknown system                          
      8    110      8
 
  0.5000000E-01  0.5000000E-01  0.5000000E-01  0.2000000E-02
    1       -6.164387   1.000000
    2        5.264835   1.000000
    3        5.569625   1.000000
    4        5.569627   1.000000
    5        8.226910   0.000000
    6        8.260522   0.000000
    7        8.260529   0.000000
    8        9.022242   0.000000
 
  0.1500000E+00  0.5000000E-01  0.5000000E-01  0.6000000E-02
    1       -5.993232   1.000000
    2        4.130030   1.000000
    3        5.008160   1.000000
    4        5.494711   1.000000
    5        8.279434   0.000000
    6        8.423755   0.000000
    7        8.654052   0.000000
    8       10.139349   0.000000
 
  0.2500000E+00  0.5000000E-01  0.5000000E-01  0.6000000E-02
    1       -5.573770   1.000000
    2        2.329943   1.000000
    3        4.579611   1.000000
    4        5.150771   1.000000
    5        7.921220   0.000000
    6        8.880430   0.000000
    7        9.200222   0.000000
    8       11.626970   0.000000
 
  0.3500000E+00  0.5000000E-01  0.5000000E-01  0.6000000E-02
    1       -4.938819   1.000000
    2        0.621054   1.000000
    3        4.292649   1.000000
    4        4.789621   1.000000
    5        7.586187   0.000000
    6        9.075669   0.000000
    7        9.265850   0.000000
    8       12.821353   0.000000
 
  0.4500000E+00  0.5000000E-01  0.5000000E-01  0.6000000E-02
    1       -4.211862   1.000000
    2       -0.742259   1.000000
    3        4.168287   1.000000
    4        4.519375   1.000000
    5        7.379018   0.000000
    6        9.055763   0.000000
    7        9.061805   0.000000
    8       13.457224   0.000000
 
 -0.4500000E+00  0.5000000E-01  0.5000000E-01  0.6000000E-02
    1       -3.902796   1.000000
    2       -1.212598   1.000000
    3        4.205044   1.000000
    4        4.378695   1.000000
    5        7.328111   0.000000
    6        8.922460   0.000000
    7        9.103159   0.000000
    8       13.440995   0.000000
 
 -0.3500000E+00  0.5000000E-01  0.5000000E-01  0.6000000E-02
    1       -4.446347   1.000000
    2       -0.347798   1.000000
    3        4.386965   1.000000
    4        4.390151   1.000000
    5        7.437246   0.000000
    6        8.928533   0.000000
    7        9.281884   0.000000
    8       13.093895   0.000000
 
 -0.2500000E+00  0.5000000E-01  0.5000000E-01  0.6000000E-02
    1       -5.170046   1.000000
    2        1.164666   1.000000
    3        4.553459   1.000000
    4        4.702127   1.000000
    5        7.692903   0.000000
    6        8.934195   0.000000
    7        9.437909   0.000000
    8       12.001010   0.000000
 
 -0.1500000E+00  0.5000000E-01  0.5000000E-01  0.6000000E-02
    1       -5.739782   1.000000
    2        2.938424   1.000000
    3        4.868383   1.000000
    4        5.090463   1.000000
    5        8.029442   0.000000
    6        8.637383   0.000000
    7        9.226903   0.000000
    8       11.073581   0.000000
 
 -0.5000000E-01  0.5000000E-01  0.5000000E-01  0.6000000E-02
    1       -6.078523   1.000000
    2        4.712476   1.000000
    3        5.270976   1.000000
    4        5.396570   1.000000
    5        8.069085   0.000000
    6        8.484376   0.000000
    7        8.660885   0.000000
    8        9.563179   0.000000
 
  0.1500000E+00  0.1500000E+00  0.5000000E-01  0.6000000E-02
    1       -5.907329   1.000000
    2        4.020763   1.000000
    3        4.840810   1.000000
    4        4.942833   1.000000
    5        7.758657   0.000000
    6        9.042103   0.000000
    7        9.290503   0.000000
    8       10.108936   0.000000
 
  0.2500000E+00  0.1500000E+00  0.5000000E-01  0.1200000E-01
    1       -5.569465   1.000000
    2        2.788355   1.000000
    3        4.104784   1.000000
    4        4.755227   1.000000
    5        7.819486   0.000000
    6        9.212438   0.000000
    7        9.907073   0.000000
    8       10.392998   0.000000
 
  0.3500000E+00  0.1500000E+00  0.5000000E-01  0.1200000E-01
    1       -5.001099   1.000000
    2        1.167881   1.000000
    3        3.676865   1.000000
    4        4.395687   1.000000
    5        8.027563   0.000000
    6        9.175345   0.000000
    7       10.169476   0.000000
    8       10.626666   0.000000
 
  0.4500000E+00  0.1500000E+00  0.5000000E-01  0.1200000E-01
    1       -4.277616   1.000000
    2       -0.289896   1.000000
    3        3.405489   1.000000
    4        4.120399   1.000000
    5        7.971369   0.000000
    6        9.034643   0.000000
    7       10.037248   0.000000
    8       11.768459   0.000000
 
 -0.4500000E+00  0.1500000E+00  0.5000000E-01  0.1200000E-01
    1       -3.731290   1.000000
    2       -1.139348   1.000000
    3        3.227967   1.000000
    4        4.075855   1.000000
    5        7.962693   0.000000
    6        8.905636   0.000000
    7        9.872525   0.000000
    8       13.364555   0.000000
 
 -0.3500000E+00  0.1500000E+00  0.5000000E-01  0.1200000E-01
    1       -4.045016   1.000000
    2       -0.670720   1.000000
    3        3.168333   1.000000
    4        4.262979   1.000000
    5        8.085943   0.000000
    6        8.919773   0.000000
    7        9.843255   0.000000
    8       12.821418   0.000000
 
 -0.2500000E+00  0.1500000E+00  0.5000000E-01  0.1200000E-01
    1       -4.772852   1.000000
    2        0.653266   1.000000
    3        3.286607   1.000000
    4        4.612943   1.000000
    5        8.309516   0.000000
    6        8.987412   0.000000
    7        9.893364   0.000000
    8       11.448640   0.000000
 
 -0.1500000E+00  0.1500000E+00  0.5000000E-01  0.1200000E-01
    1       -5.405700   1.000000
    2        2.220216   1.000000
    3        3.665862   1.000000
    4        5.014669   1.000000
    5        8.452998   0.000000
    6        8.822095   0.000000
    7        9.682541   0.000000
    8       10.842501   0.000000
 
 -0.5000000E-01  0.1500000E+00  0.5000000E-01  0.1200000E-01
    1       -5.823174   1.000000
    2        3.471019   1.000000
    3        4.570003   1.000000
    4        5.242318   1.000000
    5        8.144113   0.000000
    6        8.669288   0.000000
    7        9.172396   0.000000
    8       10.639679   0.000000
 
  0.2500000E+00  0.2500000E+00  0.5000000E-01  0.6000000E-02
    1       -5.313449   1.000000
    2        2.438877   1.000000
    3        3.946653   1.000000
    4        3.975733   1.000000
    5        7.057412   0.000000
    6        9.189232   0.000000
    7       10.720559   0.000000
    8       10.834856   0.000000
 
  0.3500000E+00  0.2500000E+00  0.5000000E-01  0.1200000E-01
    1       -4.818945   1.000000
    2        1.355460   1.000000
    3        3.267249   1.000000
    4        3.735008   1.000000
    5        7.189459   0.000000
    6        8.801197   0.000000
    7       10.868265   0.000000
    8       11.576905   0.000000
 
  0.4500000E+00  0.2500000E+00  0.5000000E-01  0.1200000E-01
    1       -4.132029   1.000000
    2        0.084611   1.000000
    3        2.659533   1.000000
    4        3.513120   1.000000
    5        7.435395   0.000000
    6        9.503613   0.000000
    7       10.572791   0.000000
    8       11.644199   0.000000
 
 -0.4500000E+00  0.2500000E+00  0.5000000E-01  0.1200000E-01
    1       -3.449546   1.000000
    2       -0.928512   1.000000
    3        2.186295   1.000000
    4        3.533396   1.000000
    5        7.550095   0.000000
    6       10.226988   0.000000
    7       11.125282   0.000000
    8       11.450366   0.000000
 
 -0.3500000E+00  0.2500000E+00  0.5000000E-01  0.1200000E-01
    1       -3.473557   1.000000
    2       -0.889304   1.000000
    3        1.941576   1.000000
    4        3.779430   1.000000
    5        7.824160   0.000000
    6       10.010385   0.000000
    7       11.264262   0.000000
    8       12.707777   0.000000
 
 -0.2500000E+00  0.2500000E+00  0.5000000E-01  0.1200000E-01
    1       -4.163733   1.000000
    2        0.111111   1.000000
    3        2.043208   1.000000
    4        4.192134   1.000000
    5        8.262945   0.000000
    6        9.774829   0.000000
    7       11.008449   0.000000
    8       11.274768   0.000000
 
 -0.1500000E+00  0.2500000E+00  0.5000000E-01  0.1200000E-01
    1       -4.841845   1.000000
    2        1.087159   1.000000
    3        2.786442   1.000000
    4        4.650014   1.000000
    5        8.633893   0.000000
    6        9.079111   0.000000
    7       10.287302   0.000000
    8       10.848446   0.000000
 
 -0.5000000E-01  0.2500000E+00  0.5000000E-01  0.1200000E-01
    1       -5.326689   1.000000
    2        1.734803   1.000000
    3        4.144995   1.000000
    4        4.883677   1.000000
    5        8.085446   0.000000
    6        8.850810   0.000000
    7        9.598591   0.000000
    8       11.290549   0.000000
 
  0.3500000E+00  0.3500000E+00  0.5000000E-01  0.6000000E-02
    1       -4.398240   1.000000
    2        0.741797   1.000000
    3        3.202848   1.000000
    4        3.313167   1.000000
    5        6.534628   0.000000
    6        7.836939   0.000000
    7       12.465846   0.000000
    8       12.532548   0.000000
 
  0.4500000E+00  0.3500000E+00  0.5000000E-01  0.1200000E-01
    1       -3.766122   1.000000
    2       -0.179621   1.000000
    3        2.665530   1.000000
    4        3.051663   1.000000
    5        6.787615   0.000000
    6        7.717741   0.000000
    7       12.470267   0.000000
    8       13.387720   0.000000
 
 -0.4500000E+00  0.3500000E+00  0.5000000E-01  0.1200000E-01
    1       -3.032338   1.000000
    2       -1.055136   1.000000
    3        1.863520   1.000000
    4        3.060187   1.000000
    5        6.999552   0.000000
    6        8.920377   0.000000
    7       12.137840   0.000000
    8       13.357472   0.000000
 
 -0.3500000E+00  0.3500000E+00  0.5000000E-01  0.1200000E-01
    1       -2.808370   1.000000
    2       -1.278891   1.000000
    3        1.370225   1.000000
    4        3.298118   1.000000
    5        7.276819   0.000000
    6       10.756674   0.000000
    7       11.807576   0.000000
    8       12.778870   0.000000
 
 -0.2500000E+00  0.3500000E+00  0.5000000E-01  0.1200000E-01
    1       -3.439326   1.000000
    2       -0.686194   1.000000
    3        1.529782   1.000000
    4        3.719102   1.000000
    5        7.752913   0.000000
    6       10.661477   0.000000
    7       11.824644   0.000000
    8       12.060066   0.000000
 
 -0.1500000E+00  0.3500000E+00  0.5000000E-01  0.1200000E-01
    1       -4.120576   1.000000
    2       -0.245798   1.000000
    3        2.518956   1.000000
    4        4.218257   1.000000
    5        8.251371   0.000000
    6        9.281722   0.000000
    7       10.451583   0.000000
    8       11.958388   0.000000
 
 -0.5000000E-01  0.3500000E+00  0.5000000E-01  0.1200000E-01
    1       -4.638353   1.000000
    2        0.132695   1.000000
    3        3.900419   1.000000
    4        4.529965   1.000000
    5        7.829584   0.000000
    6        8.932422   0.000000
    7        9.536191   0.000000
    8       12.262149   0.000000
 
  0.4500000E+00  0.4500000E+00  0.5000000E-01  0.6000000E-02
    1       -3.190045   1.000000
    2       -0.937548   1.000000
    3        2.783959   1.000000
    4        2.931192   1.000000
    5        6.341146   0.000000
    6        6.897794   0.000000
    7       14.306951   0.000000
    8       14.317327   0.000000
 
 -0.4500000E+00  0.4500000E+00  0.5000000E-01  0.1200000E-01
    1       -2.457443   1.000000
    2       -1.719595   1.000000
    3        2.390467   1.000000
    4        2.770141   1.000000
    5        6.665778   0.000000
    6        7.178253   0.000000
    7       14.189321   0.000000
    8       14.923307   0.000000
 
 -0.3500000E+00  0.4500000E+00  0.5000000E-01  0.1200000E-01
    1       -2.475309   1.000000
    2       -1.618521   1.000000
    3        1.690687   1.000000
    4        2.973285   1.000000
    5        6.906333   0.000000
    6        8.806328   0.000000
    7       12.956782   0.000000
    8       13.857588   0.000000
 
 -0.2500000E+00  0.4500000E+00  0.5000000E-01  0.1200000E-01
    1       -3.062492   1.000000
    2       -1.146088   1.000000
    3        1.671052   1.000000
    4        3.375968   1.000000
    5        7.370777   0.000000
    6       10.749060   0.000000
    7       11.158585   0.000000
    8       12.272889   0.000000
 
 -0.1500000E+00  0.4500000E+00  0.5000000E-01  0.1200000E-01
    1       -3.564336   1.000000
    2       -1.085622   1.000000
    3        2.560830   1.000000
    4        3.898484   1.000000
    5        7.937484   0.000000
    6        9.363924   0.000000
    7       10.525629   0.000000
    8       13.215272   0.000000
 
 -0.5000000E-01  0.4500000E+00  0.5000000E-01  0.1200000E-01
    1       -3.960635   1.000000
    2       -1.017503   1.000000
    3        3.801443   1.000000
    4        4.314338   1.000000
    5        7.679672   0.000000
    6        8.867903   0.000000
    7        9.371779   0.000000
    8       13.458780   0.000000
 
 -0.4500000E+00 -0.4500000E+00  0.5000000E-01  0.6000000E-02
    1       -2.490043   1.000000
    2       -1.735214   1.000000
    3        2.699871   1.000000
    4        2.853850   1.000000
    5        6.376132   0.000000
    6        6.632740   0.000000
    7       15.145327   0.000000
    8       15.204825   0.000000
 
 -0.3500000E+00 -0.4500000E+00  0.5000000E-01  0.1200000E-01
    1       -3.139295   1.000000
    2       -0.958669   1.000000
    3        2.483141   1.000000
    4        2.862979   1.000000
    5        6.696290   0.000000
    6        7.368957   0.000000
    7       13.319951   0.000000
    8       14.310089   0.000000
 
 -0.2500000E+00 -0.4500000E+00  0.5000000E-01  0.1200000E-01
    1       -3.603624   1.000000
    2       -0.471807   1.000000
    3        2.198550   1.000000
    4        3.237184   1.000000
    5        7.180390   0.000000
    6        9.151597   0.000000
    7       11.337227   0.000000
    8       12.483335   0.000000
 
 -0.1500000E+00 -0.4500000E+00  0.5000000E-01  0.1200000E-01
    1       -3.872124   1.000000
    2       -0.643350   1.000000
    3        2.803170   1.000000
    4        3.776953   1.000000
    5        7.785819   0.000000
    6        9.565879   0.000000
    7       10.686590   0.000000
    8       11.388491   0.000000
 
 -0.3500000E+00 -0.3500000E+00  0.5000000E-01  0.6000000E-02
    1       -3.828340   1.000000
    2       -0.107392   1.000000
    3        2.951876   1.000000
    4        3.084984   1.000000
    5        6.392025   0.000000
    6        7.304521   0.000000
    7       13.385289   0.000000
    8       13.413433   0.000000
 
 -0.2500000E+00 -0.3500000E+00  0.5000000E-01  0.1200000E-01
    1       -4.328116   1.000000
    2        0.597380   1.000000
    3        2.930558   1.000000
    4        3.341379   1.000000
    5        6.952723   0.000000
    6        8.202407   0.000000
    7       11.650640   0.000000
    8       12.469693   0.000000
 
 -0.1500000E+00 -0.3500000E+00  0.5000000E-01  0.1200000E-01
    1       -4.600941   1.000000
    2        0.623721   1.000000
    3        3.175922   1.000000
    4        3.903028   1.000000
    5        7.738566   0.000000
    6        9.799978   0.000000
    7       10.021696   0.000000
    8       10.878847   0.000000
 
 -0.2500000E+00 -0.2500000E+00  0.5000000E-01  0.6000000E-02
    1       -4.894595   1.000000
    2        1.595718   1.000000
    3        3.535532   1.000000
    4        3.612199   1.000000
    5        6.761148   0.000000
    6        8.481636   0.000000
    7       11.570732   0.000000
    8       11.671714   0.000000
 
 -0.1500000E+00 -0.2500000E+00  0.5000000E-01  0.1200000E-01
    1       -5.233881   1.000000
    2        2.085339   1.000000
    3        3.663111   1.000000
    4        4.220576   1.000000
    5        7.485997   0.000000
    6        9.404650   0.000000
    7       10.205737   0.000000
    8       10.718892   0.000000
 
 -0.1500000E+00 -0.1500000E+00  0.5000000E-01  0.6000000E-02
    1       -5.651760   1.000000
    2        3.253905   1.000000
    3        4.392640   1.000000
    4        4.426410   1.000000
    5        7.401737   0.000000
    6        9.615446   0.000000
    7       10.032861   0.000000
    8       10.139561   0.000000
 
  0.1500000E+00  0.1500000E+00  0.1500000E+00  0.2000000E-02
    1       -5.908555   1.000000
    2        3.570263   1.000000
    3        5.246556   1.000000
    4        5.246559   1.000000
    5        7.977366   0.000000
    6        8.731507   0.000000
    7        8.731514   0.000000
    8       10.607305   0.000000
 
  0.2500000E+00  0.1500000E+00  0.1500000E+00  0.6000000E-02
    1       -5.655504   1.000000
    2        2.847342   1.000000
    3        4.129319   1.000000
    4        5.311895   1.000000
    5        8.448393   0.000000
    6        8.751243   0.000000
    7        9.048971   0.000000
    8       11.126530   0.000000
 
  0.3500000E+00  0.1500000E+00  0.1500000E+00  0.6000000E-02
    1       -5.162195   1.000000
    2        1.645839   1.000000
    3        3.208151   1.000000
    4        4.993394   1.000000
    5        8.528246   0.000000
    6        9.246102   0.000000
    7        9.513267   0.000000
    8       11.323539   0.000000
 
  0.4500000E+00  0.1500000E+00  0.1500000E+00  0.6000000E-02
    1       -4.476400   1.000000
    2        0.177478   1.000000
    3        2.890656   1.000000
    4        4.559676   1.000000
    5        8.187527   0.000000
    6        9.573323   0.000000
    7        9.605191   0.000000
    8       12.369508   0.000000
 
 -0.4500000E+00  0.1500000E+00  0.1500000E+00  0.6000000E-02
    1       -3.794790   1.000000
    2       -0.946901   1.000000
    3        2.875732   1.000000
    4        4.191250   1.000000
    5        7.890688   0.000000
    6        9.433437   0.000000
    7        9.778827   0.000000
    8       13.785404   0.000000
 
 -0.3500000E+00  0.1500000E+00  0.1500000E+00  0.6000000E-02
    1       -3.788567   1.000000
    2       -0.958414   1.000000
    3        3.080500   1.000000
    4        3.966776   1.000000
    5        7.738353   0.000000
    6        9.429234   0.000000
    7       10.014705   0.000000
    8       12.379061   0.000000
 
 -0.2500000E+00  0.1500000E+00  0.1500000E+00  0.6000000E-02
    1       -4.467781   1.000000
    2        0.159637   1.000000
    3        3.463418   1.000000
    4        3.921482   1.000000
    5        7.734208   0.000000
    6        9.560520   0.000000
    7       10.317187   0.000000
    8       10.806817   0.000000
 
 -0.1500000E+00  0.1500000E+00  0.1500000E+00  0.6000000E-02
    1       -5.155811   1.000000
    2        1.684130   1.000000
    3        3.964145   1.000000
    4        4.067341   1.000000
    5        7.670426   0.000000
    6        9.525039   0.000000
    7       10.139098   0.000000
    8       10.442488   0.000000
 
  0.2500000E+00  0.2500000E+00  0.1500000E+00  0.6000000E-02
    1       -5.488210   1.000000
    2        2.307524   1.000000
    3        4.458275   1.000000
    4        4.587497   1.000000
    5        7.971814   0.000000
    6        8.935364   0.000000
    7        9.812130   0.000000
    8       10.715477   0.000000
 
  0.3500000E+00  0.2500000E+00  0.1500000E+00  0.1200000E-01
    1       -5.075868   1.000000
    2        1.598963   1.000000
    3        3.233019   1.000000
    4        4.499135   1.000000
    5        8.181311   0.000000
    6        9.259488   0.000000
    7       10.142005   0.000000
    8       10.544212   0.000000
 
  0.4500000E+00  0.2500000E+00  0.1500000E+00  0.1200000E-01
    1       -4.448899   1.000000
    2        0.544962   1.000000
    3        2.426871   1.000000
    4        4.105837   1.000000
    5        8.764335   0.000000
    6        9.034127   0.000000
    7       10.223365   0.000000
    8       11.280304   0.000000
 
 -0.4500000E+00  0.2500000E+00  0.1500000E+00  0.1200000E-01
    1       -3.719895   1.000000
    2       -0.613379   1.000000
    3        2.184200   1.000000
    4        3.712852   1.000000
    5        8.572755   0.000000
    6        9.005545   0.000000
    7       11.357646   0.000000
    8       11.626650   0.000000
 
 -0.3500000E+00  0.2500000E+00  0.1500000E+00  0.1200000E-01
    1       -3.393866   1.000000
    2       -1.068019   1.000000
    3        2.226953   1.000000
    4        3.516517   1.000000
    5        8.263356   0.000000
    6        9.197771   0.000000
    7       11.471564   0.000000
    8       12.221190   0.000000
 
 -0.2500000E+00  0.2500000E+00  0.1500000E+00  0.1200000E-01
    1       -3.946928   1.000000
    2       -0.274662   1.000000
    3        2.440618   1.000000
    4        3.602424   1.000000
    5        8.107248   0.000000
    6        9.536314   0.000000
    7       10.470674   0.000000
    8       11.557309   0.000000
 
 -0.1500000E+00  0.2500000E+00  0.1500000E+00  0.1200000E-01
    1       -4.669239   1.000000
    2        0.975962   1.000000
    3        2.854803   1.000000
    4        3.927896   1.000000
    5        7.899321   0.000000
    6        9.389044   0.000000
    7        9.949760   0.000000
    8       11.448082   0.000000
 
  0.3500000E+00  0.3500000E+00  0.1500000E+00  0.6000000E-02
    1       -4.745565   1.000000
    2        1.055437   1.000000
    3        3.350683   1.000000
    4        3.721534   1.000000
    5        7.345073   0.000000
    6        9.230436   0.000000
    7       10.615383   0.000000
    8       11.106059   0.000000
 
  0.4500000E+00  0.3500000E+00  0.1500000E+00  0.1200000E-01
    1       -4.190229   1.000000
    2        0.337603   1.000000
    3        2.543359   1.000000
    4        3.400519   1.000000
    5        7.661039   0.000000
    6        8.862480   0.000000
    7       10.588649   0.000000
    8       12.393878   0.000000
 
 -0.4500000E+00  0.3500000E+00  0.1500000E+00  0.1200000E-01
    1       -3.473203   1.000000
    2       -0.535858   1.000000
    3        1.948022   1.000000
    4        2.964038   1.000000
    5        8.374932   0.000000
    6        9.327158   0.000000
    7       10.173537   0.000000
    8       13.313922   0.000000
 
 -0.3500000E+00  0.3500000E+00  0.1500000E+00  0.1200000E-01
    1       -2.904937   1.000000
    2       -1.193083   1.000000
    3        1.645432   1.000000
    4        2.820560   1.000000
    5        8.625728   0.000000
    6        9.700390   0.000000
    7       11.090467   0.000000
    8       12.331762   0.000000
 
 -0.2500000E+00  0.3500000E+00  0.1500000E+00  0.1200000E-01
    1       -3.262812   1.000000
    2       -0.785446   1.000000
    3        1.647038   1.000000
    4        3.045412   1.000000
    5        8.996258   0.000000
    6        9.411327   0.000000
    7       10.446478   0.000000
    8       13.176106   0.000000
 
 -0.1500000E+00  0.3500000E+00  0.1500000E+00  0.1200000E-01
    1       -3.989649   1.000000
    2        0.009101   1.000000
    3        2.144226   1.000000
    4        3.508932   1.000000
    5        8.553142   0.000000
    6        9.496526   0.000000
    7        9.759087   0.000000
    8       12.285503   0.000000
 
  0.4500000E+00  0.4500000E+00  0.1500000E+00  0.6000000E-02
    1       -3.710088   1.000000
    2       -0.282666   1.000000
    3        2.407781   1.000000
    4        3.214159   1.000000
    5        6.814863   0.000000
    6        8.308079   0.000000
    7       12.404156   0.000000
    8       12.546701   0.000000
 
 -0.4500000E+00  0.4500000E+00  0.1500000E+00  0.1200000E-01
    1       -3.043197   1.000000
    2       -1.009941   1.000000
    3        2.145034   1.000000
    4        2.683812   1.000000
    5        7.366751   0.000000
    6        8.137069   0.000000
    7       12.103913   0.000000
    8       14.276833   0.000000
 
 -0.3500000E+00  0.4500000E+00  0.1500000E+00  0.1200000E-01
    1       -2.339875   1.000000
    2       -1.673579   1.000000
    3        1.812628   1.000000
    4        2.297056   1.000000
    5        8.192743   0.000000
    6        8.948346   0.000000
    7       11.684131   0.000000
    8       12.562447   0.000000
 
 -0.2500000E+00  0.4500000E+00  0.1500000E+00  0.1200000E-01
    1       -2.632214   1.000000
    2       -1.375416   1.000000
    3        1.495078   1.000000
    4        2.621700   1.000000
    5        8.545950   0.000000
    6       10.347162   0.000000
    7       11.038777   0.000000
    8       11.481703   0.000000
 
 -0.1500000E+00  0.4500000E+00  0.1500000E+00  0.1200000E-01
    1       -3.299261   1.000000
    2       -0.928477   1.000000
    3        1.889602   1.000000
    4        3.205697   1.000000
    5        8.781494   0.000000
    6        9.076865   0.000000
    7       11.268759   0.000000
    8       12.432967   0.000000
 
 -0.4500000E+00 -0.4500000E+00  0.1500000E+00  0.6000000E-02
    1       -2.458091   1.000000
    2       -1.686941   1.000000
    3        1.999724   1.000000
    4        2.990008   1.000000
    5        6.563016   0.000000
    6        7.907596   0.000000
    7       14.071175   0.000000
    8       14.294609   0.000000
 
 -0.3500000E+00 -0.4500000E+00  0.1500000E+00  0.1200000E-01
    1       -2.401264   1.000000
    2       -1.695440   1.000000
    3        2.064247   1.000000
    4        2.536788   1.000000
    5        7.312109   0.000000
    6        7.984935   0.000000
    7       12.943737   0.000000
    8       13.837345   0.000000
 
 -0.2500000E+00 -0.4500000E+00  0.1500000E+00  0.1200000E-01
    1       -2.913311   1.000000
    2       -1.101031   1.000000
    3        1.842047   1.000000
    4        2.541206   1.000000
    5        8.253569   0.000000
    6        9.076156   0.000000
    7       10.887152   0.000000
    8       13.485045   0.000000
 
 -0.3500000E+00 -0.3500000E+00  0.1500000E+00  0.6000000E-02
    1       -3.100342   1.000000
    2       -0.991192   1.000000
    3        2.134779   1.000000
    4        3.065131   1.000000
    5        6.648631   0.000000
    6        8.040384   0.000000
    7       13.325365   0.000000
    8       13.345380   0.000000
 
 -0.2500000E+00 -0.3500000E+00  0.1500000E+00  0.1200000E-01
    1       -3.645206   1.000000
    2       -0.325497   1.000000
    3        2.305470   1.000000
    4        2.975554   1.000000
    5        7.481941   0.000000
    6        8.433108   0.000000
    7       11.316338   0.000000
    8       13.359287   0.000000
 
 -0.2500000E+00 -0.2500000E+00  0.1500000E+00  0.6000000E-02
    1       -4.261624   1.000000
    2        0.402868   1.000000
    3        2.818314   1.000000
    4        3.434518   1.000000
    5        7.052035   0.000000
    6        8.710722   0.000000
    7       11.485687   0.000000
    8       11.805473   0.000000
 
  0.2500000E+00  0.2500000E+00  0.2500000E+00  0.2000000E-02
    1       -5.411261   1.000000
    2        1.735577   1.000000
    3        4.877741   1.000000
    4        4.877744   1.000000
    5        7.585868   0.000000
    6        9.116021   0.000000
    7        9.116029   0.000000
    8       12.380346   0.000000
 
  0.3500000E+00  0.2500000E+00  0.2500000E+00  0.6000000E-02
    1       -5.087023   1.000000
    2        1.175170   1.000000
    3        3.721345   1.000000
    4        4.924088   1.000000
    5        8.121903   0.000000
    6        9.149496   0.000000
    7        9.383054   0.000000
    8       11.964738   0.000000
 
  0.4500000E+00  0.2500000E+00  0.2500000E+00  0.6000000E-02
    1       -4.535759   1.000000
    2        0.587292   1.000000
    3        2.380210   1.000000
    4        4.561119   1.000000
    5        8.287125   0.000000
    6        9.910027   0.000000
    7       10.146102   0.000000
    8       11.594174   0.000000
 
 -0.4500000E+00  0.2500000E+00  0.2500000E+00  0.6000000E-02
    1       -3.822751   1.000000
    2       -0.302129   1.000000
    3        1.736513   1.000000
    4        4.082600   1.000000
    5        7.812029   0.000000
    6       10.741183   0.000000
    7       10.961566   0.000000
    8       12.197787   0.000000
 
 -0.3500000E+00  0.2500000E+00  0.2500000E+00  0.6000000E-02
    1       -3.241652   1.000000
    2       -1.071745   1.000000
    3        1.758343   1.000000
    4        3.688547   1.000000
    5        7.392189   0.000000
    6       11.038508   0.000000
    7       11.156350   0.000000
    8       12.023621   0.000000
 
 -0.2500000E+00  0.2500000E+00  0.2500000E+00  0.6000000E-02
    1       -3.530839   1.000000
    2       -0.702404   1.000000
    3        2.158379   1.000000
    4        3.461883   1.000000
    5        7.166198   0.000000
    6       10.058451   0.000000
    7       11.274651   0.000000
    8       11.504965   0.000000
 
  0.3500000E+00  0.3500000E+00  0.2500000E+00  0.6000000E-02
    1       -4.853675   1.000000
    2        0.638653   1.000000
    3        4.150841   1.000000
    4        4.224558   1.000000
    5        7.900309   0.000000
    6        8.979969   0.000000
    7        9.838619   0.000000
    8       11.355564   0.000000
 
  0.4500000E+00  0.3500000E+00  0.2500000E+00  0.1200000E-01
    1       -4.389800   1.000000
    2        0.172708   1.000000
    3        2.859599   1.000000
    4        4.113016   1.000000
    5        8.344965   0.000000
    6        9.055790   0.000000
    7       10.620126   0.000000
    8       10.956444   0.000000
 
 -0.4500000E+00  0.3500000E+00  0.2500000E+00  0.1200000E-01
    1       -3.734938   1.000000
    2       -0.342997   1.000000
    3        1.793934   1.000000
    4        3.639639   1.000000
    5        8.534953   0.000000
    6        9.567884   0.000000
    7       10.764935   0.000000
    8       12.153372   0.000000
 