       N       E                     dE             d eps       ncg     rms          rms(c)
DAV:   1     0.169301634422E+01    0.16930E+01   -0.26232E+03  1776   0.583E+02
DAV:   2    -0.108557835114E+02   -0.12549E+02   -0.11982E+02  2656   0.659E+01
DAV:   3    -0.110208790382E+02   -0.16510E+00   -0.16510E+00  2272   0.936E+00
DAV:   4    -0.110214643447E+02   -0.58531E-03   -0.58531E-03  2776   0.602E-01
DAV:   5    -0.110214650208E+02   -0.67602E-06   -0.67602E-06  2288   0.161E-02    0.486E+00
DAV:   6    -0.108999577247E+02    0.12151E+00   -0.80008E-02  2064   0.147E+00    0.297E+00
DAV:   7    -0.108444179194E+02    0.55540E-01   -0.15218E-01  2296   0.216E+00    0.185E-01
DAV:   8    -0.108454729129E+02   -0.10550E-02   -0.38073E-03  2048   0.459E-01    0.738E-02
DAV:   9    -0.108456674731E+02   -0.19456E-03   -0.19212E-04  2656   0.108E-01    0.576E-02
DAV:  10    -0.108456921631E+02   -0.24690E-04   -0.29044E-05  2072   0.402E-02    0.965E-03
DAV:  11    -0.108456918447E+02    0.31833E-06   -0.60797E-07  2440   0.531E-03
   1 F= -.10845692E+02 E0= -.10845692E+02  d E =-.108457E+02
       N       E                     dE             d eps       ncg     rms          rms(c)
DAV:   1    -0.108494722247E+02   -0.37801E-02   -0.10423E-01  2192   0.181E+00    0.302E-01
DAV:   2    -0.108477059427E+02    0.17663E-02   -0.14768E-03  2384   0.256E-01    0.183E-01
DAV:   3    -0.108467753771E+02    0.93057E-03   -0.19243E-03  2144   0.221E-01    0.607E-02
DAV:   4    -0.108467753270E+02    0.50157E-07   -0.19103E-05  2456   0.390E-02    0.540E-02
DAV:   5    -0.108467689492E+02    0.63778E-05   -0.50772E-06  2136   0.164E-02    0.123E-02
DAV:   6    -0.108467691245E+02   -0.17535E-06   -0.52613E-08  1200   0.214E-03
   2 F= -.10846769E+02 E0= -.10846769E+02  d E =-.107728E-02
       N       E                     dE             d eps       ncg     rms          rms(c)
DAV:   1    -0.108481055162E+02   -0.13366E-02   -0.17516E-02  2192   0.747E-01    0.126E-01
DAV:   2    -0.108478139189E+02    0.29160E-03   -0.24409E-04  2360   0.104E-01    0.757E-02
DAV:   3    -0.108476666161E+02    0.14730E-03   -0.32050E-04  2152   0.905E-02    0.252E-02
DAV:   4    -0.108476672120E+02   -0.59595E-06   -0.31439E-06  2368   0.159E-02    0.226E-02
DAV:   5    -0.108476689830E+02   -0.17710E-05   -0.82993E-07  1984   0.671E-03    0.548E-03
DAV:   6    -0.108476689216E+02    0.61371E-07   -0.10125E-08   992   0.933E-04
   3 F= -.10847669E+02 E0= -.10847669E+02  d E =-.197708E-02
