    2    2    1    1
  0.1136426E+02  0.2832634E-09  0.2832634E-09  0.2832634E-09  0.5000000E-15
  1.000000000000000E-004
  CAR 
 unknown system                          
     16    512     32
 
  0.6250000E-01  0.6250000E-01  0.6250000E-01  0.1953125E-02
    1       -2.390588   1.000000
    2       -2.176277   1.000000
    3        1.090929   1.000000
    4        1.091609   1.000000
    5        2.921295   1.000000
    6        2.921932   1.000000
    7        3.445072   1.000000
    8        3.473401   1.000000
    9        3.663993   1.000000
   10        4.723045   1.000000
   11        4.734414   1.000000
   12        5.378272   1.003414
   13        5.403509   1.005439
   14        5.567639   1.034800
   15        5.618585   1.028678
   16        5.850762   0.397315
   17        5.886598   0.257232
   18        7.445026  -0.000000
   19        7.449402  -0.000000
   20        7.697066  -0.000000
   21        8.054012  -0.000000
   22        8.089585  -0.000000
   23       15.232716   0.000000
   24       15.327967   0.000000
   25       15.637630   0.000000
   26       15.789677   0.000000
   27       15.826640   0.000000
   28       16.126600   0.000000
   29       22.218588   0.000000
   30       22.228161   0.000000
   31       23.130469   0.000000
   32       23.138072   0.000000
 
  0.1875000E+00  0.6250000E-01  0.6250000E-01  0.1953125E-02
    1       -1.767556   1.000000
    2       -1.545934   1.000000
    3        1.347038   1.000000
    4        1.350795   1.000000
    5        3.105025   1.000000
    6        3.226629   1.000000
    7        3.373928   1.000000
    8        3.438279   1.000000
    9        3.925538   1.000000
   10        4.485154   1.000000
   11        4.849009   1.000000
   12        5.003766   1.000000
   13        5.278669   1.000374
   14        5.351060   1.001978
   15        5.402864   1.005377
   16        5.834556   0.465065
   17        5.902516   0.201971
   18        7.009079  -0.000000
   19        7.123670  -0.000000
   20        7.486226  -0.000000
   21        7.591876  -0.000000
   22        8.037502  -0.000000
   23       12.440920   0.000000
   24       13.253888   0.000000
   25       16.357681   0.000000
   26       16.626905   0.000000
   27       16.981859   0.000000
   28       17.185519   0.000000
   29       22.507049   0.000000
   30       23.356294   0.000000
   31       23.974482   0.000000
   32       24.678492   0.000000
 
  0.3125000E+00  0.6250000E-01  0.6250000E-01  0.1953125E-02
    1       -0.635195   1.000000
    2       -0.371887   1.000000
    3        1.650907   1.000000
    4        1.831810   1.000000
    5        3.145084   1.000000
    6        3.392346   1.000000
    7        3.405034   1.000000
    8        3.794438   1.000000
    9        4.091600   1.000000
   10        4.293543   1.000000
   11        4.377214   1.000000
   12        4.773027   1.000000
   13        5.068963   1.000001
   14        5.275258   1.000344
   15        5.313185   1.000860
   16        5.563691   1.034396
   17        6.297128  -0.002167
   18        6.304524  -0.001857
   19        6.556080  -0.000002
   20        6.752920  -0.000000
   21        7.731042  -0.000000
   22        7.820266  -0.000000
   23        9.364960  -0.000000
   24       10.634031  -0.000000
   25       18.118691   0.000000
   26       18.405021   0.000000
   27       18.865564   0.000000
   28       19.060176   0.000000
   29       23.152291   0.000000
   30       23.885001   0.000000
   31       24.528379   0.000000
   32       24.970401   0.000000
 
  0.4375000E+00  0.6250000E-01  0.6250000E-01  0.1953125E-02
    1        0.683215   1.000000
    2        1.128274   1.000000
    3        1.559083   1.000000
    4        2.456702   1.000000
    5        2.496585   1.000000
    6        3.081376   1.000000
    7        3.592616   1.000000
    8        3.901490   1.000000
    9        3.939285   1.000000
   10        4.233518   1.000000
   11        4.526000   1.000000
   12        4.721068   1.000000
   13        5.156006   1.000011
   14        5.165416   1.000015
   15        5.434143   1.009057
   16        5.587857   1.035287
   17        5.784106   0.674177
   18        6.056290  -0.034506
   19        6.189140  -0.013890
   20        6.792595  -0.000000
   21        6.935716  -0.000000
   22        7.290261  -0.000000
   23        8.137985  -0.000000
   24        8.889518  -0.000000
   25       20.192424   0.000000
   26       20.634133   0.000000
   27       20.982000   0.000000
   28       21.324625   0.000000
   29       22.319314   0.000000
   30       22.987085   0.000000
   31       23.182295   0.000000
   32       23.813171   0.000000
 
 -0.4375000E+00  0.6250000E-01  0.6250000E-01  0.1953125E-02
    1        0.683218   1.000000
    2        1.128271   1.000000
    3        1.559080   1.000000
    4        2.456776   1.000000
    5        2.496512   1.000000
    6        3.081378   1.000000
    7        3.592615   1.000000
    8        3.901486   1.000000
    9        3.939282   1.000000
   10        4.233530   1.000000
   11        4.525994   1.000000
   12        4.721068   1.000000
   13        5.156011   1.000011
   14        5.165411   1.000015
   15        5.434158   1.009059
   16        5.587850   1.035287
   17        5.784106   0.674176
   18        6.056282  -0.034505
   19        6.189129  -0.013892
   20        6.792593  -0.000000
   21        6.935727  -0.000000
   22        7.290261  -0.000000
   23        8.137985  -0.000000
   24        8.889518  -0.000000
   25       20.192427   0.000000
   26       20.634135   0.000000
   27       20.981992   0.000000
   28       21.324634   0.000000
   29       22.319312   0.000000
   30       22.987128   0.000000
   31       23.182259   0.000000
   32       23.813160   0.000000
 
 -0.3125000E+00  0.6250000E-01  0.6250000E-01  0.1953125E-02
    1       -0.635193   1.000000
    2       -0.371888   1.000000
    3        1.650905   1.000000
    4        1.831811   1.000000
    5        3.145086   1.000000
    6        3.392347   1.000000
    7        3.405034   1.000000
    8        3.794434   1.000000
    9        4.091597   1.000000
   10        4.293542   1.000000
   11        4.377219   1.000000
   12        4.773022   1.000000
   13        5.068964   1.000001
   14        5.275259   1.000344
   15        5.313188   1.000860
   16        5.563687   1.034396
   17        6.297132  -0.002167
   18        6.304523  -0.001857
   19        6.556078  -0.000002
   20        6.752915  -0.000000
   21        7.731045  -0.000000
   22        7.820266  -0.000000
   23        9.364958  -0.000000
   24       10.634033  -0.000000
   25       18.118702   0.000000
   26       18.405030   0.000000
   27       18.865550   0.000000
   28       19.060179   0.000000
   29       23.152284   0.000000
   30       23.885011   0.000000
   31       24.528381   0.000000
   32       24.970397   0.000000
 
 -0.1875000E+00  0.6250000E-01  0.6250000E-01  0.1953125E-02
    1       -1.767555   1.000000
    2       -1.545934   1.000000
    3        1.347037   1.000000
    4        1.350795   1.000000
    5        3.105026   1.000000
    6        3.226628   1.000000
    7        3.373928   1.000000
    8        3.438279   1.000000
    9        3.925539   1.000000
   10        4.485151   1.000000
   11        4.849007   1.000000
   12        5.003767   1.000000
   13        5.278669   1.000374
   14        5.351065   1.001978
   15        5.402861   1.005377
   16        5.834552   0.465080
   17        5.902516   0.201973
   18        7.009081  -0.000000
   19        7.123669  -0.000000
   20        7.486223  -0.000000
   21        7.591875  -0.000000
   22        8.037504  -0.000000
   23       12.440917   0.000000
   24       13.253882   0.000000
   25       16.357716   0.000000
   26       16.626890   0.000000
   27       16.981881   0.000000
   28       17.185496   0.000000
   29       22.507043   0.000000
   30       23.356305   0.000000
   31       23.974479   0.000000
   32       24.678486   0.000000
 
 -0.6250000E-01  0.6250000E-01  0.6250000E-01  0.1953125E-02
    1       -2.390588   1.000000
    2       -2.176277   1.000000
    3        1.090930   1.000000
    4        1.091609   1.000000
    5        2.921295   1.000000
    6        2.921932   1.000000
    7        3.445070   1.000000
    8        3.473403   1.000000
    9        3.663993   1.000000
   10        4.723043   1.000000
   11        4.734415   1.000000
   12        5.378275   1.003414
   13        5.403509   1.005439
   14        5.567642   1.034800
   15        5.618584   1.028678
   16        5.850759   0.397326
   17        5.886596   0.257236
   18        7.445026  -0.000000
   19        7.449402  -0.000000
   20        7.697067  -0.000000
   21        8.054012  -0.000000
   22        8.089585  -0.000000
   23       15.232531   0.000000
   24       15.328303   0.000000
   25       15.637002   0.000000
   26       15.790008   0.000000
   27       15.826891   0.000000
   28       16.126500   0.000000
   29       22.218580   0.000000
   30       22.228175   0.000000
   31       23.130445   0.000000
   32       23.138086   0.000000
 
  0.6250000E-01  0.1875000E+00  0.6250000E-01  0.1953125E-02
    1       -1.767556   1.000000
    2       -1.545934   1.000000
    3        1.347040   1.000000
    4        1.350792   1.000000
    5        3.105022   1.000000
    6        3.226633   1.000000
    7        3.373929   1.000000
    8        3.438278   1.000000
    9        3.925539   1.000000
   10        4.485151   1.000000
   11        4.849013   1.000000
   12        5.003766   1.000000
   13        5.278667   1.000374
   14        5.351060   1.001978
   15        5.402866   1.005377
   16        5.834551   0.465085
   17        5.902517   0.201967
   18        7.009079  -0.000000
   19        7.123672  -0.000000
   20        7.486226  -0.000000
   21        7.591873  -0.000000
   22        8.037504  -0.000000
   23       12.440924   0.000000
   24       13.253891   0.000000
   25       16.357647   0.000000
   26       16.626850   0.000000
   27       16.981896   0.000000
   28       17.185565   0.000000
   29       22.507041   0.000000
   30       23.356295   0.000000
   31       23.974493   0.000000
   32       24.678482   0.000000
 
  0.1875000E+00  0.1875000E+00  0.6250000E-01  0.1953125E-02
    1       -1.186713   1.000000
    2       -0.948861   1.000000
    3        1.514185   1.000000
    4        1.656677   1.000000
    5        3.143501   1.000000
    6        3.334860   1.000000
    7        3.337508   1.000000
    8        3.431281   1.000000
    9        4.339829   1.000000
   10        4.351750   1.000000
   11        4.567222   1.000000
   12        4.789561   1.000000
   13        5.018354   1.000000
   14        5.095665   1.000002
   15        5.209860   1.000059
   16        5.938667   0.097828
   17        6.250904  -0.005265
   18        6.353105  -0.000623
   19        7.139005  -0.000000
   20        7.198568  -0.000000
   21        7.513670  -0.000000
   22        8.155217  -0.000000
   23       12.568256   0.000000
   24       13.455282   0.000000
   25       14.177563   0.000000
   26       15.080337   0.000000
   27       17.403655   0.000000
   28       18.010607   0.000000
   29       23.399769   0.000000
   30       24.117131   0.000000
   31       24.571426   0.000000
   32       25.058218   0.000000
 
  0.3125000E+00  0.1875000E+00  0.6250000E-01  0.1953125E-02
    1       -0.174129   1.000000
    2        0.142533   1.000000
    3        1.704842   1.000000
    4        2.131515   1.000000
    5        3.013134   1.000000
    6        3.269900   1.000000
    7        3.308084   1.000000
    8        3.755398   1.000000
    9        3.919355   1.000000
   10        4.423575   1.000000
   11        4.620632   1.000000
   12        4.804325   1.000000
   13        4.854651   1.000000
   14        4.994337   1.000000
   15        5.083760   1.000001
   16        5.610903   1.031380
   17        5.860437   0.357829
   18        6.673616  -0.000000
   19        6.874206  -0.000000
   20        6.942132  -0.000000
   21        7.710871  -0.000000
   22        8.068710  -0.000000
   23        9.907098  -0.000000
   24       11.147768  -0.000000
   25       15.182550   0.000000
   26       16.147602   0.000000
   27       18.950446   0.000000
   28       19.616277   0.000000
   29       21.754852   0.000000
   30       22.428549   0.000000
   31       24.046495   0.000000
   32       24.647265   0.000000
 
  0.4375000E+00  0.1875000E+00  0.6250000E-01  0.1953125E-02
    1        0.896744   1.000000
    2        1.484109   1.000000
    3        1.571778   1.000000
    4        2.616173   1.000000
    5        2.669632   1.000000
    6        2.954792   1.000000
    7        3.227190   1.000000
    8        3.384436   1.000000
    9        4.358329   1.000000
   10        4.387347   1.000000
   11        4.456892   1.000000
   12        4.797534   1.000000
   13        4.986366   1.000000
   14        5.180830   1.000025
   15        5.200283   1.000044
   16        5.566075   1.034650
   17        5.706963   0.918502
   18        6.546043  -0.000002
   19        6.639702  -0.000000
   20        7.339067  -0.000000
   21        7.395094  -0.000000
   22        7.773145  -0.000000
   23        8.104468  -0.000000
   24        9.144000  -0.000000
   25       17.026419   0.000000
   26       17.951922   0.000000
   27       19.224225   0.000000
   28       20.046394   0.000000
   29       20.928994   0.000000
   30       21.600128   0.000000
   31       23.151557   0.000000
   32       23.728135   0.000000
 
 -0.4375000E+00  0.1875000E+00  0.6250000E-01  0.1953125E-02
    1        0.896747   1.000000
    2        1.484105   1.000000
    3        1.571778   1.000000
    4        2.616236   1.000000
    5        2.669566   1.000000
    6        2.954795   1.000000
    7        3.227191   1.000000
    8        3.384440   1.000000
    9        4.358320   1.000000
   10        4.387406   1.000000
   11        4.456833   1.000000
   12        4.797552   1.000000
   13        4.986370   1.000000
   14        5.180806   1.000025
   15        5.200270   1.000044
   16        5.566082   1.034651
   17        5.706980   0.918466
   18        6.546042  -0.000002
   19        6.639701  -0.000000
   20        7.339073  -0.000000
   21        7.395089  -0.000000
   22        7.773141  -0.000000
   23        8.104468  -0.000000
   24        9.144003  -0.000000
   25       17.026421   0.000000
   26       17.951919   0.000000
   27       19.224221   0.000000
   28       20.046401   0.000000
   29       20.929004   0.000000
   30       21.600119   0.000000
   31       23.151536   0.000000
   32       23.728157   0.000000
 
 -0.3125000E+00  0.1875000E+00  0.6250000E-01  0.1953125E-02
    1       -0.174127   1.000000
    2        0.142531   1.000000
    3        1.704842   1.000000
    4        2.131515   1.000000
    5        3.013134   1.000000
    6        3.269904   1.000000
    7        3.308089   1.000000
    8        3.755379   1.000000
    9        3.919368   1.000000
   10        4.423565   1.000000
   11        4.620635   1.000000
   12        4.804350   1.000000
   13        4.854619   1.000000
   14        4.994338   1.000000
   15        5.083775   1.000001
   16        5.610896   1.031382
   17        5.860436   0.357832
   18        6.673615  -0.000000
   19        6.874206  -0.000000
   20        6.942131  -0.000000
   21        7.710871  -0.000000
   22        8.068713  -0.000000
   23        9.907095  -0.000000
   24       11.147769  -0.000000
   25       15.182552   0.000000
   26       16.147602   0.000000
   27       18.950457   0.000000
   28       19.616273   0.000000
   29       21.754845   0.000000
   30       22.428559   0.000000
   31       24.046491   0.000000
   32       24.647274   0.000000
 
 -0.1875000E+00  0.1875000E+00  0.6250000E-01  0.1953125E-02
    1       -1.186712   1.000000
    2       -0.948862   1.000000
    3        1.514186   1.000000
    4        1.656677   1.000000
    5        3.143502   1.000000
    6        3.334847   1.000000
    7        3.337521   1.000000
    8        3.431283   1.000000
    9        4.339828   1.000000
   10        4.351745   1.000000
   11        4.567211   1.000000
   12        4.789572   1.000000
   13        5.018355   1.000000
   14        5.095671   1.000002
   15        5.209858   1.000059
   16        5.938661   0.097843
   17        6.250905  -0.005265
   18        6.353105  -0.000623
   19        7.139005  -0.000000
   20        7.198568  -0.000000
   21        7.513669  -0.000000
   22        8.155217  -0.000000
   23       12.568258   0.000000
   24       13.455274   0.000000
   25       14.177563   0.000000
   26       15.080339   0.000000
   27       17.403677   0.000000
   28       18.010599   0.000000
   29       23.399755   0.000000
   30       24.117156   0.000000
   31       24.571417   0.000000
   32       25.058229   0.000000
 
 -0.6250000E-01  0.1875000E+00  0.6250000E-01  0.1953125E-02
    1       -1.767556   1.000000
    2       -1.545934   1.000000
    3        1.347040   1.000000
    4        1.350792   1.000000
    5        3.105022   1.000000
    6        3.226633   1.000000
    7        3.373929   1.000000
    8        3.438278   1.000000
    9        3.925539   1.000000
   10        4.485149   1.000000
   11        4.849014   1.000000
   12        5.003766   1.000000
   13        5.278673   1.000374
   14        5.351054   1.001978
   15        5.402864   1.005377
   16        5.834551   0.465085
   17        5.902518   0.201966
   18        7.009080  -0.000000
   19        7.123672  -0.000000
   20        7.486225  -0.000000
   21        7.591873  -0.000000
   22        8.037504  -0.000000
   23       12.440925   0.000000
   24       13.253890   0.000000
   25       16.357655   0.000000
   26       16.626773   0.000000
   27       16.981986   0.000000
   28       17.185550   0.000000
   29       22.507041   0.000000
   30       23.356306   0.000000
   31       23.974482   0.000000
   32       24.678480   0.000000
 
  0.6250000E-01  0.3125000E+00  0.6250000E-01  0.1953125E-02
    1       -0.635195   1.000000
    2       -0.371888   1.000000
    3        1.650908   1.000000
    4        1.831807   1.000000
    5        3.145083   1.000000
    6        3.392345   1.000000
    7        3.405036   1.000000
    8        3.794442   1.000000
    9        4.091597   1.000000
   10        4.293543   1.000000
   11        4.377216   1.000000
   12        4.773025   1.000000
   13        5.068975   1.000001
   14        5.275262   1.000344
   15        5.313172   1.000859
   16        5.563686   1.034396
   17        6.297128  -0.002167
   18        6.304526  -0.001857
   19        6.556081  -0.000002
   20        6.752925  -0.000000
   21        7.731044  -0.000000
   22        7.820264  -0.000000
   23        9.364957  -0.000000
   24       10.634033  -0.000000
   25       18.118646   0.000000
   26       18.404985   0.000000
   27       18.865602   0.000000
   28       19.060221   0.000000
   29       23.152282   0.000000
   30       23.885008   0.000000
   31       24.528364   0.000000
   32       24.970410   0.000000
 
  0.1875000E+00  0.3125000E+00  0.6250000E-01  0.1953125E-02
    1       -0.174129   1.000000
    2        0.142532   1.000000
    3        1.704843   1.000000
    4        2.131513   1.000000
    5        3.013133   1.000000
    6        3.269902   1.000000
    7        3.308080   1.000000
    8        3.755396   1.000000
    9        3.919365   1.000000
   10        4.423569   1.000000
   11        4.620627   1.000000
   12        4.804327   1.000000
   13        4.854653   1.000000
   14        4.994352   1.000000
   15        5.083748   1.000001
   16        5.610902   1.031380
   17        5.860439   0.357821
   18        6.673616  -0.000000
   19        6.874205  -0.000000
   20        6.942136  -0.000000
   21        7.710869  -0.000000
   22        8.068713  -0.000000
   23        9.907095  -0.000000
   24       11.147770  -0.000000
   25       15.182547   0.000000
   26       16.147594   0.000000
   27       18.950450   0.000000
   28       19.616282   0.000000
   29       21.754847   0.000000
   30       22.428552   0.000000
   31       24.046499   0.000000
   32       24.647261   0.000000
 
  0.3125000E+00  0.3125000E+00  0.6250000E-01  0.1953125E-02
    1        0.481676   1.000000
    2        1.009641   1.000000
    3        1.558620   1.000000
    4        2.731642   1.000000
    5        2.772826   1.000000
    6        3.101290   1.000000
    7        3.203335   1.000000
    8        3.522639   1.000000
    9        4.445556   1.000000
   10        4.478016   1.000000
   11        4.495898   1.000000
   12        4.694799   1.000000
   13        4.878638   1.000000
   14        5.007170   1.000000
   15        5.015746   1.000000
   16        5.429953   1.008478
   17        6.016849  -0.019508
   18        6.690620  -0.000000
   19        7.207710  -0.000000
   20        7.508988  -0.000000
   21        7.627181  -0.000000
   22        8.255684  -0.000000
   23        9.708605  -0.000000
   24       10.890835  -0.000000
   25       13.428150   0.000000
   26       14.667917   0.000000
   27       18.792179   0.000000
   28       19.636426   0.000000
   29       20.171240   0.000000
   30       20.819578   0.000000
   31       24.549168   0.000000
   32       25.027673   0.000000
 
  0.4375000E+00  0.3125000E+00  0.6250000E-01  0.1953125E-02
    1        0.970482   1.000000
    2        1.297159   1.000000
    3        1.910726   1.000000
    4        2.606700   1.000000
    5        2.654824   1.000000
    6        2.812243   1.000000
    7        3.438238   1.000000
    8        3.823786   1.000000
    9        4.407489   1.000000
   10        4.526317   1.000000
   11        4.631782   1.000000
   12        4.729128   1.000000
   13        5.025117   1.000000
   14        5.169470   1.000017
   15        5.286127   1.000451
   16        5.875650   0.298034
   17        6.118423  -0.029365
   18        6.944013  -0.000000
   19        7.141858  -0.000000
   20        7.737167  -0.000000
   21        7.794277  -0.000000
   22        8.127085  -0.000000
   23        8.175805  -0.000000
   24        9.299278  -0.000000
   25       14.318452   0.000000
   26       15.499677   0.000000
   27       16.268854   0.000000
   28       17.284446   0.000000
   29       21.805466   0.000000
   30       22.382011   0.000000
   31       23.645530   0.000000
   32       24.045913   0.000000
 
 -0.4375000E+00  0.3125000E+00  0.6250000E-01  0.1953125E-02
    1        0.970484   1.000000
    2        1.297157   1.000000
    3        1.910724   1.000000
    4        2.606703   1.000000
    5        2.654824   1.000000
    6        2.812243   1.000000
    7        3.438234   1.000000
    8        3.823794   1.000000
    9        4.407475   1.000000
   10        4.526406   1.000000
   11        4.631683   1.000000
   12        4.729155   1.000000
   13        5.025126   1.000000
   14        5.169492   1.000017
   15        5.286059   1.000450
   16        5.875650   0.298034
   17        6.118455  -0.029358
   18        6.944013  -0.000000
   19        7.141858  -0.000000
   20        7.737182  -0.000000
   21        7.794272  -0.000000
   22        8.127067  -0.000000
   23        8.175802  -0.000000
   24        9.299285  -0.000000
   25       14.318452   0.000000
   26       15.499677   0.000000
   27       16.268853   0.000000
   28       17.284446   0.000000
   29       21.805481   0.000000
   30       22.381989   0.000000
   31       23.645498   0.000000
   32       24.045967   0.000000
 
 -0.3125000E+00  0.3125000E+00  0.6250000E-01  0.1953125E-02
    1        0.481678   1.000000
    2        1.009639   1.000000
    3        1.558620   1.000000
    4        2.731642   1.000000
    5        2.772825   1.000000
    6        3.101288   1.000000
    7        3.203341   1.000000
    8        3.522643   1.000000
    9        4.445533   1.000000
   10        4.478045   1.000000
   11        4.495883   1.000000
   12        4.694820   1.000000
   13        4.878665   1.000000
   14        5.007160   1.000000
   15        5.015671   1.000000
   16        5.429992   1.008483
   17        6.016846  -0.019506
   18        6.690622  -0.000000
   19        7.207710  -0.000000
   20        7.508988  -0.000000
   21        7.627178  -0.000000
   22        8.255685  -0.000000
   23        9.708605  -0.000000
   24       10.890835  -0.000000
   25       13.428148   0.000000
   26       14.667918   0.000000
   27       18.792178   0.000000
   28       19.636425   0.000000
   29       20.171252   0.000000
   30       20.819568   0.000000
   31       24.549168   0.000000
   32       25.027668   0.000000
 
 -0.1875000E+00  0.3125000E+00  0.6250000E-01  0.1953125E-02
    1       -0.174128   1.000000
    2        0.142531   1.000000
    3        1.704843   1.000000
    4        2.131513   1.000000
    5        3.013135   1.000000
    6        3.269900   1.000000
    7        3.308079   1.000000
    8        3.755432   1.000000
    9        3.919324   1.000000
   10        4.423566   1.000000
   11        4.620640   1.000000
   12        4.804370   1.000000
   13        4.854616   1.000000
   14        4.994299   1.000000
   15        5.083799   1.000001
   16        5.610893   1.031383
   17        5.860439   0.357823
   18        6.673617  -0.000000
   19        6.874206  -0.000000
   20        6.942134  -0.000000
   21        7.710868  -0.000000
   22        8.068711  -0.000000
   23        9.907098  -0.000000
   24       11.147769  -0.000000
   25       15.182546   0.000000
   26       16.147585   0.000000
   27       18.950478   0.000000
   28       19.616271   0.000000
   29       21.754846   0.000000
   30       22.428545   0.000000
   31       24.046483   0.000000
   32       24.647288   0.000000
 
 -0.6250000E-01  0.3125000E+00  0.6250000E-01  0.1953125E-02
    1       -0.635194   1.000000
    2       -0.371888   1.000000
    3        1.650908   1.000000
    4        1.831807   1.000000
    5        3.145083   1.000000
    6        3.392346   1.000000
    7        3.405035   1.000000
    8        3.794442   1.000000
    9        4.091596   1.000000
   10        4.293543   1.000000
   11        4.377215   1.000000
   12        4.773026   1.000000
   13        5.068973   1.000001
   14        5.275268   1.000344
   15        5.313168   1.000859
   16        5.563686   1.034396
   17        6.297130  -0.002167
   18        6.304526  -0.001857
   19        6.556081  -0.000002
   20        6.752921  -0.000000
   21        7.731045  -0.000000
   22        7.820263  -0.000000
   23        9.364958  -0.000000
   24       10.634033  -0.000000
   25       18.118652   0.000000
   26       18.404923   0.000000
   27       18.865663   0.000000
   28       19.060221   0.000000
   29       23.152282   0.000000
   30       23.885013   0.000000
   31       24.528358   0.000000
   32       24.970413   0.000000
 
  0.6250000E-01  0.4375000E+00  0.6250000E-01  0.1953125E-02
    1        0.683215   1.000000
    2        1.128272   1.000000
    3        1.559083   1.000000
    4        2.456694   1.000000
    5        2.496592   1.000000
    6        3.081373   1.000000
    7        3.592621   1.000000
    8        3.901495   1.000000
    9        3.939280   1.000000
   10        4.233523   1.000000
   11        4.525990   1.000000
   12        4.721065   1.000000
   13        5.156029   1.000011
   14        5.165418   1.000015
   15        5.434118   1.009053
   16        5.587876   1.035286
   17        5.784102   0.674190
   18        6.056281  -0.034505
   19        6.189155  -0.013887
   20        6.792596  -0.000000
   21        6.935703  -0.000000
   22        7.290265  -0.000000
   23        8.137982  -0.000000
   24        8.889516  -0.000000
   25       20.192387   0.000000
   26       20.634062   0.000000
   27       20.982078   0.000000
   28       21.324661   0.000000
   29       22.319290   0.000000
   30       22.987036   0.000000
   31       23.182358   0.000000
   32       23.813190   0.000000
 
  0.1875000E+00  0.4375000E+00  0.6250000E-01  0.1953125E-02
    1        0.896745   1.000000
    2        1.484107   1.000000
    3        1.571780   1.000000
    4        2.616178   1.000000
    5        2.669621   1.000000
    6        2.954788   1.000000
    7        3.227194   1.000000
    8        3.384441   1.000000
    9        4.358317   1.000000
   10        4.387375   1.000000
   11        4.456858   1.000000
   12        4.797553   1.000000
   13        4.986374   1.000000
   14        5.180812   1.000025
   15        5.200280   1.000044
   16        5.566084   1.034651
   17        5.706972   0.918483
   18        6.546045  -0.000002
   19        6.639702  -0.000000
   20        7.339073  -0.000000
   21        7.395091  -0.000000
   22        7.773136  -0.000000
   23        8.104466  -0.000000
   24        9.144002  -0.000000
   25       17.026415   0.000000
   26       17.951913   0.000000
   27       19.224219   0.000000
   28       20.046397   0.000000
   29       20.928998   0.000000
   30       21.600133   0.000000
   31       23.151541   0.000000
   32       23.728164   0.000000
 
  0.3125000E+00  0.4375000E+00  0.6250000E-01  0.1953125E-02
    1        0.970483   1.000000
    2        1.297159   1.000000
    3        1.910726   1.000000
    4        2.606698   1.000000
    5        2.654823   1.000000
    6        2.812246   1.000000
    7        3.438235   1.000000
    8        3.823787   1.000000
    9        4.407476   1.000000
   10        4.526342   1.000000
   11        4.631751   1.000000
   12        4.729145   1.000000
   13        5.025122   1.000000
   14        5.169470   1.000017
   15        5.286115   1.000451
   16        5.875658   0.298005
   17        6.118433  -0.029363
   18        6.944009  -0.000000
   19        7.141860  -0.000000