 running on   16 total cores
 distrk:  each k-point on   16 cores,    1 groups
 distr:  one band on    4 cores,    4 groups
 using from now: INCAR     
 vasp.5.4.4.18Apr17-6-g9f103f2a35 (build Jan 04 2020 13:53:51) complex          
  
 POSCAR found type information on POSCAR  Fe
 POSCAR found :  1 types and       2 ions
 scaLAPACK will be used
 LDA part: xc-table for Pade appr. of Perdew
 POSCAR, INCAR and KPOINTS ok, starting setup
 FFT: planning ...
 WAVECAR not read
 entering main loop
       N       E                     dE             d eps       ncg     rms          rms(c)
DAV:   1     0.108209395045E+03    0.10821E+03   -0.64533E+03 34400   0.126E+03
DAV:   2    -0.117931343411E+02   -0.12000E+03   -0.10921E+03 32816   0.267E+02
DAV:   3    -0.184898567415E+02   -0.66967E+01   -0.60372E+01 36928   0.865E+01
DAV:   4    -0.185756063032E+02   -0.85750E-01   -0.85570E-01 37120   0.110E+01
DAV:   5    -0.185764357862E+02   -0.82948E-03   -0.82946E-03 37944   0.863E-01    0.161E+01
DAV:   6    -0.166168136732E+02    0.19596E+01   -0.95200E+00 37936   0.652E+01    0.819E+00
DAV:   7    -0.165100263165E+02    0.10679E+00   -0.94926E-01 37440   0.190E+01    0.488E+00
DAV:   8    -0.164998940036E+02    0.10132E-01   -0.30191E-02 36024   0.180E+00    0.203E+00
DAV:   9    -0.164867150879E+02    0.13179E-01   -0.33025E-02 35368   0.168E+00    0.529E-01
DAV:  10    -0.164830893217E+02    0.36258E-02   -0.45651E-02 33104   0.209E+00    0.283E-01
DAV:  11    -0.164853118713E+02   -0.22225E-02   -0.42778E-03 36416   0.908E-01    0.206E-01
DAV:  12    -0.164856839464E+02   -0.37208E-03   -0.70671E-03 33296   0.927E-01    0.107E-01
DAV:  13    -0.164864774366E+02   -0.79349E-03   -0.14833E-02 34864   0.981E-01    0.126E-01
DAV:  14    -0.164857148133E+02    0.76262E-03   -0.11378E-02 34576   0.845E-01    0.475E-02
DAV:  15    -0.164858858783E+02   -0.17106E-03   -0.83279E-03 34560   0.730E-01    0.782E-02
DAV:  16    -0.164857405804E+02    0.14530E-03   -0.45171E-03 33960   0.531E-01    0.511E-02
DAV:  17    -0.164858882444E+02   -0.14766E-03   -0.34819E-03 34072   0.473E-01    0.402E-02
DAV:  18    -0.164858282269E+02    0.60018E-04   -0.20668E-03 34392   0.372E-01    0.234E-02
DAV:  19    -0.164858136500E+02    0.14577E-04   -0.13083E-03 34424   0.281E-01    0.177E-02
DAV:  20    -0.164859006289E+02   -0.86979E-04   -0.61810E-04 34208   0.190E-01    0.134E-02
DAV:  21    -0.164859913806E+02   -0.90752E-04   -0.37709E-04 33752   0.152E-01    0.989E-03
DAV:  22    -0.164860292631E+02   -0.37882E-04   -0.18879E-04 33928   0.107E-01    0.848E-03
DAV:  23    -0.164860293549E+02   -0.91838E-07   -0.92230E-05 34240   0.758E-02
   1 F= -.16486029E+02 E0= -.16484835E+02  d E =-.358397E-02  mag=     0.0001    -0.0007     4.4178
