   1   1   0   0
  0.1386300E+02  0.2621157E-09  0.2621157E-09  0.2621157E-09  0.5000000E-15
  1.000000000000000E-004
  CAR 
 unknown system                          
     36.37503838     -6.24832890  301      9.90036035      1.00000000
     -6.248  0.0000E+00  0.0000E+00
     -6.106  0.0000E+00  0.0000E+00
     -5.964  0.0000E+00  0.0000E+00
     -5.822  0.0000E+00  0.0000E+00
     -5.680  0.0000E+00  0.0000E+00
     -5.538  0.0000E+00  0.0000E+00
     -5.396  0.0000E+00  0.0000E+00
     -5.254  0.0000E+00  0.0000E+00
     -5.112  0.0000E+00  0.0000E+00
     -4.970  0.0000E+00  0.0000E+00
     -4.828  0.0000E+00  0.0000E+00
     -4.685  0.0000E+00  0.0000E+00
     -4.543  0.3677E-15  0.5224E-16
     -4.401  0.8074E-07  0.1147E-07
     -4.259  0.7066E-04  0.1005E-04
     -4.117  0.3377E-03  0.5804E-04
     -3.975  0.5557E-03  0.1370E-03
     -3.833  0.6530E-03  0.2298E-03
     -3.691  0.7742E-03  0.3398E-03
     -3.549  0.8401E-03  0.4591E-03
     -3.407  0.1123E-02  0.6186E-03
     -3.265  0.9468E-03  0.7532E-03
     -3.123  0.9551E-03  0.8889E-03
     -2.981  0.1451E-02  0.1095E-02
     -2.838  0.1259E-02  0.1274E-02
     -2.696  0.1108E-02  0.1431E-02
     -2.554  0.1331E-02  0.1621E-02
     -2.412  0.1891E-02  0.1889E-02
     -2.270  0.1222E-02  0.2063E-02
     -2.128  0.1344E-02  0.2254E-02
     -1.986  0.1742E-02  0.2501E-02
     -1.844  0.1543E-02  0.2720E-02
     -1.702  0.2274E-02  0.3043E-02
     -1.560  0.1200E-02  0.3214E-02
     -1.418  0.1305E-02  0.3399E-02
     -1.276  0.2407E-02  0.3741E-02
     -1.134  0.2029E-02  0.4030E-02
     -0.991  0.1725E-02  0.4275E-02
     -0.849  0.2062E-02  0.4568E-02
     -0.707  0.1727E-02  0.4813E-02
     -0.565  0.1932E-02  0.5088E-02
     -0.423  0.2272E-02  0.5410E-02
     -0.281  0.2387E-02  0.5750E-02
     -0.139  0.2128E-02  0.6052E-02
      0.003  0.2116E-02  0.6352E-02
      0.145  0.1985E-02  0.6634E-02
      0.287  0.2267E-02  0.6957E-02
      0.429  0.2934E-02  0.7373E-02
      0.571  0.1887E-02  0.7642E-02
      0.713  0.2652E-02  0.8018E-02
      0.856  0.2782E-02  0.8414E-02
      0.998  0.2654E-02  0.8791E-02
      1.140  0.1609E-02  0.9019E-02
      1.282  0.2301E-02  0.9346E-02
      1.424  0.3239E-02  0.9806E-02
      1.566  0.2867E-02  0.1021E-01
      1.708  0.2635E-02  0.1059E-01
      1.850  0.2342E-02  0.1092E-01
      1.992  0.3205E-02  0.1138E-01
      2.134  0.2439E-02  0.1172E-01
      2.276  0.1196E-02  0.1189E-01
      2.418  0.4202E-02  0.1249E-01
      2.561  0.3140E-02  0.1294E-01
      2.703  0.2847E-02  0.1334E-01
      2.845  0.3417E-02  0.1383E-01
      2.987  0.2528E-02  0.1419E-01
      3.129  0.3519E-02  0.1469E-01
      3.271  0.2188E-02  0.1500E-01
      3.413  0.2033E-02  0.1528E-01
      3.555  0.4444E-02  0.1592E-01
      3.697  0.3224E-02  0.1637E-01
      3.839  0.3188E-02  0.1683E-01
      3.981  0.2920E-02  0.1724E-01
      4.123  0.2587E-02  0.1761E-01
      4.265  0.3524E-02  0.1811E-01
      4.408  0.3037E-02  0.1854E-01
      4.550  0.2189E-02  0.1885E-01
      4.692  0.3910E-02  0.1941E-01
      4.834  0.4832E-02  0.2009E-01
      4.976  0.1913E-02  0.2037E-01
      5.118  0.4581E-02  0.2102E-01
      5.260  0.3641E-02  0.2154E-01
      5.402  0.1431E-02  0.2174E-01
      5.544  0.3762E-02  0.2227E-01
      5.686  0.4243E-02  0.2288E-01
      5.828  0.4223E-02  0.2348E-01
      5.970  0.2664E-02  0.2385E-01
      6.112  0.3496E-02  0.2435E-01
      6.255  0.3822E-02  0.2489E-01
      6.397  0.4233E-02  0.2550E-01
      6.539  0.3213E-02  0.2595E-01
      6.681  0.3915E-02  0.2651E-01
      6.823  0.4549E-02  0.2715E-01
      6.965  0.2544E-02  0.2752E-01
      7.107  0.3847E-02  0.2806E-01
      7.249  0.4230E-02  0.2866E-01
      7.391  0.3449E-02  0.2915E-01
      7.533  0.4434E-02  0.2978E-01
      7.675  0.3639E-02  0.3030E-01
      7.817  0.4531E-02  0.3094E-01
      7.959  0.4864E-02  0.3164E-01
      8.102  0.2198E-02  0.3195E-01
      8.244  0.4066E-02  0.3253E-01
      8.386  0.6566E-02  0.3346E-01
      8.528  0.2583E-02  0.3382E-01
      8.670  0.2993E-02  0.3425E-01
      8.812  0.4433E-02  0.3488E-01
      8.954  0.4402E-02  0.3551E-01
      9.096  0.5874E-02  0.3634E-01
      9.238  0.4159E-02  0.3693E-01
      9.380  0.5407E-02  0.3770E-01
      9.522  0.4243E-02  0.3830E-01
      9.664  0.3376E-02  0.3878E-01
      9.806  0.4406E-02  0.3941E-01
      9.949  0.5798E-02  0.4023E-01
     10.091  0.4089E-02  0.4081E-01
     10.233  0.4018E-02  0.4138E-01
     10.375  0.4543E-02  0.4203E-01
     10.517  0.5320E-02  0.4278E-01
     10.659  0.5102E-02  0.4351E-01
     10.801  0.2886E-02  0.4392E-01
     10.943  0.4824E-02  0.4460E-01
     11.085  0.5515E-02  0.4539E-01
     11.227  0.2979E-02  0.4581E-01
     11.369  0.5458E-02  0.4659E-01
     11.511  0.4208E-02  0.4718E-01
     11.653  0.2117E-02  0.4749E-01
     11.796  0.4338E-02  0.4810E-01
     11.938  0.4286E-02  0.4871E-01
     12.080  0.5288E-02  0.4946E-01
     12.222  0.6530E-02  0.5039E-01
     12.364  0.2301E-02  0.5072E-01
     12.506  0.5050E-02  0.5143E-01
     12.648  0.3806E-02  0.5198E-01
     12.790  0.3920E-02  0.5253E-01
     12.932  0.5930E-02  0.5337E-01
     13.074  0.5483E-02  0.5415E-01
     13.216  0.3956E-02  0.5472E-01
     13.358  0.3299E-02  0.5518E-01
     13.500  0.4510E-02  0.5583E-01
     13.643  0.4798E-02  0.5651E-01
     13.785  0.5065E-02  0.5723E-01
     13.927  0.6416E-02  0.5814E-01
     14.069  0.5429E-02  0.5891E-01
     14.211  0.4409E-02  0.5954E-01
     14.353  0.5135E-02  0.6027E-01
     14.495  0.4854E-02  0.6096E-01
     14.637  0.3816E-02  0.6150E-01
     14.779  0.5268E-02  0.6225E-01
     14.921  0.5841E-02  0.6308E-01
     15.063  0.5365E-02  0.6384E-01
     15.205  0.4327E-02  0.6445E-01
     15.348  0.5327E-02  0.6521E-01
     15.490  0.5188E-02  0.6595E-01
     15.632  0.4953E-02  0.6665E-01
     15.774  0.6502E-02  0.6757E-01
     15.916  0.6830E-02  0.6854E-01
     16.058  0.5177E-02  0.6928E-01
     16.200  0.4600E-02  0.6993E-01
     16.342  0.3646E-02  0.7045E-01
     16.484  0.3597E-02  0.7096E-01
     16.626  0.6151E-02  0.7184E-01
     16.768  0.6113E-02  0.7271E-01
     16.910  0.6103E-02  0.7357E-01
     17.052  0.6592E-02  0.7451E-01
     17.195  0.7305E-02  0.7555E-01
     17.337  0.8548E-02  0.7676E-01
     17.479  0.4612E-02  0.7742E-01
     17.621  0.5181E-02  0.7815E-01
     17.763  0.5612E-02  0.7895E-01
     17.905  0.7291E-02  0.7999E-01
     18.047  0.5198E-02  0.8072E-01
     18.189  0.4205E-02  0.8132E-01
     18.331  0.3748E-02  0.8185E-01
     18.473  0.2806E-02  0.8225E-01
     18.615  0.4593E-02  0.8291E-01
     18.757  0.6197E-02  0.8379E-01
     18.899  0.1354E-02  0.8398E-01
     19.042  0.4830E-02  0.8466E-01
     19.184  0.4705E-02  0.8533E-01
     19.326  0.4538E-02  0.8598E-01
     19.468  0.2535E-02  0.8634E-01
     19.610  0.3548E-02  0.8684E-01
     19.752  0.4722E-02  0.8751E-01
     19.894  0.8549E-02  0.8873E-01
     20.036  0.7402E-02  0.8978E-01
     20.178  0.4600E-02  0.9043E-01
     20.320  0.6244E-02  0.9132E-01
     20.462  0.6660E-02  0.9227E-01
     20.604  0.5225E-02  0.9301E-01
     20.746  0.4810E-02  0.9369E-01
     20.889  0.6043E-02  0.9455E-01
     21.031  0.6079E-02  0.9541E-01
     21.173  0.3248E-02  0.9588E-01
     21.315  0.4975E-02  0.9658E-01
     21.457  0.8243E-02  0.9775E-01
     21.599  0.8234E-02  0.9892E-01
     21.741  0.9615E-02  0.1003E+00
     21.883  0.4943E-02  0.1010E+00
     22.025  0.1050E-01  0.1025E+00
     22.167  0.7277E-02  0.1035E+00
     22.309  0.8730E-02  0.1048E+00
     22.451  0.7916E-02  0.1059E+00
     22.593  0.2788E-02  0.1063E+00
     22.736  0.5444E-02  0.1071E+00
     22.878  0.4186E-02  0.1076E+00
     23.020  0.8005E-02  0.1088E+00
     23.162  0.6682E-02  0.1097E+00
     23.304  0.5979E-02  0.1106E+00
     23.446  0.5695E-02  0.1114E+00
     23.588  0.6383E-02  0.1123E+00
     23.730  0.7434E-02  0.1134E+00
     23.872  0.3943E-02  0.1139E+00
     24.014  0.3269E-02  0.1144E+00
     24.156  0.3986E-02  0.1149E+00
     24.298  0.4915E-02  0.1156E+00
     24.440  0.5685E-02  0.1165E+00
     24.583  0.6755E-02  0.1174E+00
     24.725  0.7992E-02  0.1185E+00
     24.867  0.6571E-02  0.1195E+00
     25.009  0.4050E-02  0.1201E+00
     25.151  0.5374E-02  0.1208E+00
     25.293  0.5481E-02  0.1216E+00
     25.435  0.1293E-01  0.1234E+00
     25.577  0.7355E-02  0.1245E+00
     25.719  0.4539E-02  0.1251E+00
     25.861  0.5606E-02  0.1259E+00
     26.003  0.4322E-02  0.1265E+00
     26.145  0.6747E-02  0.1275E+00
     26.288  0.7067E-02  0.1285E+00
     26.430  0.7832E-02  0.1296E+00
     26.572  0.4179E-02  0.1302E+00
     26.714  0.4862E-02  0.1309E+00
     26.856  0.5794E-02  0.1317E+00
     26.998  0.5547E-02  0.1325E+00
     27.140  0.5189E-02  0.1332E+00
     27.282  0.5492E-02  0.1340E+00
     27.424  0.7784E-02  0.1351E+00
     27.566  0.6680E-02  0.1361E+00
     27.708  0.5867E-02  0.1369E+00
     27.850  0.6892E-02  0.1379E+00
     27.992  0.7228E-02  0.1389E+00
     28.135  0.7167E-02  0.1399E+00
     28.277  0.6648E-02  0.1409E+00
     28.419  0.5676E-02  0.1417E+00
     28.561  0.5867E-02  0.1425E+00
     28.703  0.7277E-02  0.1436E+00
     28.845  0.5154E-02  0.1443E+00
     28.987  0.5333E-02  0.1450E+00
     29.129  0.7921E-02  0.1462E+00
     29.271  0.7824E-02  0.1473E+00
     29.413  0.7916E-02  0.1484E+00
     29.555  0.8652E-02  0.1496E+00
     29.697  0.3720E-02  0.1502E+00
     29.839  0.7173E-02  0.1512E+00
     29.982  0.5207E-02  0.1519E+00
     30.124  0.4288E-02  0.1525E+00
     30.266  0.7674E-02  0.1536E+00
     30.408  0.6134E-02  0.1545E+00
     30.550  0.5682E-02  0.1553E+00
     30.692  0.6367E-02  0.1562E+00
     30.834  0.4474E-02  0.1568E+00
     30.976  0.4593E-02  0.1575E+00
     31.118  0.2613E-02  0.1579E+00
     31.260  0.2481E-02  0.1582E+00
     31.402  0.1898E-02  0.1585E+00
     31.544  0.1411E-02  0.1587E+00
     31.686  0.6985E-03  0.1588E+00
     31.829  0.7830E-03  0.1589E+00
     31.971  0.1004E-02  0.1590E+00
     32.113  0.4189E-03  0.1591E+00
     32.255  0.1126E-02  0.1593E+00
     32.397  0.1258E-02  0.1594E+00
     32.539  0.7210E-03  0.1595E+00
     32.681  0.5352E-03  0.1596E+00
     32.823  0.1043E-03  0.1596E+00
     32.965  0.4312E-03  0.1597E+00
     33.107  0.4648E-04  0.1597E+00
     33.249  0.3576E-03  0.1598E+00
     33.391  0.3148E-03  0.1598E+00
     33.533  0.2710E-03  0.1598E+00
     33.676  0.4776E-03  0.1599E+00
     33.818  0.3685E-03  0.1600E+00
     33.960  0.2725E-06  0.1600E+00
     34.102  0.2981E-12  0.1600E+00
     34.244  0.3397E-05  0.1600E+00
     34.386  0.1395E-03  0.1600E+00
     34.528  0.1604E-03  0.1600E+00
     34.670  0.6446E-06  0.1600E+00
     34.812  0.2941E-14  0.1600E+00
     34.954  0.0000E+00  0.1600E+00
     35.096  0.0000E+00  0.1600E+00
     35.238  0.0000E+00  0.1600E+00
     35.380  0.0000E+00  0.1600E+00
     35.523  0.0000E+00  0.1600E+00
     35.665  0.0000E+00  0.1600E+00
     35.807  0.0000E+00  0.1600E+00
     35.949  0.0000E+00  0.1600E+00
     36.091  0.0000E+00  0.1600E+00
     36.233  0.0000E+00  0.1600E+00
     36.375  0.0000E+00  0.1600E+00
