    1    1  100    1
  0.1386300E+02  0.2621157E-09  0.2621157E-09  0.2621157E-09  0.5000000E-15
  1.000000000000000E-004
  CAR 
 unknown system                          
      4    286      8
 
  0.0000000E+00  0.0000000E+00  0.0000000E+00  0.1079797E-03
    1       -4.310903   1.000000
    2       21.324311   0.000000
    3       21.324311   0.000000
    4       21.324311   0.000000
    5       22.491264   0.000000
    6       22.491264   0.000000
    7       22.491264   0.000000
    8       26.172566   0.000000
 
  0.4761905E-01  0.0000000E+00  0.0000000E+00  0.1295756E-02
    1       -4.241418   1.000000
    2       20.355068   0.000000
    3       20.597999   0.000000
    4       21.225127   0.000000
    5       22.250968   0.000000
    6       23.034183   0.000000
    7       23.334451   0.000000
    8       25.577487   0.000000
 
  0.9523810E-01  0.0000000E+00  0.0000000E+00  0.1295756E-02
    1       -4.033055   1.000000
    2       18.646896   0.000000
    3       19.596908   0.000000
    4       20.941585   0.000000
    5       21.653793   0.000000
    6       23.348954   0.000000
    7       24.675946   0.000000
    8       25.009884   0.000000
 
  0.1428571E+00  0.0000000E+00  0.0000000E+00  0.1295756E-02
    1       -3.686230   1.000000
    2       16.700585   0.000000
    3       18.676546   0.000000
    4       20.519451   0.000000
    5       20.908352   0.000000
    6       22.882939   0.000000
    7       25.292420   0.000000
    8       25.967110   0.000000
 
  0.1904762E+00  0.0000000E+00  0.0000000E+00  0.1295756E-02
    1       -3.201690   1.000000
    2       14.680083   0.000000
    3       17.864189   0.000000
    4       20.026160   0.000000
    5       20.151070   0.000000
    6       22.196856   0.000000
    7       25.921550   0.000000
    8       26.175820   0.000000
 
  0.2380952E+00  0.0000000E+00  0.0000000E+00  0.1295756E-02
    1       -2.580406   1.000000
    2       12.673859   0.000000
    3       17.165101   0.000000
    4       19.448307   0.000000
    5       19.525392   0.000000
    6       21.549291   0.000000
    7       26.558479   0.000000
    8       26.658586   0.000000
 
  0.2857143E+00  0.0000000E+00  0.0000000E+00  0.1295756E-02
    1       -1.823623   1.000000
    2       10.730358   0.000000
    3       16.582413   0.000000
    4       18.837242   0.000000
    5       19.063828   0.000000
    6       20.987696   0.000000
    7       27.098249   0.000000
    8       27.474329   0.000000
 
  0.3333333E+00  0.0000000E+00  0.0000000E+00  0.1295756E-02
    1       -0.932969   1.000000
    2        8.873901   1.000000
    3       16.116291   0.000000
    4       18.336855   0.000000
    5       18.671143   0.000000
    6       20.527648   0.000000
    7       27.778285   0.000000
    8       28.361393   0.000000
 
  0.3809524E+00  0.0000000E+00  0.0000000E+00  0.1295756E-02
    1        0.089275   1.000000
    2        7.118221   1.000000
    3       15.766509   0.000000
    4       17.954322   0.000000
    5       18.364994   0.000000
    6       20.170323   0.000000
    7       28.557569   0.000000
    8       29.272296   0.000000
 
  0.4285714E+00  0.0000000E+00  0.0000000E+00  0.1295756E-02
    1        1.239731   1.000000
    2        5.476378   1.000000
    3       15.533538   0.000000
    4       17.696866   0.000000
    5       18.156118   0.000000
    6       19.930276   0.000000
    7       29.386495   0.000000
    8       30.137915   0.000000
 
  0.4761905E+00  0.0000000E+00  0.0000000E+00  0.1295756E-02
    1        2.503525   1.000000
    2        3.966116   1.000000
    3       15.417071   0.000000
    4       17.567549   0.000000
    5       18.050367   0.000000
    6       19.809550   0.000000
    7       30.082437   0.000000
    8       30.743783   0.000000
 
  0.4761905E-01  0.4761905E-01  0.0000000E+00  0.2591513E-02
    1       -4.102480   1.000000
    2       19.285413   0.000000
    3       19.772700   0.000000
    4       20.651625   0.000000
    5       22.309220   0.000000
    6       23.290226   0.000000
    7       24.267179   0.000000
    8       24.899936   0.000000
 
  0.9523810E-01  0.4761905E-01  0.3469447E-17  0.5183026E-02
    1       -3.824885   1.000000
    2       17.671018   0.000000
    3       18.663855   0.000000
    4       20.047993   0.000000
    5       21.962028   0.000000
    6       23.408041   0.000000
    7       24.621452   0.000000
    8       25.403964   0.000000
 
  0.1428571E+00  0.4761905E-01 -0.1734723E-16  0.5183026E-02
    1       -3.409215   1.000000
    2       15.720659   0.000000
    3       17.759787   0.000000
    4       19.396506   0.000000
    5       21.443331   0.000000
    6       22.874285   0.000000
    7       24.985211   0.000000
    8       26.496746   0.000000
 
  0.1904762E+00  0.4761905E-01  0.1040834E-16  0.5183026E-02
    1       -2.856284   1.000000
    2       13.712272   0.000000
    3       16.987658   0.000000
    4       18.744219   0.000000
    5       20.879344   0.000000
    6       22.286835   0.000000
    7       25.439508   0.000000
    8       27.181585   0.000000
 
  0.2380952E+00  0.4761905E-01  0.1040834E-16  0.5183026E-02
    1       -2.167248   1.000000
    2       11.737578   0.000000
    3       16.334440   0.000000
    4       18.145898   0.000000
    5       20.336402   0.000000
    6       21.752513   0.000000
    7       25.984840   0.000000
    8       27.902325   0.000000
 
  0.2857143E+00  0.4761905E-01  0.2428613E-16  0.5183026E-02
    1       -1.343506   1.000000
    2        9.837364   0.962609
    3       15.799519   0.000000
    4       17.633411   0.000000
    5       19.858458   0.000000
    6       21.293351   0.000000
    7       26.649877   0.000000
    8       28.692502   0.000000
 
  0.3333333E+00  0.4761905E-01  0.2428613E-16  0.5183026E-02
    1       -0.386962   1.000000
    2        8.030645   1.000000
    3       15.382597   0.000000
    4       17.223870   0.000000
    5       19.470577   0.000000
    6       20.920124   0.000000
    7       27.432165   0.000000
    8       29.515971   0.000000
 
  0.3809524E+00  0.4761905E-01  0.2428613E-16  0.5183026E-02
    1        0.699753   1.000000
    2        6.331670   1.000000
    3       15.084539   0.000000
    4       16.926525   0.000000
    5       19.185985   0.000000
    6       20.646448   0.000000
    7       28.305718   0.000000
    8       30.260672   0.000000
 
  0.4285714E+00  0.4761905E-01 -0.3469447E-17  0.5183026E-02
    1        1.910969   1.000000
    2        4.751459   1.000000
    3       14.905576   0.000000
    4       16.746472   0.000000
    5       19.013017   0.000000
    6       20.479124   0.000000
    7       29.226908   0.000000
    8       30.608990   0.000000
 
  0.4761905E+00  0.4761905E-01  0.2428613E-16  0.2591513E-02
    1        3.070943   1.000000
    2        3.468226   1.000000
    3       14.845863   0.000000
    4       16.686318   0.000000
    5       18.955213   0.000000
    6       20.423265   0.000000
    7       29.922540   0.000000
    8       30.344056   0.000000
 
  0.9523810E-01  0.9523810E-01  0.0000000E+00  0.2591513E-02
    1       -3.478435   1.000000
    2       16.569783   0.000000
    3       17.108152   0.000000
    4       19.231513   0.000000
    5       22.041920   0.000000
    6       23.391861   0.000000
    7       24.681673   0.000000
    8       25.931892   0.000000
 
  0.1428571E+00  0.9523810E-01  0.1387779E-16  0.5183026E-02
    1       -2.994354   1.000000
    2       14.808770   0.000000
    3       16.065470   0.000000
    4       18.520980   0.000000
    5       21.787633   0.000000
    6       23.101000   0.000000
    7       25.029662   0.000000
    8       26.765888   0.000000
 
  0.1904762E+00  0.9523810E-01 -0.1387779E-16  0.5183026E-02
    1       -2.373695   1.000000
    2       12.844960   0.000000
    3       15.315940   0.000000
    4       17.874527   0.000000
    5       21.334416   0.000000
    6       22.892056   0.000000
    7       25.262866   0.000000
    8       27.869670   0.000000
 
  0.2380952E+00  0.9523810E-01  0.1387779E-16  0.5183026E-02
    1       -1.617644   1.000000
    2       10.915173   0.000000
    3       14.700345   0.000000
    4       17.312747   0.000000
    5       20.848622   0.000000
    6       22.677740   0.000000
    7       25.645657   0.000000
    8       28.911981   0.000000
 
  0.2857143E+00  0.9523810E-01  0.0000000E+00  0.5183026E-02
    1       -0.727877   1.000000
    2        9.064668   1.000000
    3       14.208145   0.000000
    4       16.851152   0.000000
    5       20.418657   0.000000
    6       22.440087   0.000000
    7       26.236837   0.000000
    8       29.807349   0.000000
 
  0.3333333E+00  0.9523810E-01  0.2775558E-16  0.5183026E-02
    1        0.293411   1.000000
    2        7.313157   1.000000
    3       13.838401   0.000000
    4       16.499361   0.000000
    5       20.080912   0.000000
    6       22.220379   0.000000
    7       27.004266   0.000000
    8       30.457796   0.000000
 
  0.3809524E+00  0.9523810E-01  0.0000000E+00  0.5183026E-02
    1        1.442799   1.000000
    2        5.673919   1.000000
    3       13.591138   0.000000
    4       16.262471   0.000000
    5       19.850433   0.000000
    6       22.057156   0.000000
    7       27.904089   0.000000
    8       30.517872   0.000000
 
  0.4285714E+00  0.9523810E-01 -0.2775558E-16  0.5183026E-02
    1        2.705790   1.000000
    2        4.165053   1.000000
    3       13.467610   0.000000
    4       16.143527   0.000000
    5       19.733591   0.000000
    6       21.971507   0.000000
    7       28.864865   0.000000
    8       29.876126   0.000000
 
  0.1428571E+00  0.1428571E+00  0.0000000E+00  0.2591513E-02
    1       -2.442554   1.000000
    2       13.844940   0.000000
    3       14.288969   0.000000
    4       17.819044   0.000000
    5       21.916382   0.000000
    6       22.960054   0.000000
    7       25.741255   0.000000
    8       27.028991   0.000000
 
  0.1904762E+00  0.1428571E+00 -0.1387779E-16  0.5183026E-02
    1       -1.754859   1.000000
    2       12.083509   0.000000
    3       13.418438   0.000000
    4       17.209779   0.000000
    5       21.728936   0.000000
    6       23.017164   0.000000
    7       26.010801   0.000000
    8       27.996698   0.000000
 
  0.2380952E+00  0.1428571E+00  0.4163336E-16  0.5183026E-02
    1       -0.932723   1.000000
    2       10.211263   0.000000
    3       12.840760   0.000000
    4       16.697054   0.000000
    5       21.357859   0.000000
    6       23.281524   0.000000
    7       26.070939   0.000000
    8       29.244854   0.000000
 
  0.2857143E+00  0.1428571E+00 -0.2775558E-16  0.5183026E-02
    1        0.021940   1.000000
    2        8.416201   1.000000
    3       12.397493   0.000000
    4       16.290227   0.000000
    5       21.003545   0.000000
    6       23.505156   0.000000
    7       26.324886   0.000000
    8       30.164871   0.000000
 
  0.3333333E+00  0.1428571E+00  0.0000000E+00  0.5183026E-02
    1        1.106573   1.000000
    2        6.723642   1.000000
    3       12.080564   0.000000
    4       15.995647   0.000000
    5       20.731442   0.000000
    6       23.603619   0.000000
    7       26.873168   0.000000
    8       30.272410   0.000000
 
  0.3809524E+00  0.1428571E+00  0.0000000E+00  0.5183026E-02
    1        2.315631   1.000000
    2        5.147845   1.000000
    3       11.890712   0.000000
    4       15.817952   0.000000
    5       20.564332   0.000000
    6       23.623142   0.000000
    7       27.662497   0.000000
    8       29.631479   0.000000
 
  0.4285714E+00  0.1428571E+00 -0.2775558E-16  0.2591513E-02
    1        3.477803   1.000000
    2        3.862973   1.000000
    3       11.827092   0.000000
    4       15.758169   0.000000
    5       20.507333   0.000000
    6       23.620730   0.000000
    7       28.367659   0.000000
    8       28.917491   0.000000
 
  0.1904762E+00  0.1904762E+00  0.0000000E+00  0.2591513E-02
    1       -1.001067   1.000000
    2       11.302392   0.000000
    3       11.663075   0.000000
    4       16.649288   0.000000
    5       22.034510   0.000000
    6       22.928581   0.000000
    7       27.080250   0.000000
    8       28.128616   0.000000
 
  0.2380952E+00  0.1904762E+00 -0.1387779E-16  0.5183026E-02
    1       -0.113958   1.000000
    2        9.625140   1.000000
    3       10.995332   0.000000
    4       16.190584   0.000000
    5       21.947270   0.000000
    6       23.278008   0.000000
    7       27.302439   0.000000
    8       29.059947   0.000000
 
  0.2857143E+00  0.1904762E+00  0.0000000E+00  0.5183026E-02
    1        0.904312   1.000000
    2        7.893579   1.000000
    3       10.601469   0.000000
    4       15.840422   0.000000
    5       21.705065   0.000000
    6       23.876980   0.000000
    7       27.229527   0.000000
    8       29.734162   0.000000
 
  0.3333333E+00  0.1904762E+00  0.0000000E+00  0.5183026E-02
    1        2.050320   1.000000
    2        6.263762   1.000000
    3       10.342294   0.000000
    4       15.604592   0.000000
    5       21.510491   0.000000
    6       24.451220   0.000000
    7       27.264474   0.000000
    8       29.500776   0.000000
 
  0.3809524E+00  0.1904762E+00 -0.2775558E-16  0.5183026E-02
    1        3.310337   1.000000
    2        4.760364   1.000000
    3       10.213363   0.000000
    4       15.485846   0.000000
    5       21.407212   0.000000
    6       24.805309   0.000000
    7       27.444328   0.000000
    8       28.968379   0.000000
 
  0.2380952E+00  0.2380952E+00 -0.1387779E-16  0.2591513E-02
    1        0.836816   1.000000
    2        9.036305   1.000000
    3        9.352440   1.000000
    4       15.788523   0.000000
    5       22.438258   0.000000
    6       23.299755   0.000000
    7       28.571786   0.000000
    8       28.685314   0.000000
 
  0.2857143E+00  0.2380952E+00  0.1387779E-16  0.5183026E-02
    1        1.916939   1.000000
    2        7.494968   1.000000
    3        8.888482   1.000000
    4       15.496971   0.000000
    5       22.482978   0.000000
    6       23.876602   0.000000
    7       27.935672   0.000000
    8       29.546998   0.000000
 
  0.3333333E+00  0.2380952E+00  0.1387779E-16  0.5183026E-02
    1        3.120988   1.000000
    2        5.934933   1.000000
    3        8.685797   1.000000
    4       15.320067   0.000000
    5       22.392027   0.000000
    6       24.679336   0.000000
    7       27.153532   0.000000
    8       29.780288   0.000000
 
  0.3809524E+00  0.2380952E+00  0.1387779E-16  0.2591513E-02
    1        4.283991   1.000000
    2        4.651820   1.000000
    3        8.619481   1.000000
    4       15.260767   0.000000
    5       22.352805   0.000000
    6       25.180356   0.000000
    7       26.656336   0.000000
    8       29.794913   0.000000
 
  0.2857143E+00  0.2857143E+00  0.2775558E-16  0.2591513E-02
    1        3.056170   1.000000
    2        7.101075   1.000000
    3        7.402610   1.000000
    4       15.264646   0.000000
    5       23.115870   0.000000
    6       24.060131   0.000000
    7       27.169746   0.000000
    8       30.544514   0.000000
 
  0.3333333E+00  0.2857143E+00  0.0000000E+00  0.5183026E-02
    1        4.307815   1.000000
    2        5.740226   1.000000
    3        7.139223   1.000000
    4       15.147041   0.000000
    5       23.281765   0.000000
    6       24.764862   0.000000
    7       26.150907   0.000000
    8       31.196375   0.000000
 
  0.3333333E+00  0.3333333E+00  0.0000000E+00  0.8638376E-03
    1        5.336192   1.000000
    2        5.832818   1.000000
    3        5.832818   1.000000
    4       15.089076   0.000000
    5       23.755036   0.000000
    6       25.188541   0.000000
    7       25.188541   0.000000
    8       32.592645   0.000000
 
  0.4761905E-01  0.4761905E-01  0.4761905E-01  0.8638376E-03
    1       -3.894263   1.000000
    2       18.192981   0.000000
    3       19.188248   0.000000
    4       19.188248   0.000000
    5       23.048355   0.000000
    6       23.048355   0.000000
    7       25.317939   0.000000
    8       25.429407   0.000000
 
  0.9523810E-01  0.4761905E-01  0.4761905E-01  0.2591513E-02
    1       -3.547681   1.000000
    2       16.697451   0.000000
    3       17.797189   0.000000
    4       18.465699   0.000000
    5       22.746684   0.000000
    6       23.535805   0.000000
    7       25.204752   0.000000
    8       25.869148   0.000000
 
  0.1428571E+00  0.4761905E-01  0.4761905E-01  0.2591513E-02
    1       -3.063456   1.000000
    2       14.776761   0.000000
    3       16.861167   0.000000
    4       17.733596   0.000000
    5       22.366970   0.000000
    6       23.225248   0.000000
    7       25.791044   0.000000
    8       26.240669   0.000000
 
  0.1904762E+00  0.4761905E-01  0.4761905E-01  0.2591513E-02
    1       -2.442591   1.000000
    2       12.792928   0.000000
    3       16.121592   0.000000
    4       17.057678   0.000000
    5       21.941813   0.000000
    6       22.695635   0.000000
    7       26.610612   0.000000
    8       26.674598   0.000000
 
  0.2380952E+00  0.4761905E-01  0.4761905E-01  0.2591513E-02
    1       -1.686307   1.000000
    2       10.856100   0.000000
    3       15.515519   0.000000
    4       16.470590   0.000000
    5       21.521364   0.000000
    6       22.191670   0.000000
    7       27.222560   0.000000
    8       27.482504   0.000000
 
  0.2857143E+00  0.4761905E-01  0.4761905E-01  0.2591513E-02
    1       -0.796214   1.000000
    2        9.002877   1.000000
    3       15.033433   0.000000
    4       15.989086   0.000000
    5       21.148809   0.000000
    6       21.766268   0.000000
    7       27.900231   0.000000
    8       28.400340   0.000000
 
  0.3333333E+00  0.4761905E-01  0.4761905E-01  0.2591513E-02
    1        0.225395   1.000000
    2        7.249108   1.000000
    3       14.671853   0.000000
    4       15.622139   0.000000
    5       20.851415   0.000000
    6       21.433133   0.000000
    7       28.671789   0.000000
    8       29.329600   0.000000
 
  0.3809524E+00  0.4761905E-01  0.4761905E-01  0.2591513E-02
    1        1.375187   1.000000
    2        5.608593   1.000000
    3       14.430922   0.000000
    4       15.375843   0.000000
    5       20.646722   0.000000
    6       21.208195   0.000000
    7       29.488125   0.000000
    8       30.203765   0.000000
 
  0.4285714E+00  0.4761905E-01  0.4761905E-01  0.2591513E-02
    1        2.638479   1.000000
    2        4.099127   1.000000
    3       14.310412   0.000000
    4       15.251275   0.000000
    5       20.541730   0.000000
    6       21.094630   0.000000
    7       30.165834   0.000000
    8       30.811552   0.000000
 
 -0.4761905E-01  0.4761905E-01  0.4761905E-01  0.6478782E-03
    1       -4.171923   1.000000
    2       20.008848   0.000000
    3       20.008848   0.000000
    4       20.751294   0.000000
    5       22.627411   0.000000
    6       23.421180   0.000000
    7       23.421181   0.000000
    8       24.607398   0.000000
 
  0.9523810E-01  0.9523810E-01  0.4761905E-01  0.2591513E-02
    1       -3.132566   1.000000
    2       15.626389   0.000000
    3       16.291722   0.000000
    4       17.384530   0.000000
    5       23.082718   0.000000
    6       23.930994   0.000000
    7       25.285855   0.000000
    8       26.193746   0.000000
 
  0.1428571E+00  0.9523810E-01  0.4761905E-01  0.5183026E-02
    1       -2.580396   1.000000
    2       13.912763   0.000000
    3       15.235386   0.000000
    4       16.620124   0.000000
    5       22.963933   0.000000
    6       23.905217   0.000000
    7       25.739867   0.000000
    8       26.822374   0.000000
 
  0.1904762E+00  0.9523810E-01  0.4761905E-01  0.5183026E-02
    1       -1.892259   1.000000
    2       11.980244   0.000000
    3       14.528122   0.000000
    4       15.969145   0.000000
    5       22.658674   0.000000
    6       23.625061   0.000000
    7       26.324147   0.000000
    8       27.686265   0.000000
 
  0.2380952E+00  0.9523810E-01  0.4761905E-01  0.5183026E-02
    1       -1.069579   1.000000
    2       10.091512   0.000000
    3       13.966330   0.000000
    4       15.427765   0.000000
    5       22.300834   0.000000
    6       23.324892   0.000000
    7       26.967013   0.000000
    8       28.617650   0.000000
 
  0.2857143E+00  0.9523810E-01  0.4761905E-01  0.5183026E-02
    1       -0.114243   1.000000
    2        8.290602   1.000000
    3       13.531318   0.000000
    4       15.001487   0.000000
    5       21.976314   0.000000
    6       23.053283   0.000000
    7       27.719347   0.000000
    8       29.530207   0.000000
 
  0.3333333E+00  0.9523810E-01  0.4761905E-01  0.5183026E-02
    1        0.971158   1.000000
    2        6.594635   1.000000
    3       13.220137   0.000000
    4       14.694387   0.000000
    5       21.726478   0.000000
    6       22.839734   0.000000
    7       28.561036   0.000000
    8       30.322628   0.000000
 
  0.3809524E+00  0.9523810E-01  0.4761905E-01  0.5183026E-02
    1        2.181028   1.000000
    2        5.016708   1.000000
    3       13.033442   0.000000
    4       14.509047   0.000000
    5       21.571247   0.000000
    6       22.705365   0.000000
    7       29.443118   0.000000
    8       30.720216   0.000000
 
  0.4285714E+00  0.9523810E-01  0.4761905E-01  0.2591513E-02
    1        3.342244   1.000000
    2        3.732496   1.000000
    3       12.971026   0.000000
    4       14.447345   0.000000
    5       21.518859   0.000000
    6       22.659564   0.000000
    7       30.071634   0.000000
    8       30.541740   0.000000
 
 -0.9523810E-01  0.9523810E-01  0.4761905E-01  0.2591513E-02
    1       -3.963640   1.000000
    2       18.589542   0.000000
    3       19.059977   0.000000
    4       20.405233   0.000000
    5       22.249246   0.000000
    6       23.454639   0.000000
    7       24.037218   0.000000
    8       24.490050   0.000000
 
  0.1428571E+00  0.1428571E+00  0.4761905E-01  0.2591513E-02
    1       -1.960948   1.000000
    2       12.997552   0.000000
    3       13.467264   0.000000
    4       15.879395   0.000000
    5       23.212806   0.000000
    6       24.234275   0.000000
    7       26.177100   0.000000
    8       27.344112   0.000000
 
  0.1904762E+00  0.1428571E+00  0.4761905E-01  0.5183026E-02
    1       -1.206389   1.000000
    2       11.276471   0.000000
    3       12.641061   0.000000
    4       15.275658   0.000000
    5       23.165310   0.000000
    6       24.329920   0.000000
    7       26.665947   0.000000
    8       28.235784   0.000000
 
  0.2380952E+00  0.1428571E+00  0.4761905E-01  0.5183026E-02
    1       -0.318362   1.000000
    2        9.447178   1.000000
    3       12.120438   0.000000
    4       14.789595   0.000000
    5       22.926567   0.000000
    6       24.439019   0.000000
    7       27.059798   0.000000
    8       29.360450   0.000000
 
  0.2857143E+00  0.1428571E+00  0.4761905E-01  0.5183026E-02
    1        0.701035   1.000000
    2        7.704317   1.000000
    3       11.736977   0.000000
    4       14.422698   0.000000
    5       22.676978   0.000000
    6       24.476829   0.000000
    7       27.629829   0.000000
    8       30.285694   0.000000
 
  0.3333333E+00  0.1428571E+00  0.4761905E-01  0.5183026E-02
    1        1.848294   1.000000
    2        6.069439   1.000000
    3       11.481669   0.000000
    4       14.176330   0.000000
    5       22.488647   0.000000
    6       24.456290   0.000000
    7       28.388665   0.000000
    8       30.605042   0.000000
 
  0.3809524E+00  0.1428571E+00  0.4761905E-01  0.5183026E-02
    1        3.109484   1.000000
    2        4.563381   1.000000
    3       11.353975   0.000000
    4       14.052916   0.000000
    5       22.390082   0.000000
    6       24.431602   0.000000
    7       29.219467   0.000000
    8       30.194095   0.000000
 
 -0.1428571E+00  0.1428571E+00  0.4761905E-01  0.2591513E-02
    1       -3.616930   1.000000
    2       16.715898   0.000000
    3       18.148945   0.000000
    4       20.045120   0.000000
    5       21.535587   0.000000
    6       22.748343   0.000000
    7       24.295898   0.000000
    8       25.950063   0.000000
 
 -0.9523810E-01  0.1428571E+00  0.4761905E-01  0.2591513E-02
    1       -3.686211   1.000000
    2       17.526016   0.000000
    3       17.819268   0.000000
    4       19.911638   0.000000
    5       22.103910   0.000000
    6       22.651830   0.000000
    7       24.446028   0.000000
    8       25.145528   0.000000
 
  0.1904762E+00  0.1904762E+00  0.4761905E-01  0.2591513E-02
    1       -0.386448   1.000000
    2       10.552096   0.000000
    3       10.918949   0.000000
    4       14.726862   0.000000
    5       23.533584   0.000000
    6       24.534638   0.000000
    7       27.583494   0.000000
    8       28.578210   0.000000
 
  0.2380952E+00  0.1904762E+00  0.4761905E-01  0.5183026E-02
    1        0.565741   1.000000
    2        8.922795   1.000000
    3       10.309339   0.000000
    4       14.299623   0.000000
    5       23.575144   0.000000
    6       24.888433   0.000000
    7       27.981609   0.000000
    8       29.467549   0.000000
 
  0.2857143E+00  0.1904762E+00  0.4761905E-01  0.5183026E-02
    1        1.647560   1.000000
    2        7.245399   1.000000
    3        9.977654   0.014400
    4       13.992791   0.000000
    5       23.447880   0.000000
    6       25.366552   0.000000
    7       28.150115   0.000000
    8       30.178149   0.000000
 
  0.3333333E+00  0.1904762E+00  0.4761905E-01  0.5183026E-02
    1        2.853616   1.000000
    2        5.675831   1.000000
    3        9.781882   0.999597
    4       13.807600   0.000000
    5       23.335622   0.000000
    6       25.722486   0.000000
    7       28.467920   0.000000
    8       30.094943   0.000000
 
  0.3809524E+00  0.1904762E+00  0.4761905E-01  0.2591513E-02
    1        4.016413   1.000000
    2        4.391293   1.000000
    3        9.717130   1.000000
    4       13.746001   0.000000
    5       23.294612   0.000000
    6       25.846111   0.000000
    7       28.742762   0.000000
    8       29.810486   0.000000
 
 -0.1904762E+00  0.1904762E+00  0.4761905E-01  0.2591513E-02
    1       -3.132542   1.000000
    2       14.722195   0.000000
    3       17.332791   0.000000
    4       19.567410   0.000000
    5       20.794168   0.000000
    6       22.218394   0.000000
    7       24.510210   0.000000
    8       27.559696   0.000000
 
 -0.1428571E+00  0.1904762E+00  0.4761905E-01  0.5183026E-02
    1       -3.270812   1.000000
    2       15.771258   0.000000
    3       16.839405   0.000000
    4       19.496598   0.000000
    5       21.546534   0.000000
    6       22.156142   0.000000
    7       24.654595   0.000000
    8       26.323983   0.000000
 
  0.2380952E+00  0.2380952E+00  0.4761905E-01  0.2591513E-02
    1        1.580509   1.000000
    2        8.395069   1.000000
    3        8.716623   1.000000
    4       13.932554   0.000000
    5       24.090532   0.000000
    6       25.118068   0.000000
    7       29.156109   0.000000
    8       29.275931   0.000000
 
  0.2857143E+00  0.2380952E+00  0.4761905E-01  0.5183026E-02
    1        2.722549   1.000000
    2        6.910973   1.000000
    3        8.314121   1.000000
    4       13.686330   0.000000
    5       24.238375   0.000000
    6       25.680927   0.000000
    7       28.659899   0.000000
    8       30.166706   0.000000
 
  0.3333333E+00  0.2380952E+00  0.4761905E-01  0.5183026E-02
    1        3.978159   1.000000
    2        5.419764   1.000000
    3        8.176479   1.000000
    4       13.563178   0.000000
    5       24.232674   0.000000
    6       26.313629   0.000000
    7       28.100150   0.000000
    8       30.476002   0.000000
 
 -0.2380952E+00  0.2380952E+00  0.4761905E-01  0.2591513E-02
    1       -2.511460   1.000000
    2       12.727921   0.000000
    3       16.625406   0.000000
    4       19.044632   0.000000
    5       20.106661   0.000000
    6       21.771165   0.000000
    7       24.834853   0.000000
    8       28.435638   0.000000
 
 -0.1904762E+00  0.2380952E+00  0.4761905E-01  0.5183026E-02
    1       -2.718248   1.000000
    2       13.806994   0.000000
    3       16.055707   0.000000
    4       19.003775   0.000000
    5       20.872992   0.000000
    6       22.007932   0.000000
    7       24.611460   0.000000
    8       27.785335   0.000000
 
 -0.1428571E+00  0.2380952E+00  0.4761905E-01  0.2591513E-02
    1       -2.787222   1.000000
    2       14.775356   0.000000
    3       15.155603   0.000000
    4       19.097142   0.000000
    5       21.343064   0.000000
    6       21.665238   0.000000
    7       25.465864   0.000000
    8       26.600787   0.000000
 
  0.2857143E+00  0.2857143E+00  0.4761905E-01  0.2591513E-02
    1        3.919530   1.000000
    2        6.583123   1.000000
    3        6.886813   1.000000
    4       13.502233   0.000000
    5       24.828611   0.000000
    6       26.031911   0.000000
    7       27.954098   0.000000
    8       31.188544   0.000000
 
  0.3333333E+00  0.2857143E+00  0.4761905E-01  0.2591513E-02
    1        5.066545   1.000000
    2        5.443622   1.000000
    3        6.692897   1.000000
    4       13.440781   0.000000
    5       24.994559   0.000000
    6       26.542086   0.000000
    7       27.265113   0.000000
    8       31.762965   0.000000
 
 -0.2857143E+00  0.2857143E+00  0.4761905E-01  0.2591513E-02
    1       -1.754926   1.000000
    2       10.789577   0.000000
    3       16.033109   0.000000
    4       18.550254   0.000000
    5       19.508065   0.000000
    6       21.363717   0.000000
    7       25.336434   0.000000
    8       29.182662   0.000000
 