<?xml version="1.0" encoding="ISO-8859-1"?>
<modeling>
 <generator>
  <i name="program" type="string">vasp </i>
  <i name="version" type="string">6.2.0  </i>
  <i name="subversion" type="string">18Jan21 (build Aug 12 2022 13:00:08) complex                          parallel </i>
  <i name="platform" type="string">LinuxIFC </i>
  <i name="date" type="string">2024 11 03 </i>
  <i name="time" type="string">21:54:43 </i>
 </generator>
 <incar>
  <i type="int" name="ISTART">     0</i>
  <i type="string" name="PREC">Accurate      (Accurate strictly avoids</i>
  <i type="logical" name="ADDGRID"> T  </i>
  <i type="int" name="ISPIN">     1</i>
  <i type="int" name="NELM">    90</i>
  <i type="int" name="NELMIN">     6</i>
  <i type="int" name="IBRION">     2</i>
  <i name="EDIFF">      0.00000100</i>
  <i name="EDIFFG">     -0.00200000</i>
  <i type="int" name="NSW">   100</i>
  <i type="int" name="ISIF">     3</i>
  <i type="int" name="ISYM">     2</i>
  <i name="ENCUT">    350.00000000</i>
  <i type="logical" name="LREAL"> F  </i>
  <i type="int" name="ISMEAR">     0</i>
  <i name="SIGMA">      0.05000000</i>
  <i type="logical" name="LWAVE"> F  </i>
  <i type="logical" name="LCHARG"> F  </i>
  <i type="logical" name="LASPH"> T  </i>
 </incar>
 <primitive_cell>
  <structure name="primitive_cell" >
   <crystal>
    <varray name="basis" >
     <v>       1.51332563       1.51332563       1.51332563 </v>
     <v>       1.51332563      -1.51332563      -1.51332563 </v>
     <v>      -1.51332563       1.51332563      -1.51332563 </v>
    </varray>
    <i name="volume">     13.86299778 </i>
    <varray name="rec_basis" >
     <v>       0.33039816       0.33039816       0.00000000 </v>
     <v>       0.33039816       0.00000000      -0.33039816 </v>
     <v>       0.00000000       0.33039816      -0.33039816 </v>
    </varray>
   </crystal>
   <varray name="positions" >
    <v>       0.00000000       0.00000000       0.00000000 </v>
   </varray>
  </structure>
  <varray name="primitive_index" >
   <v type="int" >        1 </v>
  </varray>
 </primitive_cell>
 <kpoints>
  <generation param="Monkhorst-Pack">
   <v type="int" name="divisions">      21       21       21 </v>
   <v name="usershift">      0.00000000       0.00000000       0.00000000 </v>
   <v name="genvec1">      0.04761905       0.00000000       0.00000000 </v>
   <v name="genvec2">      0.00000000       0.04761905       0.00000000 </v>
   <v name="genvec3">      0.00000000       0.00000000       0.04761905 </v>
   <v name="shift">      0.00000000       0.00000000       0.00000000 </v>
  </generation>
  <varray name="kpointlist" >
   <v>       0.00000000       0.00000000       0.00000000 </v>
   <v>       0.04761905       0.00000000       0.00000000 </v>
   <v>       0.09523810       0.00000000       0.00000000 </v>
   <v>       0.14285714       0.00000000       0.00000000 </v>
   <v>       0.19047619       0.00000000       0.00000000 </v>
   <v>       0.23809524       0.00000000       0.00000000 </v>
   <v>       0.28571429       0.00000000       0.00000000 </v>
   <v>       0.33333333       0.00000000       0.00000000 </v>
   <v>       0.38095238       0.00000000       0.00000000 </v>
   <v>       0.42857143       0.00000000       0.00000000 </v>
   <v>       0.47619048       0.00000000       0.00000000 </v>
   <v>       0.04761905       0.04761905       0.00000000 </v>
   <v>       0.09523810       0.04761905       0.00000000 </v>
   <v>       0.14285714       0.04761905      -0.00000000 </v>
   <v>       0.19047619       0.04761905       0.00000000 </v>
   <v>       0.23809524       0.04761905       0.00000000 </v>
   <v>       0.28571429       0.04761905       0.00000000 </v>
   <v>       0.33333333       0.04761905       0.00000000 </v>
   <v>       0.38095238       0.04761905       0.00000000 </v>
   <v>       0.42857143       0.04761905      -0.00000000 </v>
   <v>       0.47619048       0.04761905       0.00000000 </v>
   <v>       0.09523810       0.09523810       0.00000000 </v>
   <v>       0.14285714       0.09523810       0.00000000 </v>
   <v>       0.19047619       0.09523810      -0.00000000 </v>
   <v>       0.23809524       0.09523810       0.00000000 </v>
   <v>       0.28571429       0.09523810       0.00000000 </v>
   <v>       0.33333333       0.09523810       0.00000000 </v>
   <v>       0.38095238       0.09523810       0.00000000 </v>
   <v>       0.42857143       0.09523810      -0.00000000 </v>
   <v>       0.14285714       0.14285714       0.00000000 </v>
   <v>       0.19047619       0.14285714      -0.00000000 </v>
   <v>       0.23809524       0.14285714       0.00000000 </v>
   <v>       0.28571429       0.14285714      -0.00000000 </v>
   <v>       0.33333333       0.14285714       0.00000000 </v>
   <v>       0.38095238       0.14285714       0.00000000 </v>
   <v>       0.42857143       0.14285714      -0.00000000 </v>
   <v>       0.19047619       0.19047619       0.00000000 </v>
   <v>       0.23809524       0.19047619      -0.00000000 </v>
   <v>       0.28571429       0.19047619       0.00000000 </v>
   <v>       0.33333333       0.19047619       0.00000000 </v>
   <v>       0.38095238       0.19047619      -0.00000000 </v>
   <v>       0.23809524       0.23809524      -0.00000000 </v>
   <v>       0.28571429       0.23809524       0.00000000 </v>
   <v>       0.33333333       0.23809524       0.00000000 </v>
   <v>       0.38095238       0.23809524       0.00000000 </v>
   <v>       0.28571429       0.28571429       0.00000000 </v>
   <v>       0.33333333       0.28571429       0.00000000 </v>
   <v>       0.33333333       0.33333333       0.00000000 </v>
   <v>       0.04761905       0.04761905       0.04761905 </v>
   <v>       0.09523810       0.04761905       0.04761905 </v>
   <v>       0.14285714       0.04761905       0.04761905 </v>
   <v>       0.19047619       0.04761905       0.04761905 </v>
   <v>       0.23809524       0.04761905       0.04761905 </v>
   <v>       0.28571429       0.04761905       0.04761905 </v>
   <v>       0.33333333       0.04761905       0.04761905 </v>
   <v>       0.38095238       0.04761905       0.04761905 </v>
   <v>       0.42857143       0.04761905       0.04761905 </v>
   <v>      -0.04761905       0.04761905       0.04761905 </v>
   <v>       0.09523810       0.09523810       0.04761905 </v>
   <v>       0.14285714       0.09523810       0.04761905 </v>
   <v>       0.19047619       0.09523810       0.04761905 </v>
   <v>       0.23809524       0.09523810       0.04761905 </v>
   <v>       0.28571429       0.09523810       0.04761905 </v>
   <v>       0.33333333       0.09523810       0.04761905 </v>
   <v>       0.38095238       0.09523810       0.04761905 </v>
   <v>       0.42857143       0.09523810       0.04761905 </v>
   <v>      -0.09523810       0.09523810       0.04761905 </v>
   <v>       0.14285714       0.14285714       0.04761905 </v>
   <v>       0.19047619       0.14285714       0.04761905 </v>
   <v>       0.23809524       0.14285714       0.04761905 </v>
   <v>       0.28571429       0.14285714       0.04761905 </v>
   <v>       0.33333333       0.14285714       0.04761905 </v>
   <v>       0.38095238       0.14285714       0.04761905 </v>
   <v>      -0.14285714       0.14285714       0.04761905 </v>
   <v>      -0.09523810       0.14285714       0.04761905 </v>
   <v>       0.19047619       0.19047619       0.04761905 </v>
   <v>       0.23809524       0.19047619       0.04761905 </v>
   <v>       0.28571429       0.19047619       0.04761905 </v>
   <v>       0.33333333       0.19047619       0.04761905 </v>
   <v>       0.38095238       0.19047619       0.04761905 </v>
   <v>      -0.19047619       0.19047619       0.04761905 </v>
   <v>      -0.14285714       0.19047619       0.04761905 </v>
   <v>       0.23809524       0.23809524       0.04761905 </v>
   <v>       0.28571429       0.23809524       0.04761905 </v>
   <v>       0.33333333       0.23809524       0.04761905 </v>
   <v>      -0.23809524       0.23809524       0.04761905 </v>
   <v>      -0.19047619       0.23809524       0.04761905 </v>
   <v>      -0.14285714       0.23809524       0.04761905 </v>
   <v>       0.28571429       0.28571429       0.04761905 </v>
   <v>       0.33333333       0.28571429       0.04761905 </v>
   <v>      -0.28571429       0.28571429       0.04761905 </v>
   <v>      -0.23809524       0.28571429       0.04761905 </v>
   <v>      -0.19047619       0.28571429       0.04761905 </v>
   <v>      -0.33333333       0.33333333       0.04761905 </v>
   <v>      -0.28571429       0.33333333       0.04761905 </v>
   <v>      -0.23809524       0.33333333       0.04761905 </v>
   <v>      -0.19047619       0.33333333       0.04761905 </v>
   <v>      -0.38095238       0.38095238       0.04761905 </v>
   <v>      -0.33333333       0.38095238       0.04761905 </v>
   <v>      -0.28571429       0.38095238       0.04761905 </v>
   <v>      -0.23809524       0.38095238       0.04761905 </v>
   <v>      -0.42857143       0.42857143       0.04761905 </v>
   <v>      -0.38095238       0.42857143       0.04761905 </v>
   <v>      -0.33333333       0.42857143       0.04761905 </v>
   <v>      -0.28571429       0.42857143       0.04761905 </v>
   <v>      -0.23809524       0.42857143       0.04761905 </v>
   <v>      -0.47619048       0.47619048       0.04761905 </v>
   <v>      -0.42857143       0.47619048       0.04761905 </v>
   <v>      -0.38095238       0.47619048       0.04761905 </v>
   <v>      -0.33333333       0.47619048       0.04761905 </v>
   <v>      -0.28571429       0.47619048       0.04761905 </v>
   <v>      -0.47619048      -0.47619048       0.04761905 </v>
   <v>      -0.42857143      -0.47619048       0.04761905 </v>
   <v>      -0.38095238      -0.47619048       0.04761905 </v>
   <v>      -0.33333333      -0.47619048       0.04761905 </v>
   <v>      -0.28571429      -0.47619048       0.04761905 </v>
   <v>      -0.42857143      -0.42857143       0.04761905 </v>
   <v>      -0.38095238      -0.42857143       0.04761905 </v>
   <v>      -0.33333333      -0.42857143       0.04761905 </v>
   <v>      -0.38095238      -0.38095238       0.04761905 </v>
   <v>      -0.33333333      -0.38095238       0.04761905 </v>
   <v>       0.09523810       0.09523810       0.09523810 </v>
   <v>       0.14285714       0.09523810       0.09523810 </v>
   <v>       0.19047619       0.09523810       0.09523810 </v>
   <v>       0.23809524       0.09523810       0.09523810 </v>
   <v>       0.28571429       0.09523810       0.09523810 </v>
   <v>       0.33333333       0.09523810       0.09523810 </v>
   <v>       0.38095238       0.09523810       0.09523810 </v>
   <v>      -0.09523810       0.09523810       0.09523810 </v>
   <v>       0.14285714       0.14285714       0.09523810 </v>
   <v>       0.19047619       0.14285714       0.09523810 </v>
   <v>       0.23809524       0.14285714       0.09523810 </v>
   <v>       0.28571429       0.14285714       0.09523810 </v>
   <v>       0.33333333       0.14285714       0.09523810 </v>
   <v>       0.38095238       0.14285714       0.09523810 </v>
   <v>      -0.14285714       0.14285714       0.09523810 </v>
   <v>       0.19047619       0.19047619       0.09523810 </v>
   <v>       0.23809524       0.19047619       0.09523810 </v>
   <v>       0.28571429       0.19047619       0.09523810 </v>
   <v>       0.33333333       0.19047619       0.09523810 </v>
   <v>      -0.19047619       0.19047619       0.09523810 </v>
   <v>      -0.14285714       0.19047619       0.09523810 </v>
   <v>       0.23809524       0.23809524       0.09523810 </v>
   <v>       0.28571429       0.23809524       0.09523810 </v>
   <v>       0.33333333       0.23809524       0.09523810 </v>
   <v>      -0.23809524       0.23809524       0.09523810 </v>
   <v>      -0.19047619       0.23809524       0.09523810 </v>
   <v>       0.28571429       0.28571429       0.09523810 </v>
   <v>      -0.28571429       0.28571429       0.09523810 </v>
   <v>      -0.23809524       0.28571429       0.09523810 </v>
   <v>      -0.19047619       0.28571429       0.09523810 </v>
   <v>      -0.33333333       0.33333333       0.09523810 </v>
   <v>      -0.28571429       0.33333333       0.09523810 </v>
   <v>      -0.23809524       0.33333333       0.09523810 </v>
   <v>      -0.38095238       0.38095238       0.09523810 </v>
   <v>      -0.33333333       0.38095238       0.09523810 </v>
   <v>      -0.28571429       0.38095238       0.09523810 </v>
   <v>      -0.23809524       0.38095238       0.09523810 </v>
   <v>      -0.42857143       0.42857143       0.09523810 </v>
   <v>      -0.38095238       0.42857143       0.09523810 </v>
   <v>      -0.33333333       0.42857143       0.09523810 </v>
   <v>      -0.28571429       0.42857143       0.09523810 </v>
   <v>      -0.47619048       0.47619048       0.09523810 </v>
   <v>      -0.42857143       0.47619048       0.09523810 </v>
   <v>      -0.38095238       0.47619048       0.09523810 </v>
   <v>      -0.33333333       0.47619048       0.09523810 </v>
   <v>      -0.28571429       0.47619048       0.09523810 </v>
   <v>      -0.47619048      -0.47619048       0.09523810 </v>
   <v>      -0.42857143      -0.47619048       0.09523810 </v>
   <v>      -0.38095238      -0.47619048       0.09523810 </v>
   <v>      -0.33333333      -0.47619048       0.09523810 </v>
   <v>      -0.42857143      -0.42857143       0.09523810 </v>
   <v>      -0.38095238      -0.42857143       0.09523810 </v>
   <v>      -0.33333333      -0.42857143       0.09523810 </v>
   <v>      -0.38095238      -0.38095238       0.09523810 </v>
   <v>       0.14285714       0.14285714       0.14285714 </v>
   <v>       0.19047619       0.14285714       0.14285714 </v>
   <v>       0.23809524       0.14285714       0.14285714 </v>
   <v>       0.28571429       0.14285714       0.14285714 </v>
   <v>       0.33333333       0.14285714       0.14285714 </v>
   <v>      -0.14285714       0.14285714       0.14285714 </v>
   <v>       0.19047619       0.19047619       0.14285714 </v>
   <v>       0.23809524       0.19047619       0.14285714 </v>
   <v>       0.28571429       0.19047619       0.14285714 </v>
   <v>       0.33333333       0.19047619       0.14285714 </v>
   <v>      -0.19047619       0.19047619       0.14285714 </v>
   <v>       0.23809524       0.23809524       0.14285714 </v>
   <v>       0.28571429       0.23809524       0.14285714 </v>
   <v>      -0.23809524       0.23809524       0.14285714 </v>
   <v>      -0.19047619       0.23809524       0.14285714 </v>
   <v>       0.28571429       0.28571429       0.14285714 </v>
   <v>      -0.28571429       0.28571429       0.14285714 </v>
   <v>      -0.23809524       0.28571429       0.14285714 </v>
   <v>      -0.33333333       0.33333333       0.14285714 </v>
   <v>      -0.28571429       0.33333333       0.14285714 </v>
   <v>      -0.23809524       0.33333333       0.14285714 </v>
   <v>      -0.38095238       0.38095238       0.14285714 </v>
   <v>      -0.33333333       0.38095238       0.14285714 </v>
   <v>      -0.28571429       0.38095238       0.14285714 </v>
   <v>      -0.42857143       0.42857143       0.14285714 </v>
   <v>      -0.38095238       0.42857143       0.14285714 </v>
   <v>      -0.33333333       0.42857143       0.14285714 </v>
   <v>      -0.28571429       0.42857143       0.14285714 </v>
   <v>      -0.47619048       0.47619048       0.14285714 </v>
   <v>      -0.42857143       0.47619048       0.14285714 </v>
   <v>      -0.38095238       0.47619048       0.14285714 </v>
   <v>      -0.33333333       0.47619048       0.14285714 </v>
   <v>      -0.47619048      -0.47619048       0.14285714 </v>
   <v>      -0.42857143      -0.47619048       0.14285714 </v>
   <v>      -0.38095238      -0.47619048       0.14285714 </v>
   <v>      -0.33333333      -0.47619048       0.14285714 </v>
   <v>      -0.42857143      -0.42857143       0.14285714 </v>
   <v>      -0.38095238      -0.42857143       0.14285714 </v>
   <v>      -0.38095238      -0.38095238       0.14285714 </v>
   <v>       0.19047619       0.19047619       0.19047619 </v>
   <v>       0.23809524       0.19047619       0.19047619 </v>
   <v>       0.28571429       0.19047619       0.19047619 </v>
   <v>      -0.19047619       0.19047619       0.19047619 </v>
   <v>       0.23809524       0.23809524       0.19047619 </v>
   <v>       0.28571429       0.23809524       0.19047619 </v>
   <v>      -0.23809524       0.23809524       0.19047619 </v>
   <v>      -0.28571429       0.28571429       0.19047619 </v>
   <v>      -0.23809524       0.28571429       0.19047619 </v>
   <v>      -0.33333333       0.33333333       0.19047619 </v>
   <v>      -0.28571429       0.33333333       0.19047619 </v>
   <v>      -0.38095238       0.38095238       0.19047619 </v>
   <v>      -0.33333333       0.38095238       0.19047619 </v>
   <v>      -0.28571429       0.38095238       0.19047619 </v>
   <v>      -0.42857143       0.42857143       0.19047619 </v>
   <v>      -0.38095238       0.42857143       0.19047619 </v>
   <v>      -0.33333333       0.42857143       0.19047619 </v>
   <v>      -0.47619048       0.47619048       0.19047619 </v>
   <v>      -0.42857143       0.47619048       0.19047619 </v>
   <v>      -0.38095238       0.47619048       0.19047619 </v>
   <v>      -0.33333333       0.47619048       0.19047619 </v>
   <v>      -0.47619048      -0.47619048       0.19047619 </v>
   <v>      -0.42857143      -0.47619048       0.19047619 </v>
   <v>      -0.38095238      -0.47619048       0.19047619 </v>
   <v>      -0.42857143      -0.42857143       0.19047619 </v>
   <v>      -0.38095238      -0.42857143       0.19047619 </v>
   <v>       0.23809524       0.23809524       0.23809524 </v>
   <v>      -0.23809524       0.23809524       0.23809524 </v>
   <v>      -0.28571429       0.28571429       0.23809524 </v>
   <v>      -0.33333333       0.33333333       0.23809524 </v>
   <v>      -0.28571429       0.33333333       0.23809524 </v>
   <v>      -0.38095238       0.38095238       0.23809524 </v>
   <v>      -0.33333333       0.38095238       0.23809524 </v>
   <v>      -0.42857143       0.42857143       0.23809524 </v>
   <v>      -0.38095238       0.42857143       0.23809524 </v>
   <v>      -0.33333333       0.42857143       0.23809524 </v>
   <v>      -0.47619048       0.47619048       0.23809524 </v>
   <v>      -0.42857143       0.47619048       0.23809524 </v>
   <v>      -0.38095238       0.47619048       0.23809524 </v>
   <v>      -0.47619048      -0.47619048       0.23809524 </v>
   <v>      -0.42857143      -0.47619048       0.23809524 </v>
   <v>      -0.38095238      -0.47619048       0.23809524 </v>
   <v>      -0.42857143      -0.42857143       0.23809524 </v>
   <v>      -0.28571429       0.28571429       0.28571429 </v>
   <v>      -0.33333333       0.33333333       0.28571429 </v>
   <v>      -0.38095238       0.38095238       0.28571429 </v>
   <v>      -0.33333333       0.38095238       0.28571429 </v>
   <v>      -0.42857143       0.42857143       0.28571429 </v>
   <v>      -0.38095238       0.42857143       0.28571429 </v>
   <v>      -0.47619048       0.47619048       0.28571429 </v>
   <v>      -0.42857143       0.47619048       0.28571429 </v>
   <v>      -0.38095238       0.47619048       0.28571429 </v>
   <v>      -0.47619048      -0.47619048       0.28571429 </v>
   <v>      -0.42857143      -0.47619048       0.28571429 </v>
   <v>      -0.42857143      -0.42857143       0.28571429 </v>
   <v>      -0.33333333       0.33333333       0.33333333 </v>
   <v>      -0.38095238       0.38095238       0.33333333 </v>
   <v>      -0.42857143       0.42857143       0.33333333 </v>
   <v>      -0.38095238       0.42857143       0.33333333 </v>
   <v>      -0.47619048       0.47619048       0.33333333 </v>
   <v>      -0.42857143       0.47619048       0.33333333 </v>
   <v>      -0.47619048      -0.47619048       0.33333333 </v>
   <v>      -0.42857143      -0.47619048       0.33333333 </v>
   <v>      -0.38095238       0.38095238       0.38095238 </v>
   <v>      -0.42857143       0.42857143       0.38095238 </v>
   <v>      -0.47619048       0.47619048       0.38095238 </v>
   <v>      -0.42857143       0.47619048       0.38095238 </v>
   <v>      -0.47619048      -0.47619048       0.38095238 </v>
   <v>      -0.42857143       0.42857143       0.42857143 </v>
   <v>      -0.47619048       0.47619048       0.42857143 </v>
   <v>      -0.47619048      -0.47619048       0.42857143 </v>
   <v>      -0.47619048       0.47619048       0.47619048 </v>
  </varray>
  <varray name="weights" >
   <v>       0.00010798 </v>
   <v>       0.00129576 </v>
   <v>       0.00129576 </v>
   <v>       0.00129576 </v>
   <v>       0.00129576 </v>
   <v>       0.00129576 </v>
   <v>       0.00129576 </v>
   <v>       0.00129576 </v>
   <v>       0.00129576 </v>
   <v>       0.00129576 </v>
   <v>       0.00129576 </v>
   <v>       0.00259151 </v>
   <v>       0.00518303 </v>
   <v>       0.00518303 </v>
   <v>       0.00518303 </v>
   <v>       0.00518303 </v>
   <v>       0.00518303 </v>
   <v>       0.00518303 </v>
   <v>       0.00518303 </v>
   <v>       0.00518303 </v>
   <v>       0.00259151 </v>
   <v>       0.00259151 </v>
   <v>       0.00518303 </v>
   <v>       0.00518303 </v>
   <v>       0.00518303 </v>
   <v>       0.00518303 </v>
   <v>       0.00518303 </v>
   <v>       0.00518303 </v>
   <v>       0.00518303 </v>
   <v>       0.00259151 </v>
   <v>       0.00518303 </v>
   <v>       0.00518303 </v>
   <v>       0.00518303 </v>
   <v>       0.00518303 </v>
   <v>       0.00518303 </v>
   <v>       0.00259151 </v>
   <v>       0.00259151 </v>
   <v>       0.00518303 </v>
   <v>       0.00518303 </v>
   <v>       0.00518303 </v>
   <v>       0.00518303 </v>
   <v>       0.00259151 </v>
   <v>       0.00518303 </v>
   <v>       0.00518303 </v>
   <v>       0.00259151 </v>
   <v>       0.00259151 </v>
   <v>       0.00518303 </v>
   <v>       0.00086384 </v>
   <v>       0.00086384 </v>
   <v>       0.00259151 </v>
   <v>       0.00259151 </v>
   <v>       0.00259151 </v>
   <v>       0.00259151 </v>
   <v>       0.00259151 </v>
   <v>       0.00259151 </v>
   <v>       0.00259151 </v>
   <v>       0.00259151 </v>
   <v>       0.00064788 </v>
   <v>       0.00259151 </v>
   <v>       0.00518303 </v>
   <v>       0.00518303 </v>
   <v>       0.00518303 </v>
   <v>       0.00518303 </v>
   <v>       0.00518303 </v>
   <v>       0.00518303 </v>
   <v>       0.00259151 </v>
   <v>       0.00259151 </v>
   <v>       0.00259151 </v>
   <v>       0.00518303 </v>
   <v>       0.00518303 </v>
   <v>       0.00518303 </v>
   <v>       0.00518303 </v>
   <v>       0.00518303 </v>
   <v>       0.00259151 </v>
   <v>       0.00259151 </v>
   <v>       0.00259151 </v>
   <v>       0.00518303 </v>
   <v>       0.00518303 </v>
   <v>       0.00518303 </v>
   <v>       0.00259151 </v>
   <v>       0.00259151 </v>
   <v>       0.00518303 </v>
   <v>       0.00259151 </v>
   <v>       0.00518303 </v>
   <v>       0.00518303 </v>
   <v>       0.00259151 </v>
   <v>       0.00518303 </v>
   <v>       0.00259151 </v>
   <v>       0.00259151 </v>
   <v>       0.00259151 </v>
   <v>       0.00259151 </v>
   <v>       0.00518303 </v>
   <v>       0.00518303 </v>
   <v>       0.00259151 </v>
   <v>       0.00518303 </v>
   <v>       0.00518303 </v>
   <v>       0.00259151 </v>
   <v>       0.00259151 </v>
   <v>       0.00518303 </v>
   <v>       0.00518303 </v>
   <v>       0.00518303 </v>
   <v>       0.00259151 </v>
   <v>       0.00518303 </v>
   <v>       0.00518303 </v>
   <v>       0.00518303 </v>
   <v>       0.00259151 </v>
   <v>       0.00259151 </v>
   <v>       0.00518303 </v>
   <v>       0.00518303 </v>
   <v>       0.00518303 </v>
   <v>       0.00518303 </v>
   <v>       0.00259151 </v>
   <v>       0.00518303 </v>
   <v>       0.00518303 </v>
   <v>       0.00518303 </v>
   <v>       0.00259151 </v>
   <v>       0.00259151 </v>
   <v>       0.00518303 </v>
   <v>       0.00518303 </v>
   <v>       0.00259151 </v>
   <v>       0.00259151 </v>
   <v>       0.00086384 </v>
   <v>       0.00259151 </v>
   <v>       0.00259151 </v>
   <v>       0.00259151 </v>
   <v>       0.00259151 </v>
   <v>       0.00259151 </v>
   <v>       0.00259151 </v>
   <v>       0.00064788 </v>
   <v>       0.00259151 </v>
   <v>       0.00518303 </v>
   <v>       0.00518303 </v>
   <v>       0.00518303 </v>
   <v>       0.00518303 </v>
   <v>       0.00259151 </v>
   <v>       0.00259151 </v>
   <v>       0.00259151 </v>
   <v>       0.00518303 </v>
   <v>       0.00518303 </v>
   <v>       0.00518303 </v>
   <v>       0.00259151 </v>
   <v>       0.00259151 </v>
   <v>       0.00259151 </v>
   <v>       0.00518303 </v>
   <v>       0.00259151 </v>
   <v>       0.00259151 </v>
   <v>       0.00518303 </v>
   <v>       0.00259151 </v>
   <v>       0.00259151 </v>
   <v>       0.00518303 </v>
   <v>       0.00259151 </v>
   <v>       0.00259151 </v>
   <v>       0.00518303 </v>
   <v>       0.00518303 </v>
   <v>       0.00259151 </v>
   <v>       0.00518303 </v>
   <v>       0.00518303 </v>
   <v>       0.00259151 </v>
   <v>       0.00259151 </v>
   <v>       0.00518303 </v>
   <v>       0.00518303 </v>
   <v>       0.00518303 </v>
   <v>       0.00259151 </v>
   <v>       0.00518303 </v>
   <v>       0.00518303 </v>
   <v>       0.00518303 </v>
   <v>       0.00259151 </v>
   <v>       0.00259151 </v>
   <v>       0.00518303 </v>
   <v>       0.00518303 </v>
   <v>       0.00518303 </v>
   <v>       0.00259151 </v>
   <v>       0.00518303 </v>
   <v>       0.00259151 </v>
   <v>       0.00259151 </v>
   <v>       0.00086384 </v>
   <v>       0.00259151 </v>
   <v>       0.00259151 </v>
   <v>       0.00259151 </v>
   <v>       0.00259151 </v>
   <v>       0.00064788 </v>
   <v>       0.00259151 </v>
   <v>       0.00518303 </v>
   <v>       0.00518303 </v>
   <v>       0.00259151 </v>
   <v>       0.00259151 </v>
   <v>       0.00259151 </v>
   <v>       0.00518303 </v>
   <v>       0.00259151 </v>
   <v>       0.00259151 </v>
   <v>       0.00086384 </v>
   <v>       0.00259151 </v>
   <v>       0.00518303 </v>
   <v>       0.00259151 </v>
   <v>       0.00518303 </v>
   <v>       0.00259151 </v>
   <v>       0.00259151 </v>
   <v>       0.00518303 </v>
   <v>       0.00518303 </v>
   <v>       0.00259151 </v>
   <v>       0.00518303 </v>
   <v>       0.00518303 </v>
   <v>       0.00259151 </v>
   <v>       0.00259151 </v>
   <v>       0.00518303 </v>
   <v>       0.00518303 </v>
   <v>       0.00518303 </v>
   <v>       0.00259151 </v>
   <v>       0.00518303 </v>
   <v>       0.00518303 </v>
   <v>       0.00259151 </v>
   <v>       0.00259151 </v>
   <v>       0.00518303 </v>
   <v>       0.00086384 </v>
   <v>       0.00086384 </v>
   <v>       0.00259151 </v>
   <v>       0.00259151 </v>
   <v>       0.00064788 </v>
   <v>       0.00259151 </v>
   <v>       0.00259151 </v>
   <v>       0.00259151 </v>
   <v>       0.00259151 </v>
   <v>       0.00259151 </v>
   <v>       0.00259151 </v>
   <v>       0.00518303 </v>
   <v>       0.00259151 </v>
   <v>       0.00518303 </v>
   <v>       0.00259151 </v>
   <v>       0.00259151 </v>
   <v>       0.00518303 </v>
   <v>       0.00518303 </v>
   <v>       0.00259151 </v>
   <v>       0.00518303 </v>
   <v>       0.00518303 </v>
   <v>       0.00259151 </v>
   <v>       0.00259151 </v>
   <v>       0.00518303 </v>
   <v>       0.00518303 </v>
   <v>       0.00259151 </v>
   <v>       0.00259151 </v>
   <v>       0.00086384 </v>
   <v>       0.00064788 </v>
   <v>       0.00259151 </v>
   <v>       0.00259151 </v>
   <v>       0.00259151 </v>
   <v>       0.00259151 </v>
   <v>       0.00518303 </v>
   <v>       0.00259151 </v>
   <v>       0.00518303 </v>
   <v>       0.00259151 </v>
   <v>       0.00259151 </v>
   <v>       0.00518303 </v>
   <v>       0.00518303 </v>
   <v>       0.00259151 </v>
   <v>       0.00518303 </v>
   <v>       0.00259151 </v>
   <v>       0.00259151 </v>
   <v>       0.00064788 </v>
   <v>       0.00259151 </v>
   <v>       0.00259151 </v>
   <v>       0.00259151 </v>
   <v>       0.00259151 </v>
   <v>       0.00518303 </v>
   <v>       0.00259151 </v>
   <v>       0.00518303 </v>
   <v>       0.00259151 </v>
   <v>       0.00259151 </v>
   <v>       0.00518303 </v>
   <v>       0.00086384 </v>
   <v>       0.00064788 </v>
   <v>       0.00259151 </v>
   <v>       0.00259151 </v>
   <v>       0.00259151 </v>
   <v>       0.00259151 </v>
   <v>       0.00518303 </v>
   <v>       0.00259151 </v>
   <v>       0.00259151 </v>
   <v>       0.00064788 </v>
   <v>       0.00259151 </v>
   <v>       0.00259151 </v>
   <v>       0.00259151 </v>
   <v>       0.00259151 </v>
   <v>       0.00064788 </v>
   <v>       0.00259151 </v>
   <v>       0.00086384 </v>
   <v>       0.00064788 </v>
  </varray>
 </kpoints>
 <parameters>
  <separator name="general" >
   <i type="string" name="SYSTEM">unknown system</i>
   <i type="logical" name="LCOMPAT"> F  </i>
  </separator>
  <separator name="electronic" >
   <i type="string" name="PREC">accura</i>
   <i name="ENMAX">    350.00000000</i>
   <i name="ENAUG">    322.06900000</i>
   <i name="EDIFF">      0.00000100</i>
   <i type="int" name="IALGO">    38</i>
   <i type="int" name="IWAVPR">    11</i>
   <i type="int" name="NBANDS">     8</i>
   <i type="int" name="NBANDSLOW">    -1</i>
   <i type="int" name="NBANDSHIGH">    -1</i>
   <i name="NELECT">      4.00000000</i>
   <i type="int" name="TURBO">     0</i>
   <i type="int" name="IRESTART">     0</i>
   <i type="int" name="NREBOOT">     0</i>
   <i type="int" name="NMIN">     0</i>
   <i name="EREF">      0.00000000</i>
   <separator name="electronic smearing" >
    <i type="int" name="ISMEAR">     0</i>
    <i name="SIGMA">      0.05000000</i>
    <i name="KSPACING">      0.50000000</i>
    <i type="logical" name="KGAMMA"> T  </i>
    <i type="logical" name="KBLOWUP"> T  </i>
   </separator>
   <separator name="electronic projectors" >
    <i type="logical" name="LREAL"> F  </i>
    <v name="ROPT">      0.00000000</v>
    <i type="int" name="LMAXPAW">  -100</i>
    <i type="int" name="LMAXMIX">     2</i>
    <i type="logical" name="NLSPLINE"> F  </i>
   </separator>
   <separator name="electronic startup" >
    <i type="int" name="ISTART">     0</i>
    <i type="int" name="ICHARG">     2</i>
    <i type="int" name="INIWAV">     1</i>
   </separator>
   <separator name="electronic spin" >
    <i type="int" name="ISPIN">     1</i>
    <i type="logical" name="LNONCOLLINEAR"> F  </i>
    <v name="MAGMOM">      1.00000000</v>
    <i name="NUPDOWN">     -1.00000000</i>
    <i type="logical" name="LSORBIT"> F  </i>
    <v name="SAXIS">      0.00000000      0.00000000      1.00000000</v>
    <i type="logical" name="LSPIRAL"> F  </i>
    <v name="QSPIRAL">      0.00000000      0.00000000      0.00000000</v>
    <i type="logical" name="LZEROZ"> F  </i>
   </separator>
   <separator name="electronic exchange-correlation" >
    <i type="logical" name="LASPH"> T  </i>
    <i type="logical" name="LMETAGGA"> F  </i>
   </separator>
   <separator name="electronic convergence" >
    <i type="int" name="NELM">    90</i>
    <i type="int" name="NELMDL">    -5</i>
    <i type="int" name="NELMIN">     6</i>
    <i name="ENINI">    350.00000000</i>
    <separator name="electronic convergence detail" >
     <i type="logical" name="LDIAG"> T  </i>
     <i type="logical" name="LSUBROT"> F  </i>
     <i name="WEIMIN">      0.00100000</i>
     <i name="EBREAK">      0.00000003</i>
     <i name="DEPER">      0.30000000</i>
     <i type="int" name="NRMM">     4</i>
     <i name="TIME">      0.40000000</i>
    </separator>
   </separator>
   <separator name="electronic mixer" >
    <i name="AMIX">      0.40000000</i>
    <i name="BMIX">      1.00000000</i>
    <i name="AMIN">      0.10000000</i>
    <i name="AMIX_MAG">      1.60000000</i>
    <i name="BMIX_MAG">      1.00000000</i>
    <separator name="electronic mixer details" >
     <i type="int" name="IMIX">     4</i>
     <i type="logical" name="MIXFIRST"> F  </i>
     <i type="int" name="MAXMIX">   -45</i>
     <i name="WC">    100.00000000</i>
     <i type="int" name="INIMIX">     1</i>
     <i type="int" name="MIXPRE">     1</i>
     <i type="int" name="MREMOVE">     5</i>
    </separator>
   </separator>
   <separator name="electronic dipolcorrection" >
    <i type="logical" name="LDIPOL"> F  </i>
    <i type="logical" name="LMONO"> F  </i>
    <i type="int" name="IDIPOL">     0</i>
    <i name="EPSILON">      1.00000000</i>
    <v name="DIPOL">   -100.00000000   -100.00000000   -100.00000000</v>
    <i name="EFIELD">      0.00000000</i>
   </separator>
  </separator>
  <separator name="grids" >
   <i type="int" name="NGX">    16</i>
   <i type="int" name="NGY">    16</i>
   <i type="int" name="NGZ">    16</i>
   <i type="int" name="NGXF">    32</i>
   <i type="int" name="NGYF">    32</i>
   <i type="int" name="NGZF">    32</i>
   <i type="logical" name="ADDGRID"> T  </i>
  </separator>
  <separator name="ionic" >
   <i type="int" name="NSW">   100</i>
   <i type="int" name="IBRION">     2</i>
   <i type="int" name="MDALGO">     0</i>
   <i type="int" name="ISIF">     3</i>
   <i name="PSTRESS">      0.00000000</i>
   <i name="EDIFFG">     -0.00200000</i>
   <i type="int" name="NFREE">     1</i>
   <i name="POTIM">      0.50000000</i>
   <i name="SMASS">     -3.00000000</i>
   <i name="SCALEE">      1.00000000</i>
  </separator>
  <separator name="ionic md" >
   <i name="TEBEG">      0.00010000</i>
   <i name="TEEND">      0.00010000</i>
   <i type="int" name="NBLOCK">     1</i>
   <i type="int" name="KBLOCK">   100</i>
   <i type="int" name="NPACO">   256</i>
   <i name="APACO">     16.00000000</i>
  </separator>
  <separator name="symmetry" >
   <i type="int" name="ISYM">     2</i>
   <i name="SYMPREC">      0.00001000</i>
  </separator>
  <separator name="dos" >
   <i type="int" name="LORBIT">     0</i>
   <v name="RWIGS">     -1.00000000</v>
   <i type="int" name="NEDOS">   301</i>
   <i name="EMIN">     10.00000000</i>
   <i name="EMAX">    -10.00000000</i>
   <i name="EFERMI">      0.00000000</i>
  </separator>
  <separator name="writing" >
   <i type="int" name="NWRITE">     2</i>
   <i type="logical" name="LWAVE"> F  </i>
   <i type="logical" name="LDOWNSAMPLE"> F  </i>
   <i type="logical" name="LCHARG"> F  </i>
   <i type="logical" name="LPARD"> F  </i>
   <i type="logical" name="LVTOT"> F  </i>
   <i type="logical" name="LVHAR"> F  </i>
   <i type="logical" name="LELF"> F  </i>
   <i type="logical" name="LOPTICS"> F  </i>
   <v name="STM">      0.00000000      0.00000000      0.00000000      0.00000000      0.00000000      0.00000000      0.00000000</v>
  </separator>
  <separator name="performance" >
   <i type="int" name="NPAR">     4</i>
   <i type="int" name="NSIM">     4</i>
   <i type="int" name="NBLK">    -1</i>
   <i type="logical" name="LPLANE"> T  </i>
   <i type="logical" name="LSCALAPACK"> T  </i>
   <i type="logical" name="LSCAAWARE"> F  </i>
   <i type="logical" name="LSCALU"> F  </i>
   <i type="logical" name="LASYNC"> F  </i>
   <i type="logical" name="LORBITALREAL"> F  </i>
  </separator>
  <separator name="miscellaneous" >
   <i type="int" name="IDIOT">     3</i>
   <i type="int" name="PHON_NSTRUCT">    -1</i>
   <i type="logical" name="LMUSIC"> F  </i>
   <v name="POMASS">     28.08500000</v>
   <v name="DARWINR">      0.00000000</v>
   <v name="DARWINV">      1.00000000</v>
   <i type="logical" name="LCORR"> T  </i>
  </separator>
  <i type="logical" name="GGA_COMPAT"> T  </i>
  <i type="logical" name="LBERRY"> F  </i>
  <i type="int" name="ICORELEVEL">     0</i>
  <i type="logical" name="LDAU"> F  </i>
  <i type="int" name="I_CONSTRAINED_M">     0</i>
  <separator name="electronic exchange-correlation" >
   <i type="string" name="GGA">--</i>
   <i type="int" name="VOSKOWN">     0</i>
   <i type="logical" name="LHFCALC"> F  </i>
   <i type="string" name="PRECFOCK"></i>
   <i type="logical" name="LSYMGRAD"> F  </i>
   <i type="logical" name="LHFONE"> F  </i>
   <i type="logical" name="LRHFCALC"> F  </i>
   <i type="logical" name="LTHOMAS"> F  </i>
   <i type="logical" name="LMODELHF"> F  </i>
   <i type="logical" name="LFOCKACE"> F  </i>
   <i name="ENCUT4O">     -1.00000000</i>
   <i type="int" name="EXXOEP">     0</i>
   <i type="int" name="FOURORBIT">     0</i>
   <i name="AEXX">      0.00000000</i>
   <i name="HFALPHA">      0.00000000</i>
   <i name="MCALPHA">      0.00000000</i>
   <i name="ALDAX">      1.00000000</i>
   <i name="AGGAX">      1.00000000</i>
   <i name="ALDAC">      1.00000000</i>
   <i name="AGGAC">      1.00000000</i>
   <i type="int" name="NKREDX">     1</i>
   <i type="int" name="NKREDY">     1</i>
   <i type="int" name="NKREDZ">     1</i>
   <i type="logical" name="SHIFTRED"> F  </i>
   <i type="logical" name="ODDONLY"> F  </i>
   <i type="logical" name="EVENONLY"> F  </i>
   <i type="int" name="LMAXFOCK">     0</i>
   <i type="int" name="NMAXFOCKAE">     0</i>
   <i type="logical" name="LFOCKAEDFT"> F  </i>
   <i name="HFSCREEN">      0.00000000</i>
   <i name="HFSCREENC">      0.00000000</i>
   <i type="int" name="NBANDSGWLOW">     0</i>
  </separator>
  <separator name="vdW DFT" >
   <i type="logical" name="LUSE_VDW"> F  </i>
   <i name="Zab_VDW">     -0.84910000</i>
   <i name="PARAM1">      0.12340000</i>
   <i name="PARAM2">      1.00000000</i>
   <i name="PARAM3">      0.00000000</i>
  </separator>
  <separator name="model GW" >
   <i type="int" name="MODEL_GW">     0</i>
   <i name="MODEL_EPS0">      8.31779867</i>
   <i name="MODEL_ALPHA">      1.00000000</i>
  </separator>
  <separator name="linear response parameters" >
   <i type="logical" name="LEPSILON"> F  </i>
   <i type="logical" name="LRPA"> F  </i>
   <i type="logical" name="LNABLA"> F  </i>
   <i type="logical" name="LVEL"> F  </i>
   <i type="int" name="KINTER">     0</i>
   <i name="CSHIFT">      0.10000000</i>
   <i name="OMEGAMAX">     -1.00000000</i>
   <i name="DEG_THRESHOLD">      0.00200000</i>
   <i name="RTIME">     -0.10000000</i>
   <i name="WPLASMAI">      0.00000000</i>
   <v name="DFIELD">      0.00000000      0.00000000      0.00000000</v>
   <v name="WPLASMA">      0.00000000      0.00000000      0.00000000      0.00000000      0.00000000      0.00000000      0.00000000      0.00000000      0.00000000</v>
  </separator>
  <separator name="orbital magnetization" >
   <i type="logical" name="NUCIND"> F  </i>
   <v name="MAGPOS">      0.00000000      0.00000000      0.00000000</v>
   <i type="logical" name="LNICSALL"> T  </i>
   <i type="logical" name="ORBITALMAG"> F  </i>
   <i type="logical" name="LMAGBLOCH"> F  </i>
   <i type="logical" name="LCHIMAG"> F  </i>
   <i type="logical" name="LGAUGE"> T  </i>
   <i type="int" name="MAGATOM">     0</i>
   <v name="MAGDIPOL">      0.00000000      0.00000000      0.00000000</v>
   <v name="AVECCONST">      0.00000000      0.00000000      0.00000000</v>
  </separator>
  <separator name="response functions" >
   <i type="logical" name="LFINITE_TEMPERATURE"> F  </i>
   <i type="logical" name="LADDER"> F  </i>
   <i type="logical" name="LRPAFORCE"> F  </i>
   <i type="logical" name="LFXC"> F  </i>
   <i type="logical" name="LHARTREE"> T  </i>
   <i type="int" name="IBSE">     0</i>
   <v type="int" name="KPOINT">    -1     0     0     0</v>
   <i type="logical" name="LTCTC"> F  </i>
   <i type="logical" name="LTCTE"> F  </i>
   <i type="logical" name="LTETE"> F  </i>
   <i type="logical" name="LTRIPLET"> F  </i>
   <i type="logical" name="LFXCEPS"> F  </i>
   <i type="logical" name="LFXHEG"> F  </i>
   <i type="int" name="NATURALO">     2</i>
   <i type="logical" name="LHOLEGF"> F  </i>
   <i type="logical" name="L2ORDER"> F  </i>
   <i type="logical" name="LDMP1"> F  </i>
   <i type="logical" name="LMP2LT"> F  </i>
   <i type="logical" name="LSMP2LT"> F  </i>
   <i type="logical" name="LGWLF"> F  </i>
   <i name="ENCUTGW">     -2.00000000</i>
   <i name="ENCUTGWSOFT">     -2.00000000</i>
   <i name="ENCUTLF">     -1.00000000</i>
   <i type="logical" name="LESF_SPLINES"> F  </i>
   <i type="int" name="LMAXMP2">    -1</i>
   <i name="SCISSOR">      0.00000000</i>
   <i type="int" name="NOMEGA">     0</i>
   <i type="int" name="NOMEGAR">     0</i>
   <i type="int" name="NBANDSGW">    -1</i>
   <i type="int" name="NBANDSO">    -1</i>
   <i type="int" name="NBANDSV">    -1</i>
   <i type="int" name="NELM">    90</i>
   <i type="int" name="NELMHF">     1</i>
   <i type="int" name="DIM">     3</i>
   <i type="int" name="IESPILON">     4</i>
   <i type="int" name="ANTIRES">     0</i>
   <i name="OMEGAMAX">    -30.00000000</i>
   <i name="OMEGAMIN">    -30.00000000</i>
   <i name="OMEGATL">   -200.00000000</i>
   <i type="int" name="OMEGAGRID">     0</i>
   <i name="CSHIFT">     -0.10000000</i>
   <i type="logical" name="LSELFENERGY"> F  </i>
   <i type="logical" name="LSPECTRAL"> F  </i>
   <i type="logical" name="LSPECTRALGW"> F  </i>
   <i type="logical" name="LSINGLES"> F  </i>
   <i type="logical" name="LFERMIGW"> F  </i>
   <i type="logical" name="ODDONLYGW"> F  </i>
   <i type="logical" name="EVENONLYGW"> F  </i>
   <i type="int" name="NKREDLFX">     1</i>
   <i type="int" name="NKREDLFY">     1</i>
   <i type="int" name="NKREDLFZ">     1</i>
   <i type="int" name="MAXMEM">  2800</i>
   <i type="int" name="TELESCOPE">     0</i>
   <i type="int" name="NTAUPAR">    -1</i>
   <i type="int" name="NOMEGAPAR">    -1</i>
   <i name="DAMP_NEWTON">      0.80000001</i>
   <i name="LAMBDA">      1.00000000</i>
  </separator>
  <separator name="External order field" >
   <i name="OFIELD_KAPPA">      0.00000000</i>
   <v name="OFIELD_K">      0.00000000      0.00000000      0.00000000</v>
   <i name="OFIELD_Q6_NEAR">      0.00000000</i>
   <i name="OFIELD_Q6_FAR">      0.00000000</i>
   <i name="OFIELD_A">      0.00000000</i>
  </separator>
 </parameters>
 <atominfo>
  <atoms>       1 </atoms>
  <types>       1 </types>
  <array name="atoms" >
   <dimension dim="1">ion</dimension>
   <field type="string">element</field>
   <field type="int">atomtype</field>
   <set>
    <rc><c>Si</c><c>   1</c></rc>
   </set>
  </array>
  <array name="atomtypes" >
   <dimension dim="1">type</dimension>
   <field type="int">atomspertype</field>
   <field type="string">element</field>
   <field>mass</field>
   <field>valence</field>
   <field type="string">pseudopotential</field>
   <set>
    <rc><c>   1</c><c>Si</c><c>     28.08500000</c><c>      4.00000000</c><c>  PAW_PBE Si 05Jan2001                  </c></rc>
   </set>
  </array>
 </atominfo>
 <structure name="initialpos" >
  <crystal>
   <varray name="basis" >
    <v>       1.51332563       1.51332563       1.51332563 </v>
    <v>       1.51332563      -1.51332563      -1.51332563 </v>
    <v>      -1.51332563       1.51332563      -1.51332563 </v>
   </varray>
   <i name="volume">     13.86299778 </i>
   <varray name="rec_basis" >
    <v>       0.33039816       0.33039816       0.00000000 </v>
    <v>       0.33039816       0.00000000      -0.33039816 </v>
    <v>       0.00000000       0.33039816      -0.33039816 </v>
   </varray>
  </crystal>
  <varray name="positions" >
   <v>       0.00000000       0.00000000       0.00000000 </v>
  </varray>
 </structure>
 <calculation>
  <scstep>
   <time name="dav">    0.84    0.84</time>
   <time name="total">    1.02    1.03</time>
   <energy>
    <i name="alphaZ">      2.42827211 </i>
    <i name="ewald">   -138.51397499 </i>
    <i name="hartreedc">     -0.48179554 </i>
    <i name="XCdc">     -8.69332224 </i>
    <i name="pawpsdc">     88.12379961 </i>
    <i name="pawaedc">    -70.53051779 </i>
    <i name="eentropy">     -0.00059007 </i>
    <i name="bandstr">     21.37939186 </i>
    <i name="atom">    103.06562707 </i>
    <i name="e_fr_energy">     -3.22310997 </i>
    <i name="e_wo_entrp">     -3.22251990 </i>
    <i name="e_0_energy">     -3.22281494 </i>
   </energy>
  </scstep>
  <scstep>
   <time name="dav">    1.19    1.21</time>
   <time name="total">    1.19    1.21</time>
   <energy>
    <i name="e_fr_energy">     -4.89850234 </i>
    <i name="e_wo_entrp">     -4.89798098 </i>
    <i name="e_0_energy">     -4.89824166 </i>
   </energy>
  </scstep>
  <scstep>
   <time name="dav">    0.85    0.87</time>
   <time name="total">    0.85    0.87</time>
   <energy>
    <i name="e_fr_energy">     -4.90585838 </i>
    <i name="e_wo_entrp">     -4.90536608 </i>
    <i name="e_0_energy">     -4.90561223 </i>
   </energy>
  </scstep>
  <scstep>
   <time name="dav">    1.29    1.30</time>
   <time name="total">    1.29    1.30</time>
   <energy>
    <i name="e_fr_energy">     -4.90586430 </i>
    <i name="e_wo_entrp">     -4.90537201 </i>
    <i name="e_0_energy">     -4.90561816 </i>
   </energy>
  </scstep>
  <scstep>
   <time name="dav">    0.86    0.87</time>
   <time name="total">    0.89    0.91</time>
   <energy>
    <i name="e_fr_energy">     -4.90586430 </i>
    <i name="e_wo_entrp">     -4.90537202 </i>
    <i name="e_0_energy">     -4.90561816 </i>
   </energy>
  </scstep>
  <scstep>
   <time name="dav">    0.78    0.78</time>
   <time name="total">    0.99    1.00</time>
   <energy>
    <i name="e_fr_energy">     -4.89436783 </i>
    <i name="e_wo_entrp">     -4.89387791 </i>
    <i name="e_0_energy">     -4.89412287 </i>
   </energy>
  </scstep>
  <scstep>
   <time name="dav">    0.84    0.84</time>
   <time name="total">    1.04    1.06</time>
   <energy>
    <i name="e_fr_energy">     -4.88779177 </i>
    <i name="e_wo_entrp">     -4.88730215 </i>
    <i name="e_0_energy">     -4.88754696 </i>
   </energy>
  </scstep>
  <scstep>
   <time name="dav">    1.15    1.15</time>
   <time name="total">    1.36    1.37</time>
   <energy>
    <i name="e_fr_energy">     -4.88777054 </i>
    <i name="e_wo_entrp">     -4.88728084 </i>
    <i name="e_0_energy">     -4.88752569 </i>
   </energy>
  </scstep>
  <scstep>
   <time name="dav">    0.89    0.89</time>
   <time name="total">    1.07    1.09</time>
   <energy>
    <i name="alphaZ">      2.42827211 </i>
    <i name="ewald">   -138.51397499 </i>
    <i name="hartreedc">     -0.35574038 </i>
    <i name="XCdc">     -8.62301667 </i>
    <i name="pawpsdc">    335.24228856 </i>
    <i name="pawaedc">   -317.67654303 </i>
    <i name="eentropy">     -0.00048972 </i>
    <i name="bandstr">     19.54580601 </i>
    <i name="atom">    103.06562707 </i>
    <i name="e_fr_energy">     -4.88777106 </i>
    <i name="e_wo_entrp">     -4.88728133 </i>
    <i name="e_0_energy">     -4.88752619 </i>
   </energy>
  </scstep>
  <structure>
   <crystal>
    <varray name="basis" >
     <v>       1.51332563       1.51332563       1.51332563 </v>
     <v>       1.51332563      -1.51332563      -1.51332563 </v>
     <v>      -1.51332563       1.51332563      -1.51332563 </v>
    </varray>
    <i name="volume">     13.86299778 </i>
    <varray name="rec_basis" >
     <v>       0.33039816       0.33039816       0.00000000 </v>
     <v>       0.33039816       0.00000000      -0.33039816 </v>
     <v>       0.00000000       0.33039816      -0.33039816 </v>
    </varray>
   </crystal>
   <varray name="positions" >
    <v>       0.00000000       0.00000000       0.00000000 </v>
   </varray>
  </structure>
  <varray name="forces" >
   <v>      -0.00000000       0.00000000      -0.00000000 </v>
  </varray>
  <varray name="stress" >
   <v>      55.73786637       0.00000000      -0.00000000 </v>
   <v>      -0.00000000      55.73786637      -0.00000000 </v>
   <v>       0.00000000      -0.00000000      55.73786637 </v>
  </varray>
  <energy>
   <i name="e_fr_energy">     -4.88777106 </i>
   <i name="e_wo_entrp">     -4.88728133 </i>
   <i name="e_0_energy">     -4.88752619 </i>
  </energy>
  <time name="totalsc">   10.96   11.36</time>
 </calculation>
 <calculation>
  <scstep>
   <time name="dav">    0.78    0.78</time>
   <time name="total">    0.98    0.99</time>
   <energy>
    <i name="alphaZ">      2.26637246 </i>
    <i name="ewald">   -135.36453740 </i>
    <i name="hartreedc">     -0.34763418 </i>
    <i name="XCdc">     -8.80369647 </i>
    <i name="pawpsdc">    335.30886017 </i>
    <i name="pawaedc">   -317.74276750 </i>
    <i name="eentropy">     -0.00060569 </i>
    <i name="bandstr">     16.71098028 </i>
    <i name="atom">    103.06562707 </i>
    <i name="e_fr_energy">     -4.90740124 </i>
    <i name="e_wo_entrp">     -4.90679555 </i>
    <i name="e_0_energy">     -4.90709840 </i>
   </energy>
  </scstep>
  <scstep>
   <time name="dav">    0.90    0.90</time>
   <time name="total">    1.11    1.13</time>
   <energy>
    <i name="e_fr_energy">     -4.90212285 </i>
    <i name="e_wo_entrp">     -4.90152244 </i>
    <i name="e_0_energy">     -4.90182265 </i>
   </energy>
  </scstep>
  <scstep>
   <time name="dav">    1.12    1.12</time>
   <time name="total">    1.34    1.35</time>
   <energy>
    <i name="e_fr_energy">     -4.89901685 </i>
    <i name="e_wo_entrp">     -4.89842297 </i>
    <i name="e_0_energy">     -4.89871991 </i>
   </energy>
  </scstep>
  <scstep>
   <time name="dav">    1.05    1.05</time>
   <time name="total">    1.26    1.28</time>
   <energy>
    <i name="e_fr_energy">     -4.89901364 </i>
    <i name="e_wo_entrp">     -4.89841968 </i>
    <i name="e_0_energy">     -4.89871666 </i>
   </energy>
  </scstep>
  <scstep>
   <time name="dav">    1.07    1.07</time>
   <time name="total">    1.28    1.30</time>
   <energy>
    <i name="e_fr_energy">     -4.89900173 </i>
    <i name="e_wo_entrp">     -4.89840760 </i>
    <i name="e_0_energy">     -4.89870466 </i>
   </energy>
  </scstep>
  <scstep>
   <time name="dav">    0.50    0.50</time>
   <time name="total">    0.68    0.70</time>
   <energy>
    <i name="alphaZ">      2.26637246 </i>
    <i name="ewald">   -135.36453740 </i>
    <i name="hartreedc">     -0.45567253 </i>
    <i name="XCdc">     -8.82538994 </i>
    <i name="pawpsdc">    289.07862749 </i>
    <i name="pawaedc">   -271.49742433 </i>
    <i name="eentropy">     -0.00059411 </i>
    <i name="bandstr">     16.83398916 </i>
    <i name="atom">    103.06562707 </i>
    <i name="e_fr_energy">     -4.89900213 </i>
    <i name="e_wo_entrp">     -4.89840803 </i>
    <i name="e_0_energy">     -4.89870508 </i>
   </energy>
  </scstep>
  <structure>
   <crystal>
    <varray name="basis" >
     <v>       1.54853518       1.54853518       1.54853518 </v>
     <v>       1.54853518      -1.54853518      -1.54853518 </v>
     <v>      -1.54853518       1.54853518      -1.54853518 </v>
    </varray>
    <i name="volume">     14.85330918 </i>
    <varray name="rec_basis" >
     <v>       0.32288579       0.32288579       0.00000000 </v>
     <v>       0.32288579       0.00000000      -0.32288579 </v>
     <v>       0.00000000       0.32288579      -0.32288579 </v>
    </varray>
   </crystal>
   <varray name="positions" >
    <v>      -0.00000000      -0.00000000       0.00000000 </v>
   </varray>
  </structure>
  <varray name="forces" >
   <v>       0.00000000       0.00000000      -0.00000000 </v>
  </varray>
  <varray name="stress" >
   <v>     -14.82303855      -0.00000000       0.00000000 </v>
   <v>       0.00000000     -14.82303855       0.00000000 </v>
   <v>      -0.00000000       0.00000000     -14.82303855 </v>
  </varray>
  <energy>
   <i name="e_fr_energy">     -4.89900213 </i>
   <i name="e_wo_entrp">     -4.89840803 </i>
   <i name="e_0_energy">     -4.89870508 </i>
  </energy>
  <time name="totalsc">    7.91    8.25</time>
 </calculation>
 <calculation>
  <scstep>
   <time name="dav">    0.77    0.77</time>
   <time name="total">    0.97    0.98</time>
   <energy>
    <i name="alphaZ">      2.30423630 </i>
    <i name="ewald">   -136.11421418 </i>
    <i name="hartreedc">     -0.45818451 </i>
    <i name="XCdc">     -8.78312802 </i>
    <i name="pawpsdc">    288.84506018 </i>
    <i name="pawaedc">   -271.26387365 </i>
    <i name="eentropy">     -0.00054757 </i>
    <i name="bandstr">     17.50437372 </i>
    <i name="atom">    103.06562707 </i>
    <i name="e_fr_energy">     -4.90065067 </i>
    <i name="e_wo_entrp">     -4.90010310 </i>
    <i name="e_0_energy">     -4.90037689 </i>
   </energy>
  </scstep>
  <scstep>
   <time name="dav">    0.91    0.91</time>
   <time name="total">    1.11    1.12</time>
   <energy>
    <i name="e_fr_energy">     -4.90033100 </i>
    <i name="e_wo_entrp">     -4.89978074 </i>
    <i name="e_0_energy">     -4.90005587 </i>
   </energy>
  </scstep>
  <scstep>
   <time name="dav">    0.93    0.93</time>
   <time name="total">    1.15    1.16</time>
   <energy>
    <i name="e_fr_energy">     -4.90014590 </i>
    <i name="e_wo_entrp">     -4.89959183 </i>
    <i name="e_0_energy">     -4.89986886 </i>
   </energy>
  </scstep>
  <scstep>
   <time name="dav">    1.00    1.00</time>
   <time name="total">    1.20    1.22</time>
   <energy>
    <i name="e_fr_energy">     -4.90014597 </i>
    <i name="e_wo_entrp">     -4.89959192 </i>
    <i name="e_0_energy">     -4.89986894 </i>
   </energy>
  </scstep>
  <scstep>
   <time name="dav">    0.50    0.51</time>
   <time name="total">    0.71    0.73</time>
   <energy>
    <i name="e_fr_energy">     -4.90014671 </i>
    <i name="e_wo_entrp">     -4.89959269 </i>
    <i name="e_0_energy">     -4.89986970 </i>
   </energy>
  </scstep>
  <scstep>
   <time name="dav">    0.46    0.46</time>
   <time name="total">    0.64    0.65</time>
   <energy>
    <i name="alphaZ">      2.30423630 </i>
    <i name="ewald">   -136.11421418 </i>
    <i name="hartreedc">     -0.42890223 </i>
    <i name="XCdc">     -8.77761777 </i>
    <i name="pawpsdc">    298.84056506 </i>
    <i name="pawaedc">   -281.26273960 </i>
    <i name="eentropy">     -0.00055402 </i>
    <i name="bandstr">     17.47345282 </i>
    <i name="atom">    103.06562707 </i>
    <i name="e_fr_energy">     -4.90014655 </i>
    <i name="e_wo_entrp">     -4.89959253 </i>
    <i name="e_0_energy">     -4.89986954 </i>
   </energy>
  </scstep>
  <structure>
   <crystal>
    <varray name="basis" >
     <v>       1.54000631       1.54000631       1.54000631 </v>
     <v>       1.54000631      -1.54000631      -1.54000631 </v>
     <v>      -1.54000631       1.54000631      -1.54000631 </v>
    </varray>
    <i name="volume">     14.60923552 </i>
    <varray name="rec_basis" >
     <v>       0.32467399       0.32467399       0.00000000 </v>
     <v>       0.32467399       0.00000000      -0.32467399 </v>
     <v>       0.00000000       0.32467399      -0.32467399 </v>
    </varray>
   </crystal>
   <varray name="positions" >
    <v>      -0.00000000      -0.00000000       0.00000000 </v>
   </varray>
  </structure>
  <varray name="forces" >
   <v>       0.00000000       0.00000000      -0.00000000 </v>
  </varray>
  <varray name="stress" >
   <v>       0.08204070      -0.00000000      -0.00000000 </v>
   <v>      -0.00000000       0.08204070       0.00000000 </v>
   <v>       0.00000000       0.00000000       0.08204070 </v>
  </varray>
  <energy>
   <i name="e_fr_energy">     -4.90014655 </i>
   <i name="e_wo_entrp">     -4.89959253 </i>
   <i name="e_0_energy">     -4.89986954 </i>
  </energy>
  <time name="totalsc">    6.94    7.29</time>
  <eigenvalues>
   <array>
    <dimension dim="1">band</dimension>
    <dimension dim="2">kpoint</dimension>
    <dimension dim="3">spin</dimension>
    <field>eigene</field>
    <field>occ</field>
    <set>
     <set comment="spin 1">
      <set comment="kpoint 1">
       <r>   -4.3109    1.0000 </r>
       <r>   21.3243    0.0000 </r>
       <r>   21.3243    0.0000 </r>
       <r>   21.3243    0.0000 </r>
       <r>   22.4913    0.0000 </r>
       <r>   22.4913    0.0000 </r>
       <r>   22.4913    0.0000 </r>
       <r>   26.1726    0.0000 </r>
      </set>
      <set comment="kpoint 2">
       <r>   -4.2414    1.0000 </r>
       <r>   20.3551    0.0000 </r>
       <r>   20.5980    0.0000 </r>
       <r>   21.2251    0.0000 </r>
       <r>   22.2510    0.0000 </r>
       <r>   23.0342    0.0000 </r>
       <r>   23.3345    0.0000 </r>
       <r>   25.5775    0.0000 </r>
      </set>
      <set comment="kpoint 3">
       <r>   -4.0331    1.0000 </r>
       <r>   18.6469    0.0000 </r>
       <r>   19.5969    0.0000 </r>
       <r>   20.9416    0.0000 </r>
       <r>   21.6538    0.0000 </r>
       <r>   23.3490    0.0000 </r>
       <r>   24.6759    0.0000 </r>
       <r>   25.0099    0.0000 </r>
      </set>
      <set comment="kpoint 4">
       <r>   -3.6862    1.0000 </r>
       <r>   16.7006    0.0000 </r>
       <r>   18.6765    0.0000 </r>
       <r>   20.5195    0.0000 </r>
       <r>   20.9084    0.0000 </r>
       <r>   22.8829    0.0000 </r>
       <r>   25.2924    0.0000 </r>
       <r>   25.9671    0.0000 </r>
      </set>
      <set comment="kpoint 5">
       <r>   -3.2017    1.0000 </r>
       <r>   14.6801    0.0000 </r>
       <r>   17.8642    0.0000 </r>
       <r>   20.0262    0.0000 </r>
       <r>   20.1511    0.0000 </r>
       <r>   22.1969    0.0000 </r>
       <r>   25.9215    0.0000 </r>
       <r>   26.1758    0.0000 </r>
      </set>
      <set comment="kpoint 6">
       <r>   -2.5804    1.0000 </r>
       <r>   12.6739    0.0000 </r>
       <r>   17.1651    0.0000 </r>
       <r>   19.4483    0.0000 </r>
       <r>   19.5254    0.0000 </r>
       <r>   21.5493    0.0000 </r>
       <r>   26.5585    0.0000 </r>
       <r>   26.6586    0.0000 </r>
      </set>
      <set comment="kpoint 7">
       <r>   -1.8236    1.0000 </r>
       <r>   10.7304    0.0000 </r>
       <r>   16.5824    0.0000 </r>
       <r>   18.8372    0.0000 </r>
       <r>   19.0638    0.0000 </r>
       <r>   20.9877    0.0000 </r>
       <r>   27.0982    0.0000 </r>
       <r>   27.4743    0.0000 </r>
      </set>
      <set comment="kpoint 8">
       <r>   -0.9330    1.0000 </r>
       <r>    8.8739    1.0000 </r>
       <r>   16.1163    0.0000 </r>
       <r>   18.3369    0.0000 </r>
       <r>   18.6711    0.0000 </r>
       <r>   20.5276    0.0000 </r>
       <r>   27.7783    0.0000 </r>
       <r>   28.3614    0.0000 </r>
      </set>
      <set comment="kpoint 9">
       <r>    0.0893    1.0000 </r>
       <r>    7.1182    1.0000 </r>
       <r>   15.7665    0.0000 </r>
       <r>   17.9543    0.0000 </r>
       <r>   18.3650    0.0000 </r>
       <r>   20.1703    0.0000 </r>
       <r>   28.5576    0.0000 </r>
       <r>   29.2723    0.0000 </r>
      </set>
      <set comment="kpoint 10">
       <r>    1.2397    1.0000 </r>
       <r>    5.4764    1.0000 </r>
       <r>   15.5335    0.0000 </r>
       <r>   17.6969    0.0000 </r>
       <r>   18.1561    0.0000 </r>
       <r>   19.9303    0.0000 </r>
       <r>   29.3865    0.0000 </r>
       <r>   30.1379    0.0000 </r>
      </set>
      <set comment="kpoint 11">
       <r>    2.5035    1.0000 </r>
       <r>    3.9661    1.0000 </r>
       <r>   15.4171    0.0000 </r>
       <r>   17.5675    0.0000 </r>
       <r>   18.0504    0.0000 </r>
       <r>   19.8096    0.0000 </r>
       <r>   30.0824    0.0000 </r>
       <r>   30.7438    0.0000 </r>
      </set>
      <set comment="kpoint 12">
       <r>   -4.1025    1.0000 </r>
       <r>   19.2854    0.0000 </r>
       <r>   19.7727    0.0000 </r>
       <r>   20.6516    0.0000 </r>
       <r>   22.3092    0.0000 </r>
       <r>   23.2902    0.0000 </r>
       <r>   24.2672    0.0000 </r>
       <r>   24.8999    0.0000 </r>
      </set>
      <set comment="kpoint 13">
       <r>   -3.8249    1.0000 </r>
       <r>   17.6710    0.0000 </r>
       <r>   18.6639    0.0000 </r>
       <r>   20.0480    0.0000 </r>
       <r>   21.9620    0.0000 </r>
       <r>   23.4080    0.0000 </r>
       <r>   24.6215    0.0000 </r>
       <r>   25.4040    0.0000 </r>
      </set>
      <set comment="kpoint 14">
       <r>   -3.4092    1.0000 </r>
       <r>   15.7207    0.0000 </r>
       <r>   17.7598    0.0000 </r>
       <r>   19.3965    0.0000 </r>
       <r>   21.4433    0.0000 </r>
       <r>   22.8743    0.0000 </r>
       <r>   24.9852    0.0000 </r>
       <r>   26.4967    0.0000 </r>
      </set>
      <set comment="kpoint 15">
       <r>   -2.8563    1.0000 </r>
       <r>   13.7123    0.0000 </r>
       <r>   16.9877    0.0000 </r>
       <r>   18.7442    0.0000 </r>
       <r>   20.8793    0.0000 </r>
       <r>   22.2868    0.0000 </r>
       <r>   25.4395    0.0000 </r>
       <r>   27.1816    0.0000 </r>
      </set>
      <set comment="kpoint 16">
       <r>   -2.1672    1.0000 </r>
       <r>   11.7376    0.0000 </r>
       <r>   16.3344    0.0000 </r>
       <r>   18.1459    0.0000 </r>
       <r>   20.3364    0.0000 </r>
       <r>   21.7525    0.0000 </r>
       <r>   25.9848    0.0000 </r>
       <r>   27.9023    0.0000 </r>
      </set>
      <set comment="kpoint 17">
       <r>   -1.3435    1.0000 </r>
       <r>    9.8374    0.9626 </r>
       <r>   15.7995    0.0000 </r>
       <r>   17.6334    0.0000 </r>
       <r>   19.8585    0.0000 </r>
       <r>   21.2934    0.0000 </r>
       <r>   26.6499    0.0000 </r>
       <r>   28.6925    0.0000 </r>
      </set>
      <set comment="kpoint 18">
       <r>   -0.3870    1.0000 </r>
       <r>    8.0306    1.0000 </r>
       <r>   15.3826    0.0000 </r>
       <r>   17.2239    0.0000 </r>
       <r>   19.4706    0.0000 </r>
       <r>   20.9201    0.0000 </r>
       <r>   27.4322    0.0000 </r>
       <r>   29.5160    0.0000 </r>
      </set>
      <set comment="kpoint 19">
       <r>    0.6998    1.0000 </r>
       <r>    6.3317    1.0000 </r>
       <r>   15.0845    0.0000 </r>
       <r>   16.9265    0.0000 </r>
       <r>   19.1860    0.0000 </r>
       <r>   20.6464    0.0000 </r>
       <r>   28.3057    0.0000 </r>
       <r>   30.2607    0.0000 </r>
      </set>
      <set comment="kpoint 20">
       <r>    1.9110    1.0000 </r>
       <r>    4.7515    1.0000 </r>
       <r>   14.9056    0.0000 </r>
       <r>   16.7465    0.0000 </r>
       <r>   19.0130    0.0000 </r>
       <r>   20.4791    0.0000 </r>
       <r>   29.2269    0.0000 </r>
       <r>   30.6090    0.0000 </r>
      </set>
      <set comment="kpoint 21">
       <r>    3.0709    1.0000 </r>
       <r>    3.4682    1.0000 </r>
       <r>   14.8459    0.0000 </r>
       <r>   16.6863    0.0000 </r>
       <r>   18.9552    0.0000 </r>
       <r>   20.4233    0.0000 </r>
       <r>   29.9225    0.0000 </r>
       <r>   30.3441    0.0000 </r>
      </set>
      <set comment="kpoint 22">
       <r>   -3.4784    1.0000 </r>
       <r>   16.5698    0.0000 </r>
       <r>   17.1082    0.0000 </r>
       <r>   19.2315    0.0000 </r>
       <r>   22.0419    0.0000 </r>
       <r>   23.3919    0.0000 </r>
       <r>   24.6817    0.0000 </r>
       <r>   25.9319    0.0000 </r>
      </set>
      <set comment="kpoint 23">
       <r>   -2.9944    1.0000 </r>
       <r>   14.8088    0.0000 </r>
       <r>   16.0655    0.0000 </r>
       <r>   18.5210    0.0000 </r>
       <r>   21.7876    0.0000 </r>
       <r>   23.1010    0.0000 </r>
       <r>   25.0297    0.0000 </r>
       <r>   26.7659    0.0000 </r>
      </set>
      <set comment="kpoint 24">
       <r>   -2.3737    1.0000 </r>
       <r>   12.8450    0.0000 </r>
       <r>   15.3159    0.0000 </r>
       <r>   17.8745    0.0000 </r>
       <r>   21.3344    0.0000 </r>
       <r>   22.8921    0.0000 </r>
       <r>   25.2629    0.0000 </r>
       <r>   27.8697    0.0000 </r>
      </set>
      <set comment="kpoint 25">
       <r>   -1.6176    1.0000 </r>
       <r>   10.9152    0.0000 </r>
       <r>   14.7003    0.0000 </r>
       <r>   17.3127    0.0000 </r>
       <r>   20.8486    0.0000 </r>
       <r>   22.6777    0.0000 </r>
       <r>   25.6457    0.0000 </r>
       <r>   28.9120    0.0000 </r>
      </set>
      <set comment="kpoint 26">
       <r>   -0.7279    1.0000 </r>
       <r>    9.0647    1.0000 </r>
       <r>   14.2081    0.0000 </r>
       <r>   16.8512    0.0000 </r>
       <r>   20.4187    0.0000 </r>
       <r>   22.4401    0.0000 </r>
       <r>   26.2368    0.0000 </r>
       <r>   29.8073    0.0000 </r>
      </set>
      <set comment="kpoint 27">
       <r>    0.2934    1.0000 </r>
       <r>    7.3132    1.0000 </r>
       <r>   13.8384    0.0000 </r>
       <r>   16.4994    0.0000 </r>
       <r>   20.0809    0.0000 </r>
       <r>   22.2204    0.0000 </r>
       <r>   27.0043    0.0000 </r>
       <r>   30.4578    0.0000 </r>
      </set>
      <set comment="kpoint 28">
       <r>    1.4428    1.0000 </r>
       <r>    5.6739    1.0000 </r>
       <r>   13.5911    0.0000 </r>
       <r>   16.2625    0.0000 </r>
       <r>   19.8504    0.0000 </r>
       <r>   22.0572    0.0000 </r>
       <r>   27.9041    0.0000 </r>
       <r>   30.5179    0.0000 </r>
      </set>
      <set comment="kpoint 29">
       <r>    2.7058    1.0000 </r>
       <r>    4.1651    1.0000 </r>
       <r>   13.4676    0.0000 </r>
       <r>   16.1435    0.0000 </r>
       <r>   19.7336    0.0000 </r>
       <r>   21.9715    0.0000 </r>
       <r>   28.8649    0.0000 </r>
       <r>   29.8761    0.0000 </r>
      </set>
      <set comment="kpoint 30">
       <r>   -2.4426    1.0000 </r>
       <r>   13.8449    0.0000 </r>
       <r>   14.2890    0.0000 </r>
       <r>   17.8190    0.0000 </r>
       <r>   21.9164    0.0000 </r>
       <r>   22.9601    0.0000 </r>
       <r>   25.7413    0.0000 </r>
       <r>   27.0290    0.0000 </r>
      </set>
      <set comment="kpoint 31">
       <r>   -1.7549    1.0000 </r>
       <r>   12.0835    0.0000 </r>
       <r>   13.4184    0.0000 </r>
       <r>   17.2098    0.0000 </r>
       <r>   21.7289    0.0000 </r>
       <r>   23.0172    0.0000 </r>
       <r>   26.0108    0.0000 </r>
       <r>   27.9967    0.0000 </r>
      </set>
      <set comment="kpoint 32">
       <r>   -0.9327    1.0000 </r>
       <r>   10.2113    0.0000 </r>
       <r>   12.8408    0.0000 </r>
       <r>   16.6971    0.0000 </r>
       <r>   21.3579    0.0000 </r>
       <r>   23.2815    0.0000 </r>
       <r>   26.0709    0.0000 </r>
       <r>   29.2449    0.0000 </r>
      </set>
      <set comment="kpoint 33">
       <r>    0.0219    1.0000 </r>
       <r>    8.4162    1.0000 </r>
       <r>   12.3975    0.0000 </r>
       <r>   16.2902    0.0000 </r>
       <r>   21.0035    0.0000 </r>
       <r>   23.5052    0.0000 </r>
       <r>   26.3249    0.0000 </r>
       <r>   30.1649    0.0000 </r>
      </set>
      <set comment="kpoint 34">
       <r>    1.1066    1.0000 </r>
       <r>    6.7236    1.0000 </r>
       <r>   12.0806    0.0000 </r>
       <r>   15.9956    0.0000 </r>
       <r>   20.7314    0.0000 </r>
       <r>   23.6036    0.0000 </r>
       <r>   26.8732    0.0000 </r>
       <r>   30.2724    0.0000 </r>
      </set>
      <set comment="kpoint 35">
       <r>    2.3156    1.0000 </r>
       <r>    5.1478    1.0000 </r>
       <r>   11.8907    0.0000 </r>
       <r>   15.8180    0.0000 </r>
       <r>   20.5643    0.0000 </r>
       <r>   23.6231    0.0000 </r>
       <r>   27.6625    0.0000 </r>
       <r>   29.6315    0.0000 </r>
      </set>
      <set comment="kpoint 36">
       <r>    3.4778    1.0000 </r>
       <r>    3.8630    1.0000 </r>
       <r>   11.8271    0.0000 </r>
       <r>   15.7582    0.0000 </r>
       <r>   20.5073    0.0000 </r>
       <r>   23.6207    0.0000 </r>
       <r>   28.3677    0.0000 </r>
       <r>   28.9175    0.0000 </r>
      </set>
      <set comment="kpoint 37">
       <r>   -1.0011    1.0000 </r>
       <r>   11.3024    0.0000 </r>
       <r>   11.6631    0.0000 </r>
       <r>   16.6493    0.0000 </r>
       <r>   22.0345    0.0000 </r>
       <r>   22.9286    0.0000 </r>
       <r>   27.0802    0.0000 </r>
       <r>   28.1286    0.0000 </r>
      </set>
      <set comment="kpoint 38">
       <r>   -0.1140    1.0000 </r>
       <r>    9.6251    1.0000 </r>
       <r>   10.9953    0.0000 </r>
       <r>   16.1906    0.0000 </r>
       <r>   21.9473    0.0000 </r>
       <r>   23.2780    0.0000 </r>
       <r>   27.3024    0.0000 </r>
       <r>   29.0599    0.0000 </r>
      </set>
      <set comment="kpoint 39">
       <r>    0.9043    1.0000 </r>
       <r>    7.8936    1.0000 </r>
       <r>   10.6015    0.0000 </r>
       <r>   15.8404    0.0000 </r>
       <r>   21.7051    0.0000 </r>
       <r>   23.8770    0.0000 </r>
       <r>   27.2295    0.0000 </r>
       <r>   29.7342    0.0000 </r>
      </set>
      <set comment="kpoint 40">
       <r>    2.0503    1.0000 </r>
       <r>    6.2638    1.0000 </r>
       <r>   10.3423    0.0000 </r>
       <r>   15.6046    0.0000 </r>
       <r>   21.5105    0.0000 </r>
       <r>   24.4512    0.0000 </r>
       <r>   27.2645    0.0000 </r>
       <r>   29.5008    0.0000 </r>
      </set>
      <set comment="kpoint 41">
       <r>    3.3103    1.0000 </r>
       <r>    4.7604    1.0000 </r>
       <r>   10.2134    0.0000 </r>
       <r>   15.4858    0.0000 </r>
       <r>   21.4072    0.0000 </r>
       <r>   24.8053    0.0000 </r>
       <r>   27.4443    0.0000 </r>
       <r>   28.9684    0.0000 </r>
      </set>
      <set comment="kpoint 42">
       <r>    0.8368    1.0000 </r>
       <r>    9.0363    1.0000 </r>
       <r>    9.3524    1.0000 </r>
       <r>   15.7885    0.0000 </r>
       <r>   22.4383    0.0000 </r>
       <r>   23.2998    0.0000 </r>
       <r>   28.5718    0.0000 </r>
       <r>   28.6853    0.0000 </r>
      </set>
      <set comment="kpoint 43">
       <r>    1.9169    1.0000 </r>
       <r>    7.4950    1.0000 </r>
       <r>    8.8885    1.0000 </r>
       <r>   15.4970    0.0000 </r>
       <r>   22.4830    0.0000 </r>
       <r>   23.8766    0.0000 </r>
       <r>   27.9357    0.0000 </r>
       <r>   29.5470    0.0000 </r>
      </set>
      <set comment="kpoint 44">
       <r>    3.1210    1.0000 </r>
       <r>    5.9349    1.0000 </r>
       <r>    8.6858    1.0000 </r>
       <r>   15.3201    0.0000 </r>
       <r>   22.3920    0.0000 </r>
       <r>   24.6793    0.0000 </r>
       <r>   27.1535    0.0000 </r>
       <r>   29.7803    0.0000 </r>
      </set>
      <set comment="kpoint 45">
       <r>    4.2840    1.0000 </r>
       <r>    4.6518    1.0000 </r>
       <r>    8.6195    1.0000 </r>
       <r>   15.2608    0.0000 </r>
       <r>   22.3528    0.0000 </r>
       <r>   25.1804    0.0000 </r>
       <r>   26.6563    0.0000 </r>
       <r>   29.7949    0.0000 </r>
      </set>
      <set comment="kpoint 46">
       <r>    3.0562    1.0000 </r>
       <r>    7.1011    1.0000 </r>
       <r>    7.4026    1.0000 </r>
       <r>   15.2646    0.0000 </r>
       <r>   23.1159    0.0000 </r>
       <r>   24.0601    0.0000 </r>
       <r>   27.1697    0.0000 </r>
       <r>   30.5445    0.0000 </r>
      </set>
      <set comment="kpoint 47">
       <r>    4.3078    1.0000 </r>
       <r>    5.7402    1.0000 </r>
       <r>    7.1392    1.0000 </r>
       <r>   15.1470    0.0000 </r>
       <r>   23.2818    0.0000 </r>
       <r>   24.7649    0.0000 </r>
       <r>   26.1509    0.0000 </r>
       <r>   31.1964    0.0000 </r>
      </set>
      <set comment="kpoint 48">
       <r>    5.3362    1.0000 </r>
       <r>    5.8328    1.0000 </r>
       <r>    5.8328    1.0000 </r>
       <r>   15.0891    0.0000 </r>
       <r>   23.7550    0.0000 </r>
       <r>   25.1885    0.0000 </r>
       <r>   25.1885    0.0000 </r>
       <r>   32.5926    0.0000 </r>
      </set>
      <set comment="kpoint 49">
       <r>   -3.8943    1.0000 </r>
       <r>   18.1930    0.0000 </r>
       <r>   19.1882    0.0000 </r>
       <r>   19.1882    0.0000 </r>
       <r>   23.0484    0.0000 </r>
       <r>   23.0484    0.0000 </r>
       <r>   25.3179    0.0000 </r>
       <r>   25.4294    0.0000 </r>
      </set>
      <set comment="kpoint 50">
       <r>   -3.5477    1.0000 </r>
       <r>   16.6975    0.0000 </r>
       <r>   17.7972    0.0000 </r>
       <r>   18.4657    0.0000 </r>
       <r>   22.7467    0.0000 </r>
       <r>   23.5358    0.0000 </r>
       <r>   25.2048    0.0000 </r>
       <r>   25.8691    0.0000 </r>
      </set>
      <set comment="kpoint 51">
       <r>   -3.0635    1.0000 </r>
       <r>   14.7768    0.0000 </r>
       <r>   16.8612    0.0000 </r>
       <r>   17.7336    0.0000 </r>
       <r>   22.3670    0.0000 </r>
       <r>   23.2252    0.0000 </r>
       <r>   25.7910    0.0000 </r>
       <r>   26.2407    0.0000 </r>
      </set>
      <set comment="kpoint 52">
       <r>   -2.4426    1.0000 </r>
       <r>   12.7929    0.0000 </r>
       <r>   16.1216    0.0000 </r>
       <r>   17.0577    0.0000 </r>
       <r>   21.9418    0.0000 </r>
       <r>   22.6956    0.0000 </r>
       <r>   26.6106    0.0000 </r>
       <r>   26.6746    0.0000 </r>
      </set>
      <set comment="kpoint 53">
       <r>   -1.6863    1.0000 </r>
       <r>   10.8561    0.0000 </r>
       <r>   15.5155    0.0000 </r>
       <r>   16.4706    0.0000 </r>
       <r>   21.5214    0.0000 </r>
       <r>   22.1917    0.0000 </r>
       <r>   27.2226    0.0000 </r>
       <r>   27.4825    0.0000 </r>
      </set>
      <set comment="kpoint 54">
       <r>   -0.7962    1.0000 </r>
       <r>    9.0029    1.0000 </r>
       <r>   15.0334    0.0000 </r>
       <r>   15.9891    0.0000 </r>
       <r>   21.1488    0.0000 </r>
       <r>   21.7663    0.0000 </r>
       <r>   27.9002    0.0000 </r>
       <r>   28.4003    0.0000 </r>
      </set>
      <set comment="kpoint 55">
       <r>    0.2254    1.0000 </r>
       <r>    7.2491    1.0000 </r>
       <r>   14.6719    0.0000 </r>
       <r>   15.6221    0.0000 </r>
       <r>   20.8514    0.0000 </r>
       <r>   21.4331    0.0000 </r>
       <r>   28.6718    0.0000 </r>
       <r>   29.3296    0.0000 </r>
      </set>
      <set comment="kpoint 56">
       <r>    1.3752    1.0000 </r>
       <r>    5.6086    1.0000 </r>
       <r>   14.4309    0.0000 </r>
       <r>   15.3758    0.0000 </r>
       <r>   20.6467    0.0000 </r>
       <r>   21.2082    0.0000 </r>
       <r>   29.4881    0.0000 </r>
       <r>   30.2038    0.0000 </r>
      </set>
      <set comment="kpoint 57">
       <r>    2.6385    1.0000 </r>
       <r>    4.0991    1.0000 </r>
       <r>   14.3104    0.0000 </r>
       <r>   15.2513    0.0000 </r>
       <r>   20.5417    0.0000 </r>
       <r>   21.0946    0.0000 </r>
       <r>   30.1658    0.0000 </r>
       <r>   30.8116    0.0000 </r>
      </set>
      <set comment="kpoint 58">
       <r>   -4.1719    1.0000 </r>
       <r>   20.0088    0.0000 </r>
       <r>   20.0088    0.0000 </r>
       <r>   20.7513    0.0000 </r>
       <r>   22.6274    0.0000 </r>
       <r>   23.4212    0.0000 </r>
       <r>   23.4212    0.0000 </r>
       <r>   24.6074    0.0000 </r>
      </set>
      <set comment="kpoint 59">
       <r>   -3.1326    1.0000 </r>
       <r>   15.6264    0.0000 </r>
       <r>   16.2917    0.0000 </r>
       <r>   17.3845    0.0000 </r>
       <r>   23.0827    0.0000 </r>
       <r>   23.9310    0.0000 </r>
       <r>   25.2859    0.0000 </r>
       <r>   26.1937    0.0000 </r>
      </set>
      <set comment="kpoint 60">
       <r>   -2.5804    1.0000 </r>
       <r>   13.9128    0.0000 </r>
       <r>   15.2354    0.0000 </r>
       <r>   16.6201    0.0000 </r>
       <r>   22.9639    0.0000 </r>
       <r>   23.9052    0.0000 </r>
       <r>   25.7399    0.0000 </r>
       <r>   26.8224    0.0000 </r>
      </set>
      <set comment="kpoint 61">
       <r>   -1.8923    1.0000 </r>
       <r>   11.9802    0.0000 </r>
       <r>   14.5281    0.0000 </r>
       <r>   15.9691    0.0000 </r>
       <r>   22.6587    0.0000 </r>
       <r>   23.6251    0.0000 </r>
       <r>   26.3241    0.0000 </r>
       <r>   27.6863    0.0000 </r>
      </set>
      <set comment="kpoint 62">
       <r>   -1.0696    1.0000 </r>
       <r>   10.0915    0.0000 </r>
       <r>   13.9663    0.0000 </r>
       <r>   15.4278    0.0000 </r>
       <r>   22.3008    0.0000 </r>
       <r>   23.3249    0.0000 </r>
       <r>   26.9670    0.0000 </r>
       <r>   28.6176    0.0000 </r>
      </set>
      <set comment="kpoint 63">
       <r>   -0.1142    1.0000 </r>
       <r>    8.2906    1.0000 </r>
       <r>   13.5313    0.0000 </r>
       <r>   15.0015    0.0000 </r>
       <r>   21.9763    0.0000 </r>
       <r>   23.0533    0.0000 </r>
       <r>   27.7193    0.0000 </r>
       <r>   29.5302    0.0000 </r>
      </set>
      <set comment="kpoint 64">
       <r>    0.9712    1.0000 </r>
       <r>    6.5946    1.0000 </r>
       <r>   13.2201    0.0000 </r>
       <r>   14.6944    0.0000 </r>
       <r>   21.7265    0.0000 </r>
       <r>   22.8397    0.0000 </r>
       <r>   28.5610    0.0000 </r>
       <r>   30.3226    0.0000 </r>
      </set>
      <set comment="kpoint 65">
       <r>    2.1810    1.0000 </r>
       <r>    5.0167    1.0000 </r>
       <r>   13.0334    0.0000 </r>
       <r>   14.5090    0.0000 </r>
       <r>   21.5712    0.0000 </r>
       <r>   22.7054    0.0000 </r>
       <r>   29.4431    0.0000 </r>
       <r>   30.7202    0.0000 </r>
      </set>
      <set comment="kpoint 66">
       <r>    3.3422    1.0000 </r>
       <r>    3.7325    1.0000 </r>
       <r>   12.9710    0.0000 </r>
       <r>   14.4473    0.0000 </r>
       <r>   21.5189    0.0000 </r>
       <r>   22.6596    0.0000 </r>
       <r>   30.0716    0.0000 </r>
       <r>   30.5417    0.0000 </r>
      </set>
      <set comment="kpoint 67">
       <r>   -3.9636    1.0000 </r>
       <r>   18.5895    0.0000 </r>
       <r>   19.0600    0.0000 </r>
       <r>   20.4052    0.0000 </r>
       <r>   22.2492    0.0000 </r>
       <r>   23.4546    0.0000 </r>
       <r>   24.0372    0.0000 </r>
       <r>   24.4901    0.0000 </r>
      </set>
      <set comment="kpoint 68">
       <r>   -1.9609    1.0000 </r>
       <r>   12.9976    0.0000 </r>
       <r>   13.4673    0.0000 </r>
       <r>   15.8794    0.0000 </r>
       <r>   23.2128    0.0000 </r>
       <r>   24.2343    0.0000 </r>
       <r>   26.1771    0.0000 </r>
       <r>   27.3441    0.0000 </r>
      </set>
      <set comment="kpoint 69">
       <r>   -1.2064    1.0000 </r>
       <r>   11.2765    0.0000 </r>
       <r>   12.6411    0.0000 </r>
       <r>   15.2757    0.0000 </r>
       <r>   23.1653    0.0000 </r>
       <r>   24.3299    0.0000 </r>
       <r>   26.6659    0.0000 </r>
       <r>   28.2358    0.0000 </r>
      </set>
      <set comment="kpoint 70">
       <r>   -0.3184    1.0000 </r>
       <r>    9.4472    1.0000 </r>
       <r>   12.1204    0.0000 </r>
       <r>   14.7896    0.0000 </r>
       <r>   22.9266    0.0000 </r>
       <r>   24.4390    0.0000 </r>
       <r>   27.0598    0.0000 </r>
       <r>   29.3604    0.0000 </r>
      </set>
      <set comment="kpoint 71">
       <r>    0.7010    1.0000 </r>
       <r>    7.7043    1.0000 </r>
       <r>   11.7370    0.0000 </r>
       <r>   14.4227    0.0000 </r>
       <r>   22.6770    0.0000 </r>
       <r>   24.4768    0.0000 </r>
       <r>   27.6298    0.0000 </r>
       <r>   30.2857    0.0000 </r>
      </set>
      <set comment="kpoint 72">
       <r>    1.8483    1.0000 </r>
       <r>    6.0694    1.0000 </r>
       <r>   11.4817    0.0000 </r>
       <r>   14.1763    0.0000 </r>
       <r>   22.4886    0.0000 </r>
       <r>   24.4563    0.0000 </r>
       <r>   28.3887    0.0000 </r>
       <r>   30.6050    0.0000 </r>
      </set>
      <set comment="kpoint 73">
       <r>    3.1095    1.0000 </r>
       <r>    4.5634    1.0000 </r>
       <r>   11.3540    0.0000 </r>
       <r>   14.0529    0.0000 </r>
       <r>   22.3901    0.0000 </r>
       <r>   24.4316    0.0000 </r>
       <r>   29.2195    0.0000 </r>
       <r>   30.1941    0.0000 </r>
      </set>
      <set comment="kpoint 74">
[...]
      <set comment="kpoint 275">
       <r>    5.6255    1.0000 </r>
       <r>    8.2941    1.0000 </r>
       <r>    9.4742    1.0000 </r>
       <r>   13.0371    0.0000 </r>
       <r>   14.4182    0.0000 </r>
       <r>   16.9563    0.0000 </r>
       <r>   29.3675    0.0000 </r>
       <r>   32.1735    0.0000 </r>
      </set>
      <set comment="kpoint 276">
       <r>    6.7837    1.0000 </r>
       <r>    7.0557    1.0000 </r>
       <r>    9.4097    1.0000 </r>
       <r>   13.0117    0.0000 </r>
       <r>   15.2823    0.0000 </r>
       <r>   15.8959    0.0000 </r>
       <r>   29.3370    0.0000 </r>
       <r>   32.2927    0.0000 </r>
      </set>
      <set comment="kpoint 277">
       <r>    6.8350    1.0000 </r>
       <r>    8.0808    1.0000 </r>
       <r>    8.2730    1.0000 </r>
       <r>   13.7155    0.0000 </r>
       <r>   14.5572    0.0000 </r>
       <r>   15.6088    0.0000 </r>
       <r>   29.4149    0.0000 </r>
       <r>   33.4130    0.0000 </r>
      </set>
      <set comment="kpoint 278">
       <r>    4.3833    1.0000 </r>
       <r>   10.2053    0.0000 </r>
       <r>   10.2053    0.0000 </r>
       <r>   12.2403    0.0000 </r>
       <r>   13.1669    0.0000 </r>
       <r>   18.3390    0.0000 </r>
       <r>   30.8603    0.0000 </r>
       <r>   31.6185    0.0000 </r>
      </set>
      <set comment="kpoint 279">
       <r>    5.4960    1.0000 </r>
       <r>    9.3379    1.0000 </r>
       <r>    9.9558    0.0583 </r>
       <r>   12.2150    0.0000 </r>
       <r>   13.2527    0.0000 </r>
       <r>   16.8126    0.0000 </r>
       <r>   30.9719    0.0000 </r>
       <r>   32.2428    0.0000 </r>
      </set>
      <set comment="kpoint 280">
       <r>    6.7117    1.0000 </r>
       <r>    8.0428    1.0000 </r>
       <r>    9.8311    0.9749 </r>
       <r>   12.2002    0.0000 </r>
       <r>   14.0965    0.0000 </r>
       <r>   15.4503    0.0000 </r>
       <r>   30.8850    0.0000 </r>
       <r>   32.5227    0.0000 </r>
      </set>
      <set comment="kpoint 281">
       <r>    6.6511    1.0000 </r>
       <r>    9.0909    1.0000 </r>
       <r>    9.2087    1.0000 </r>
       <r>   12.4211    0.0000 </r>
       <r>   13.2300    0.0000 </r>
       <r>   15.3593    0.0000 </r>
       <r>   31.3413    0.0000 </r>
       <r>   33.2547    0.0000 </r>
      </set>
      <set comment="kpoint 282">
       <r>    7.7820    1.0000 </r>
       <r>    8.0141    1.0000 </r>
       <r>    9.0942    1.0000 </r>
       <r>   12.5740    0.0000 </r>
       <r>   13.8408    0.0000 </r>
       <r>   14.2869    0.0000 </r>
       <r>   31.3579    0.0000 </r>
       <r>   33.6117    0.0000 </r>
      </set>
      <set comment="kpoint 283">
       <r>    6.5878    1.0000 </r>
       <r>    9.7062    1.0000 </r>
       <r>    9.7062    1.0000 </r>
       <r>   11.7058    0.0000 </r>
       <r>   12.6029    0.0000 </r>
       <r>   15.2822    0.0000 </r>
       <r>   32.7759    0.0000 </r>
       <r>   33.2054    0.0000 </r>
      </set>
      <set comment="kpoint 284">
       <r>    7.7624    1.0000 </r>
       <r>    8.9586    1.0000 </r>
       <r>    9.5813    1.0000 </r>
       <r>   11.7739    0.0000 </r>
       <r>   12.8271    0.0000 </r>
       <r>   13.9461    0.0000 </r>
       <r>   32.8790    0.0000 </r>
       <r>   33.7052    0.0000 </r>
      </set>
      <set comment="kpoint 285">
       <r>    8.7583    1.0000 </r>
       <r>    8.9543    1.0000 </r>
       <r>    8.9543    1.0000 </r>
       <r>   11.9019    0.0000 </r>
       <r>   12.9537    0.0000 </r>
       <r>   12.9537    0.0000 </r>
       <r>   33.1742    0.0000 </r>
       <r>   34.4376    0.0000 </r>
      </set>
      <set comment="kpoint 286">
       <r>    8.8195    1.0000 </r>
       <r>    9.4563    1.0000 </r>
       <r>    9.4563    1.0000 </r>
       <r>   11.2931    0.0000 </r>
       <r>   12.3188    0.0000 </r>
       <r>   12.7586    0.0000 </r>
       <r>   34.3069    0.0000 </r>
       <r>   34.3874    0.0000 </r>
      </set>
     </set>
    </set>
   </array>
  </eigenvalues>
  <separator name="orbital magnetization" >
   <v name="MAGDIPOLOUT">      0.00000000      0.00000000      0.00000000</v>
  </separator>
  <dos>
   <i name="efermi">      9.90036035 </i>
   <total>
    <array>
     <dimension dim="1">gridpoints</dimension>
     <dimension dim="2">spin</dimension>
     <field>energy</field>
     <field>total</field>
     <field>integrated</field>
     <set>
      <set comment="spin 1">
       <r>    -6.2483     0.0000     0.0000 </r>
       <r>    -6.1063     0.0000     0.0000 </r>
       <r>    -5.9642     0.0000     0.0000 </r>
       <r>    -5.8221     0.0000     0.0000 </r>
       <r>    -5.6800     0.0000     0.0000 </r>
       <r>    -5.5379     0.0000     0.0000 </r>
       <r>    -5.3959     0.0000     0.0000 </r>
       <r>    -5.2538     0.0000     0.0000 </r>
       <r>    -5.1117     0.0000     0.0000 </r>
       <r>    -4.9696     0.0000     0.0000 </r>
       <r>    -4.8275     0.0000     0.0000 </r>
       <r>    -4.6855     0.0000     0.0000 </r>
       <r>    -4.5434     0.0000     0.0000 </r>
       <r>    -4.4013     0.0000     0.0000 </r>
       <r>    -4.2592     0.0071     0.0010 </r>
       <r>    -4.1172     0.0338     0.0058 </r>
       <r>    -3.9751     0.0556     0.0137 </r>
       <r>    -3.8330     0.0653     0.0230 </r>
       <r>    -3.6909     0.0774     0.0340 </r>
       <r>    -3.5488     0.0840     0.0459 </r>
       <r>    -3.4068     0.1123     0.0619 </r>
       <r>    -3.2647     0.0947     0.0753 </r>
       <r>    -3.1226     0.0955     0.0889 </r>
       <r>    -2.9805     0.1451     0.1095 </r>
       <r>    -2.8385     0.1259     0.1274 </r>
       <r>    -2.6964     0.1108     0.1431 </r>
       <r>    -2.5543     0.1331     0.1621 </r>
       <r>    -2.4122     0.1891     0.1889 </r>
       <r>    -2.2701     0.1222     0.2063 </r>
       <r>    -2.1281     0.1344     0.2254 </r>
       <r>    -1.9860     0.1742     0.2501 </r>
       <r>    -1.8439     0.1543     0.2720 </r>
       <r>    -1.7018     0.2274     0.3043 </r>
       <r>    -1.5598     0.1200     0.3214 </r>
       <r>    -1.4177     0.1305     0.3399 </r>
       <r>    -1.2756     0.2407     0.3741 </r>
       <r>    -1.1335     0.2029     0.4030 </r>
       <r>    -0.9914     0.1725     0.4275 </r>
       <r>    -0.8494     0.2062     0.4568 </r>
       <r>    -0.7073     0.1727     0.4813 </r>
       <r>    -0.5652     0.1932     0.5088 </r>
       <r>    -0.4231     0.2272     0.5410 </r>
       <r>    -0.2811     0.2387     0.5750 </r>
       <r>    -0.1390     0.2128     0.6052 </r>
       <r>     0.0031     0.2116     0.6352 </r>
       <r>     0.1452     0.1985     0.6634 </r>
       <r>     0.2873     0.2267     0.6957 </r>
       <r>     0.4293     0.2934     0.7373 </r>
       <r>     0.5714     0.1887     0.7642 </r>
       <r>     0.7135     0.2652     0.8018 </r>
       <r>     0.8556     0.2782     0.8414 </r>
       <r>     0.9976     0.2654     0.8791 </r>
       <r>     1.1397     0.1609     0.9019 </r>
       <r>     1.2818     0.2301     0.9346 </r>
       <r>     1.4239     0.3239     0.9806 </r>
       <r>     1.5660     0.2867     1.0214 </r>
       <r>     1.7080     0.2635     1.0588 </r>
       <r>     1.8501     0.2342     1.0921 </r>
       <r>     1.9922     0.3205     1.1376 </r>
       <r>     2.1343     0.2439     1.1723 </r>
       <r>     2.2763     0.1196     1.1893 </r>
       <r>     2.4184     0.4202     1.2490 </r>
       <r>     2.5605     0.3140     1.2936 </r>
       <r>     2.7026     0.2847     1.3340 </r>
       <r>     2.8447     0.3417     1.3826 </r>
       <r>     2.9867     0.2528     1.4185 </r>
       <r>     3.1288     0.3519     1.4685 </r>
       <r>     3.2709     0.2188     1.4996 </r>
       <r>     3.4130     0.2033     1.5285 </r>
       <r>     3.5550     0.4444     1.5916 </r>
       <r>     3.6971     0.3224     1.6374 </r>
       <r>     3.8392     0.3188     1.6827 </r>
       <r>     3.9813     0.2920     1.7242 </r>
       <r>     4.1234     0.2587     1.7610 </r>
       <r>     4.2654     0.3524     1.8110 </r>
       <r>     4.4075     0.3037     1.8542 </r>
       <r>     4.5496     0.2189     1.8853 </r>
       <r>     4.6917     0.3910     1.9408 </r>
       <r>     4.8337     0.4832     2.0095 </r>
       <r>     4.9758     0.1913     2.0367 </r>
       <r>     5.1179     0.4581     2.1018 </r>
       <r>     5.2600     0.3641     2.1535 </r>
       <r>     5.4021     0.1431     2.1738 </r>
       <r>     5.5441     0.3762     2.2273 </r>
       <r>     5.6862     0.4243     2.2876 </r>
       <r>     5.8283     0.4223     2.3476 </r>
       <r>     5.9704     0.2664     2.3854 </r>
       <r>     6.1124     0.3496     2.4351 </r>
       <r>     6.2545     0.3822     2.4894 </r>
       <r>     6.3966     0.4233     2.5495 </r>
       <r>     6.5387     0.3213     2.5952 </r>
       <r>     6.6808     0.3915     2.6508 </r>
       <r>     6.8228     0.4549     2.7154 </r>
       <r>     6.9649     0.2544     2.7516 </r>
       <r>     7.1070     0.3847     2.8062 </r>
       <r>     7.2491     0.4230     2.8663 </r>
       <r>     7.3911     0.3449     2.9153 </r>
       <r>     7.5332     0.4434     2.9783 </r>
       <r>     7.6753     0.3639     3.0300 </r>
       <r>     7.8174     0.4531     3.0944 </r>
       <r>     7.9595     0.4864     3.1635 </r>
       <r>     8.1015     0.2198     3.1947 </r>
       <r>     8.2436     0.4066     3.2525 </r>
       <r>     8.3857     0.6566     3.3458 </r>
       <r>     8.5278     0.2583     3.3825 </r>
       <r>     8.6698     0.2993     3.4250 </r>
       <r>     8.8119     0.4433     3.4880 </r>
       <r>     8.9540     0.4402     3.5505 </r>
       <r>     9.0961     0.5874     3.6340 </r>
       <r>     9.2382     0.4159     3.6931 </r>
       <r>     9.3802     0.5407     3.7699 </r>
       <r>     9.5223     0.4243     3.8302 </r>
       <r>     9.6644     0.3376     3.8782 </r>
       <r>     9.8065     0.4406     3.9408 </r>
       <r>     9.9486     0.5798     4.0231 </r>
       <r>    10.0906     0.4089     4.0812 </r>
       <r>    10.2327     0.4018     4.1383 </r>
       <r>    10.3748     0.4543     4.2029 </r>
       <r>    10.5169     0.5320     4.2785 </r>
       <r>    10.6589     0.5102     4.3509 </r>
       <r>    10.8010     0.2886     4.3919 </r>
       <r>    10.9431     0.4824     4.4605 </r>
       <r>    11.0852     0.5515     4.5388 </r>
       <r>    11.2273     0.2979     4.5812 </r>
       <r>    11.3693     0.5458     4.6587 </r>
       <r>    11.5114     0.4208     4.7185 </r>
       <r>    11.6535     0.2117     4.7486 </r>
       <r>    11.7956     0.4338     4.8102 </r>
       <r>    11.9376     0.4286     4.8711 </r>
       <r>    12.0797     0.5288     4.9462 </r>
       <r>    12.2218     0.6530     5.0390 </r>
       <r>    12.3639     0.2301     5.0717 </r>
       <r>    12.5060     0.5050     5.1435 </r>
       <r>    12.6480     0.3806     5.1975 </r>
       <r>    12.7901     0.3920     5.2532 </r>
       <r>    12.9322     0.5930     5.3375 </r>
       <r>    13.0743     0.5483     5.4154 </r>
       <r>    13.2163     0.3956     5.4716 </r>
       <r>    13.3584     0.3299     5.5185 </r>
       <r>    13.5005     0.4510     5.5825 </r>
       <r>    13.6426     0.4798     5.6507 </r>
       <r>    13.7847     0.5065     5.7227 </r>
       <r>    13.9267     0.6416     5.8138 </r>
       <r>    14.0688     0.5429     5.8910 </r>
       <r>    14.2109     0.4409     5.9536 </r>
       <r>    14.3530     0.5135     6.0266 </r>
       <r>    14.4950     0.4854     6.0955 </r>
       <r>    14.6371     0.3816     6.1498 </r>
       <r>    14.7792     0.5268     6.2246 </r>
       <r>    14.9213     0.5841     6.3076 </r>
       <r>    15.0634     0.5365     6.3838 </r>
       <r>    15.2054     0.4327     6.4453 </r>
       <r>    15.3475     0.5327     6.5210 </r>
       <r>    15.4896     0.5188     6.5947 </r>
       <r>    15.6317     0.4953     6.6651 </r>
       <r>    15.7737     0.6502     6.7575 </r>
       <r>    15.9158     0.6830     6.8545 </r>
       <r>    16.0579     0.5177     6.9280 </r>
       <r>    16.2000     0.4600     6.9934 </r>
       <r>    16.3421     0.3646     7.0452 </r>
       <r>    16.4841     0.3597     7.0963 </r>
       <r>    16.6262     0.6151     7.1837 </r>
       <r>    16.7683     0.6113     7.2706 </r>
       <r>    16.9104     0.6103     7.3573 </r>
       <r>    17.0524     0.6592     7.4509 </r>
       <r>    17.1945     0.7305     7.5547 </r>
       <r>    17.3366     0.8548     7.6762 </r>
       <r>    17.4787     0.4612     7.7417 </r>
       <r>    17.6208     0.5181     7.8153 </r>
       <r>    17.7628     0.5612     7.8950 </r>
       <r>    17.9049     0.7291     7.9986 </r>
       <r>    18.0470     0.5198     8.0725 </r>
       <r>    18.1891     0.4205     8.1322 </r>
       <r>    18.3311     0.3748     8.1855 </r>
       <r>    18.4732     0.2806     8.2253 </r>
       <r>    18.6153     0.4593     8.2906 </r>
       <r>    18.7574     0.6197     8.3786 </r>
       <r>    18.8995     0.1354     8.3979 </r>
       <r>    19.0415     0.4830     8.4665 </r>
       <r>    19.1836     0.4705     8.5333 </r>
       <r>    19.3257     0.4538     8.5978 </r>
       <r>    19.4678     0.2535     8.6338 </r>
       <r>    19.6098     0.3548     8.6842 </r>
       <r>    19.7519     0.4722     8.7513 </r>
       <r>    19.8940     0.8549     8.8728 </r>
       <r>    20.0361     0.7402     8.9780 </r>
       <r>    20.1782     0.4600     9.0433 </r>
       <r>    20.3202     0.6244     9.1320 </r>
       <r>    20.4623     0.6660     9.2267 </r>
       <r>    20.6044     0.5225     9.3009 </r>
       <r>    20.7465     0.4810     9.3692 </r>
       <r>    20.8885     0.6043     9.4551 </r>
       <r>    21.0306     0.6079     9.5415 </r>
       <r>    21.1727     0.3248     9.5876 </r>
       <r>    21.3148     0.4975     9.6583 </r>
       <r>    21.4569     0.8243     9.7754 </r>
       <r>    21.5989     0.8234     9.8924 </r>
       <r>    21.7410     0.9615    10.0290 </r>
       <r>    21.8831     0.4943    10.0992 </r>
       <r>    22.0252     1.0498    10.2484 </r>
       <r>    22.1672     0.7277    10.3518 </r>
       <r>    22.3093     0.8730    10.4758 </r>
       <r>    22.4514     0.7916    10.5883 </r>
       <r>    22.5935     0.2788    10.6279 </r>
       <r>    22.7356     0.5444    10.7052 </r>
       <r>    22.8776     0.4186    10.7647 </r>
       <r>    23.0197     0.8005    10.8785 </r>
       <r>    23.1618     0.6682    10.9734 </r>
       <r>    23.3039     0.5979    11.0584 </r>
       <r>    23.4460     0.5695    11.1393 </r>
       <r>    23.5880     0.6383    11.2300 </r>
       <r>    23.7301     0.7434    11.3356 </r>
       <r>    23.8722     0.3943    11.3916 </r>
       <r>    24.0143     0.3269    11.4380 </r>
       <r>    24.1563     0.3986    11.4947 </r>
       <r>    24.2984     0.4915    11.5645 </r>
       <r>    24.4405     0.5685    11.6453 </r>
       <r>    24.5826     0.6755    11.7413 </r>
       <r>    24.7247     0.7992    11.8548 </r>
       <r>    24.8667     0.6571    11.9482 </r>
       <r>    25.0088     0.4050    12.0057 </r>
       <r>    25.1509     0.5374    12.0821 </r>
       <r>    25.2930     0.5481    12.1599 </r>
       <r>    25.4350     1.2927    12.3436 </r>
       <r>    25.5771     0.7355    12.4481 </r>
       <r>    25.7192     0.4539    12.5126 </r>
       <r>    25.8613     0.5606    12.5922 </r>
       <r>    26.0034     0.4322    12.6536 </r>
       <r>    26.1454     0.6747    12.7495 </r>
       <r>    26.2875     0.7067    12.8499 </r>
       <r>    26.4296     0.7832    12.9612 </r>
       <r>    26.5717     0.4179    13.0205 </r>
       <r>    26.7137     0.4862    13.0896 </r>
       <r>    26.8558     0.5794    13.1719 </r>
       <r>    26.9979     0.5547    13.2508 </r>
       <r>    27.1400     0.5189    13.3245 </r>
       <r>    27.2821     0.5492    13.4025 </r>
       <r>    27.4241     0.7784    13.5131 </r>
       <r>    27.5662     0.6680    13.6080 </r>
       <r>    27.7083     0.5867    13.6914 </r>
       <r>    27.8504     0.6892    13.7893 </r>
       <r>    27.9924     0.7228    13.8920 </r>
       <r>    28.1345     0.7167    13.9938 </r>
       <r>    28.2766     0.6648    14.0883 </r>
       <r>    28.4187     0.5676    14.1689 </r>
       <r>    28.5608     0.5867    14.2523 </r>
       <r>    28.7028     0.7277    14.3557 </r>
       <r>    28.8449     0.5154    14.4289 </r>
       <r>    28.9870     0.5333    14.5047 </r>
       <r>    29.1291     0.7921    14.6172 </r>
       <r>    29.2711     0.7824    14.7284 </r>
       <r>    29.4132     0.7916    14.8408 </r>
       <r>    29.5553     0.8652    14.9638 </r>
       <r>    29.6974     0.3720    15.0166 </r>
       <r>    29.8395     0.7173    15.1185 </r>
       <r>    29.9815     0.5207    15.1925 </r>
       <r>    30.1236     0.4288    15.2534 </r>
       <r>    30.2657     0.7674    15.3624 </r>
       <r>    30.4078     0.6134    15.4496 </r>
       <r>    30.5498     0.5682    15.5303 </r>
       <r>    30.6919     0.6367    15.6208 </r>
       <r>    30.8340     0.4474    15.6843 </r>
       <r>    30.9761     0.4593    15.7496 </r>
       <r>    31.1182     0.2613    15.7867 </r>
       <r>    31.2602     0.2481    15.8220 </r>
       <r>    31.4023     0.1898    15.8490 </r>
       <r>    31.5444     0.1411    15.8690 </r>
       <r>    31.6865     0.0699    15.8789 </r>
       <r>    31.8285     0.0783    15.8901 </r>
       <r>    31.9706     0.1004    15.9043 </r>
       <r>    32.1127     0.0419    15.9103 </r>
       <r>    32.2548     0.1126    15.9263 </r>
       <r>    32.3969     0.1258    15.9441 </r>
       <r>    32.5389     0.0721    15.9544 </r>
       <r>    32.6810     0.0535    15.9620 </r>
       <r>    32.8231     0.0104    15.9635 </r>
       <r>    32.9652     0.0431    15.9696 </r>
       <r>    33.1072     0.0046    15.9703 </r>
       <r>    33.2493     0.0358    15.9753 </r>
       <r>    33.3914     0.0315    15.9798 </r>
       <r>    33.5335     0.0271    15.9837 </r>
       <r>    33.6756     0.0478    15.9904 </r>
       <r>    33.8176     0.0369    15.9957 </r>
       <r>    33.9597     0.0000    15.9957 </r>
       <r>    34.1018     0.0000    15.9957 </r>
       <r>    34.2439     0.0003    15.9957 </r>
       <r>    34.3859     0.0140    15.9977 </r>
       <r>    34.5280     0.0160    16.0000 </r>
       <r>    34.6701     0.0001    16.0000 </r>
       <r>    34.8122     0.0000    16.0000 </r>
       <r>    34.9543     0.0000    16.0000 </r>
       <r>    35.0963     0.0000    16.0000 </r>
       <r>    35.2384     0.0000    16.0000 </r>
       <r>    35.3805     0.0000    16.0000 </r>
       <r>    35.5226     0.0000    16.0000 </r>
       <r>    35.6646     0.0000    16.0000 </r>
       <r>    35.8067     0.0000    16.0000 </r>
       <r>    35.9488     0.0000    16.0000 </r>
       <r>    36.0909     0.0000    16.0000 </r>
       <r>    36.2330     0.0000    16.0000 </r>
       <r>    36.3750     0.0000    16.0000 </r>
      </set>
     </set>
    </array>
   </total>
  </dos>
 </calculation>
 <structure name="finalpos" >
  <crystal>
   <varray name="basis" >
    <v>       1.54000631       1.54000631       1.54000631 </v>
    <v>       1.54000631      -1.54000631      -1.54000631 </v>
    <v>      -1.54000631       1.54000631      -1.54000631 </v>
   </varray>
   <i name="volume">     14.60923552 </i>
   <varray name="rec_basis" >
    <v>       0.32467399       0.32467399       0.00000000 </v>
    <v>       0.32467399       0.00000000      -0.32467399 </v>
    <v>       0.00000000       0.32467399      -0.32467399 </v>
   </varray>
  </crystal>
  <varray name="positions" >
   <v>      -0.00000000      -0.00000000       0.00000000 </v>
  </varray>
 </structure>
</modeling>
