 running on    4 total cores
 distrk:  each k-point on    4 cores,    1 groups
 distr:  one band on    1 cores,    4 groups
 vasp.6.2.0 18Jan21 (build Aug 12 2022 13:00:08) complex                        
  
 POSCAR found type information on POSCAR Si
 POSCAR found :  1 types and       1 ions
 scaLAPACK will be used
 LDA part: xc-table for Pade appr. of Perdew
 POSCAR, INCAR and KPOINTS ok, starting setup
 FFT: planning ...
 WAVECAR not read
 entering main loop
       N       E                     dE             d eps       ncg     rms          rms(c)
DAV:   1    -0.322310997079E+01   -0.32231E+01   -0.14270E+03  5048   0.274E+02
DAV:   2    -0.489850233655E+01   -0.16754E+01   -0.16198E+01  6848   0.244E+01
DAV:   3    -0.490585837632E+01   -0.73560E-02   -0.71900E-02  5056   0.164E+00
DAV:   4    -0.490586430198E+01   -0.59257E-05   -0.59250E-05  7360   0.446E-02
DAV:   5    -0.490586430268E+01   -0.69940E-09   -0.10782E-08  5112   0.361E-04    0.286E+00
DAV:   6    -0.489436783156E+01    0.11496E-01   -0.36251E-03  4704   0.266E-01    0.159E+00
DAV:   7    -0.488779176673E+01    0.65761E-02   -0.72513E-03  4992   0.377E-01    0.136E-01
DAV:   8    -0.488777053590E+01    0.21231E-04   -0.32502E-05  6624   0.430E-02    0.101E-02
DAV:   9    -0.488777105671E+01   -0.52081E-06   -0.39217E-07  5216   0.353E-03
   1 F= -.48877711E+01 E0= -.48875262E+01  d E =-.488777E+01
 curvature:   0.00 expect dE= 0.000E+00 dE for cont linesearch  0.000E+00
 trial: gam= 0.00000 g(F)=  0.916E-65 g(S)=  0.337E-01 ort = 0.000E+00 (trialstep = 0.100E+01)
 search vector abs. value=  0.337E-01
 bond charge predicted
       N       E                     dE             d eps       ncg     rms          rms(c)
DAV:   1    -0.490740123798E+01   -0.19631E-01   -0.49108E-01  4672   0.278E+00    0.655E-01
DAV:   2    -0.490212284968E+01    0.52784E-02   -0.26386E-03  5272   0.373E-01    0.374E-01
DAV:   3    -0.489901685444E+01    0.31060E-02   -0.34390E-03  4984   0.248E-01    0.113E-01
DAV:   4    -0.489901363747E+01    0.32170E-05   -0.61216E-06  5832   0.217E-02    0.945E-02
DAV:   5    -0.489900172855E+01    0.11909E-04   -0.11748E-06  5768   0.730E-03    0.155E-02
DAV:   6    -0.489900213289E+01   -0.40435E-06   -0.21782E-08  2472   0.119E-03
   2 F= -.48990021E+01 E0= -.48987051E+01  d E =-.112311E-01
 trial-energy change:   -0.011231  1 .order   -0.012035   -0.033662    0.009592
 step:   0.7578(harm=  0.7782)  dis= 0.00000  next Energy=    -4.900175 (dE=-0.124E-01)
 bond charge predicted
       N       E                     dE             d eps       ncg     rms          rms(c)
DAV:   1    -0.490065067456E+01   -0.16489E-02   -0.29567E-02  4632   0.694E-01    0.158E-01
DAV:   2    -0.490033100411E+01    0.31967E-03   -0.15531E-04  5320   0.911E-02    0.898E-02
DAV:   3    -0.490014590144E+01    0.18510E-03   -0.20721E-04  4952   0.610E-02    0.300E-02
DAV:   4    -0.490014596706E+01   -0.65619E-07   -0.35957E-07  5680   0.529E-03    0.256E-02
DAV:   5    -0.490014671029E+01   -0.74323E-06   -0.75822E-08  2600   0.193E-03    0.476E-03
DAV:   6    -0.490014655463E+01    0.15566E-06   -0.29183E-09  2312   0.453E-04
   3 F= -.49001466E+01 E0= -.48998695E+01  d E =-.123755E-01
 curvature:  -0.39 expect dE=-0.312E-07 dE for cont linesearch -0.312E-07
 trial: gam=-0.00155 g(F)=  0.458E-66 g(S)=  0.810E-07 ort = 0.522E-04 (trialstep = 0.952E+00)
 search vector abs. value=  0.100E-09
 reached required accuracy - stopping structural energy minimisation
