unknown system                          
           1
     1.513326    1.513326    1.513326
     1.513326   -1.513326   -1.513326
    -1.513326    1.513326   -1.513326
   Si
     1
Direct configuration=     1
   0.00000000  0.00000000  0.00000000
unknown system                          
           1
     1.548535    1.548535    1.548535
     1.548535   -1.548535   -1.548535
    -1.548535    1.548535   -1.548535
   Si
     1
Direct configuration=     2
  -0.00000000 -0.00000000  0.00000000
unknown system                          
           1
     1.540006    1.540006    1.540006
     1.540006   -1.540006   -1.540006
    -1.540006    1.540006   -1.540006
   Si
     1
Direct configuration=     3
  -0.00000000 -0.00000000  0.00000000
