PROCAR lm decomposed
# of k-points:   84         # of bands:   20         # of ions:    2

 k-point     1 :    0.00000000 0.00000000 0.00000000     weight = 0.00045517

band     1 # energy   -2.58765205 # occ.  1.00000000
 
ion      s     py     pz     px    dxy    dyz    dz2    dxz  x2-y2    tot
    1  0.368  0.000  0.000  0.000  0.000  0.000  0.000  0.000  0.000  0.368
    2  0.368  0.000  0.000  0.000  0.000  0.000  0.000  0.000  0.000  0.368
tot    0.735  0.000  0.000  0.000  0.000  0.000  0.000  0.000  0.000  0.735
 
band     2 # energy    1.00066035 # occ.  1.00000000
 
ion      s     py     pz     px    dxy    dyz    dz2    dxz  x2-y2    tot
    1  0.000  0.000  0.000  0.000  0.000  0.000  0.262  0.000  0.176  0.438
    2  0.000  0.000  0.000  0.000  0.000  0.000  0.262  0.000  0.176  0.438
tot    0.000  0.000  0.000  0.000  0.000  0.000  0.524  0.000  0.353  0.877
 
band     3 # energy    1.00066051 # occ.  1.00000000
 
ion      s     py     pz     px    dxy    dyz    dz2    dxz  x2-y2    tot
    1  0.000  0.000  0.000  0.000  0.000  0.000  0.176  0.000  0.262  0.438
    2  0.000  0.000  0.000  0.000  0.000  0.000  0.176  0.000  0.262  0.438
tot    0.000  0.000  0.000  0.000  0.000  0.000  0.353  0.000  0.524  0.877
 
band     4 # energy    3.56615119 # occ.  1.00000000
 
ion      s     py     pz     px    dxy    dyz    dz2    dxz  x2-y2    tot
    1  0.000  0.000  0.000  0.000  0.489  0.000  0.000  0.000  0.000  0.489
    2  0.000  0.000  0.000  0.000  0.489  0.000  0.000  0.000  0.000  0.489
tot    0.000  0.000  0.000  0.000  0.979  0.000  0.000  0.000  0.000  0.979
 
band     5 # energy    3.56615223 # occ.  1.00000000
 
ion      s     py     pz     px    dxy    dyz    dz2    dxz  x2-y2    tot
    1  0.000  0.000  0.000  0.000  0.000  0.003  0.000  0.486  0.000  0.489
    2  0.000  0.000  0.000  0.000  0.000  0.003  0.000  0.486  0.000  0.489
tot    0.000  0.000  0.000  0.000  0.000  0.007  0.000  0.972  0.000  0.979
 
band     6 # energy    3.56615225 # occ.  1.00000000
 
ion      s     py     pz     px    dxy    dyz    dz2    dxz  x2-y2    tot
    1  0.000  0.000  0.000  0.000  0.000  0.486  0.000  0.003  0.000  0.489
    2  0.000  0.000  0.000  0.000  0.000  0.486  0.000  0.003  0.000  0.489
tot    0.000  0.000  0.000  0.000  0.000  0.972  0.000  0.007  0.000  0.979
 
band     7 # energy    4.78205466 # occ.  1.00000000
 
ion      s     py     pz     px    dxy    dyz    dz2    dxz  x2-y2    tot
    1  0.000  0.000  0.000  0.000  0.000  0.000  0.483  0.000  0.002  0.485
    2  0.000  0.000  0.000  0.000  0.000  0.000  0.483  0.000  0.002  0.485
tot    0.000  0.000  0.000  0.000  0.000  0.000  0.966  0.000  0.005  0.970
 
band     8 # energy    4.78205582 # occ.  1.00000000
 
ion      s     py     pz     px    dxy    dyz    dz2    dxz  x2-y2    tot
    1  0.000  0.000  0.000  0.000  0.000  0.000  0.002  0.000  0.483  0.485
    2  0.000  0.000  0.000  0.000  0.000  0.000  0.002  0.000  0.483  0.485
tot    0.000  0.000  0.000  0.000  0.000  0.000  0.005  0.000  0.966  0.970
 
band     9 # energy    6.00182957 # occ.  0.06705197
 
ion      s     py     pz     px    dxy    dyz    dz2    dxz  x2-y2    tot
    1  0.000  0.000  0.000  0.000  0.494  0.000  0.000  0.000  0.000  0.494
    2  0.000  0.000  0.000  0.000  0.494  0.000  0.000  0.000  0.000  0.494
tot    0.000  0.000  0.000  0.000  0.988  0.000  0.000  0.000  0.000  0.988
 
band    10 # energy    6.00183142 # occ.  0.06704812
 
ion      s     py     pz     px    dxy    dyz    dz2    dxz  x2-y2    tot
    1  0.000  0.000  0.000  0.000  0.000  0.010  0.000  0.484  0.000  0.494
    2  0.000  0.000  0.000  0.000  0.000  0.010  0.000  0.484  0.000  0.494
tot    0.000  0.000  0.000  0.000  0.000  0.020  0.000  0.968  0.000  0.988
 
band    11 # energy    6.00183144 # occ.  0.06704807
 
ion      s     py     pz     px    dxy    dyz    dz2    dxz  x2-y2    tot
    1  0.000  0.000  0.000  0.000  0.000  0.484  0.000  0.010  0.000  0.494
    2  0.000  0.000  0.000  0.000  0.000  0.484  0.000  0.010  0.000  0.494
tot    0.000  0.000  0.000  0.000  0.000  0.968  0.000  0.020  0.000  0.988
 
band    12 # energy   15.83964476 # occ.  0.00000000
 
ion      s     py     pz     px    dxy    dyz    dz2    dxz  x2-y2    tot
    1  0.000  0.041  0.000  0.335  0.000  0.000  0.000  0.000  0.000  0.377
    2  0.000  0.041  0.000  0.335  0.000  0.000  0.000  0.000  0.000  0.377
tot    0.000  0.083  0.000  0.671  0.000  0.000  0.000  0.000  0.000  0.753
 
band    13 # energy   15.83964489 # occ.  0.00000000
 
ion      s     py     pz     px    dxy    dyz    dz2    dxz  x2-y2    tot
    1  0.000  0.335  0.000  0.041  0.000  0.000  0.000  0.000  0.000  0.377
    2  0.000  0.335  0.000  0.041  0.000  0.000  0.000  0.000  0.000  0.377
tot    0.000  0.671  0.000  0.083  0.000  0.000  0.000  0.000  0.000  0.753
 
band    14 # energy   15.83964496 # occ.  0.00000000
 
ion      s     py     pz     px    dxy    dyz    dz2    dxz  x2-y2    tot
    1  0.000  0.000  0.377  0.000  0.000  0.000  0.000  0.000  0.000  0.377
    2  0.000  0.000  0.377  0.000  0.000  0.000  0.000  0.000  0.000  0.377
tot    0.000  0.000  0.753  0.000  0.000  0.000  0.000  0.000  0.000  0.753
 
band    15 # energy   21.56949162 # occ.  0.00000000
 
ion      s     py     pz     px    dxy    dyz    dz2    dxz  x2-y2    tot
    1  0.000  0.000  0.000  0.000  0.000  0.000  0.477  0.000  0.000  0.477
    2  0.000  0.000  0.000  0.000  0.000  0.000  0.477  0.000  0.000  0.477
tot    0.000  0.000  0.000  0.000  0.000  0.000  0.953  0.000  0.000  0.953
 
band    16 # energy   21.56949350 # occ.  0.00000000
 
ion      s     py     pz     px    dxy    dyz    dz2    dxz  x2-y2    tot
    1  0.000  0.000  0.000  0.000  0.000  0.000  0.000  0.000  0.477  0.477
    2  0.000  0.000  0.000  0.000  0.000  0.000  0.000  0.000  0.477  0.477
tot    0.000  0.000  0.000  0.000  0.000  0.000  0.000  0.000  0.953  0.953
 
band    17 # energy   26.73568915 # occ.  0.00000000
 
ion      s     py     pz     px    dxy    dyz    dz2    dxz  x2-y2    tot
    1  0.391  0.000  0.000  0.000  0.000  0.000  0.000  0.000  0.000  0.391
    2  0.391  0.000  0.000  0.000  0.000  0.000  0.000  0.000  0.000  0.391
tot    0.782  0.000  0.000  0.000  0.000  0.000  0.000  0.000  0.000  0.782
 
band    18 # energy   30.93984786 # occ.  0.00000000
 
ion      s     py     pz     px    dxy    dyz    dz2    dxz  x2-y2    tot
    1  0.000  0.000  0.000  0.000  0.000  0.000  0.000  0.000  0.000  0.000
    2  0.000  0.000  0.000  0.000  0.000  0.000  0.000  0.000  0.000  0.000
tot    0.000  0.000  0.000  0.000  0.000  0.000  0.000  0.000  0.000  0.000
 
band    19 # energy   30.93984787 # occ.  0.00000000
 
ion      s     py     pz     px    dxy    dyz    dz2    dxz  x2-y2    tot
    1  0.000  0.000  0.000  0.000  0.000  0.000  0.000  0.000  0.000  0.000
    2  0.000  0.000  0.000  0.000  0.000  0.000  0.000  0.000  0.000  0.000
tot    0.000  0.000  0.000  0.000  0.000  0.000  0.000  0.000  0.000  0.000
 
band    20 # energy   30.93984792 # occ.  0.00000000
 
ion      s     py     pz     px    dxy    dyz    dz2    dxz  x2-y2    tot
    1  0.000  0.000  0.000  0.000  0.000  0.000  0.000  0.000  0.000  0.000
    2  0.000  0.000  0.000  0.000  0.000  0.000  0.000  0.000  0.000  0.000
tot    0.000  0.000  0.000  0.000  0.000  0.000  0.000  0.000  0.000  0.000
 

 k-point     2 :    0.07692308 0.00000000 0.00000000     weight = 0.00273100

band     1 # energy   -2.46432513 # occ.  1.00000000
 
ion      s     py     pz     px    dxy    dyz    dz2    dxz  x2-y2    tot
    1  0.363  0.000  0.000  0.004  0.000  0.000  0.000  0.000  0.000  0.368
    2  0.363  0.000  0.000  0.004  0.000  0.000  0.000  0.000  0.000  0.368
tot    0.727  0.000  0.000  0.009  0.000  0.000  0.000  0.000  0.000  0.736
 
band     2 # energy    1.05352410 # occ.  1.00000000
 
ion      s     py     pz     px    dxy    dyz    dz2    dxz  x2-y2    tot
    1  0.000  0.000  0.000  0.000  0.000  0.000  0.329  0.000  0.110  0.439
    2  0.000  0.000  0.000  0.000  0.000  0.000  0.329  0.000  0.110  0.439
tot    0.000  0.000  0.000  0.000  0.000  0.000  0.658  0.000  0.219  0.877
 
band     3 # energy    1.05562628 # occ.  1.00000000
 
ion      s     py     pz     px    dxy    dyz    dz2    dxz  x2-y2    tot
    1  0.000  0.000  0.000  0.003  0.000  0.000  0.109  0.000  0.326  0.438
    2  0.000  0.000  0.000  0.003  0.000  0.000  0.109  0.000  0.326  0.438
tot    0.000  0.000  0.000  0.007  0.000  0.000  0.217  0.000  0.652  0.876
 
band     4 # energy    3.56518878 # occ.  1.00000000
 
ion      s     py     pz     px    dxy    dyz    dz2    dxz  x2-y2    tot
    1  0.000  0.000  0.000  0.000  0.488  0.000  0.000  0.000  0.000  0.489
    2  0.000  0.000  0.000  0.000  0.488  0.000  0.000  0.000  0.000  0.489
tot    0.000  0.001  0.000  0.000  0.977  0.000  0.000  0.000  0.000  0.978
 
band     5 # energy    3.56518982 # occ.  1.00000000
 
ion      s     py     pz     px    dxy    dyz    dz2    dxz  x2-y2    tot
    1  0.000  0.000  0.000  0.000  0.000  0.000  0.000  0.488  0.000  0.489
    2  0.000  0.000  0.000  0.000  0.000  0.000  0.000  0.488  0.000  0.489
tot    0.000  0.000  0.001  0.000  0.000  0.000  0.000  0.977  0.000  0.978
 
band     6 # energy    3.60000993 # occ.  1.00000000
 
ion      s     py     pz     px    dxy    dyz    dz2    dxz  x2-y2    tot
    1  0.000  0.000  0.000  0.000  0.000  0.489  0.000  0.000  0.000  0.489
    2  0.000  0.000  0.000  0.000  0.000  0.489  0.000  0.000  0.000  0.489
tot    0.000  0.000  0.000  0.000  0.000  0.978  0.000  0.000  0.000  0.978
 
band     7 # energy    4.72683872 # occ.  1.00000000
 
ion      s     py     pz     px    dxy    dyz    dz2    dxz  x2-y2    tot
    1  0.000  0.000  0.000  0.000  0.000  0.000  0.363  0.000  0.121  0.484
    2  0.000  0.000  0.000  0.000  0.000  0.000  0.363  0.000  0.121  0.484
tot    0.000  0.000  0.000  0.000  0.000  0.000  0.726  0.000  0.242  0.968
 
band     8 # energy    4.80388117 # occ.  1.00000000
 
ion      s     py     pz     px    dxy    dyz    dz2    dxz  x2-y2    tot
    1  0.000  0.000  0.000  0.000  0.000  0.000  0.121  0.000  0.364  0.486
    2  0.000  0.000  0.000  0.000  0.000  0.000  0.121  0.000  0.364  0.486
tot    0.000  0.000  0.000  0.000  0.000  0.000  0.243  0.000  0.728  0.971
 
band     9 # energy    5.89803992 # occ.  0.40680614
 
ion      s     py     pz     px    dxy    dyz    dz2    dxz  x2-y2    tot
    1  0.000  0.003  0.000  0.000  0.489  0.000  0.000  0.000  0.000  0.492
    2  0.000  0.003  0.000  0.000  0.489  0.000  0.000  0.000  0.000  0.492
tot    0.000  0.006  0.000  0.000  0.979  0.000  0.000  0.000  0.000  0.984
 
band    10 # energy    5.89804171 # occ.  0.40679870
 
ion      s     py     pz     px    dxy    dyz    dz2    dxz  x2-y2    tot
    1  0.000  0.000  0.003  0.000  0.000  0.000  0.000  0.489  0.000  0.492
    2  0.000  0.000  0.003  0.000  0.000  0.000  0.000  0.489  0.000  0.492
tot    0.000  0.000  0.006  0.000  0.000  0.000  0.000  0.979  0.000  0.984
 
band    11 # energy    5.96523659 # occ.  0.16046998
 
ion      s     py     pz     px    dxy    dyz    dz2    dxz  x2-y2    tot
    1  0.000  0.000  0.000  0.000  0.000  0.494  0.000  0.000  0.000  0.494
    2  0.000  0.000  0.000  0.000  0.000  0.494  0.000  0.000  0.000  0.494
tot    0.000  0.000  0.000  0.000  0.000  0.987  0.000  0.000  0.000  0.987
 
band    12 # energy   14.97394844 # occ.  0.00000000
 
ion      s     py     pz     px    dxy    dyz    dz2    dxz  x2-y2    tot
    1  0.020  0.000  0.000  0.332  0.000  0.000  0.009  0.000  0.027  0.389
    2  0.020  0.000  0.000  0.332  0.000  0.000  0.009  0.000  0.027  0.389
tot    0.040  0.000  0.000  0.664  0.000  0.000  0.018  0.000  0.054  0.777
 
band    13 # energy   16.07329210 # occ.  0.00000000
 
ion      s     py     pz     px    dxy    dyz    dz2    dxz  x2-y2    tot
    1  0.000  0.371  0.000  0.000  0.009  0.000  0.000  0.000  0.000  0.381
    2  0.000  0.371  0.000  0.000  0.009  0.000  0.000  0.000  0.000  0.381
tot    0.000  0.743  0.000  0.000  0.018  0.000  0.000  0.000  0.000  0.761
 
band    14 # energy   16.07329223 # occ.  0.00000000
 
ion      s     py     pz     px    dxy    dyz    dz2    dxz  x2-y2    tot
    1  0.000  0.000  0.371  0.000  0.000  0.000  0.000  0.009  0.000  0.381
    2  0.000  0.000  0.371  0.000  0.000  0.000  0.000  0.009  0.000  0.381
tot    0.000  0.000  0.743  0.000  0.000  0.000  0.000  0.018  0.000  0.761
 
band    15 # energy   21.60525840 # occ.  0.00000000
 
ion      s     py     pz     px    dxy    dyz    dz2    dxz  x2-y2    tot
    1  0.000  0.000  0.000  0.000  0.000  0.000  0.355  0.000  0.118  0.474
    2  0.000  0.000  0.000  0.000  0.000  0.000  0.355  0.000  0.118  0.474
tot    0.000  0.000  0.000  0.000  0.000  0.000  0.711  0.000  0.237  0.948
 
band    16 # energy   22.21208381 # occ.  0.00000000
 
ion      s     py     pz     px    dxy    dyz    dz2    dxz  x2-y2    tot
    1  0.008  0.000  0.000  0.016  0.000  0.000  0.108  0.000  0.325  0.458
    2  0.008  0.000  0.000  0.016  0.000  0.000  0.108  0.000  0.325  0.458
tot    0.017  0.000  0.000  0.031  0.000  0.000  0.217  0.000  0.650  0.915
 
band    17 # energy   27.14039886 # occ.  0.00000000
 
ion      s     py     pz     px    dxy    dyz    dz2    dxz  x2-y2    tot
    1  0.361  0.000  0.000  0.027  0.000  0.000  0.001  0.000  0.003  0.392
    2  0.361  0.000  0.000  0.027  0.000  0.000  0.001  0.000  0.003  0.392
tot    0.722  0.000  0.000  0.053  0.000  0.000  0.002  0.000  0.006  0.784
 
band    18 # energy   30.13188648 # occ.  0.00000000
 
ion      s     py     pz     px    dxy    dyz    dz2    dxz  x2-y2    tot
    1  0.000  0.000  0.000  0.000  0.000  0.000  0.056  0.000  0.019  0.075
    2  0.000  0.000  0.000  0.000  0.000  0.000  0.056  0.000  0.019  0.075
tot    0.000  0.000  0.000  0.000  0.000  0.000  0.112  0.000  0.037  0.149
 
band    19 # energy   30.82893840 # occ.  0.00000000
 
ion      s     py     pz     px    dxy    dyz    dz2    dxz  x2-y2    tot
    1  0.000  0.002  0.000  0.000  0.049  0.000  0.000  0.000  0.000  0.050
    2  0.000  0.002  0.000  0.000  0.049  0.000  0.000  0.000  0.000  0.050
tot    0.000  0.004  0.000  0.000  0.097  0.000  0.000  0.000  0.000  0.101
 
band    20 # energy   30.82893849 # occ.  0.00000000
 
ion      s     py     pz     px    dxy    dyz    dz2    dxz  x2-y2    tot
    1  0.000  0.000  0.002  0.000  0.000  0.000  0.000  0.049  0.000  0.050
    2  0.000  0.000  0.002  0.000  0.000  0.000  0.000  0.049  0.000  0.050
tot    0.000  0.000  0.004  0.000  0.000  0.000  0.000  0.097  0.000  0.101
 

 k-point     3 :    0.15384615-0.00000000 0.00000000     weight = 0.00273100

band     1 # energy   -2.10093838 # occ.  1.00000000
 
ion      s     py     pz     px    dxy    dyz    dz2    dxz  x2-y2    tot
    1  0.350  0.000  0.000  0.017  0.000  0.000  0.000  0.000  0.001  0.368
    2  0.350  0.000  0.000  0.017  0.000  0.000  0.000  0.000  0.001  0.368
tot    0.700  0.000  0.000  0.035  0.000  0.000  0.000  0.000  0.001  0.736
 
band     2 # energy    1.20658198 # occ.  1.00000000
 
ion      s     py     pz     px    dxy    dyz    dz2    dxz  x2-y2    tot
    1  0.001  0.000  0.000  0.013  0.000  0.000  0.106  0.000  0.318  0.437
    2  0.001  0.000  0.000  0.013  0.000  0.000  0.106  0.000  0.318  0.437
tot    0.002  0.000  0.000  0.026  0.000  0.000  0.212  0.000  0.635  0.875
 
band     3 # energy    1.20919825 # occ.  1.00000000
 
ion      s     py     pz     px    dxy    dyz    dz2    dxz  x2-y2    tot
    1  0.000  0.000  0.000  0.000  0.000  0.000  0.329  0.000  0.110  0.439
    2  0.000  0.000  0.000  0.000  0.000  0.000  0.329  0.000  0.110  0.439
tot    0.000  0.000  0.000  0.000  0.000  0.000  0.659  0.000  0.220  0.879
 
band     4 # energy    3.56689046 # occ.  1.00000000
 
ion      s     py     pz     px    dxy    dyz    dz2    dxz  x2-y2    tot
    1  0.000  0.002  0.000  0.000  0.486  0.000  0.000  0.000  0.000  0.488
    2  0.000  0.002  0.000  0.000  0.486  0.000  0.000  0.000  0.000  0.488
tot    0.000  0.003  0.000  0.000  0.972  0.000  0.000  0.000  0.000  0.975
 
band     5 # energy    3.56689149 # occ.  1.00000000
 
ion      s     py     pz     px    dxy    dyz    dz2    dxz  x2-y2    tot
    1  0.000  0.000  0.002  0.000  0.000  0.000  0.000  0.486  0.000  0.488
    2  0.000  0.000  0.002  0.000  0.000  0.000  0.000  0.486  0.000  0.488
tot    0.000  0.000  0.003  0.000  0.000  0.000  0.000  0.972  0.000  0.975
 
band     6 # energy    3.69989533 # occ.  1.00000000
 
ion      s     py     pz     px    dxy    dyz    dz2    dxz  x2-y2    tot
    1  0.000  0.000  0.000  0.000  0.000  0.489  0.000  0.000  0.000  0.489
    2  0.000  0.000  0.000  0.000  0.000  0.489  0.000  0.000  0.000  0.489
tot    0.000  0.000  0.000  0.000  0.000  0.977  0.000  0.000  0.000  0.977
 
band     7 # energy    4.56398205 # occ.  1.00000000
 
ion      s     py     pz     px    dxy    dyz    dz2    dxz  x2-y2    tot
    1  0.000  0.000  0.000  0.000  0.000  0.000  0.360  0.000  0.120  0.481
    2  0.000  0.000  0.000  0.000  0.000  0.000  0.360  0.000  0.120  0.481
tot    0.000  0.000  0.000  0.000  0.000  0.000  0.721  0.000  0.240  0.961
 
band     8 # energy    4.86756195 # occ.  1.00000000
 
ion      s     py     pz     px    dxy    dyz    dz2    dxz  x2-y2    tot
    1  0.000  0.000  0.000  0.000  0.000  0.000  0.122  0.000  0.365  0.487
    2  0.000  0.000  0.000  0.000  0.000  0.000  0.122  0.000  0.365  0.487
tot    0.001  0.000  0.000  0.000  0.000  0.000  0.243  0.000  0.729  0.974
 
band     9 # energy    5.61920907 # occ.  1.03497078
 
ion      s     py     pz     px    dxy    dyz    dz2    dxz  x2-y2    tot
    1  0.000  0.009  0.000  0.000  0.479  0.000  0.000  0.000  0.000  0.488
    2  0.000  0.009  0.000  0.000  0.479  0.000  0.000  0.000  0.000  0.488
tot    0.000  0.018  0.000  0.000  0.959  0.000  0.000  0.000  0.000  0.977
 
band    10 # energy    5.61921074 # occ.  1.03497091
 
ion      s     py     pz     px    dxy    dyz    dz2    dxz  x2-y2    tot
    1  0.000  0.000  0.009  0.000  0.000  0.000  0.000  0.479  0.000  0.488
    2  0.000  0.000  0.009  0.000  0.000  0.000  0.000  0.479  0.000  0.488
tot    0.000  0.000  0.018  0.000  0.000  0.000  0.000  0.959  0.000  0.977
 
band    11 # energy    5.85704700 # occ.  0.57923677
 
ion      s     py     pz     px    dxy    dyz    dz2    dxz  x2-y2    tot
    1  0.000  0.000  0.000  0.000  0.000  0.493  0.000  0.000  0.000  0.493
    2  0.000  0.000  0.000  0.000  0.000  0.493  0.000  0.000  0.000  0.493
tot    0.000  0.000  0.000  0.000  0.000  0.985  0.000  0.000  0.000  0.985
 
band    12 # energy   13.18199488 # occ.  0.00000000
 
ion      s     py     pz     px    dxy    dyz    dz2    dxz  x2-y2    tot
    1  0.055  0.000  0.000  0.272  0.000  0.000  0.019  0.000  0.057  0.403
    2  0.055  0.000  0.000  0.272  0.000  0.000  0.019  0.000  0.057  0.403
tot    0.110  0.000  0.000  0.545  0.000  0.000  0.038  0.000  0.113  0.806
 
band    13 # energy   16.73902952 # occ.  0.00000000
 
ion      s     py     pz     px    dxy    dyz    dz2    dxz  x2-y2    tot
    1  0.000  0.357  0.000  0.000  0.034  0.000  0.000  0.000  0.000  0.391
    2  0.000  0.357  0.000  0.000  0.034  0.000  0.000  0.000  0.000  0.391
tot    0.000  0.714  0.000  0.000  0.067  0.000  0.000  0.000  0.000  0.781
 
band    14 # energy   16.73902979 # occ.  0.00000000
 
ion      s     py     pz     px    dxy    dyz    dz2    dxz  x2-y2    tot
    1  0.000  0.000  0.357  0.000  0.000  0.000  0.000  0.034  0.000  0.391
    2  0.000  0.000  0.357  0.000  0.000  0.000  0.000  0.034  0.000  0.391
tot    0.000  0.000  0.714  0.000  0.000  0.000  0.000  0.067  0.000  0.781
 
band    15 # energy   21.71428754 # occ.  0.00000000
 
ion      s     py     pz     px    dxy    dyz    dz2    dxz  x2-y2    tot
    1  0.000  0.000  0.000  0.000  0.000  0.000  0.350  0.000  0.117  0.466
    2  0.000  0.000  0.000  0.000  0.000  0.000  0.350  0.000  0.117  0.466
tot    0.000  0.000  0.000  0.000  0.000  0.000  0.699  0.000  0.233  0.932
 
band    16 # energy   23.18960583 # occ.  0.00000000
 
ion      s     py     pz     px    dxy    dyz    dz2    dxz  x2-y2    tot
    1  0.064  0.000  0.000  0.007  0.000  0.000  0.087  0.000  0.261  0.419
    2  0.064  0.000  0.000  0.007  0.000  0.000  0.087  0.000  0.261  0.419
tot    0.128  0.000  0.000  0.014  0.000  0.000  0.174  0.000  0.523  0.838
 
band    17 # energy   28.51473661 # occ.  0.00000000
 
ion      s     py     pz     px    dxy    dyz    dz2    dxz  x2-y2    tot
    1  0.267  0.000  0.000  0.089  0.000  0.000  0.011  0.000  0.034  0.401
    2  0.267  0.000  0.000  0.089  0.000  0.000  0.011  0.000  0.034  0.401
tot    0.534  0.000  0.000  0.178  0.000  0.000  0.023  0.000  0.068  0.803
 
band    18 # energy   28.62806582 # occ.  0.00000000
 
ion      s     py     pz     px    dxy    dyz    dz2    dxz  x2-y2    tot
    1  0.000  0.000  0.000  0.000  0.000  0.000  0.120  0.000  0.040  0.160
    2  0.000  0.000  0.000  0.000  0.000  0.000  0.120  0.000  0.040  0.160
tot    0.000  0.000  0.000  0.000  0.000  0.000  0.240  0.000  0.080  0.320
 
band    19 # energy   30.30302359 # occ.  0.00000000
 
ion      s     py     pz     px    dxy    dyz    dz2    dxz  x2-y2    tot
    1  0.000  0.026  0.000  0.000  0.181  0.000  0.000  0.000  0.000  0.207
    2  0.000  0.026  0.000  0.000  0.181  0.000  0.000  0.000  0.000  0.207
tot    0.000  0.052  0.000  0.000  0.362  0.000  0.000  0.000  0.000  0.414
 
band    20 # energy   30.30302401 # occ.  0.00000000
 
ion      s     py     pz     px    dxy    dyz    dz2    dxz  x2-y2    tot
    1  0.000  0.000  0.026  0.000  0.000  0.000  0.000  0.181  0.000  0.207
    2  0.000  0.000  0.026  0.000  0.000  0.000  0.000  0.181  0.000  0.207
tot    0.000  0.000  0.052  0.000  0.000  0.000  0.000  0.362  0.000  0.414
 

 k-point     4 :    0.23076923 0.00000000 0.00000000     weight = 0.00273100

band     1 # energy   -1.51912659 # occ.  1.00000000
 
ion      s     py     pz     px    dxy    dyz    dz2    dxz  x2-y2    tot
    1  0.327  0.000  0.000  0.038  0.000  0.000  0.001  0.000  0.003  0.369
    2  0.327  0.000  0.000  0.038  0.000  0.000  0.001  0.000  0.003  0.369
tot    0.655  0.000  0.000  0.075  0.000  0.000  0.002  0.000  0.006  0.738
 
band     2 # energy    1.41207574 # occ.  1.00000000
 
ion      s     py     pz     px    dxy    dyz    dz2    dxz  x2-y2    tot
    1  0.005  0.000  0.000  0.028  0.000  0.000  0.100  0.000  0.301  0.435
    2  0.005  0.000  0.000  0.028  0.000  0.000  0.100  0.000  0.301  0.435
tot    0.010  0.000  0.000  0.057  0.000  0.000  0.201  0.000  0.602  0.870
 
band     3 # energy    1.46033523 # occ.  1.00000000
 
ion      s     py     pz     px    dxy    dyz    dz2    dxz  x2-y2    tot
    1  0.000  0.000  0.000  0.000  0.000  0.000  0.331  0.000  0.110  0.441
    2  0.000  0.000  0.000  0.000  0.000  0.000  0.331  0.000  0.110  0.441
tot    0.000  0.000  0.000  0.000  0.000  0.000  0.661  0.000  0.220  0.881
 
band     4 # energy    3.58425318 # occ.  1.00000000
 
ion      s     py     pz     px    dxy    dyz    dz2    dxz  x2-y2    tot
    1  0.000  0.004  0.000  0.000  0.482  0.000  0.000  0.000  0.000  0.486
    2  0.000  0.004  0.000  0.000  0.482  0.000  0.000  0.000  0.000  0.486
tot    0.000  0.008  0.000  0.000  0.963  0.000  0.000  0.000  0.000  0.971
 
band     5 # energy    3.58425421 # occ.  1.00000000
 
ion      s     py     pz     px    dxy    dyz    dz2    dxz  x2-y2    tot
    1  0.000  0.000  0.004  0.000  0.000  0.000  0.000  0.482  0.000  0.486
    2  0.000  0.000  0.004  0.000  0.000  0.000  0.000  0.482  0.000  0.486
tot    0.000  0.000  0.008  0.000  0.000  0.000  0.000  0.963  0.000  0.971
 
band     6 # energy    3.86072786 # occ.  1.00000000
 
ion      s     py     pz     px    dxy    dyz    dz2    dxz  x2-y2    tot
    1  0.000  0.000  0.000  0.000  0.000  0.488  0.000  0.000  0.000  0.488
    2  0.000  0.000  0.000  0.000  0.000  0.488  0.000  0.000  0.000  0.488
tot    0.000  0.000  0.000  0.000  0.000  0.976  0.000  0.000  0.000  0.976
 
band     7 # energy    4.30210098 # occ.  1.00000000
 
ion      s     py     pz     px    dxy    dyz    dz2    dxz  x2-y2    tot
    1  0.000  0.000  0.000  0.000  0.000  0.000  0.357  0.000  0.119  0.476
    2  0.000  0.000  0.000  0.000  0.000  0.000  0.357  0.000  0.119  0.476
tot    0.000  0.000  0.000  0.000  0.000  0.000  0.713  0.000  0.238  0.951
 
band     8 # energy    4.96995383 # occ.  1.00000000
 
ion      s     py     pz     px    dxy    dyz    dz2    dxz  x2-y2    tot
    1  0.003  0.000  0.000  0.000  0.000  0.000  0.121  0.000  0.364  0.488
    2  0.003  0.000  0.000  0.000  0.000  0.000  0.121  0.000  0.364  0.488
tot    0.005  0.000  0.000  0.001  0.000  0.000  0.243  0.000  0.728  0.977
 
band     9 # energy    5.24049204 # occ.  1.00003358
 
ion      s     py     pz     px    dxy    dyz    dz2    dxz  x2-y2    tot
    1  0.000  0.015  0.000  0.000  0.469  0.000  0.000  0.000  0.000  0.484
    2  0.000  0.015  0.000  0.000  0.469  0.000  0.000  0.000  0.000  0.484
tot    0.000  0.030  0.000  0.000  0.939  0.000  0.000  0.000  0.000  0.969
 
band    10 # energy    5.24049355 # occ.  1.00003358
 
ion      s     py     pz     px    dxy    dyz    dz2    dxz  x2-y2    tot
    1  0.000  0.000  0.015  0.000  0.000  0.000  0.000  0.469  0.000  0.484
    2  0.000  0.000  0.015  0.000  0.000  0.000  0.000  0.469  0.000  0.484
tot    0.000  0.000  0.030  0.000  0.000  0.000  0.000  0.939  0.000  0.969
 
band    11 # energy    5.68442023 # occ.  1.02009955
 
ion      s     py     pz     px    dxy    dyz    dz2    dxz  x2-y2    tot
    1  0.000  0.000  0.000  0.000  0.000  0.491  0.000  0.000  0.000  0.491
    2  0.000  0.000  0.000  0.000  0.000  0.491  0.000  0.000  0.000  0.491
tot    0.000  0.000  0.000  0.000  0.000  0.982  0.000  0.000  0.000  0.982
 
band    12 # energy   11.22104205 # occ. -0.00000000
 
ion      s     py     pz     px    dxy    dyz    dz2    dxz  x2-y2    tot
    1  0.087  0.000  0.000  0.221  0.000  0.000  0.026  0.000  0.079  0.413
    2  0.087  0.000  0.000  0.221  0.000  0.000  0.026  0.000  0.079  0.413
tot    0.173  0.000  0.000  0.443  0.000  0.000  0.053  0.000  0.158  0.827
 
band    13 # energy   17.75677464 # occ.  0.00000000
 
ion      s     py     pz     px    dxy    dyz    dz2    dxz  x2-y2    tot
    1  0.000  0.338  0.000  0.000  0.067  0.000  0.000  0.000  0.000  0.405
    2  0.000  0.338  0.000  0.000  0.067  0.000  0.000  0.000  0.000  0.405
tot    0.000  0.676  0.000  0.000  0.133  0.000  0.000  0.000  0.000  0.809
 
band    14 # energy   17.75677507 # occ.  0.00000000
 
ion      s     py     pz     px    dxy    dyz    dz2    dxz  x2-y2    tot
    1  0.000  0.000  0.338  0.000  0.000  0.000  0.000  0.067  0.000  0.405
    2  0.000  0.000  0.338  0.000  0.000  0.000  0.000  0.067  0.000  0.405
tot    0.000  0.000  0.676  0.000  0.000  0.000  0.000  0.133  0.000  0.809
 
band    15 # energy   21.90543231 # occ.  0.00000000
 
ion      s     py     pz     px    dxy    dyz    dz2    dxz  x2-y2    tot
    1  0.000  0.000  0.000  0.000  0.000  0.000  0.340  0.000  0.113  0.453
    2  0.000  0.000  0.000  0.000  0.000  0.000  0.340  0.000  0.113  0.453
tot    0.000  0.000  0.000  0.000  0.000  0.000  0.679  0.000  0.226  0.906
 
band    16 # energy   23.81185455 # occ.  0.00000000
 
ion      s     py     pz     px    dxy    dyz    dz2    dxz  x2-y2    tot
    1  0.124  0.000  0.000  0.001  0.000  0.000  0.062  0.000  0.187  0.375
    2  0.124  0.000  0.000  0.001  0.000  0.000  0.062  0.000  0.187  0.375
tot    0.249  0.000  0.000  0.001  0.000  0.000  0.125  0.000  0.375  0.750
 
band    17 # energy   27.13703466 # occ.  0.00000000
 
ion      s     py     pz     px    dxy    dyz    dz2    dxz  x2-y2    tot
    1  0.000  0.000  0.000  0.000  0.000  0.000  0.166  0.000  0.055  0.221
    2  0.000  0.000  0.000  0.000  0.000  0.000  0.166  0.000  0.055  0.221
tot    0.000  0.000  0.000  0.000  0.000  0.000  0.332  0.000  0.111  0.442
 
band    18 # energy   29.12313426 # occ.  0.00000000
 
ion      s     py     pz     px    dxy    dyz    dz2    dxz  x2-y2    tot
    1  0.000  0.086  0.000  0.000  0.286  0.000  0.000  0.000  0.000  0.372
    2  0.000  0.086  0.000  0.000  0.286  0.000  0.000  0.000  0.000  0.372
tot    0.000  0.172  0.000  0.000  0.572  0.000  0.000  0.000  0.000  0.743
 
band    19 # energy   29.12313501 # occ.  0.00000000
 
ion      s     py     pz     px    dxy    dyz    dz2    dxz  x2-y2    tot
    1  0.000  0.000  0.086  0.000  0.000  0.000  0.000  0.286  0.000  0.372
    2  0.000  0.000  0.086  0.000  0.000  0.000  0.000  0.286  0.000  0.372
tot    0.000  0.000  0.172  0.000  0.000  0.000  0.000  0.572  0.000  0.743
 
band    20 # energy   30.84312117 # occ.  0.00000000
 
ion      s     py     pz     px    dxy    dyz    dz2    dxz  x2-y2    tot
    1  0.166  0.000  0.000  0.134  0.000  0.000  0.029  0.000  0.086  0.414
    2  0.166  0.000  0.000  0.134  0.000  0.000  0.029  0.000  0.086  0.414
tot    0.332  0.000  0.000  0.268  0.000  0.000  0.057  0.000  0.171  0.829
 

 k-point     5 :    0.30769231-0.00000000 0.00000000     weight = 0.00273100

band     1 # energy   -0.76237160 # occ.  1.00000000
 
ion      s     py     pz     px    dxy    dyz    dz2    dxz  x2-y2    tot
    1  0.293  0.000  0.000  0.063  0.000  0.000  0.004  0.000  0.011  0.371
    2  0.293  0.000  0.000  0.063  0.000  0.000  0.004  0.000  0.011  0.371
tot    0.586  0.000  0.000  0.125  0.000  0.000  0.007  0.000  0.022  0.741
 
band     2 # energy    1.59843694 # occ.  1.00000000
 
ion      s     py     pz     px    dxy    dyz    dz2    dxz  x2-y2    tot
    1  0.018  0.000  0.000  0.049  0.000  0.000  0.091  0.000  0.272  0.430
    2  0.018  0.000  0.000  0.049  0.000  0.000  0.091  0.000  0.272  0.430
tot    0.035  0.000  0.000  0.098  0.000  0.000  0.181  0.000  0.544  0.859
 
band     3 # energy    1.79439982 # occ.  1.00000000
 