   2   2   0   0
  0.2168063E+02  0.3943413E-09  0.3943414E-09  0.3943413E-09  0.5000000E-15
  1.000000000000000E-004
  CAR 
 unknown system                          
     15.31039704     -7.39073877  301      5.24740918      1.00000000
     -7.391  0.0000E+00  0.0000E+00
     -7.315  0.0000E+00  0.0000E+00
     -7.239  0.0000E+00  0.0000E+00
     -7.164  0.0000E+00  0.0000E+00
     -7.088  0.0000E+00  0.0000E+00
     -7.012  0.0000E+00  0.0000E+00
     -6.937  0.0000E+00  0.0000E+00
     -6.861  0.0000E+00  0.0000E+00
     -6.785  0.0000E+00  0.0000E+00
     -6.710  0.0000E+00  0.0000E+00
     -6.634  0.1087E-17  0.8224E-19
     -6.558  0.2563E-11  0.1939E-12
     -6.483  0.7071E-07  0.5351E-08
     -6.407  0.2781E-04  0.2110E-05
     -6.331  0.4065E-03  0.3287E-04
     -6.256  0.1098E-02  0.1159E-03
     -6.180  0.1492E-02  0.2288E-03
     -6.104  0.2013E-02  0.3811E-03
     -6.029  0.1868E-02  0.5225E-03
     -5.953  0.2877E-02  0.7402E-03
     -5.877  0.2290E-02  0.9134E-03
     -5.802  0.2969E-02  0.1138E-02
     -5.726  0.3150E-02  0.1376E-02
     -5.650  0.3597E-02  0.1649E-02
     -5.575  0.3238E-02  0.1894E-02
     -5.499  0.3171E-02  0.2134E-02
     -5.423  0.4975E-02  0.2510E-02
     -5.348  0.3906E-02  0.2806E-02
     -5.272  0.3818E-02  0.3095E-02
     -5.196  0.4178E-02  0.3411E-02
     -5.121  0.5583E-02  0.3833E-02
     -5.045  0.4391E-02  0.4165E-02
     -4.969  0.5702E-02  0.4597E-02
     -4.894  0.4893E-02  0.4967E-02
     -4.818  0.4708E-02  0.5323E-02
     -4.742  0.5975E-02  0.5776E-02
     -4.667  0.7070E-02  0.6311E-02
     -4.591  0.6663E-02  0.6815E-02
     -4.515  0.5237E-02  0.7211E-02
     -4.440  0.6879E-02  0.7731E-02
     -4.364  0.7205E-02  0.8277E-02
     -4.288  0.9074E-02  0.8963E-02
     -4.213  0.8323E-02  0.9593E-02
     -4.137  0.1050E-01  0.1039E-01
     -4.061  0.1029E-01  0.1117E-01
     -3.986  0.5272E-02  0.1157E-01
     -3.910  0.1048E-01  0.1236E-01
     -3.834  0.8310E-02  0.1299E-01
     -3.759  0.8171E-02  0.1361E-01
     -3.683  0.7603E-02  0.1418E-01
     -3.607  0.9350E-02  0.1489E-01
     -3.532  0.7408E-02  0.1545E-01
     -3.456  0.3660E-02  0.1573E-01
     -3.380  0.4692E-02  0.1608E-01
     -3.305  0.8044E-02  0.1669E-01
     -3.229  0.8909E-02  0.1736E-01
     -3.153  0.6226E-02  0.1784E-01
     -3.078  0.4812E-02  0.1820E-01
     -3.002  0.2326E-02  0.1838E-01
     -2.926  0.2930E-02  0.1860E-01
     -2.851  0.3293E-02  0.1885E-01
     -2.775  0.6604E-02  0.1935E-01
     -2.699  0.4749E-02  0.1971E-01
     -2.624  0.3289E-02  0.1995E-01
     -2.548  0.5957E-03  0.2000E-01
     -2.472  0.4398E-05  0.2000E-01
     -2.396  0.6892E-09  0.2000E-01
     -2.321  0.1812E-05  0.2000E-01
     -2.245  0.4951E-03  0.2004E-01
     -2.169  0.5526E-02  0.2046E-01
     -2.094  0.6734E-02  0.2097E-01
     -2.018  0.2789E-02  0.2118E-01
     -1.942  0.2240E-02  0.2135E-01
     -1.867  0.2720E-02  0.2155E-01
     -1.791  0.2142E-02  0.2171E-01
     -1.715  0.4966E-02  0.2209E-01
     -1.640  0.9847E-02  0.2283E-01
     -1.564  0.1259E-01  0.2379E-01
     -1.488  0.1058E-01  0.2459E-01
     -1.413  0.1479E-01  0.2571E-01
     -1.337  0.1296E-01  0.2669E-01
     -1.261  0.9012E-02  0.2737E-01
     -1.186  0.8426E-02  0.2801E-01
     -1.110  0.1121E-01  0.2886E-01
     -1.034  0.5495E-02  0.2927E-01
     -0.959  0.7546E-02  0.2984E-01
     -0.883  0.1002E-01  0.3060E-01
     -0.807  0.4949E-02  0.3097E-01
     -0.732  0.2665E-02  0.3118E-01
     -0.656  0.3734E-02  0.3146E-01
     -0.580  0.8679E-02  0.3212E-01
     -0.505  0.5544E-02  0.3253E-01
     -0.429  0.2328E-02  0.3271E-01
     -0.353  0.3612E-02  0.3298E-01
     -0.278  0.5757E-02  0.3342E-01
     -0.202  0.7090E-02  0.3396E-01
     -0.126  0.2535E-02  0.3415E-01
     -0.051  0.1577E-02  0.3427E-01
      0.025  0.2552E-02  0.3446E-01
      0.101  0.2860E-02  0.3468E-01
      0.176  0.7019E-02  0.3521E-01
      0.252  0.2455E-02  0.3539E-01
      0.328  0.1481E-02  0.3551E-01
      0.403  0.2605E-02  0.3570E-01
      0.479  0.3315E-02  0.3595E-01
      0.555  0.2974E-02  0.3618E-01
      0.630  0.3555E-02  0.3645E-01
      0.706  0.1511E-02  0.3656E-01
      0.782  0.1158E-02  0.3665E-01
      0.857  0.1700E-02  0.3678E-01
      0.933  0.2226E-02  0.3695E-01
      1.009  0.4584E-02  0.3729E-01
      1.084  0.5785E-02  0.3773E-01
      1.160  0.6500E-02  0.3822E-01
      1.236  0.8333E-02  0.3885E-01
      1.311  0.1571E-01  0.4004E-01
      1.387  0.1242E-01  0.4098E-01
      1.463  0.1109E-01  0.4182E-01
      1.538  0.1282E-01  0.4279E-01
      1.614  0.1134E-01  0.4365E-01
      1.690  0.1095E-01  0.4448E-01
      1.765  0.1094E-01  0.4531E-01
      1.841  0.1015E-01  0.4607E-01
      1.917  0.1151E-01  0.4695E-01
      1.992  0.1317E-01  0.4794E-01
      2.068  0.1160E-01  0.4882E-01
      2.144  0.1010E-01  0.4958E-01
      2.219  0.1350E-01  0.5061E-01
      2.295  0.1353E-01  0.5163E-01
      2.371  0.1316E-01  0.5262E-01
      2.446  0.1678E-01  0.5389E-01
      2.522  0.1640E-01  0.5514E-01
      2.598  0.1754E-01  0.5646E-01
      2.673  0.1489E-01  0.5759E-01
      2.749  0.1508E-01  0.5873E-01
      2.825  0.1325E-01  0.5973E-01
      2.900  0.1681E-01  0.6101E-01
      2.976  0.1668E-01  0.6227E-01
      3.052  0.1549E-01  0.6344E-01
      3.127  0.1254E-01  0.6439E-01
      3.203  0.1182E-01  0.6528E-01
      3.279  0.1521E-01  0.6643E-01
      3.354  0.1580E-01  0.6763E-01
      3.430  0.1416E-01  0.6870E-01
      3.506  0.1137E-01  0.6956E-01
      3.581  0.1311E-01  0.7055E-01
      3.657  0.1177E-01  0.7144E-01
      3.733  0.1470E-01  0.7256E-01
      3.808  0.1327E-01  0.7356E-01
      3.884  0.1025E-01  0.7434E-01
      3.960  0.9680E-02  0.7507E-01
      4.035  0.1334E-01  0.7608E-01
      4.111  0.7207E-02  0.7662E-01
      4.187  0.5539E-02  0.7704E-01
      4.263  0.5484E-02  0.7746E-01
      4.338  0.6406E-02  0.7794E-01
      4.414  0.5893E-02  0.7839E-01
      4.490  0.4048E-02  0.7870E-01
      4.565  0.3619E-02  0.7897E-01
      4.641  0.3204E-02  0.7921E-01
      4.717  0.2893E-02  0.7943E-01
      4.792  0.2443E-02  0.7962E-01
      4.868  0.2564E-02  0.7981E-01
      4.944  0.1207E-02  0.7990E-01
      5.019  0.9925E-03  0.7998E-01
      5.095  0.3083E-03  0.8000E-01
      5.171  0.6669E-05  0.8000E-01
      5.246  0.2777E-08  0.8000E-01
      5.322  0.1454E-13  0.8000E-01
      5.398  0.0000E+00  0.8000E-01
      5.473  0.0000E+00  0.8000E-01
      5.549  0.1528E-18  0.8000E-01
      5.625  0.9677E-12  0.8000E-01
      5.700  0.6785E-07  0.8000E-01
      5.776  0.6261E-04  0.8000E-01
      5.852  0.1220E-02  0.8010E-01
      5.927  0.1912E-02  0.8024E-01
      6.003  0.8904E-03  0.8031E-01
      6.079  0.3864E-02  0.8060E-01
      6.154  0.5161E-02  0.8099E-01
      6.230  0.3681E-02  0.8127E-01
      6.306  0.5340E-02  0.8167E-01
      6.381  0.4106E-02  0.8199E-01
      6.457  0.4756E-02  0.8235E-01
      6.533  0.8756E-02  0.8301E-01
      6.608  0.1081E-01  0.8383E-01
      6.684  0.6698E-02  0.8433E-01
      6.760  0.8957E-02  0.8501E-01
      6.835  0.9599E-02  0.8574E-01
      6.911  0.1273E-01  0.8670E-01
      6.987  0.9144E-02  0.8739E-01
      7.062  0.1603E-01  0.8860E-01
      7.138  0.1511E-01  0.8975E-01
      7.214  0.1577E-01  0.9094E-01
      7.289  0.2253E-01  0.9265E-01
      7.365  0.1477E-01  0.9376E-01
      7.441  0.1355E-01  0.9479E-01
      7.516  0.1626E-01  0.9602E-01
      7.592  0.1375E-01  0.9706E-01
      7.668  0.1057E-01  0.9786E-01
      7.743  0.1525E-01  0.9901E-01
      7.819  0.1088E-01  0.9984E-01
      7.895  0.1333E-01  0.1008E+00
      7.970  0.1138E-01  0.1017E+00
      8.046  0.7299E-02  0.1023E+00
      8.122  0.1065E-01  0.1031E+00
      8.197  0.1068E-01  0.1039E+00
      8.273  0.1548E-01  0.1050E+00
      8.349  0.2691E-01  0.1071E+00
      8.424  0.2135E-01  0.1087E+00
      8.500  0.2056E-01  0.1103E+00
      8.576  0.2132E-01  0.1119E+00
      8.651  0.2086E-01  0.1134E+00
      8.727  0.1890E-01  0.1149E+00
      8.803  0.1449E-01  0.1160E+00
      8.878  0.1397E-01  0.1170E+00
      8.954  0.1200E-01  0.1179E+00
      9.030  0.1402E-01  0.1190E+00
      9.105  0.1388E-01  0.1200E+00
      9.181  0.1025E-01  0.1208E+00
      9.257  0.1244E-01  0.1218E+00
      9.332  0.1602E-01  0.1230E+00
      9.408  0.1179E-01  0.1239E+00
      9.484  0.1103E-01  0.1247E+00
      9.559  0.1736E-01  0.1260E+00
      9.635  0.1664E-01  0.1273E+00
      9.711  0.1262E-01  0.1282E+00
      9.786  0.1143E-01  0.1291E+00
      9.862  0.1421E-01  0.1302E+00
      9.938  0.1249E-01  0.1311E+00
     10.013  0.1271E-01  0.1321E+00
     10.089  0.1522E-01  0.1332E+00
     10.165  0.1213E-01  0.1341E+00
     10.240  0.1649E-01  0.1354E+00
     10.316  0.9468E-02  0.1361E+00
     10.392  0.1115E-01  0.1370E+00
     10.467  0.1137E-01  0.1378E+00
     10.543  0.9376E-02  0.1385E+00
     10.619  0.9700E-02  0.1393E+00
     10.694  0.1404E-01  0.1403E+00
     10.770  0.1457E-01  0.1414E+00
     10.846  0.1037E-01  0.1422E+00
     10.922  0.1013E-01  0.1430E+00
     10.997  0.1184E-01  0.1439E+00
     11.073  0.8046E-02  0.1445E+00
     11.149  0.8588E-02  0.1451E+00
     11.224  0.1118E-01  0.1460E+00
     11.300  0.6588E-02  0.1465E+00
     11.376  0.1057E-01  0.1473E+00
     11.451  0.1196E-01  0.1482E+00
     11.527  0.1134E-01  0.1490E+00
     11.603  0.9523E-02  0.1498E+00
     11.678  0.7719E-02  0.1503E+00
     11.754  0.8898E-02  0.1510E+00
     11.830  0.4420E-02  0.1514E+00
     11.905  0.5549E-02  0.1518E+00
     11.981  0.5686E-02  0.1522E+00
     12.057  0.1007E-01  0.1530E+00
     12.132  0.9081E-02  0.1537E+00
     12.208  0.7997E-02  0.1543E+00
     12.284  0.9182E-02  0.1550E+00
     12.359  0.3512E-02  0.1552E+00
     12.435  0.5036E-02  0.1556E+00
     12.511  0.4599E-02  0.1559E+00
     12.586  0.2035E-02  0.1561E+00
     12.662  0.3375E-02  0.1564E+00
     12.738  0.5165E-02  0.1567E+00
     12.813  0.7171E-02  0.1573E+00
     12.889  0.4680E-02  0.1576E+00
     12.965  0.9413E-02  0.1584E+00
     13.040  0.3750E-02  0.1586E+00
     13.116  0.1319E-02  0.1587E+00
     13.192  0.1213E-03  0.1588E+00
     13.267  0.4527E-03  0.1588E+00
     13.343  0.1854E-02  0.1589E+00
     13.419  0.1287E-02  0.1590E+00
     13.494  0.4717E-03  0.1591E+00
     13.570  0.1737E-02  0.1592E+00
     13.646  0.4215E-02  0.1595E+00
     13.721  0.2727E-02  0.1597E+00
     13.797  0.9994E-04  0.1597E+00
     13.873  0.8296E-07  0.1597E+00
     13.948  0.1449E-05  0.1597E+00
     14.024  0.2812E-03  0.1597E+00
     14.100  0.1312E-02  0.1598E+00
     14.175  0.2565E-03  0.1599E+00
     14.251  0.6457E-03  0.1599E+00
     14.327  0.1080E-02  0.1600E+00
     14.402  0.9386E-04  0.1600E+00
     14.478  0.2200E-06  0.1600E+00
     14.554  0.7747E-11  0.1600E+00
     14.629  0.3260E-17  0.1600E+00
     14.705  0.0000E+00  0.1600E+00
     14.781  0.0000E+00  0.1600E+00
     14.856  0.0000E+00  0.1600E+00
     14.932  0.0000E+00  0.1600E+00
     15.008  0.0000E+00  0.1600E+00
     15.083  0.0000E+00  0.1600E+00
     15.159  0.0000E+00  0.1600E+00
     15.235  0.0000E+00  0.1600E+00
     15.310  0.0000E+00  0.1600E+00
