    2    2  100    1
  0.2168063E+02  0.3943413E-09  0.3943414E-09  0.3943413E-09  0.5000000E-15
  1.000000000000000E-004
  CAR 
 unknown system                          
      8    182      8
 
  0.4166667E-01  0.4166667E-01  0.4166667E-01  0.1157407E-02
    1       -6.358869   1.000000
    2        4.782661   1.000000
    3        5.013641   1.000000
    4        5.013644   1.000000
    5        7.525573   0.000000
    6        7.631556   0.000000
    7        7.631562   0.000000
    8        7.811909   0.000000
 
  0.1250000E+00  0.4166667E-01  0.4166667E-01  0.3472222E-02
    1       -6.245819   1.000000
    2        3.893110   1.000000
    3        4.628612   1.000000
    4        4.961549   1.000000
    5        7.518716   0.000000
    6        7.743126   0.000000
    7        7.883823   0.000000
    8        8.763068   0.000000
 
  0.2083333E+00  0.4166667E-01  0.4166667E-01  0.3472222E-02
    1       -5.967137   1.000000
    2        2.455189   1.000000
    3        4.279705   1.000000
    4        4.709474   1.000000
    5        7.217745   0.000000
    6        8.111522   0.000000
    7        8.377074   0.000000
    8       10.115602   0.000000
 
  0.2916667E+00  0.4166667E-01  0.4166667E-01  0.3472222E-02
    1       -5.535973   1.000000
    2        1.024548   1.000000
    3        3.997116   1.000000
    4        4.411918   1.000000
    5        6.906178   0.000000
    6        8.407923   0.000000
    7        8.643375   0.000000
    8       11.360043   0.000000
 
  0.3750000E+00  0.4166667E-01  0.4166667E-01  0.3472222E-02
    1       -4.988455   1.000000
    2       -0.253582   1.000000
    3        3.810267   1.000000
    4        4.154416   1.000000
    5        6.662465   0.000000
    6        8.481173   0.000000
    7        8.608425   0.000000
    8       12.384580   0.000000
 
  0.4583333E+00  0.4166667E-01  0.4166667E-01  0.3472222E-02
    1       -4.439624   1.000000
    2       -1.228572   1.000000
    3        3.729096   1.000000
    4        3.971741   1.000000
    5        6.517414   0.000000
    6        8.466885   0.000000
    7        8.470957   0.000000
    8       12.743840   0.000000
 
 -0.4583333E+00  0.4166667E-01  0.4166667E-01  0.3472222E-02
    1       -4.234060   1.000000
    2       -1.541541   1.000000
    3        3.752721   1.000000
    4        3.879355   1.000000
    5        6.482264   0.000000
    6        8.381313   0.000000
    7        8.501458   0.000000
    8       12.733266   0.000000
 
 -0.3750000E+00  0.4166667E-01  0.4166667E-01  0.3472222E-02
    1       -4.607832   1.000000
    2       -0.953495   1.000000
    3        3.875595   1.000000
    4        3.885795   1.000000
    5        6.559030   0.000000
    6        8.376714   0.000000
    7        8.614613   0.000000
    8       12.604989   0.000000
 
 -0.2916667E+00  0.4166667E-01  0.4166667E-01  0.3472222E-02
    1       -5.179478   1.000000
    2        0.148064   1.000000
    3        3.995379   1.000000
    4        4.088114   1.000000
    5        6.742089   0.000000
    6        8.389974   0.000000
    7        8.736161   0.000000
    8       11.796252   0.000000
 
 -0.2083333E+00  0.4166667E-01  0.4166667E-01  0.3472222E-02
    1       -5.695056   1.000000
    2        1.490143   1.000000
    3        4.205081   1.000000
    4        4.371564   1.000000
    5        7.014298   0.000000
    6        8.247996   0.000000
    7        8.692347   0.000000
    8       10.870234   0.000000
 
 -0.1250000E+00  0.4166667E-01  0.4166667E-01  0.3472222E-02
    1       -6.077822   1.000000
    2        2.949468   1.000000
    3        4.495809   1.000000
    4        4.678963   1.000000
    5        7.328783   0.000000
    6        7.885387   0.000000
    7        8.358444   0.000000
    8        9.633652   0.000000
 
 -0.4166667E-01  0.4166667E-01  0.4166667E-01  0.3472222E-02
    1       -6.302212   1.000000
    2        4.348860   1.000000
    3        4.809702   1.000000
    4        4.893108   1.000000
    5        7.495283   0.000000
    6        7.681849   0.000000
    7        7.903534   0.000000
    8        8.270493   0.000000
 
  0.1250000E+00  0.1250000E+00  0.4166667E-01  0.3472222E-02
    1       -6.189140   1.000000
    2        3.783834   1.000000
    3        4.492106   1.000000
    4        4.568936   1.000000
    5        7.277881   0.000000
    6        8.074649   0.000000
    7        8.356000   0.000000
    8        8.818622   0.000000
 
  0.2083333E+00  0.1250000E+00  0.4166667E-01  0.6944444E-02
    1       -5.965150   1.000000
    2        2.781444   1.000000
    3        3.944123   1.000000
    4        4.429917   1.000000
    5        7.285833   0.000000
    6        8.185974   0.000000
    7        8.826552   0.000000
    8        9.646705   0.000000
 
  0.2916667E+00  0.1250000E+00  0.4166667E-01  0.6944444E-02
    1       -5.583110   1.000000
    2        1.449527   1.000000
    3        3.572326   1.000000
    4        4.157453   1.000000
    5        7.408155   0.000000
    6        8.207960   0.000000
    7        9.206933   0.000000
    8       10.069528   0.000000
 
  0.3750000E+00  0.1250000E+00  0.4166667E-01  0.6944444E-02
    1       -5.068141   1.000000
    2        0.159598   1.000000
    3        3.313751   1.000000
    4        3.878056   1.000000
    5        7.284859   0.000000
    6        8.329418   0.000000
    7        9.242750   0.000000
    8       10.651398   0.000000
 
  0.4583333E+00  0.1250000E+00  0.4166667E-01  0.6944444E-02
    1       -4.495897   1.000000
    2       -0.919022   1.000000
    3        3.133110   1.000000
    4        3.703361   1.000000
    5        7.146029   0.000000
    6        8.315129   0.000000
    7        9.102418   0.000000
    8       11.704342   0.000000
 
 -0.4583333E+00  0.1250000E+00  0.4166667E-01  0.6944444E-02
    1       -4.120282   1.000000
    2       -1.500360   1.000000
    3        3.014371   1.000000
    4        3.681327   1.000000
    5        7.091108   0.000000
    6        8.302271   0.000000
    7        8.977579   0.000000
    8       12.797806   0.000000
 
 -0.3750000E+00  0.1250000E+00  0.4166667E-01  0.6944444E-02
    1       -4.328384   1.000000
    2       -1.187884   1.000000
    3        2.974371   1.000000
    4        3.804574   1.000000
    5        7.138298   0.000000
    6        8.351857   0.000000
    7        8.951253   0.000000
    8       12.490591   0.000000
 
 -0.2916667E+00  0.1250000E+00  0.4166667E-01  0.6944444E-02
    1       -4.878732   1.000000
    2       -0.228541   1.000000
    3        3.041540   1.000000
    4        4.040222   1.000000
    5        7.283189   0.000000
    6        8.407045   0.000000
    7        9.010102   0.000000
    8       11.383701   0.000000
 
 -0.2083333E+00  0.1250000E+00  0.4166667E-01  0.6944444E-02
    1       -5.425553   1.000000
    2        1.004628   1.000000
    3        3.241223   1.000000
    4        4.343829   1.000000
    5        7.502515   0.000000
    6        8.289489   0.000000
    7        9.002108   0.000000
    8       10.556064   0.000000
 
 -0.1250000E+00  0.1250000E+00  0.4166667E-01  0.6944444E-02
    1       -5.855553   1.000000
    2        2.309646   1.000000
    3        3.617952   1.000000
    4        4.639177   1.000000
    5        7.694754   0.000000
    6        7.951226   0.000000
    7        8.661979   0.000000
    8       10.069177   0.000000
 
 -0.4166667E-01  0.1250000E+00  0.4166667E-01  0.6944444E-02
    1       -6.133312   1.000000
    2        3.353279   1.000000
    3        4.306921   1.000000
    4        4.785565   1.000000
    5        7.519898   0.000000
    6        7.793609   0.000000
    7        8.275458   0.000000
    8        9.310560   0.000000
 
  0.2083333E+00  0.2083333E+00  0.4166667E-01  0.3472222E-02
    1       -5.795857   1.000000
    2        2.488443   1.000000
    3        3.788421   1.000000
    4        3.792596   1.000000
    5        6.722534   0.000000
    6        8.808804   0.000000
    7        9.523110   0.000000
    8        9.528990   0.000000
 
  0.2916667E+00  0.2083333E+00  0.4166667E-01  0.6944444E-02
    1       -5.465351   1.000000
    2        1.579774   1.000000
    3        3.242720   1.000000
    4        3.618588   1.000000
    5        6.754434   0.000000
    6        8.583551   0.000000
    7        9.714213   0.000000
    8       10.098600   0.000000
 
  0.3750000E+00  0.2083333E+00  0.4166667E-01  0.6944444E-02
    1       -4.990978   1.000000
    2        0.462956   1.000000
    3        2.799685   1.000000
    4        3.376270   1.000000
    5        6.999188   0.000000
    6        8.802683   0.000000
    7        9.526525   0.000000
    8       10.318967   0.000000
 
  0.4583333E+00  0.2083333E+00  0.4166667E-01  0.6944444E-02
    1       -4.422268   1.000000
    2       -0.601042   1.000000
    3        2.418699   1.000000
    4        3.250373   1.000000
    5        7.062759   0.000000
    6        9.196085   0.000000
    7        9.819314   0.000000
    8       10.230426   0.000000
 
 -0.4583333E+00  0.2083333E+00  0.4166667E-01  0.6944444E-02
    1       -3.930424   1.000000
    2       -1.352125   1.000000
    3        2.126610   1.000000
    4        3.282649   1.000000
    5        7.120880   0.000000
    6        9.031282   0.000000
    7       10.031296   0.000000
    8       11.165363   0.000000
 
 -0.3750000E+00  0.2083333E+00  0.4166667E-01  0.6944444E-02
    1       -3.940904   1.000000
    2       -1.334197   1.000000
    3        1.963332   1.000000
    4        3.456616   1.000000
    5        7.281472   0.000000
    6        8.924724   0.000000
    7        9.898126   0.000000
    8       12.456108   0.000000
 
 -0.2916667E+00  0.2083333E+00  0.4166667E-01  0.6944444E-02
    1       -4.439433   1.000000
    2       -0.571154   1.000000
    3        1.969667   1.000000
    4        3.742787   1.000000
    5        7.540624   0.000000
    6        8.866332   0.000000
    7        9.799276   0.000000
    8       11.155710   0.000000
 
 -0.2083333E+00  0.2083333E+00  0.4166667E-01  0.6944444E-02
    1       -5.005526   1.000000
    2        0.439958   1.000000
    3        2.223569   1.000000
    4        4.091599   1.000000
    5        7.830120   0.000000
    6        8.640796   0.000000
    7        9.624899   0.000000
    8       10.263365   0.000000
 
 -0.1250000E+00  0.2083333E+00  0.4166667E-01  0.6944444E-02
    1       -5.475651   1.000000
    2        1.327599   1.000000
    3        2.896533   1.000000
    4        4.406194   1.000000
    5        7.875340   0.000000
    6        8.198374   0.000000
    7        9.104757   0.000000
    8       10.188788   0.000000
 
 -0.4166667E-01  0.2083333E+00  0.4166667E-01  0.6944444E-02
    1       -5.801901   1.000000
    2        1.949616   1.000000
    3        3.940154   1.000000
    4        4.522887   1.000000
    5        7.347163   0.000000
    6        8.071705   0.000000
    7        8.728315   0.000000
    8       10.365515   0.000000
 
  0.2916667E+00  0.2916667E+00  0.4166667E-01  0.3472222E-02
    1       -5.185979   1.000000
    2        1.114555   1.000000
    3        3.125428   1.000000
    4        3.175034   1.000000
    5        6.225180   0.000000
    6        7.943604   0.000000
    7       10.761946   0.000000
    8       10.847353   0.000000
 
  0.3750000E+00  0.2916667E+00  0.4166667E-01  0.6944444E-02
    1       -4.756611   1.000000
    2        0.317670   1.000000
    3        2.670193   1.000000
    4        2.961360   1.000000
    5        6.335578   0.000000
    6        7.658205   0.000000
    7       10.891793   0.000000
    8       11.488797   0.000000
 
  0.4583333E+00  0.2916667E+00  0.4166667E-01  0.6944444E-02
    1       -4.209311   1.000000
    2       -0.554247   1.000000
    3        2.083298   1.000000
    4        2.841146   1.000000
    5        6.574549   0.000000
    6        8.144883   0.000000
    7       10.680451   0.000000
    8       11.583010   0.000000
 
 -0.4583333E+00  0.2916667E+00  0.4166667E-01  0.6944444E-02
    1       -3.653220   1.000000
    2       -1.306873   1.000000
    3        1.573795   1.000000
    4        2.876525   1.000000
    5        6.685244   0.000000
    6        9.336039   0.000000
    7       10.433031   0.000000
    8       11.421570   0.000000
 
 -0.3750000E+00  0.2916667E+00  0.4166667E-01  0.6944444E-02
    1       -3.473479   1.000000
    2       -1.520585   1.000000
    3        1.263200   1.000000
    4        3.055462   1.000000
    5        6.879879   0.000000
    6       10.189051   0.000000
    7       10.886366   0.000000
    8       11.215626   0.000000
 
 -0.2916667E+00  0.2916667E+00  0.4166667E-01  0.6944444E-02
    1       -3.897287   1.000000
    2       -0.999157   1.000000
    3        1.240072   1.000000
    4        3.354407   1.000000
    5        7.196708   0.000000
    6        9.947447   0.000000
    7       10.887283   0.000000
    8       11.200610   0.000000
 
 -0.2083333E+00  0.2916667E+00  0.4166667E-01  0.6944444E-02
    1       -4.466515   1.000000
    2       -0.338738   1.000000
    3        1.654133   1.000000
    4        3.727183   1.000000
    5        7.565535   0.000000
    6        9.234414   0.000000
    7       10.223792   0.000000
    8       10.600418   0.000000
 
 -0.1250000E+00  0.2916667E+00  0.4166667E-01  0.6944444E-02
    1       -4.962623   1.000000
    2        0.155810   1.000000
    3        2.562127   1.000000
    4        4.075783   1.000000
    5        7.644112   0.000000
    6        8.502531   0.000000
    7        9.315141   0.000000
    8       10.745590   0.000000
 
 -0.4166667E-01  0.2916667E+00  0.4166667E-01  0.6944444E-02
    1       -5.326212   1.000000
    2        0.578482   1.000000
    3        3.679977   1.000000
    4        4.223153   1.000000
    5        7.075953   0.000000
    6        8.329005   0.000000
    7        8.877601   0.000000
    8       11.125078   0.000000
 
  0.3750000E+00  0.3750000E+00  0.4166667E-01  0.3472222E-02
    1       -4.371568   1.000000
    2       -0.260604   1.000000
    3        2.646884   1.000000
    4        2.727689   1.000000
    5        5.910868   0.000000
    6        6.977931   0.000000
    7       12.193594   0.000000
    8       12.244292   0.000000
 
  0.4583333E+00  0.3750000E+00  0.4166667E-01  0.6944444E-02
    1       -3.855817   1.000000
    2       -0.964204   1.000000
    3        2.281662   1.000000
    4        2.544549   1.000000
    5        6.114241   0.000000
    6        6.875247   0.000000
    7       12.243631   0.000000
    8       12.939090   0.000000
 
 -0.4583333E+00  0.3750000E+00  0.4166667E-01  0.6944444E-02
    1       -3.275000   1.000000
    2       -1.624105   1.000000
    3        1.637337   1.000000
    4        2.558418   1.000000
    5        6.309324   0.000000
    6        7.716286   0.000000
    7       12.009821   0.000000
    8       12.938635   0.000000
 
 -0.3750000E+00  0.3750000E+00  0.4166667E-01  0.6944444E-02
    1       -2.969737   1.000000
    2       -1.919302   1.000000
    3        1.142614   1.000000
    4        2.720031   1.000000
    5        6.499722   0.000000
    6        9.127764   0.000000
    7       11.705153   0.000000
    8       12.437061   0.000000
 
 -0.2916667E+00  0.3750000E+00  0.4166667E-01  0.6944444E-02
    1       -3.365432   1.000000
    2       -1.531552   1.000000
    3        1.045655   1.000000
    4        3.009804   1.000000
    5        6.823088   0.000000
    6       10.643978   0.000000
    7       10.940526   0.000000
    8       11.624031   0.000000
 
 -0.2083333E+00  0.3750000E+00  0.4166667E-01  0.6944444E-02
    1       -3.908627   1.000000
    2       -1.146553   1.000000
    3        1.515940   1.000000
    4        3.389010   1.000000
    5        7.232200   0.000000
    6        9.455564   0.000000
    7       10.444676   0.000000
    8       11.753259   0.000000
 
 -0.1250000E+00  0.3750000E+00  0.4166667E-01  0.6944444E-02
    1       -4.390022   1.000000
    2       -0.888083   1.000000
    3        2.448226   1.000000
    4        3.770642   1.000000
    5        7.425397   0.000000
    6        8.513677   0.000000
    7        9.342664   0.000000
    8       11.833778   0.000000
 
 -0.4166667E-01  0.3750000E+00  0.4166667E-01  0.6944444E-02
    1       -4.758047   1.000000
    2       -0.612121   1.000000
    3        3.523208   1.000000
    4        3.978243   1.000000
    5        6.869435   0.000000
    6        8.366610   0.000000
    7        8.780717   0.000000
    8       12.069777   0.000000
 
  0.4583333E+00  0.4583333E+00  0.4166667E-01  0.3472222E-02
    1       -3.371365   1.000000
    2       -1.584785   1.000000
    3        2.376906   1.000000
    4        2.473128   1.000000
    5        5.838761   0.000000
    6        6.297106   0.000000
    7       13.653201   0.000000
    8       13.658569   0.000000
 
 -0.4583333E+00  0.4583333E+00  0.4166667E-01  0.6944444E-02
    1       -2.790403   1.000000
    2       -2.201755   1.000000
    3        2.109759   1.000000
    4        2.368544   1.000000
    5        6.092134   0.000000
    6        6.453812   0.000000
    7       13.616815   0.000000
    8       14.060045   0.000000
 
 -0.3750000E+00  0.4583333E+00  0.4166667E-01  0.6944444E-02
    1       -2.793394   1.000000
    2       -2.134987   1.000000
    3        1.546483   1.000000
    4        2.502653   1.000000
    5        6.253821   0.000000
    6        7.630572   0.000000
    7       12.672967   0.000000
    8       13.291841   0.000000
 
 -0.2916667E+00  0.4583333E+00  0.4166667E-01  0.6944444E-02
    1       -3.267350   1.000000
    2       -1.648435   1.000000
    3        1.290866   1.000000
    4        2.772087   1.000000
    5        6.562746   0.000000
    6        9.196996   0.000000
    7       11.080583   0.000000
    8       12.065298   0.000000
 
 -0.2083333E+00  0.4583333E+00  0.4166667E-01  0.6944444E-02
    1       -3.672301   1.000000
    2       -1.468294   1.000000
    3        1.645537   1.000000
    4        3.146449   1.000000
    5        6.986251   0.000000
    6        9.598866   0.000000
    7       10.608630   0.000000
    8       10.991901   0.000000
 
 -0.1250000E+00  0.4583333E+00  0.4166667E-01  0.6944444E-02
    1       -4.008513   1.000000
    2       -1.468445   1.000000
    3        2.487319   1.000000
    4        3.554636   1.000000
    5        7.276263   0.000000
    6        8.494639   0.000000
    7        9.394666   0.000000
    8       12.758093   0.000000
 
 -0.4166667E-01  0.4583333E+00  0.4166667E-01  0.6944444E-02
    1       -4.270163   1.000000
    2       -1.417076   1.000000
    3        3.456342   1.000000
    4        3.838269   1.000000
    5        6.760901   0.000000
    6        8.341513   0.000000
    7        8.666584   0.000000
    8       12.781365   0.000000
 
 -0.4583333E+00 -0.4583333E+00  0.4166667E-01  0.3472222E-02
    1       -2.809831   1.000000
    2       -2.212243   1.000000
    3        2.322641   1.000000
    4        2.421787   1.000000
    5        5.895798   0.000000
    6        6.087775   0.000000
    7       14.250790   0.000000
    8       14.278527   0.000000
 
 -0.3750000E+00 -0.4583333E+00  0.4166667E-01  0.6944444E-02
    1       -3.341216   1.000000
    2       -1.592929   1.000000
    3        2.167391   1.000000
    4        2.427010   1.000000
    5        6.084536   0.000000
    6        6.609757   0.000000
    7       12.939400   0.000000
    8       13.641763   0.000000
 
 -0.2916667E+00 -0.4583333E+00  0.4166667E-01  0.6944444E-02
    1       -3.757403   1.000000
    2       -1.085746   1.000000
    3        1.817948   1.000000
    4        2.670629   1.000000
    5        6.417736   0.000000
    6        7.888077   0.000000
    7       11.336759   0.000000
    8       12.263659   0.000000
 
 -0.2083333E+00 -0.4583333E+00  0.4166667E-01  0.6944444E-02
    1       -4.047276   1.000000
    2       -0.956428   1.000000
    3        1.963420   1.000000
    4        3.034658   1.000000
    5        6.858336   0.000000
    6        9.544455   0.000000
    7        9.803346   0.000000
    8       10.793542   0.000000
 
 -0.1250000E+00 -0.4583333E+00  0.4166667E-01  0.6944444E-02
    1       -4.213925   1.000000
    2       -1.167679   1.000000
    3        2.644787   1.000000
    4        3.466160   1.000000
    5        7.222563   0.000000
    6        8.553931   0.000000
    7        9.523064   0.000000
    8       11.402660   0.000000
 
 -0.3750000E+00 -0.3750000E+00  0.4166667E-01  0.3472222E-02
    1       -3.893216   1.000000
    2       -0.932193   1.000000
    3        2.485215   1.000000
    4        2.575430   1.000000
    5        5.842346   0.000000
    6        6.597096   0.000000
    7       12.927819   0.000000
    8       12.956715   0.000000
 
 -0.2916667E+00 -0.3750000E+00  0.4166667E-01  0.6944444E-02
    1       -4.328824   1.000000
    2       -0.324552   1.000000
    3        2.450436   1.000000
    4        2.722270   1.000000
    5        6.197597   0.000000
    6        7.228793   0.000000
    7       11.558482   0.000000
    8       12.210599   0.000000
 
 -0.2083333E+00 -0.3750000E+00  0.4166667E-01  0.6944444E-02
    1       -4.622184   1.000000
    2       -0.038179   1.000000
    3        2.419470   1.000000
    4        3.074116   1.000000
    5        6.772207   0.000000
    6        8.476229   0.000000
    7       10.051423   0.000000
    8       10.930942   0.000000
 
 -0.1250000E+00 -0.3750000E+00  0.4166667E-01  0.6944444E-02
    1       -4.765151   1.000000
    2       -0.231939   1.000000
    3        2.886888   1.000000
    4        3.531877   1.000000
    5        7.249727   0.000000
    6        8.660109   0.000000
    7        9.674750   0.000000
    8       10.225798   0.000000
 
 -0.2916667E+00 -0.2916667E+00  0.4166667E-01  0.3472222E-02
    1       -4.803361   1.000000
    2        0.423735   1.000000
    3        2.860854   1.000000
    4        2.928380   1.000000
    5        6.040489   0.000000
    6        7.432380   0.000000
    7       11.468658   0.000000
    8       11.539151   0.000000
 
 -0.2083333E+00 -0.2916667E+00  0.4166667E-01  0.6944444E-02
    1       -5.136223   1.000000
    2        0.954567   1.000000
    3        2.936191   1.000000
    4        3.261634   1.000000
    5        6.523797   0.000000
    6        8.139351   0.000000
    7       10.255923   0.000000
    8       10.782859   0.000000
 
 -0.1250000E+00 -0.2916667E+00  0.4166667E-01  0.6944444E-02
    1       -5.312146   1.000000
    2        0.955950   1.000000
    3        3.190572   1.000000
    4        3.747792   1.000000
    5        7.233098   0.000000
    6        8.632466   0.000000
    7        9.580359   0.000000
    8        9.769369   0.000000
 
 -0.2083333E+00 -0.2083333E+00  0.4166667E-01  0.3472222E-02
    1       -5.517383   1.000000
    2        1.805317   1.000000
    3        3.437797   1.000000
    4        3.463837   1.000000
    5        6.456477   0.000000
    6        8.461715   0.000000
    7       10.090570   0.000000
    8       10.172739   0.000000
 
 -0.1250000E+00 -0.2083333E+00  0.4166667E-01  0.6944444E-02
    1       -5.742138   1.000000
    2        2.189359   1.000000
    3        3.582465   1.000000
    4        4.018453   1.000000
    5        7.015115   0.000000
    6        8.609533   0.000000
    7        9.441560   0.000000
    8        9.575659   0.000000
 
 -0.1250000E+00 -0.1250000E+00  0.4166667E-01  0.3472222E-02
    1       -6.020116   1.000000
    2        3.153529   1.000000
    3        4.137959   1.000000
    4        4.178793   1.000000
    5        7.005514   0.000000
    6        8.568470   0.000000
    7        8.910011   0.000000
    8        9.242099   0.000000
 
  0.1250000E+00  0.1250000E+00  0.1250000E+00  0.1157407E-02
    1       -6.189737   1.000000
    2        3.464509   1.000000
    3        4.782948   1.000000
    4        4.782951   1.000000
    5        7.289263   0.000000
    6        7.971743   0.000000
    7        7.971750   0.000000
    8        9.118901   0.000000
 
  0.2083333E+00  0.1250000E+00  0.1250000E+00  0.3472222E-02
    1       -6.021927   1.000000
    2        2.840375   1.000000
    3        3.982185   1.000000
    4        4.842606   1.000000
    5        7.621699   0.000000
    6        7.966574   0.000000
    7        8.187814   0.000000
    8        9.822270   0.000000
 
  0.2916667E+00  0.1250000E+00  0.1250000E+00  0.3472222E-02
    1       -5.692034   1.000000
    2        1.818367   1.000000
    3        3.254026   1.000000
    4        4.639980   1.000000
    5        7.746153   0.000000
    6        8.302734   0.000000
    7        8.548639   0.000000
    8       10.373729   0.000000
 
  0.3750000E+00  0.1250000E+00  0.1250000E+00  0.3472222E-02
    1       -5.217921   1.000000
    2        0.570020   1.000000
    3        2.896838   1.000000
    4        4.318894   1.000000
    5        7.511244   0.000000
    6        8.658035   0.000000
    7        8.824076   0.000000
    8       11.006540   0.000000
 
  0.4583333E+00  0.1250000E+00  0.1250000E+00  0.3472222E-02
    1       -4.650219   1.000000
    2       -0.580899   1.000000
    3        2.748176   1.000000
    4        4.001250   1.000000
    5        7.290982   0.000000
    6        8.707392   0.000000
    7        8.836585   0.000000
    8       12.064889   0.000000
 
 -0.4583333E+00  0.1250000E+00  0.1250000E+00  0.3472222E-02
    1       -4.159075   1.000000
    2       -1.377128   1.000000
    3        2.753251   1.000000
    4        3.749123   1.000000
    5        7.146772   0.000000
    6        8.545836   0.000000
    7        8.952995   0.000000
    8       12.987683   0.000000
 
 -0.3750000E+00  0.1250000E+00  0.1250000E+00  0.3472222E-02
    1       -4.156120   1.000000
    2       -1.382561   1.000000
    3        2.890866   1.000000
    4        3.594202   1.000000
    5        7.100757   0.000000
    6        8.474717   0.000000
    7        9.116875   0.000000
    8       12.167699   0.000000
 
 -0.2916667E+00  0.1250000E+00  0.1250000E+00  0.3472222E-02
    1       -4.645247   1.000000
    2       -0.591622   1.000000
    3        3.143266   1.000000
    4        3.553618   1.000000
    5        7.152462   0.000000
    6        8.492436   0.000000
    7        9.327829   0.000000
    8       10.924002   0.000000
 
 -0.2083333E+00  0.1250000E+00  0.1250000E+00  0.3472222E-02
    1       -5.213635   1.000000
    2        0.566737   1.000000
    3        3.485787   1.000000
    4        3.634923   1.000000
    5        7.242313   0.000000
    6        8.489363   0.000000
    7        9.477210   0.000000
    8       10.035734   0.000000
 
 -0.1250000E+00  0.1250000E+00  0.1250000E+00  0.3472222E-02
    1       -5.688970   1.000000
    2        1.875041   1.000000
    3        3.835683   1.000000
    4        3.868021   1.000000
    5        7.176425   0.000000
    6        8.422207   0.000000
    7        9.359837   0.000000
    8        9.732679   0.000000
 
  0.2083333E+00  0.2083333E+00  0.1250000E+00  0.3472222E-02
    1       -5.910603   1.000000
    2        2.415531   1.000000
    3        4.166609   1.000000
    4        4.326306   1.000000
    5        7.375621   0.000000
    6        7.987568   0.000000
    7        8.834476   0.000000
    8        9.929679   0.000000
 
  0.2916667E+00  0.2083333E+00  0.1250000E+00  0.6944444E-02
    1       -5.635116   1.000000
    2        1.773751   1.000000
    3        3.257572   1.000000
    4        4.268041   1.000000
    5        7.502031   0.000000
    6        8.272166   0.000000
    7        9.293222   0.000000
    8        9.808552   0.000000
 
  0.3750000E+00  0.2083333E+00  0.1250000E+00  0.6944444E-02
    1       -5.207954   1.000000
    2        0.841528   1.000000
    3        2.567946   1.000000
    4        4.017329   1.000000
    5        7.873369   0.000000
    6        8.294178   0.000000
    7        9.665227   0.000000
    8        9.853953   0.000000
 
  0.4583333E+00  0.2083333E+00  0.1250000E+00  0.6944444E-02
    1       -4.663057   1.000000
    2       -0.236456   1.000000
    3        2.248918   1.000000
    4        3.693947   1.000000
    5        7.854816   0.000000
    6        8.338806   0.000000
    7        9.917112   0.000000
    8       10.397951   0.000000
 
 -0.4583333E+00  0.2083333E+00  0.1250000E+00  0.6944444E-02
    1       -4.109482   1.000000
    2       -1.143965   1.000000
    3        2.145463   1.000000
    4        3.432761   1.000000
    5        7.687383   0.000000
    6        8.307802   0.000000
    7        9.994709   0.000000
    8       11.536976   0.000000
 
 -0.3750000E+00  0.2083333E+00  0.1250000E+00  0.6944444E-02
    1       -3.895239   1.000000
    2       -1.452738   1.000000
    3        2.178132   1.000000
    4        3.305711   1.000000
    5        7.548464   0.000000
    6        8.367707   0.000000
    7       10.027213   0.000000
    8       12.050308   0.000000
 
 -0.2916667E+00  0.2083333E+00  0.1250000E+00  0.6944444E-02
    1       -4.275113   1.000000
    2       -0.891956   1.000000
    3        2.308552   1.000000
    4        3.349495   1.000000
    5        7.485438   0.000000
    6        8.539857   0.000000
    7       10.077903   0.000000
    8       10.674355   0.000000
 
 -0.2083333E+00  0.2083333E+00  0.1250000E+00  0.6944444E-02
    1       -4.848469   1.000000
    2        0.115518   1.000000
    3        2.537161   1.000000
    4        3.553887   1.000000
    5        7.456716   0.000000
    6        8.716408   0.000000
    7        9.564318   0.000000
    8       10.206790   0.000000
 
 -0.1250000E+00  0.2083333E+00  0.1250000E+00  0.6944444E-02
    1       -5.361831   1.000000
    2        1.233298   1.000000
    3        2.922887   1.000000
    4        3.836707   1.000000
    5        7.259776   0.000000
    6        8.630608   0.000000
    7        9.422021   0.000000
    8        9.981162   0.000000
 