       N       E                     dE             d eps       ncg     rms          rms(c)
DAV:   1     0.175563090280E+01    0.17556E+01   -0.25429E+03  2920   0.573E+02
DAV:   2    -0.107855724765E+02   -0.12541E+02   -0.12078E+02  4496   0.652E+01
DAV:   3    -0.109473900289E+02   -0.16182E+00   -0.16182E+00  3872   0.935E+00
DAV:   4    -0.109479656795E+02   -0.57565E-03   -0.57565E-03  4528   0.586E-01
DAV:   5    -0.109479663552E+02   -0.67567E-06   -0.67567E-06  4032   0.165E-02    0.442E+00
DAV:   6    -0.108546296379E+02    0.93337E-01   -0.58045E-02  3472   0.125E+00    0.269E+00
DAV:   7    -0.108092747921E+02    0.45355E-01   -0.11769E-01  3744   0.191E+00    0.143E-01
DAV:   8    -0.108104326296E+02   -0.11578E-02   -0.31583E-03  3264   0.413E-01    0.715E-02
DAV:   9    -0.108106534735E+02   -0.22084E-03   -0.23432E-04  4264   0.114E-01    0.516E-02
DAV:  10    -0.108106755168E+02   -0.22043E-04   -0.25687E-05  3448   0.377E-02    0.672E-03
DAV:  11    -0.108106754139E+02    0.10296E-06   -0.53768E-07  4224   0.491E-03
   1 F= -.10810675E+02 E0= -.10810675E+02  d E =-.108107E+02
