 vasp.6.2.0 18Jan21 (build Aug 12 2022 13:00:08) complex                        
  
 executed on             LinuxIFC date 2024.11.05  06:01:06
 running on    4 total cores
 distrk:  each k-point on    4 cores,    1 groups
 distr:  one band on NCORE=   1 cores,    4 groups


--------------------------------------------------------------------------------------------------------


 INCAR:
   ISTART = 0            (Read existing wavefunction, if there)
   ISPIN = 1            (Non-Spin polarised DFT)
   LREAL = .FALSE.       (Projection operators: automatic)
   LWAVE = .FALSE.        (Write WAVECAR or not)
   LCHARG = .FALSE.        (Write CHGCAR or not)
   ADDGRID = .TRUE.        (Increase grid, helps GGA convergence)
   LASPH = .TRUE.        (Give more accurate total energies and band structure calculations)
   PREC = Accurate      (Accurate strictly avoids any aliasing or wrap around errors)
   ENCUT = 350          (Cut-off energy for plane wave basis set, in eV)
   ISMEAR = 0            (Gaussian smearing, metals:1)
   SIGMA = 0.05         (Smearing value in eV, metals:0.2)
   NELM = 90           (Max electronic SCF steps)
   NELMIN = 6            (Min electronic SCF steps)
   EDIFF = 1E-06        (SCF energy convergence, in eV)
   NSW = 100          (Max ionic steps)
   IBRION = 2            (Algorithm: 0-MD, 1-Quasi-New, 2-CG)
   ISIF = 2            (Stress/relaxation: 2-Ions, 3-Shape/Ions/V, 4-Shape/Ions)
   EDIFFG = -2E-03        (Ionic convergence, eV/AA)
   ISYM = 2              (Symmetry: 0\=none, 2\=GGA, 3\=hybrids)

 POTCAR:    PAW_PBE Si 05Jan2001                  
 POTCAR:    PAW_PBE Si 05Jan2001                  
   VRHFIN =Si: s2p2                                                                                 
   LEXCH  = PE                                                                                      
   EATOM  =   103.0669 eV,    7.5752 Ry                                                             
                                                                                                    
   TITEL  = PAW_PBE Si 05Jan2001                                                                    
   LULTRA =        F    use ultrasoft PP ?                                                          
   IUNSCR =        1    unscreen: 0-lin 1-nonlin 2-no                                               
   RPACOR =    1.500    partial core radius                                                         
   POMASS =   28.085; ZVAL   =    4.000    mass and valenz                                          
   RCORE  =    1.900    outmost cutoff radius                                                       
   RWIGS  =    2.480; RWIGS  =    1.312    wigner-seitz radius (au A)                               
   ENMAX  =  245.345; ENMIN  =  184.009 eV                                                          
   ICORE  =        2    local potential                                                             
   LCOR   =        T    correct aug charges                                                         
   LPAW   =        T    paw PP                                                                      
   EAUG   =  322.069                                                                                
   DEXC   =    0.000                                                                                
   RMAX   =    1.950    core radius for proj-oper                                                   
   RAUG   =    1.300    factor for augmentation sphere                                              
   RDEP   =    1.993    radius for radial grids                                                     
   RDEPT  =    1.837    core radius for aug-charge                                                  
                                                                                                    
   Atomic configuration                                                                             
    6 entries                                                                                       
     n  l   j            E        occ.                                                              
     1  0  0.50     -1785.8828   2.0000                                                             
     2  0  0.50      -139.4969   2.0000                                                             
     2  1  1.50       -95.5546   6.0000                                                             
     3  0  0.50       -10.8127   2.0000                                                             
     3  1  0.50        -4.0811   2.0000                                                             
     3  2  1.50        -4.0817   0.0000                                                             
   Description                                                                                      
     l       E           TYP  RCUT    TYP  RCUT                                                     
     0    -10.8127223     23  1.900                                                                 
     0     -7.6451159     23  1.900                                                                 
     1     -4.0811372     23  1.900                                                                 
     1      2.4879257     23  1.900                                                                 
     2     -4.0817478      7  1.900                                                                 
  local pseudopotential read in
  partial core-charges read in
  partial kinetic energy density read in
  atomic valenz-charges read in
  non local Contribution for L=           0  read in
    real space projection operators read in
  non local Contribution for L=           0  read in
    real space projection operators read in
  non local Contribution for L=           1  read in
    real space projection operators read in
  non local Contribution for L=           1  read in
    real space projection operators read in
    PAW grid and wavefunctions read in
 
   number of l-projection  operators is LMAX  =           4
   number of lm-projection operators is LMMAX =           8
 
  PAW_PBE Si 05Jan2001                  :
 energy of atom  1       EATOM= -103.0669
 kinetic energy error for atom=    0.0013 (will be added to EATOM!!)
 
 
 POSCAR: Si2
  positions in direct lattice
  velocities in cartesian coordinates
 exchange correlation table for  LEXCH =        8
   RHO(1)=    0.500       N(1)  =     2000
   RHO(2)=  100.500       N(2)  =     4000
 


--------------------------------------------------------------------------------------------------------


 ion  position               nearest neighbor table
   1  0.875  0.875  0.875-   2 2.41   2 2.41   2 2.41   2 2.41
   2  0.125  0.125  0.125-   1 2.41   1 2.41   1 2.41   1 2.41
 
  LATTYP: Found a face centered cubic cell.
 ALAT       =     5.5768297866
  
  Lattice vectors:
  
 A1 = (   3.4150960579,   0.0000000000,   1.9717063505)
 A2 = (   1.1383653526,   3.2197847173,   1.9717063505)
 A3 = (   0.0000000000,   0.0000000000,   3.9434127009)


Analysis of symmetry for initial positions (statically):
=====================================================================
 Subroutine PRICEL returns:
 Original cell was already a primitive cell.
 

 Routine SETGRP: Setting up the symmetry group for a 
 face centered cubic supercell.


 Subroutine GETGRP returns: Found 48 space group operations
 (whereof 12 operations were pure point group operations)
 out of a pool of 48 trial point group operations.


The static configuration has the point symmetry D_3d.
 The point group associated with its full space group is O_h .


Analysis of symmetry for dynamics (positions and initial velocities):
=====================================================================
 Subroutine PRICEL returns:
 Original cell was already a primitive cell.
 

 Routine SETGRP: Setting up the symmetry group for a 
 face centered cubic supercell.


 Subroutine GETGRP returns: Found 48 space group operations
 (whereof 12 operations were pure point group operations)
 out of a pool of 48 trial point group operations.


The dynamic configuration has the point symmetry D_3d.
 The point group associated with its full space group is O_h .


 Subroutine INISYM returns: Found 48 space group operations
 (whereof 12 operations are pure point group operations),
 and found     1 'primitive' translations


----------------------------------------------------------------------------------------

                                     Primitive cell                                     

  volume of cell :      43.3613

  direct lattice vectors                    reciprocal lattice vectors
     3.415096058  0.000000000  1.971706350     0.292817532 -0.103526590  0.000000000
     1.138365353  3.219784717  1.971706350     0.000000000  0.310579771  0.000000000
     0.000000000  0.000000000  3.943412701    -0.146408766 -0.103526590  0.253587457

  length of vectors
     3.943413118  3.943414160  3.943412701     0.310579880  0.310579771  0.310579910

  position of ions in fractional coordinates (direct lattice)
     0.875000000  0.875000000  0.875000000
     0.125000000  0.125000000  0.125000000

  ion indices of the primitive-cell ions
   primitive index   ion index
                 1           1
                 2           2

----------------------------------------------------------------------------------------

 
 
 KPOINTS: Automatic                               

Automatic generation of k-mesh.
 Grid dimensions read from file:
 generate k-points for:   12   12   12

 Generating k-lattice:

  Cartesian coordinates                     Fractional coordinates (reciprocal lattice)
     0.024401461 -0.008627216  0.000000000     0.083333333 -0.000000000  0.000000000
     0.000000000  0.025881648  0.000000000     0.000000000  0.083333333  0.000000000
    -0.012200731 -0.008627216  0.021132288    -0.000000000  0.000000000  0.083333333

  Length of vectors
     0.025881657  0.025881648  0.025881659

  Shift w.r.t. Gamma in fractional coordinates (k-lattice)
     0.500000000  0.500000000  0.500000000

 
 Subroutine IBZKPT returns following result:
 ===========================================
 
 Found    182 irreducible k-points:
 
 Following reciprocal coordinates:
            Coordinates               Weight
  0.041667  0.041667  0.041667      8.000000
  0.125000  0.041667  0.041667     24.000000
  0.208333  0.041667  0.041667     24.000000
  0.291667  0.041667  0.041667     24.000000
  0.375000  0.041667  0.041667     24.000000
  0.458333  0.041667  0.041667     24.000000
 -0.458333  0.041667  0.041667     24.000000
 -0.375000  0.041667  0.041667     24.000000
 -0.291667  0.041667  0.041667     24.000000
 -0.208333  0.041667  0.041667     24.000000
 -0.125000  0.041667  0.041667     24.000000
 -0.041667  0.041667  0.041667     24.000000
  0.125000  0.125000  0.041667     24.000000
  0.208333  0.125000  0.041667     48.000000
  0.291667  0.125000  0.041667     48.000000
  0.375000  0.125000  0.041667     48.000000
  0.458333  0.125000  0.041667     48.000000
 -0.458333  0.125000  0.041667     48.000000
 -0.375000  0.125000  0.041667     48.000000
 -0.291667  0.125000  0.041667     48.000000
 -0.208333  0.125000  0.041667     48.000000
 -0.125000  0.125000  0.041667     48.000000
 -0.041667  0.125000  0.041667     48.000000
  0.208333  0.208333  0.041667     24.000000
  0.291667  0.208333  0.041667     48.000000
  0.375000  0.208333  0.041667     48.000000
  0.458333  0.208333  0.041667     48.000000
 -0.458333  0.208333  0.041667     48.000000
 -0.375000  0.208333  0.041667     48.000000
 -0.291667  0.208333  0.041667     48.000000
 -0.208333  0.208333  0.041667     48.000000
 -0.125000  0.208333  0.041667     48.000000
 -0.041667  0.208333  0.041667     48.000000
  0.291667  0.291667  0.041667     24.000000
  0.375000  0.291667  0.041667     48.000000
  0.458333  0.291667  0.041667     48.000000
 -0.458333  0.291667  0.041667     48.000000
 -0.375000  0.291667  0.041667     48.000000
 -0.291667  0.291667  0.041667     48.000000
 -0.208333  0.291667  0.041667     48.000000
 -0.125000  0.291667  0.041667     48.000000
 -0.041667  0.291667  0.041667     48.000000
  0.375000  0.375000  0.041667     24.000000
  0.458333  0.375000  0.041667     48.000000
 -0.458333  0.375000  0.041667     48.000000
 -0.375000  0.375000  0.041667     48.000000
 -0.291667  0.375000  0.041667     48.000000
 -0.208333  0.375000  0.041667     48.000000
 -0.125000  0.375000  0.041667     48.000000
 -0.041667  0.375000  0.041667     48.000000
  0.458333  0.458333  0.041667     24.000000
 -0.458333  0.458333  0.041667     48.000000
 -0.375000  0.458333  0.041667     48.000000
 -0.291667  0.458333  0.041667     48.000000
 -0.208333  0.458333  0.041667     48.000000
 -0.125000  0.458333  0.041667     48.000000
 -0.041667  0.458333  0.041667     48.000000
 -0.458333 -0.458333  0.041667     24.000000
 -0.375000 -0.458333  0.041667     48.000000
 -0.291667 -0.458333  0.041667     48.000000
 -0.208333 -0.458333  0.041667     48.000000
 -0.125000 -0.458333  0.041667     48.000000
 -0.375000 -0.375000  0.041667     24.000000
 -0.291667 -0.375000  0.041667     48.000000
 -0.208333 -0.375000  0.041667     48.000000
 -0.125000 -0.375000  0.041667     48.000000
 -0.291667 -0.291667  0.041667     24.000000
 -0.208333 -0.291667  0.041667     48.000000
 -0.125000 -0.291667  0.041667     48.000000
 -0.208333 -0.208333  0.041667     24.000000
 -0.125000 -0.208333  0.041667     48.000000
 -0.125000 -0.125000  0.041667     24.000000
  0.125000  0.125000  0.125000      8.000000
  0.208333  0.125000  0.125000     24.000000
  0.291667  0.125000  0.125000     24.000000
  0.375000  0.125000  0.125000     24.000000
  0.458333  0.125000  0.125000     24.000000
 -0.458333  0.125000  0.125000     24.000000
 -0.375000  0.125000  0.125000     24.000000
 -0.291667  0.125000  0.125000     24.000000
 -0.208333  0.125000  0.125000     24.000000
 -0.125000  0.125000  0.125000     24.000000
  0.208333  0.208333  0.125000     24.000000
  0.291667  0.208333  0.125000     48.000000
  0.375000  0.208333  0.125000     48.000000
  0.458333  0.208333  0.125000     48.000000
 -0.458333  0.208333  0.125000     48.000000
 -0.375000  0.208333  0.125000     48.000000
 -0.291667  0.208333  0.125000     48.000000
 -0.208333  0.208333  0.125000     48.000000
 -0.125000  0.208333  0.125000     48.000000
  0.291667  0.291667  0.125000     24.000000
  0.375000  0.291667  0.125000     48.000000
  0.458333  0.291667  0.125000     48.000000
 -0.458333  0.291667  0.125000     48.000000
 -0.375000  0.291667  0.125000     48.000000
 -0.291667  0.291667  0.125000     48.000000
 -0.208333  0.291667  0.125000     48.000000
 -0.125000  0.291667  0.125000     48.000000
  0.375000  0.375000  0.125000     24.000000
  0.458333  0.375000  0.125000     48.000000
 -0.458333  0.375000  0.125000     48.000000
 -0.375000  0.375000  0.125000     48.000000
 -0.291667  0.375000  0.125000     48.000000
 -0.208333  0.375000  0.125000     48.000000
 -0.125000  0.375000  0.125000     48.000000
  0.458333  0.458333  0.125000     24.000000
 -0.458333  0.458333  0.125000     48.000000
 -0.375000  0.458333  0.125000     48.000000
 -0.291667  0.458333  0.125000     48.000000
 -0.208333  0.458333  0.125000     48.000000
 -0.125000  0.458333  0.125000     48.000000
 -0.458333 -0.458333  0.125000     24.000000
 -0.375000 -0.458333  0.125000     48.000000
 -0.291667 -0.458333  0.125000     48.000000
 -0.208333 -0.458333  0.125000     48.000000
 -0.375000 -0.375000  0.125000     24.000000
 -0.291667 -0.375000  0.125000     48.000000
 -0.208333 -0.375000  0.125000     48.000000
 -0.291667 -0.291667  0.125000     24.000000
 -0.208333 -0.291667  0.125000     48.000000
 -0.208333 -0.208333  0.125000     24.000000
  0.208333  0.208333  0.208333      8.000000
  0.291667  0.208333  0.208333     24.000000
  0.375000  0.208333  0.208333     24.000000
  0.458333  0.208333  0.208333     24.000000
 -0.458333  0.208333  0.208333     24.000000
 -0.375000  0.208333  0.208333     24.000000
 -0.291667  0.208333  0.208333     24.000000
 -0.208333  0.208333  0.208333     24.000000
  0.291667  0.291667  0.208333     24.000000
  0.375000  0.291667  0.208333     48.000000
  0.458333  0.291667  0.208333     48.000000
 -0.458333  0.291667  0.208333     48.000000
 -0.375000  0.291667  0.208333     48.000000
 -0.291667  0.291667  0.208333     48.000000
 -0.208333  0.291667  0.208333     48.000000
  0.375000  0.375000  0.208333     24.000000
  0.458333  0.375000  0.208333     48.000000
 -0.458333  0.375000  0.208333     48.000000
 -0.375000  0.375000  0.208333     48.000000
 -0.291667  0.375000  0.208333     48.000000
 -0.208333  0.375000  0.208333     48.000000
  0.458333  0.458333  0.208333     24.000000
 -0.458333  0.458333  0.208333     48.000000
 -0.375000  0.458333  0.208333     48.000000
 -0.291667  0.458333  0.208333     48.000000
 -0.208333  0.458333  0.208333     48.000000
 -0.458333 -0.458333  0.208333     24.000000
 -0.375000 -0.458333  0.208333     48.000000
 -0.291667 -0.458333  0.208333     48.000000
 -0.375000 -0.375000  0.208333     24.000000
 -0.291667 -0.375000  0.208333     48.000000
 -0.291667 -0.291667  0.208333     24.000000
  0.291667  0.291667  0.291667      8.000000
  0.375000  0.291667  0.291667     24.000000
  0.458333  0.291667  0.291667     24.000000
 -0.458333  0.291667  0.291667     24.000000
 -0.375000  0.291667  0.291667     24.000000
 -0.291667  0.291667  0.291667     24.000000
  0.375000  0.375000  0.291667     24.000000
  0.458333  0.375000  0.291667     48.000000
 -0.458333  0.375000  0.291667     48.000000
 -0.375000  0.375000  0.291667     48.000000
 -0.291667  0.375000  0.291667     48.000000
  0.458333  0.458333  0.291667     24.000000
 -0.458333  0.458333  0.291667     48.000000
 -0.375000  0.458333  0.291667     48.000000
 -0.291667  0.458333  0.291667     48.000000
 -0.458333 -0.458333  0.291667     24.000000
 -0.375000 -0.458333  0.291667     48.000000
 -0.375000 -0.375000  0.291667     24.000000
  0.375000  0.375000  0.375000      8.000000
  0.458333  0.375000  0.375000     24.000000
 -0.458333  0.375000  0.375000     24.000000
 -0.375000  0.375000  0.375000     24.000000
  0.458333  0.458333  0.375000     24.000000
 -0.458333  0.458333  0.375000     48.000000
 -0.375000  0.458333  0.375000     48.000000
 -0.458333 -0.458333  0.375000     24.000000
  0.458333  0.458333  0.458333      8.000000
 -0.458333  0.458333  0.458333     24.000000
 
 Following cartesian coordinates:
            Coordinates               Weight
  0.006222  0.004400  0.010777      8.000000
  0.031112 -0.004400  0.010777     24.000000
  0.056001 -0.013200  0.010777     24.000000
  0.080891 -0.021999  0.010777     24.000000
  0.105780 -0.030799  0.010777     24.000000
  0.130670 -0.039599  0.010777     24.000000
 -0.143115  0.057198  0.010777     24.000000
 -0.118225  0.048399  0.010777     24.000000
 -0.093336  0.039599  0.010777     24.000000
 -0.068446  0.030799  0.010777     24.000000
 -0.043557  0.021999  0.010777     24.000000
 -0.018667  0.013200  0.010777     24.000000
  0.031112  0.021999  0.010777     24.000000
  0.056001  0.013200  0.010777     48.000000
  0.080891  0.004400  0.010777     48.000000
  0.105780 -0.004400  0.010777     48.000000
  0.130670 -0.013200  0.010777     48.000000
 -0.143115  0.083598  0.010777     48.000000
 -0.118225  0.074798  0.010777     48.000000
 -0.093336  0.065998  0.010777     48.000000
 -0.068446  0.057198  0.010777     48.000000
 -0.043557  0.048399  0.010777     48.000000
 -0.018667  0.039599  0.010777     48.000000
  0.056001  0.039599  0.010777     24.000000
  0.080891  0.030799  0.010777     48.000000
  0.105780  0.021999  0.010777     48.000000
  0.130670  0.013200  0.010777     48.000000
 -0.143115  0.109997  0.010777     48.000000
 -0.118225  0.101197  0.010777     48.000000
 -0.093336  0.092397  0.010777     48.000000
 -0.068446  0.083598  0.010777     48.000000
 -0.043557  0.074798  0.010777     48.000000
 -0.018667  0.065998  0.010777     48.000000
  0.080891  0.057198  0.010777     24.000000
  0.105780  0.048399  0.010777     48.000000
  0.130670  0.039599  0.010777     48.000000
 -0.143115  0.136396  0.010777     48.000000
 -0.118225  0.127597  0.010777     48.000000
 -0.093336  0.118797  0.010777     48.000000
 -0.068446  0.109997  0.010777     48.000000
 -0.043557  0.101197  0.010777     48.000000
 -0.018667  0.092397  0.010777     48.000000
  0.105780  0.074798  0.010777     24.000000
  0.130670  0.065998  0.010777     48.000000
 -0.143115  0.162796  0.010777     48.000000
 -0.118225  0.153996  0.010777     48.000000
 -0.093336  0.145196  0.010777     48.000000
 -0.068446  0.136396  0.010777     48.000000
 -0.043557  0.127597  0.010777     48.000000
 -0.018667  0.118797  0.010777     48.000000
  0.130670  0.092397  0.010777     24.000000
 -0.143115  0.189195  0.010777     48.000000
 -0.118225  0.180395  0.010777     48.000000
 -0.093336  0.171595  0.010777     48.000000
 -0.068446  0.162796  0.010777     48.000000
 -0.043557  0.153996  0.010777     48.000000
 -0.018667  0.145196  0.010777     48.000000
 -0.143115 -0.101197  0.010777     24.000000
 -0.118225 -0.109997  0.010777     48.000000
 -0.093336 -0.118797  0.010777     48.000000
 -0.068446 -0.127597  0.010777     48.000000
 -0.043557 -0.136396  0.010777     48.000000
 -0.118225 -0.083598  0.010777     24.000000
 -0.093336 -0.092397  0.010777     48.000000
 -0.068446 -0.101197  0.010777     48.000000
 -0.043557 -0.109997  0.010777     48.000000
 -0.093336 -0.065998  0.010777     24.000000
 -0.068446 -0.074798  0.010777     48.000000
 -0.043557 -0.083598  0.010777     48.000000
 -0.068446 -0.048399  0.010777     24.000000
 -0.043557 -0.057198  0.010777     48.000000
 -0.043557 -0.030799  0.010777     24.000000
  0.018667  0.013200  0.032332      8.000000
  0.043557  0.004400  0.032332     24.000000
  0.068446 -0.004400  0.032332     24.000000
  0.093336 -0.013200  0.032332     24.000000
  0.118225 -0.021999  0.032332     24.000000
 -0.155559  0.074798  0.032332     24.000000
 -0.130670  0.065998  0.032332     24.000000
 -0.105780  0.057198  0.032332     24.000000
 -0.080891  0.048399  0.032332     24.000000
 -0.056001  0.039599  0.032332     24.000000
  0.043557  0.030799  0.032332     24.000000
  0.068446  0.021999  0.032332     48.000000
  0.093336  0.013200  0.032332     48.000000
  0.118225  0.004400  0.032332     48.000000
 -0.155559  0.101197  0.032332     48.000000
 -0.130670  0.092397  0.032332     48.000000
 -0.105780  0.083598  0.032332     48.000000
 -0.080891  0.074798  0.032332     48.000000
 -0.056001  0.065998  0.032332     48.000000
  0.068446  0.048399  0.032332     24.000000
  0.093336  0.039599  0.032332     48.000000
  0.118225  0.030799  0.032332     48.000000
 -0.155559  0.127597  0.032332     48.000000
 -0.130670  0.118797  0.032332     48.000000
 -0.105780  0.109997  0.032332     48.000000
 -0.080891  0.101197  0.032332     48.000000
 -0.056001  0.092397  0.032332     48.000000
  0.093336  0.065998  0.032332     24.000000
  0.118225  0.057198  0.032332     48.000000
 -0.155559  0.153996  0.032332     48.000000
 -0.130670  0.145196  0.032332     48.000000
 -0.105780  0.136396  0.032332     48.000000
 -0.080891  0.127597  0.032332     48.000000
 -0.056001  0.118797  0.032332     48.000000
  0.118225  0.083598  0.032332     24.000000
 -0.155559  0.180395  0.032332     48.000000
 -0.130670  0.171595  0.032332     48.000000
 -0.105780  0.162796  0.032332     48.000000
 -0.080891  0.153996  0.032332     48.000000
 -0.056001  0.145196  0.032332     48.000000
 -0.155559 -0.109997  0.032332     24.000000
 -0.130670 -0.118797  0.032332     48.000000
 -0.105780 -0.127597  0.032332     48.000000
 -0.080891 -0.136396  0.032332     48.000000
 -0.130670 -0.092397  0.032332     24.000000
 -0.105780 -0.101197  0.032332     48.000000
 -0.080891 -0.109997  0.032332     48.000000
 -0.105780 -0.074798  0.032332     24.000000
 -0.080891 -0.083598  0.032332     48.000000
 -0.080891 -0.057198  0.032332     24.000000
  0.031112  0.021999  0.053887      8.000000
  0.056001  0.013200  0.053887     24.000000
  0.080891  0.004400  0.053887     24.000000
  0.105780 -0.004400  0.053887     24.000000
 -0.168004  0.092397  0.053887     24.000000
 -0.143115  0.083598  0.053887     24.000000
 -0.118225  0.074798  0.053887     24.000000
 -0.093336  0.065998  0.053887     24.000000
  0.056001  0.039599  0.053887     24.000000
  0.080891  0.030799  0.053887     48.000000
  0.105780  0.021999  0.053887     48.000000
 -0.168004  0.118797  0.053887     48.000000
 -0.143115  0.109997  0.053887     48.000000
 -0.118225  0.101197  0.053887     48.000000
 -0.093336  0.092397  0.053887     48.000000
  0.080891  0.057198  0.053887     24.000000
  0.105780  0.048399  0.053887     48.000000
 -0.168004  0.145196  0.053887     48.000000
 -0.143115  0.136396  0.053887     48.000000
 -0.118225  0.127597  0.053887     48.000000
 -0.093336  0.118797  0.053887     48.000000
  0.105780  0.074798  0.053887     24.000000
 -0.168004  0.171595  0.053887     48.000000
 -0.143115  0.162796  0.053887     48.000000
 -0.118225  0.153996  0.053887     48.000000
 -0.093336  0.145196  0.053887     48.000000
 -0.168004 -0.118797  0.053887     24.000000
 -0.143115 -0.127597  0.053887     48.000000
 -0.118225 -0.136396  0.053887     48.000000
 -0.143115 -0.101197  0.053887     24.000000
 -0.118225 -0.109997  0.053887     48.000000
 -0.118225 -0.083598  0.053887     24.000000
  0.043557  0.030799  0.075442      8.000000
  0.068446  0.021999  0.075442     24.000000
  0.093336  0.013200  0.075442     24.000000
 -0.180449  0.109997  0.075442     24.000000
 -0.155559  0.101197  0.075442     24.000000
 -0.130670  0.092397  0.075442     24.000000
  0.068446  0.048399  0.075442     24.000000
  0.093336  0.039599  0.075442     48.000000
 -0.180449  0.136396  0.075442     48.000000
 -0.155559  0.127597  0.075442     48.000000
 -0.130670  0.118797  0.075442     48.000000
  0.093336  0.065998  0.075442     24.000000
 -0.180449  0.162796  0.075442     48.000000
 -0.155559  0.153996  0.075442     48.000000
 -0.130670  0.145196  0.075442     48.000000
 -0.180449 -0.127597  0.075442     24.000000
 -0.155559 -0.136396  0.075442     48.000000
 -0.155559 -0.109997  0.075442     24.000000
  0.056001  0.039599  0.096997      8.000000
  0.080891  0.030799  0.096997     24.000000
 -0.192894  0.127597  0.096997     24.000000
 -0.168004  0.118797  0.096997     24.000000
  0.080891  0.057198  0.096997     24.000000
 -0.192894  0.153996  0.096997     48.000000
 -0.168004  0.145196  0.096997     48.000000
 -0.192894 -0.136396  0.096997     24.000000
  0.068446  0.048399  0.118552      8.000000
 -0.205338  0.145196  0.118552     24.000000
 


--------------------------------------------------------------------------------------------------------




 Dimension of arrays:
   k-points           NKPTS =    182   k-points in BZ     NKDIM =    182   number of bands    NBANDS=      8
   number of dos      NEDOS =    301   number of ions     NIONS =      2
   non local maximal  LDIM  =      4   non local SUM 2l+1 LMDIM =      8
   total plane-waves  NPLWV =  13824
   max r-space proj   IRMAX =      1   max aug-charges    IRDMAX=  85465
   dimension x,y,z NGX =    24 NGY =   24 NGZ =   24
   dimension x,y,z NGXF=    48 NGYF=   48 NGZF=   48
   support grid    NGXF=    96 NGYF=   96 NGZF=   96
   ions per type =               2
   NGX,Y,Z   is equivalent  to a cutoff of  10.12, 10.12, 10.12 a.u.
   NGXF,Y,Z  is equivalent  to a cutoff of  20.24, 20.24, 20.24 a.u.

 SYSTEM =  unknown system                          
 POSCAR =  Si2                                     

 Startparameter for this run:
   NWRITE =      2    write-flag & timer
   PREC   = accura    normal or accurate (medium, high low for compatibility)
   ISTART =      0    job   : 0-new  1-cont  2-samecut
   ICHARG =      2    charge: 1-file 2-atom 10-const
   ISPIN  =      1    spin polarized calculation?
   LNONCOLLINEAR =      F non collinear calculations
   LSORBIT =      F    spin-orbit coupling
   INIWAV =      1    electr: 0-lowe 1-rand  2-diag
   LASPH  =      T    aspherical Exc in radial PAW
   METAGGA=      F    non-selfconsistent MetaGGA calc.

 Electronic Relaxation 1
   ENCUT  =  350.0 eV  25.72 Ry    5.07 a.u.   6.02  6.02  6.02*2*pi/ulx,y,z
   ENINI  =  350.0     initial cutoff
   ENAUG  =  322.1 eV  augmentation charge cutoff
   NELM   =     90;   NELMIN=  6; NELMDL= -5     # of ELM steps 
   EDIFF  = 0.1E-05   stopping-criterion for ELM
   LREAL  =      F    real-space projection
   NLSPLINE    = F    spline interpolate recip. space projectors
   LCOMPAT=      F    compatible to vasp.4.4
   GGA_COMPAT  = T    GGA compatible to vasp.4.4-vasp.4.6
   LMAXPAW     = -100 max onsite density
   LMAXMIX     =    2 max onsite mixed and CHGCAR
   VOSKOWN=      0    Vosko Wilk Nusair interpolation
   ROPT   =    0.00000
 Ionic relaxation
   EDIFFG = -.2E-02   stopping-criterion for IOM
   NSW    =    100    number of steps for IOM
   NBLOCK =      1;   KBLOCK =    100    inner block; outer block 
   IBRION =      2    ionic relax: 0-MD 1-quasi-New 2-CG
   NFREE  =      1    steps in history (QN), initial steepest desc. (CG)
   ISIF   =      2    stress and relaxation
   IWAVPR =     11    prediction:  0-non 1-charg 2-wave 3-comb
   ISYM   =      2    0-nonsym 1-usesym 2-fastsym
   LCORR  =      T    Harris-Foulkes like correction to forces

   POTIM  = 0.5000    time-step for ionic-motion
   TEIN   =    0.0    initial temperature
   TEBEG  =    0.0;   TEEND  =   0.0 temperature during run
   SMASS  =  -3.00    Nose mass-parameter (am)
   estimated Nose-frequenzy (Omega)   =  0.10E-29 period in steps = 0.13E+47 mass=  -0.355E-27a.u.
   SCALEE = 1.0000    scale energy and forces
   NPACO  =    256;   APACO  = 16.0  distance and # of slots for P.C.
   PSTRESS=    0.0 pullay stress

  Mass of Ions in am
   POMASS =  28.09
  Ionic Valenz
   ZVAL   =   4.00
  Atomic Wigner-Seitz radii
   RWIGS  =  -1.00
  virtual crystal weights 
   VCA    =   1.00
   NELECT =       8.0000    total number of electrons
   NUPDOWN=      -1.0000    fix difference up-down

 DOS related values:
   EMIN   =  10.00;   EMAX   =-10.00  energy-range for DOS
   EFERMI =   0.00
   ISMEAR =     0;   SIGMA  =   0.05  broadening in eV -4-tet -1-fermi 0-gaus

 Electronic relaxation 2 (details)
   IALGO  =     38    algorithm
   LDIAG  =      T    sub-space diagonalisation (order eigenvalues)
   LSUBROT=      F    optimize rotation matrix (better conditioning)
   TURBO    =      0    0=normal 1=particle mesh
   IRESTART =      0    0=no restart 2=restart with 2 vectors
   NREBOOT  =      0    no. of reboots
   NMIN     =      0    reboot dimension
   EREF     =   0.00    reference energy to select bands
   IMIX   =      4    mixing-type and parameters
     AMIX     =   0.40;   BMIX     =  1.00
     AMIX_MAG =   1.60;   BMIX_MAG =  1.00
     AMIN     =   0.10
     WC   =   100.;   INIMIX=   1;  MIXPRE=   1;  MAXMIX= -45

 Intra band minimization:
   WEIMIN = 0.0010     energy-eigenvalue tresh-hold
   EBREAK =  0.31E-07  absolut break condition
   DEPER  =   0.30     relativ break condition  

   TIME   =   0.40     timestep for ELM

  volume/ion in A,a.u.               =      21.68       146.31
  Fermi-wavevector in a.u.,A,eV,Ry     =   0.931975  1.761177 11.817708  0.868577
  Thomas-Fermi vector in A             =   2.058524
 
 Write flags
   LWAVE        =      F    write WAVECAR
   LDOWNSAMPLE  =      F    k-point downsampling of WAVECAR
   LCHARG       =      F    write CHGCAR
   LVTOT        =      F    write LOCPOT, total local potential
   LVHAR        =      F    write LOCPOT, Hartree potential only
   LELF         =      F    write electronic localiz. function (ELF)
   LORBIT       =      0    0 simple, 1 ext, 2 COOP (PROOUT), +10 PAW based schemes


 Dipole corrections
   LMONO  =      F    monopole corrections only (constant potential shift)
   LDIPOL =      F    correct potential (dipole corrections)
   IDIPOL =      0    1-x, 2-y, 3-z, 4-all directions 
   EPSILON=  1.0000000 bulk dielectric constant

 Exchange correlation treatment:
   GGA     =    --    GGA type
   LEXCH   =     8    internal setting for exchange type
   VOSKOWN=      0    Vosko Wilk Nusair interpolation
   LHFCALC =     F    Hartree Fock is set to
   LHFONE  =     F    Hartree Fock one center treatment
   AEXX    =    0.0000 exact exchange contribution

 Linear response parameters
   LEPSILON=     F    determine dielectric tensor
   LRPA    =     F    only Hartree local field effects (RPA)
   LNABLA  =     F    use nabla operator in PAW spheres
   LVEL    =     F    velocity operator in full k-point grid
   LINTERFAST=   F  fast interpolation
   KINTER  =     0    interpolate to denser k-point grid
   CSHIFT  =0.1000    complex shift for real part using Kramers Kronig
   OMEGAMAX=  -1.0    maximum frequency
   DEG_THRESHOLD= 0.2000000E-02 threshold for treating states as degnerate
   RTIME   =   -0.100 relaxation time in fs
  (WPLASMAI=    0.000 imaginary part of plasma frequency in eV, 0.658/RTIME)
   DFIELD  = 0.0000000 0.0000000 0.0000000 field for delta impulse in time
 
 Orbital magnetization related:
   ORBITALMAG=     F  switch on orbital magnetization
   LCHIMAG   =     F  perturbation theory with respect to B field
   DQ        =  0.001000  dq finite difference perturbation B field
   LLRAUG    =     F  two centre corrections for induced B field



--------------------------------------------------------------------------------------------------------


 conjugate gradient relaxation of ions
 charge density and potential will be updated during run
 non-spin polarized calculation
 Variant of blocked Davidson
 Davidson routine will perform the subspace rotation
 perform sub-space diagonalisation
    after iterative eigenvector-optimisation
 modified Broyden-mixing scheme, WC =      100.0
 initial mixing is a Kerker type mixing with AMIX =  0.4000 and BMIX =      1.0000
 Hartree-type preconditioning will be used
 using additional bands            4
 reciprocal scheme for non local part
 use partial core corrections
 calculate Harris-corrections to forces 
   (improved forces if not selfconsistent)
 use gradient corrections 
 use of overlap-Matrix (Vanderbilt PP)
 Gauss-broadening in eV      SIGMA  =   0.05


--------------------------------------------------------------------------------------------------------


  energy-cutoff  :      350.00
  volume of cell :       43.36
      direct lattice vectors                 reciprocal lattice vectors
     3.415096058  0.000000000  1.971706350     0.292817532 -0.103526590  0.000000000
     1.138365353  3.219784717  1.971706350     0.000000000  0.310579771  0.000000000
     0.000000000  0.000000000  3.943412701    -0.146408766 -0.103526590  0.253587457

  length of vectors
     3.943413118  3.943414160  3.943412701     0.310579880  0.310579771  0.310579910


 
 k-points in units of 2pi/SCALE and weight: Automatic                               
   0.00622237  0.00439988  0.01077747       0.001
   0.03111186 -0.00439988  0.01077747       0.003
   0.05600135 -0.01319964  0.01077747       0.003
   0.08089084 -0.02199940  0.01077747       0.003
   0.10578033 -0.03079916  0.01077747       0.003
   0.13066982 -0.03959892  0.01077747       0.003
  -0.14311457  0.05719844  0.01077747       0.003
  -0.11822508  0.04839868  0.01077747       0.003
  -0.09333559  0.03959892  0.01077747       0.003
  -0.06844610  0.03079916  0.01077747       0.003
  -0.04355661  0.02199940  0.01077747       0.003
  -0.01866712  0.01319964  0.01077747       0.003
   0.03111186  0.02199940  0.01077747       0.003
   0.05600135  0.01319964  0.01077747       0.007
   0.08089084  0.00439988  0.01077747       0.007
   0.10578033 -0.00439988  0.01077747       0.007
   0.13066982 -0.01319964  0.01077747       0.007
  -0.14311457  0.08359772  0.01077747       0.007
  -0.11822508  0.07479796  0.01077747       0.007
  -0.09333559  0.06599820  0.01077747       0.007
  -0.06844610  0.05719844  0.01077747       0.007
  -0.04355661  0.04839868  0.01077747       0.007
  -0.01866712  0.03959892  0.01077747       0.007
   0.05600135  0.03959892  0.01077747       0.003
   0.08089084  0.03079916  0.01077747       0.007
   0.10578033  0.02199940  0.01077747       0.007
   0.13066982  0.01319964  0.01077747       0.007
  -0.14311457  0.10999700  0.01077747       0.007
  -0.11822508  0.10119724  0.01077747       0.007
  -0.09333559  0.09239748  0.01077747       0.007
  -0.06844610  0.08359772  0.01077747       0.007
  -0.04355661  0.07479796  0.01077747       0.007
  -0.01866712  0.06599820  0.01077747       0.007
   0.08089084  0.05719844  0.01077747       0.003
   0.10578033  0.04839868  0.01077747       0.007
   0.13066982  0.03959892  0.01077747       0.007
  -0.14311457  0.13639628  0.01077747       0.007
  -0.11822508  0.12759652  0.01077747       0.007
  -0.09333559  0.11879676  0.01077747       0.007
  -0.06844610  0.10999700  0.01077747       0.007
  -0.04355661  0.10119724  0.01077747       0.007
  -0.01866712  0.09239748  0.01077747       0.007
   0.10578033  0.07479796  0.01077747       0.003
   0.13066982  0.06599820  0.01077747       0.007
  -0.14311457  0.16279556  0.01077747       0.007
  -0.11822508  0.15399580  0.01077747       0.007
  -0.09333559  0.14519604  0.01077747       0.007
  -0.06844610  0.13639628  0.01077747       0.007
  -0.04355661  0.12759652  0.01077747       0.007
  -0.01866712  0.11879676  0.01077747       0.007
   0.13066982  0.09239748  0.01077747       0.003
  -0.14311457  0.18919484  0.01077747       0.007
  -0.11822508  0.18039508  0.01077747       0.007
  -0.09333559  0.17159532  0.01077747       0.007
  -0.06844610  0.16279556  0.01077747       0.007
  -0.04355661  0.15399580  0.01077747       0.007
  -0.01866712  0.14519604  0.01077747       0.007
  -0.14311457 -0.10119724  0.01077747       0.003
  -0.11822508 -0.10999700  0.01077747       0.007
  -0.09333559 -0.11879676  0.01077747       0.007
  -0.06844610 -0.12759652  0.01077747       0.007
  -0.04355661 -0.13639628  0.01077747       0.007
  -0.11822508 -0.08359772  0.01077747       0.003
  -0.09333559 -0.09239748  0.01077747       0.007
  -0.06844610 -0.10119724  0.01077747       0.007
  -0.04355661 -0.10999700  0.01077747       0.007
  -0.09333559 -0.06599820  0.01077747       0.003
  -0.06844610 -0.07479796  0.01077747       0.007
  -0.04355661 -0.08359772  0.01077747       0.007
  -0.06844610 -0.04839868  0.01077747       0.003
  -0.04355661 -0.05719844  0.01077747       0.007
  -0.04355661 -0.03079916  0.01077747       0.003
   0.01866712  0.01319964  0.03233240       0.001
   0.04355661  0.00439988  0.03233240       0.003
   0.06844610 -0.00439988  0.03233240       0.003
   0.09333559 -0.01319964  0.03233240       0.003
   0.11822508 -0.02199940  0.03233240       0.003
  -0.15555931  0.07479796  0.03233240       0.003
  -0.13066982  0.06599820  0.03233240       0.003
  -0.10578033  0.05719844  0.03233240       0.003
  -0.08089084  0.04839868  0.03233240       0.003
  -0.05600135  0.03959892  0.03233240       0.003
   0.04355661  0.03079916  0.03233240       0.003
   0.06844610  0.02199940  0.03233240       0.007
   0.09333559  0.01319964  0.03233240       0.007
   0.11822508  0.00439988  0.03233240       0.007
  -0.15555931  0.10119724  0.03233240       0.007
  -0.13066982  0.09239748  0.03233240       0.007
  -0.10578033  0.08359772  0.03233240       0.007
  -0.08089084  0.07479796  0.03233240       0.007
  -0.05600135  0.06599820  0.03233240       0.007
   0.06844610  0.04839868  0.03233240       0.003
   0.09333559  0.03959892  0.03233240       0.007
   0.11822508  0.03079916  0.03233240       0.007
  -0.15555931  0.12759652  0.03233240       0.007
  -0.13066982  0.11879676  0.03233240       0.007
  -0.10578033  0.10999700  0.03233240       0.007
  -0.08089084  0.10119724  0.03233240       0.007
  -0.05600135  0.09239748  0.03233240       0.007
   0.09333559  0.06599820  0.03233240       0.003
   0.11822508  0.05719844  0.03233240       0.007
  -0.15555931  0.15399580  0.03233240       0.007
  -0.13066982  0.14519604  0.03233240       0.007
  -0.10578033  0.13639628  0.03233240       0.007
  -0.08089084  0.12759652  0.03233240       0.007
  -0.05600135  0.11879676  0.03233240       0.007
   0.11822508  0.08359772  0.03233240       0.003
  -0.15555931  0.18039508  0.03233240       0.007
  -0.13066982  0.17159532  0.03233240       0.007
  -0.10578033  0.16279556  0.03233240       0.007
  -0.08089084  0.15399580  0.03233240       0.007
  -0.05600135  0.14519604  0.03233240       0.007
  -0.15555931 -0.10999700  0.03233240       0.003
  -0.13066982 -0.11879676  0.03233240       0.007
  -0.10578033 -0.12759652  0.03233240       0.007
  -0.08089084 -0.13639628  0.03233240       0.007
  -0.13066982 -0.09239748  0.03233240       0.003
  -0.10578033 -0.10119724  0.03233240       0.007
  -0.08089084 -0.10999700  0.03233240       0.007
  -0.10578033 -0.07479796  0.03233240       0.003
  -0.08089084 -0.08359772  0.03233240       0.007
  -0.08089084 -0.05719844  0.03233240       0.003
   0.03111186  0.02199940  0.05388733       0.001
   0.05600135  0.01319964  0.05388733       0.003
   0.08089084  0.00439988  0.05388733       0.003
   0.10578033 -0.00439988  0.05388733       0.003
  -0.16800406  0.09239748  0.05388733       0.003
  -0.14311457  0.08359772  0.05388733       0.003
  -0.11822508  0.07479796  0.05388733       0.003
  -0.09333559  0.06599820  0.05388733       0.003
   0.05600135  0.03959892  0.05388733       0.003
   0.08089084  0.03079916  0.05388733       0.007
   0.10578033  0.02199940  0.05388733       0.007
  -0.16800406  0.11879676  0.05388733       0.007
  -0.14311457  0.10999700  0.05388733       0.007
  -0.11822508  0.10119724  0.05388733       0.007
  -0.09333559  0.09239748  0.05388733       0.007
   0.08089084  0.05719844  0.05388733       0.003
   0.10578033  0.04839868  0.05388733       0.007
  -0.16800406  0.14519604  0.05388733       0.007
  -0.14311457  0.13639628  0.05388733       0.007
  -0.11822508  0.12759652  0.05388733       0.007
  -0.09333559  0.11879676  0.05388733       0.007
   0.10578033  0.07479796  0.05388733       0.003
  -0.16800406  0.17159532  0.05388733       0.007
  -0.14311457  0.16279556  0.05388733       0.007
  -0.11822508  0.15399580  0.05388733       0.007
  -0.09333559  0.14519604  0.05388733       0.007
  -0.16800406 -0.11879676  0.05388733       0.003
  -0.14311457 -0.12759652  0.05388733       0.007
  -0.11822508 -0.13639628  0.05388733       0.007
  -0.14311457 -0.10119724  0.05388733       0.003
  -0.11822508 -0.10999700  0.05388733       0.007
  -0.11822508 -0.08359772  0.05388733       0.003
   0.04355661  0.03079916  0.07544227       0.001
   0.06844610  0.02199940  0.07544227       0.003
   0.09333559  0.01319964  0.07544227       0.003
  -0.18044880  0.10999700  0.07544227       0.003
  -0.15555931  0.10119724  0.07544227       0.003
  -0.13066982  0.09239748  0.07544227       0.003
   0.06844610  0.04839868  0.07544227       0.003
   0.09333559  0.03959892  0.07544227       0.007
  -0.18044880  0.13639628  0.07544227       0.007
  -0.15555931  0.12759652  0.07544227       0.007
  -0.13066982  0.11879676  0.07544227       0.007
   0.09333559  0.06599820  0.07544227       0.003
  -0.18044880  0.16279556  0.07544227       0.007
  -0.15555931  0.15399580  0.07544227       0.007
  -0.13066982  0.14519604  0.07544227       0.007
  -0.18044880 -0.12759652  0.07544227       0.003
  -0.15555931 -0.13639628  0.07544227       0.007
  -0.15555931 -0.10999700  0.07544227       0.003
   0.05600135  0.03959892  0.09699720       0.001
   0.08089084  0.03079916  0.09699720       0.003
  -0.19289355  0.12759652  0.09699720       0.003
  -0.16800406  0.11879676  0.09699720       0.003
   0.08089084  0.05719844  0.09699720       0.003
  -0.19289355  0.15399580  0.09699720       0.007
  -0.16800406  0.14519604  0.09699720       0.007
  -0.19289355 -0.13639628  0.09699720       0.003
   0.06844610  0.04839868  0.11855214       0.001
  -0.20533829  0.14519604  0.11855214       0.003
 
 k-points in reciprocal lattice and weights: Automatic                               
   0.04166667  0.04166667  0.04166667       0.001
   0.12500000  0.04166667  0.04166667       0.003
   0.20833333  0.04166667  0.04166667       0.003
   0.29166667  0.04166667  0.04166667       0.003
   0.37500000  0.04166667  0.04166667       0.003
   0.45833333  0.04166667  0.04166667       0.003
  -0.45833333  0.04166667  0.04166667       0.003
  -0.37500000  0.04166667  0.04166667       0.003
  -0.29166667  0.04166667  0.04166667       0.003
  -0.20833333  0.04166667  0.04166667       0.003
  -0.12500000  0.04166667  0.04166667       0.003
  -0.04166667  0.04166667  0.04166667       0.003
   0.12500000  0.12500000  0.04166667       0.003
   0.20833333  0.12500000  0.04166667       0.007
   0.29166667  0.12500000  0.04166667       0.007
   0.37500000  0.12500000  0.04166667       0.007
   0.45833333  0.12500000  0.04166667       0.007
  -0.45833333  0.12500000  0.04166667       0.007
  -0.37500000  0.12500000  0.04166667       0.007
  -0.29166667  0.12500000  0.04166667       0.007
  -0.20833333  0.12500000  0.04166667       0.007
  -0.12500000  0.12500000  0.04166667       0.007
  -0.04166667  0.12500000  0.04166667       0.007
   0.20833333  0.20833333  0.04166667       0.003
   0.29166667  0.20833333  0.04166667       0.007
   0.37500000  0.20833333  0.04166667       0.007
   0.45833333  0.20833333  0.04166667       0.007
  -0.45833333  0.20833333  0.04166667       0.007
  -0.37500000  0.20833333  0.04166667       0.007
  -0.29166667  0.20833333  0.04166667       0.007
  -0.20833333  0.20833333  0.04166667       0.007
  -0.12500000  0.20833333  0.04166667       0.007
  -0.04166667  0.20833333  0.04166667       0.007
   0.29166667  0.29166667  0.04166667       0.003
   0.37500000  0.29166667  0.04166667       0.007
   0.45833333  0.29166667  0.04166667       0.007
  -0.45833333  0.29166667  0.04166667       0.007
  -0.37500000  0.29166667  0.04166667       0.007
  -0.29166667  0.29166667  0.04166667       0.007
  -0.20833333  0.29166667  0.04166667       0.007
  -0.12500000  0.29166667  0.04166667       0.007
  -0.04166667  0.29166667  0.04166667       0.007
   0.37500000  0.37500000  0.04166667       0.003
   0.45833333  0.37500000  0.04166667       0.007
  -0.45833333  0.37500000  0.04166667       0.007
  -0.37500000  0.37500000  0.04166667       0.007
  -0.29166667  0.37500000  0.04166667       0.007
  -0.20833333  0.37500000  0.04166667       0.007
  -0.12500000  0.37500000  0.04166667       0.007
  -0.04166667  0.37500000  0.04166667       0.007
   0.45833333  0.45833333  0.04166667       0.003
  -0.45833333  0.45833333  0.04166667       0.007
  -0.37500000  0.45833333  0.04166667       0.007
  -0.29166667  0.45833333  0.04166667       0.007
  -0.20833333  0.45833333  0.04166667       0.007
  -0.12500000  0.45833333  0.04166667       0.007
  -0.04166667  0.45833333  0.04166667       0.007
  -0.45833333 -0.45833333  0.04166667       0.003
  -0.37500000 -0.45833333  0.04166667       0.007
  -0.29166667 -0.45833333  0.04166667       0.007
  -0.20833333 -0.45833333  0.04166667       0.007
  -0.12500000 -0.45833333  0.04166667       0.007
  -0.37500000 -0.37500000  0.04166667       0.003
  -0.29166667 -0.37500000  0.04166667       0.007
  -0.20833333 -0.37500000  0.04166667       0.007
  -0.12500000 -0.37500000  0.04166667       0.007
  -0.29166667 -0.29166667  0.04166667       0.003
  -0.20833333 -0.29166667  0.04166667       0.007
  -0.12500000 -0.29166667  0.04166667       0.007
  -0.20833333 -0.20833333  0.04166667       0.003
  -0.12500000 -0.20833333  0.04166667       0.007
  -0.12500000 -0.12500000  0.04166667       0.003
   0.12500000  0.12500000  0.12500000       0.001
   0.20833333  0.12500000  0.12500000       0.003
   0.29166667  0.12500000  0.12500000       0.003
   0.37500000  0.12500000  0.12500000       0.003
   0.45833333  0.12500000  0.12500000       0.003
  -0.45833333  0.12500000  0.12500000       0.003
  -0.37500000  0.12500000  0.12500000       0.003
  -0.29166667  0.12500000  0.12500000       0.003
  -0.20833333  0.12500000  0.12500000       0.003
  -0.12500000  0.12500000  0.12500000       0.003
   0.20833333  0.20833333  0.12500000       0.003
   0.29166667  0.20833333  0.12500000       0.007
   0.37500000  0.20833333  0.12500000       0.007
   0.45833333  0.20833333  0.12500000       0.007
  -0.45833333  0.20833333  0.12500000       0.007
  -0.37500000  0.20833333  0.12500000       0.007
  -0.29166667  0.20833333  0.12500000       0.007
  -0.20833333  0.20833333  0.12500000       0.007
  -0.12500000  0.20833333  0.12500000       0.007
   0.29166667  0.29166667  0.12500000       0.003
   0.37500000  0.29166667  0.12500000       0.007
   0.45833333  0.29166667  0.12500000       0.007
  -0.45833333  0.29166667  0.12500000       0.007
  -0.37500000  0.29166667  0.12500000       0.007
  -0.29166667  0.29166667  0.12500000       0.007
  -0.20833333  0.29166667  0.12500000       0.007
  -0.12500000  0.29166667  0.12500000       0.007
   0.37500000  0.37500000  0.12500000       0.003
   0.45833333  0.37500000  0.12500000       0.007
  -0.45833333  0.37500000  0.12500000       0.007
  -0.37500000  0.37500000  0.12500000       0.007
  -0.29166667  0.37500000  0.12500000       0.007
  -0.20833333  0.37500000  0.12500000       0.007
  -0.12500000  0.37500000  0.12500000       0.007
   0.45833333  0.45833333  0.12500000       0.003
  -0.45833333  0.45833333  0.12500000       0.007
  -0.37500000  0.45833333  0.12500000       0.007
  -0.29166667  0.45833333  0.12500000       0.007
  -0.20833333  0.45833333  0.12500000       0.007
  -0.12500000  0.45833333  0.12500000       0.007
  -0.45833333 -0.45833333  0.12500000       0.003
  -0.37500000 -0.45833333  0.12500000       0.007
  -0.29166667 -0.45833333  0.12500000       0.007
  -0.20833333 -0.45833333  0.12500000       0.007
  -0.37500000 -0.37500000  0.12500000       0.003
  -0.29166667 -0.37500000  0.12500000       0.007
  -0.20833333 -0.37500000  0.12500000       0.007
  -0.29166667 -0.29166667  0.12500000       0.003
  -0.20833333 -0.29166667  0.12500000       0.007
  -0.20833333 -0.20833333  0.12500000       0.003
   0.20833333  0.20833333  0.20833333       0.001
   0.29166667  0.20833333  0.20833333       0.003
   0.37500000  0.20833333  0.20833333       0.003
   0.45833333  0.20833333  0.20833333       0.003
  -0.45833333  0.20833333  0.20833333       0.003
  -0.37500000  0.20833333  0.20833333       0.003
  -0.29166667  0.20833333  0.20833333       0.003
  -0.20833333  0.20833333  0.20833333       0.003
   0.29166667  0.29166667  0.20833333       0.003
   0.37500000  0.29166667  0.20833333       0.007
   0.45833333  0.29166667  0.20833333       0.007
  -0.45833333  0.29166667  0.20833333       0.007
  -0.37500000  0.29166667  0.20833333       0.007
  -0.29166667  0.29166667  0.20833333       0.007
  -0.20833333  0.29166667  0.20833333       0.007
   0.37500000  0.37500000  0.20833333       0.003
   0.45833333  0.37500000  0.20833333       0.007
  -0.45833333  0.37500000  0.20833333       0.007
  -0.37500000  0.37500000  0.20833333       0.007
  -0.29166667  0.37500000  0.20833333       0.007
  -0.20833333  0.37500000  0.20833333       0.007
   0.45833333  0.45833333  0.20833333       0.003
  -0.45833333  0.45833333  0.20833333       0.007
  -0.37500000  0.45833333  0.20833333       0.007
  -0.29166667  0.45833333  0.20833333       0.007
  -0.20833333  0.45833333  0.20833333       0.007
  -0.45833333 -0.45833333  0.20833333       0.003
  -0.37500000 -0.45833333  0.20833333       0.007
  -0.29166667 -0.45833333  0.20833333       0.007
  -0.37500000 -0.37500000  0.20833333       0.003
  -0.29166667 -0.37500000  0.20833333       0.007
  -0.29166667 -0.29166667  0.20833333       0.003
   0.29166667  0.29166667  0.29166667       0.001
   0.37500000  0.29166667  0.29166667       0.003
   0.45833333  0.29166667  0.29166667       0.003
  -0.45833333  0.29166667  0.29166667       0.003
  -0.37500000  0.29166667  0.29166667       0.003
  -0.29166667  0.29166667  0.29166667       0.003
   0.37500000  0.37500000  0.29166667       0.003
   0.45833333  0.37500000  0.29166667       0.007
  -0.45833333  0.37500000  0.29166667       0.007
  -0.37500000  0.37500000  0.29166667       0.007
  -0.29166667  0.37500000  0.29166667       0.007
   0.45833333  0.45833333  0.29166667       0.003
  -0.45833333  0.45833333  0.29166667       0.007
  -0.37500000  0.45833333  0.29166667       0.007
  -0.29166667  0.45833333  0.29166667       0.007
  -0.45833333 -0.45833333  0.29166667       0.003
  -0.37500000 -0.45833333  0.29166667       0.007
  -0.37500000 -0.37500000  0.29166667       0.003
   0.37500000  0.37500000  0.37500000       0.001
   0.45833333  0.37500000  0.37500000       0.003
  -0.45833333  0.37500000  0.37500000       0.003
  -0.37500000  0.37500000  0.37500000       0.003
   0.45833333  0.45833333  0.37500000       0.003
  -0.45833333  0.45833333  0.37500000       0.007
  -0.37500000  0.45833333  0.37500000       0.007
  -0.45833333 -0.45833333  0.37500000       0.003
   0.45833333  0.45833333  0.45833333       0.001
  -0.45833333  0.45833333  0.45833333       0.003
 
 position of ions in fractional coordinates (direct lattice) 
   0.87500000  0.87500000  0.87500000
   0.12500000  0.12500000  0.12500000
 
 position of ions in cartesian coordinates  (Angst):
   3.98427873  2.81731163  6.90097223
   0.56918268  0.40247309  0.98585318
 


--------------------------------------------------------------------------------------------------------


 k-point   1 :   0.0417 0.0417 0.0417  plane waves:     633
 k-point   2 :   0.1250 0.0417 0.0417  plane waves:     634
 k-point   3 :   0.2083 0.0417 0.0417  plane waves:     643
 k-point   4 :   0.2917 0.0417 0.0417  plane waves:     634
 k-point   5 :   0.3750 0.0417 0.0417  plane waves:     634
 k-point   6 :   0.4583 0.0417 0.0417  plane waves:     634
 k-point   7 :  -0.4583 0.0417 0.0417  plane waves:     636
 k-point   8 :  -0.3750 0.0417 0.0417  plane waves:     635
 k-point   9 :  -0.2917 0.0417 0.0417  plane waves:     631
 k-point  10 :  -0.2083 0.0417 0.0417  plane waves:     639
 k-point  11 :  -0.1250 0.0417 0.0417  plane waves:     641
 k-point  12 :  -0.0417 0.0417 0.0417  plane waves:     632
 k-point  13 :   0.1250 0.1250 0.0417  plane waves:     637
 k-point  14 :   0.2083 0.1250 0.0417  plane waves:     642
 k-point  15 :   0.2917 0.1250 0.0417  plane waves:     638
 k-point  16 :   0.3750 0.1250 0.0417  plane waves:     636
 k-point  17 :   0.4583 0.1250 0.0417  plane waves:     642
 k-point  18 :  -0.4583 0.1250 0.0417  plane waves:     643
 k-point  19 :  -0.3750 0.1250 0.0417  plane waves:     643
 k-point  20 :  -0.2917 0.1250 0.0417  plane waves:     633
 k-point  21 :  -0.2083 0.1250 0.0417  plane waves:     634
 k-point  22 :  -0.1250 0.1250 0.0417  plane waves:     637
 k-point  23 :  -0.0417 0.1250 0.0417  plane waves:     639
 k-point  24 :   0.2083 0.2083 0.0417  plane waves:     646
 k-point  25 :   0.2917 0.2083 0.0417  plane waves:     640
 k-point  26 :   0.3750 0.2083 0.0417  plane waves:     635
 k-point  27 :   0.4583 0.2083 0.0417  plane waves:     642
 k-point  28 :  -0.4583 0.2083 0.0417  plane waves:     648
 k-point  29 :  -0.3750 0.2083 0.0417  plane waves:     650
 k-point  30 :  -0.2917 0.2083 0.0417  plane waves:     644
 k-point  31 :  -0.2083 0.2083 0.0417  plane waves:     638
 k-point  32 :  -0.1250 0.2083 0.0417  plane waves:     636
 k-point  33 :  -0.0417 0.2083 0.0417  plane waves:     640
 k-point  34 :   0.2917 0.2917 0.0417  plane waves:     641
 k-point  35 :   0.3750 0.2917 0.0417  plane waves:     643
 k-point  36 :   0.4583 0.2917 0.0417  plane waves:     646
 k-point  37 :  -0.4583 0.2917 0.0417  plane waves:     650
 k-point  38 :  -0.3750 0.2917 0.0417  plane waves:     652
 k-point  39 :  -0.2917 0.2917 0.0417  plane waves:     655
 k-point  40 :  -0.2083 0.2917 0.0417  plane waves:     644
 k-point  41 :  -0.1250 0.2917 0.0417  plane waves:     638
 k-point  42 :  -0.0417 0.2917 0.0417  plane waves:     633
 k-point  43 :   0.3750 0.3750 0.0417  plane waves:     639
 k-point  44 :   0.4583 0.3750 0.0417  plane waves:     649
 k-point  45 :  -0.4583 0.3750 0.0417  plane waves:     649
 k-point  46 :  -0.3750 0.3750 0.0417  plane waves:     651
 k-point  47 :  -0.2917 0.3750 0.0417  plane waves:     652
 k-point  48 :  -0.2083 0.3750 0.0417  plane waves:     648
 k-point  49 :  -0.1250 0.3750 0.0417  plane waves:     641
 k-point  50 :  -0.0417 0.3750 0.0417  plane waves:     636
 k-point  51 :   0.4583 0.4583 0.0417  plane waves:     650
 k-point  52 :  -0.4583 0.4583 0.0417  plane waves:     649
 k-point  53 :  -0.3750 0.4583 0.0417  plane waves:     649
 k-point  54 :  -0.2917 0.4583 0.0417  plane waves:     649
 k-point  55 :  -0.2083 0.4583 0.0417  plane waves:     647
 k-point  56 :  -0.1250 0.4583 0.0417  plane waves:     648
 k-point  57 :  -0.0417 0.4583 0.0417  plane waves:     637
 k-point  58 :  -0.4583-0.4583 0.0417  plane waves:     640
 k-point  59 :  -0.3750-0.4583 0.0417  plane waves:     650
 k-point  60 :  -0.2917-0.4583 0.0417  plane waves:     651
 k-point  61 :  -0.2083-0.4583 0.0417  plane waves:     648
 k-point  62 :  -0.1250-0.4583 0.0417  plane waves:     644
 k-point  63 :  -0.3750-0.3750 0.0417  plane waves:     643
 k-point  64 :  -0.2917-0.3750 0.0417  plane waves:     646
 k-point  65 :  -0.2083-0.3750 0.0417  plane waves:     645
 k-point  66 :  -0.1250-0.3750 0.0417  plane waves:     635
 k-point  67 :  -0.2917-0.2917 0.0417  plane waves:     641
 k-point  68 :  -0.2083-0.2917 0.0417  plane waves:     642
 k-point  69 :  -0.1250-0.2917 0.0417  plane waves:     639
 k-point  70 :  -0.2083-0.2083 0.0417  plane waves:     642
 k-point  71 :  -0.1250-0.2083 0.0417  plane waves:     640
 k-point  72 :  -0.1250-0.1250 0.0417  plane waves:     643
 k-point  73 :   0.1250 0.1250 0.1250  plane waves:     643
 k-point  74 :   0.2083 0.1250 0.1250  plane waves:     644
 k-point  75 :   0.2917 0.1250 0.1250  plane waves:     639
 k-point  76 :   0.3750 0.1250 0.1250  plane waves:     637
 k-point  77 :   0.4583 0.1250 0.1250  plane waves:     637
 k-point  78 :  -0.4583 0.1250 0.1250  plane waves:     643
 k-point  79 :  -0.3750 0.1250 0.1250  plane waves:     645
 k-point  80 :  -0.2917 0.1250 0.1250  plane waves:     640
 k-point  81 :  -0.2083 0.1250 0.1250  plane waves:     634
 k-point  82 :  -0.1250 0.1250 0.1250  plane waves:     640
 k-point  83 :   0.2083 0.2083 0.1250  plane waves:     642
 k-point  84 :   0.2917 0.2083 0.1250  plane waves:     639
 k-point  85 :   0.3750 0.2083 0.1250  plane waves:     640
 k-point  86 :   0.4583 0.2083 0.1250  plane waves:     640
 k-point  87 :  -0.4583 0.2083 0.1250  plane waves:     649
 k-point  88 :  -0.3750 0.2083 0.1250  plane waves:     646
 k-point  89 :  -0.2917 0.2083 0.1250  plane waves:     645
 k-point  90 :  -0.2083 0.2083 0.1250  plane waves:     637
 k-point  91 :  -0.1250 0.2083 0.1250  plane waves:     638
 k-point  92 :   0.2917 0.2917 0.1250  plane waves:     640
 k-point  93 :   0.3750 0.2917 0.1250  plane waves:     638
 k-point  94 :   0.4583 0.2917 0.1250  plane waves:     644
 k-point  95 :  -0.4583 0.2917 0.1250  plane waves:     650
 k-point  96 :  -0.3750 0.2917 0.1250  plane waves:     652
 k-point  97 :  -0.2917 0.2917 0.1250  plane waves:     652
 k-point  98 :  -0.2083 0.2917 0.1250  plane waves:     646
 k-point  99 :  -0.1250 0.2917 0.1250  plane waves:     638
 k-point 100 :   0.3750 0.3750 0.1250  plane waves:     639
 k-point 101 :   0.4583 0.3750 0.1250  plane waves:     652
 k-point 102 :  -0.4583 0.3750 0.1250  plane waves:     652
 k-point 103 :  -0.3750 0.3750 0.1250  plane waves:     652
 k-point 104 :  -0.2917 0.3750 0.1250  plane waves:     650
 k-point 105 :  -0.2083 0.3750 0.1250  plane waves:     651
 k-point 106 :  -0.1250 0.3750 0.1250  plane waves:     648
 k-point 107 :   0.4583 0.4583 0.1250  plane waves:     648
 k-point 108 :  -0.4583 0.4583 0.1250  plane waves:     648
 k-point 109 :  -0.3750 0.4583 0.1250  plane waves:     649
 k-point 110 :  -0.2917 0.4583 0.1250  plane waves:     654
 k-point 111 :  -0.2083 0.4583 0.1250  plane waves:     652
 k-point 112 :  -0.1250 0.4583 0.1250  plane waves:     650
 k-point 113 :  -0.4583-0.4583 0.1250  plane waves:     648
 k-point 114 :  -0.3750-0.4583 0.1250  plane waves:     649
 k-point 115 :  -0.2917-0.4583 0.1250  plane waves:     650
 k-point 116 :  -0.2083-0.4583 0.1250  plane waves:     652
 k-point 117 :  -0.3750-0.3750 0.1250  plane waves:     650
 k-point 118 :  -0.2917-0.3750 0.1250  plane waves:     650
 k-point 119 :  -0.2083-0.3750 0.1250  plane waves:     651
 k-point 120 :  -0.2917-0.2917 0.1250  plane waves:     644
 k-point 121 :  -0.2083-0.2917 0.1250  plane waves:     647
 k-point 122 :  -0.2083-0.2083 0.1250  plane waves:     639
 k-point 123 :   0.2083 0.2083 0.2083  plane waves:     643
 k-point 124 :   0.2917 0.2083 0.2083  plane waves:     638
 k-point 125 :   0.3750 0.2083 0.2083  plane waves:     638
 k-point 126 :   0.4583 0.2083 0.2083  plane waves:     641
 k-point 127 :  -0.4583 0.2083 0.2083  plane waves:     643
 k-point 128 :  -0.3750 0.2083 0.2083  plane waves:     646
 k-point 129 :  -0.2917 0.2083 0.2083  plane waves:     645
 k-point 130 :  -0.2083 0.2083 0.2083  plane waves:     640
 k-point 131 :   0.2917 0.2917 0.2083  plane waves:     632
 k-point 132 :   0.3750 0.2917 0.2083  plane waves:     636
 k-point 133 :   0.4583 0.2917 0.2083  plane waves:     642
 k-point 134 :  -0.4583 0.2917 0.2083  plane waves:     647
 k-point 135 :  -0.3750 0.2917 0.2083  plane waves:     652
 k-point 136 :  -0.2917 0.2917 0.2083  plane waves:     650
 k-point 137 :  -0.2083 0.2917 0.2083  plane waves:     651
 k-point 138 :   0.3750 0.3750 0.2083  plane waves:     632
 k-point 139 :   0.4583 0.3750 0.2083  plane waves:     643
 k-point 140 :  -0.4583 0.3750 0.2083  plane waves:     653
 k-point 141 :  -0.3750 0.3750 0.2083  plane waves:     652
 k-point 142 :  -0.2917 0.3750 0.2083  plane waves:     649
 k-point 143 :  -0.2083 0.3750 0.2083  plane waves:     652
 k-point 144 :   0.4583 0.4583 0.2083  plane waves:     647
 k-point 145 :  -0.4583 0.4583 0.2083  plane waves:     651
 k-point 146 :  -0.3750 0.4583 0.2083  plane waves:     652
 k-point 147 :  -0.2917 0.4583 0.2083  plane waves:     649
 k-point 148 :  -0.2083 0.4583 0.2083  plane waves:     651
 k-point 149 :  -0.4583-0.4583 0.2083  plane waves:     648
 k-point 150 :  -0.3750-0.4583 0.2083  plane waves:     649
 k-point 151 :  -0.2917-0.4583 0.2083  plane waves:     650
 k-point 152 :  -0.3750-0.3750 0.2083  plane waves:     644
 k-point 153 :  -0.2917-0.3750 0.2083  plane waves:     652
 k-point 154 :  -0.2917-0.2917 0.2083  plane waves:     650
 k-point 155 :   0.2917 0.2917 0.2917  plane waves:     640
 k-point 156 :   0.3750 0.2917 0.2917  plane waves:     632
 k-point 157 :   0.4583 0.2917 0.2917  plane waves:     641
 k-point 158 :  -0.4583 0.2917 0.2917  plane waves:     650
 k-point 159 :  -0.3750 0.2917 0.2917  plane waves:     655
 k-point 160 :  -0.2917 0.2917 0.2917  plane waves:     647
 k-point 161 :   0.3750 0.3750 0.2917  plane waves:     633
 k-point 162 :   0.4583 0.3750 0.2917  plane waves:     640
 k-point 163 :  -0.4583 0.3750 0.2917  plane waves:     650
 k-point 164 :  -0.3750 0.3750 0.2917  plane waves:     650
 k-point 165 :  -0.2917 0.3750 0.2917  plane waves:     656
 k-point 166 :   0.4583 0.4583 0.2917  plane waves:     640
 k-point 167 :  -0.4583 0.4583 0.2917  plane waves:     651
 k-point 168 :  -0.3750 0.4583 0.2917  plane waves:     651
 k-point 169 :  -0.2917 0.4583 0.2917  plane waves:     648
 k-point 170 :  -0.4583-0.4583 0.2917  plane waves:     645
 k-point 171 :  -0.3750-0.4583 0.2917  plane waves:     652
 k-point 172 :  -0.3750-0.3750 0.2917  plane waves:     654
 k-point 173 :   0.3750 0.3750 0.3750  plane waves:     628
 k-point 174 :   0.4583 0.3750 0.3750  plane waves:     638
 k-point 175 :  -0.4583 0.3750 0.3750  plane waves:     643
 k-point 176 :  -0.3750 0.3750 0.3750  plane waves:     649
 k-point 177 :   0.4583 0.4583 0.3750  plane waves:     637
 k-point 178 :  -0.4583 0.4583 0.3750  plane waves:     648
 k-point 179 :  -0.3750 0.4583 0.3750  plane waves:     651
 k-point 180 :  -0.4583-0.4583 0.3750  plane waves:     644
 k-point 181 :   0.4583 0.4583 0.4583  plane waves:     634
 k-point 182 :  -0.4583 0.4583 0.4583  plane waves:     636

 maximum and minimum number of plane-waves per node :       656      628

 maximum number of plane-waves:       656
 maximum index in each direction: 
   IXMAX=    6   IYMAX=    6   IZMAX=    5
   IXMIN=   -6   IYMIN=   -6   IZMIN=   -6


 serial   3D FFT for wavefunctions
 parallel 3D FFT for charge:
    minimum data exchange during FFTs selected (reduces bandwidth)


 total amount of memory used by VASP MPI-rank0    47684. kBytes
=======================================================================

   base      :      30000. kBytes
   nonl-proj :       7662. kBytes
   fftplans  :       4177. kBytes
   grid      :       1926. kBytes
   one-center:          6. kBytes
   wavefun   :       3913. kBytes
 
     INWAV:  cpu time    0.0000: real time    0.0006
 Broyden mixing: mesh for mixing (old mesh)
   NGX = 13   NGY = 13   NGZ = 13
  (NGX  = 48   NGY  = 48   NGZ  = 48)
  gives a total of   2197 points

 initial charge density was supplied:
 charge density of overlapping atoms calculated
 number of electron       8.0000000 magnetization 
 keeping initial charge density in first step


--------------------------------------------------------------------------------------------------------


 Maximum index for augmentation-charges        20711 (set IRDMAX)


--------------------------------------------------------------------------------------------------------


 First call to EWALD:  gamma=   0.505
 Maximum number of real-space cells 3x 3x 3
 Maximum number of reciprocal cells 3x 3x 3

    FEWALD:  cpu time    0.0030: real time    0.0036


--------------------------------------- Iteration      1(   1)  ---------------------------------------


    POTLOK:  cpu time    0.0310: real time    0.0343
    SETDIJ:  cpu time    0.1770: real time    0.1773
     EDDAV:  cpu time    1.4688: real time    1.4700
       DOS:  cpu time    0.0030: real time    0.0032
    --------------------------------------------
      LOOP:  cpu time    1.6797: real time    1.6851

 eigenvalue-minimisations  :  2920
 total energy-change (2. order) : 0.1755631E+01  (-0.2542936E+03)
 number of electron       8.0000000 magnetization 
 augmentation part        8.0000000 magnetization 

 Free energy of the ion-electron system (eV)
  ---------------------------------------------------
  alpha Z        PSCENC =         3.10536395
  Ewald energy   TEWEN  =      -222.54581301
  -Hartree energ DENC   =       -12.23516772
  -exchange      EXHF   =         0.00000000
  -V(xc)+E(xc)   XCENC  =       -18.90892768
  PAW double counting   =       176.24759923     -141.06103558
  entropy T*S    EENTRO =        -0.00074049
  eigenvalues    EBANDS =        11.02309807
  atomic energy  EATOM  =       206.13125414
  Solvation  Ediel_sol  =         0.00000000
  ---------------------------------------------------
  free energy    TOTEN  =         1.75563090 eV

  energy without entropy =        1.75637140  energy(sigma->0) =        1.75600115


--------------------------------------------------------------------------------------------------------




--------------------------------------- Iteration      1(   2)  ---------------------------------------


     EDDAV:  cpu time    2.1237: real time    2.1428
       DOS:  cpu time    0.0010: real time    0.0021
    --------------------------------------------
      LOOP:  cpu time    2.1257: real time    2.1448

 eigenvalue-minimisations  :  4496
 total energy-change (2. order) :-0.1254120E+02  (-0.1207791E+02)
 number of electron       8.0000000 magnetization 
 augmentation part        8.0000000 magnetization 

 Free energy of the ion-electron system (eV)
  ---------------------------------------------------
  alpha Z        PSCENC =         3.10536395
  Ewald energy   TEWEN  =      -222.54581301
  -Hartree energ DENC   =       -12.23516772
  -exchange      EXHF   =         0.00000000
  -V(xc)+E(xc)   XCENC  =       -18.90892768
  PAW double counting   =       176.24759923     -141.06103558
  entropy T*S    EENTRO =        -0.00000000
  eigenvalues    EBANDS =        -1.51884580
  atomic energy  EATOM  =       206.13125414
  Solvation  Ediel_sol  =         0.00000000
  ---------------------------------------------------
  free energy    TOTEN  =       -10.78557248 eV

  energy without entropy =      -10.78557248  energy(sigma->0) =      -10.78557248


--------------------------------------------------------------------------------------------------------




--------------------------------------- Iteration      1(   3)  ---------------------------------------


     EDDAV:  cpu time    1.8707: real time    1.8874
       DOS:  cpu time    0.0020: real time    0.0021
    --------------------------------------------
      LOOP:  cpu time    1.8717: real time    1.8896

 eigenvalue-minimisations  :  3872
 total energy-change (2. order) :-0.1618176E+00  (-0.1618176E+00)
 number of electron       8.0000000 magnetization 
 augmentation part        8.0000000 magnetization 

 Free energy of the ion-electron system (eV)
  ---------------------------------------------------
  alpha Z        PSCENC =         3.10536395
  Ewald energy   TEWEN  =      -222.54581301
  -Hartree energ DENC   =       -12.23516772
  -exchange      EXHF   =         0.00000000
  -V(xc)+E(xc)   XCENC  =       -18.90892768
  PAW double counting   =       176.24759923     -141.06103558
  entropy T*S    EENTRO =        -0.00000000
  eigenvalues    EBANDS =        -1.68066335
  atomic energy  EATOM  =       206.13125414
  Solvation  Ediel_sol  =         0.00000000
  ---------------------------------------------------
  free energy    TOTEN  =       -10.94739003 eV

  energy without entropy =      -10.94739003  energy(sigma->0) =      -10.94739003


--------------------------------------------------------------------------------------------------------




--------------------------------------- Iteration      1(   4)  ---------------------------------------


     EDDAV:  cpu time    2.1407: real time    2.1592
       DOS:  cpu time    0.0020: real time    0.0022
    --------------------------------------------
      LOOP:  cpu time    2.1427: real time    2.1614

 eigenvalue-minimisations  :  4528
 total energy-change (2. order) :-0.5756507E-03  (-0.5756507E-03)
 number of electron       8.0000000 magnetization 
 augmentation part        8.0000000 magnetization 

 Free energy of the ion-electron system (eV)
  ---------------------------------------------------
  alpha Z        PSCENC =         3.10536395
  Ewald energy   TEWEN  =      -222.54581301
  -Hartree energ DENC   =       -12.23516772
  -exchange      EXHF   =         0.00000000
  -V(xc)+E(xc)   XCENC  =       -18.90892768
  PAW double counting   =       176.24759923     -141.06103558
  entropy T*S    EENTRO =        -0.00000000
  eigenvalues    EBANDS =        -1.68123900
  atomic energy  EATOM  =       206.13125414
  Solvation  Ediel_sol  =         0.00000000
  ---------------------------------------------------
  free energy    TOTEN  =       -10.94796568 eV

  energy without entropy =      -10.94796568  energy(sigma->0) =      -10.94796568


--------------------------------------------------------------------------------------------------------




--------------------------------------- Iteration      1(   5)  ---------------------------------------


     EDDAV:  cpu time    1.9327: real time    1.9509
       DOS:  cpu time    0.0010: real time    0.0023
    CHARGE:  cpu time    0.1130: real time    0.1132
    MIXING:  cpu time    0.0020: real time    0.0015
    --------------------------------------------
      LOOP:  cpu time    2.0487: real time    2.0680

 eigenvalue-minimisations  :  4032
 total energy-change (2. order) :-0.6756745E-06  (-0.6756746E-06)
 number of electron       8.0000000 magnetization 
 augmentation part       -0.4673376 magnetization 

 Broyden mixing:
  rms(total) = 0.44175E+00    rms(broyden)= 0.44175E+00
  rms(prec ) = 0.86790E+00
  weight for this iteration     100.00

 Free energy of the ion-electron system (eV)
  ---------------------------------------------------
  alpha Z        PSCENC =         3.10536395
  Ewald energy   TEWEN  =      -222.54581301
  -Hartree energ DENC   =       -12.23516772
  -exchange      EXHF   =         0.00000000
  -V(xc)+E(xc)   XCENC  =       -18.90892768
  PAW double counting   =       176.24759923     -141.06103558
  entropy T*S    EENTRO =        -0.00000000
  eigenvalues    EBANDS =        -1.68123968
  atomic energy  EATOM  =       206.13125414
  Solvation  Ediel_sol  =         0.00000000
  ---------------------------------------------------
  free energy    TOTEN  =       -10.94796636 eV

  energy without entropy =      -10.94796636  energy(sigma->0) =      -10.94796636


--------------------------------------------------------------------------------------------------------




--------------------------------------- Iteration      1(   6)  ---------------------------------------


    POTLOK:  cpu time    0.0310: real time    0.0484
    SETDIJ:  cpu time    0.1760: real time    0.1755
     EDDAV:  cpu time    1.6957: real time    1.6981
       DOS:  cpu time    0.0020: real time    0.0021
    CHARGE:  cpu time    0.1120: real time    0.1131
    MIXING:  cpu time    0.0020: real time    0.0016
    --------------------------------------------
      LOOP:  cpu time    2.0197: real time    2.0388

 eigenvalue-minimisations  :  3472
 total energy-change (2. order) : 0.9333672E-01  (-0.5804524E-02)
 number of electron       8.0000000 magnetization 
 augmentation part       -0.4625907 magnetization 

 Broyden mixing:
  rms(total) = 0.26859E+00    rms(broyden)= 0.26859E+00
  rms(prec ) = 0.52054E+00
  weight for this iteration     100.00

 eigenvalues of (default mixing * dielectric matrix)
  average eigenvalue GAMMA=   2.5440
  2.5440

 Free energy of the ion-electron system (eV)
  ---------------------------------------------------
  alpha Z        PSCENC =         3.10536395
  Ewald energy   TEWEN  =      -222.54581301
  -Hartree energ DENC   =       -13.59856558
  -exchange      EXHF   =         0.00000000
  -V(xc)+E(xc)   XCENC  =       -18.69557230
  PAW double counting   =       349.95066934     -314.84556785
  entropy T*S    EENTRO =        -0.00000000
  eigenvalues    EBANDS =        -0.35639832
  atomic energy  EATOM  =       206.13125414
  Solvation  Ediel_sol  =         0.00000000
  ---------------------------------------------------
  free energy    TOTEN  =       -10.85462964 eV

  energy without entropy =      -10.85462964  energy(sigma->0) =      -10.85462964


--------------------------------------------------------------------------------------------------------




--------------------------------------- Iteration      1(   7)  ---------------------------------------


    POTLOK:  cpu time    0.0320: real time    0.0476
    SETDIJ:  cpu time    0.1750: real time    0.1752
     EDDAV:  cpu time    1.8057: real time    1.8074
       DOS:  cpu time    0.0010: real time    0.0021
    CHARGE:  cpu time    0.1130: real time    0.1132
    MIXING:  cpu time    0.0020: real time    0.0015
    --------------------------------------------
      LOOP:  cpu time    2.1287: real time    2.1470

 eigenvalue-minimisations  :  3744
 total energy-change (2. order) : 0.4535485E-01  (-0.1176935E-01)
 number of electron       8.0000000 magnetization 
 augmentation part       -0.4568609 magnetization 

 Broyden mixing:
  rms(total) = 0.14306E-01    rms(broyden)= 0.14306E-01
  rms(prec ) = 0.35547E-01
  weight for this iteration     100.00

 eigenvalues of (default mixing * dielectric matrix)
  average eigenvalue GAMMA=   2.0244
  1.6658  2.3829

 Free energy of the ion-electron system (eV)
  ---------------------------------------------------
  alpha Z        PSCENC =         3.10536395
  Ewald energy   TEWEN  =      -222.54581301
  -Hartree energ DENC   =       -15.88492911
  -exchange      EXHF   =         0.00000000
  -V(xc)+E(xc)   XCENC  =       -18.32982652
  PAW double counting   =       752.11336887     -717.11205565
  entropy T*S    EENTRO =        -0.00000000
  eigenvalues    EBANDS =         1.71336254
  atomic energy  EATOM  =       206.13125414
  Solvation  Ediel_sol  =         0.00000000
  ---------------------------------------------------
  free energy    TOTEN  =       -10.80927479 eV

  energy without entropy =      -10.80927479  energy(sigma->0) =      -10.80927479


--------------------------------------------------------------------------------------------------------




--------------------------------------- Iteration      1(   8)  ---------------------------------------


    POTLOK:  cpu time    0.0320: real time    0.0480
    SETDIJ:  cpu time    0.1750: real time    0.1752
     EDDAV:  cpu time    1.6118: real time    1.6141
       DOS:  cpu time    0.0020: real time    0.0022
    CHARGE:  cpu time    0.1140: real time    0.1132
    MIXING:  cpu time    0.0000: real time    0.0016
    --------------------------------------------
      LOOP:  cpu time    1.9347: real time    1.9543

 eigenvalue-minimisations  :  3264
 total energy-change (2. order) :-0.1157838E-02  (-0.3158274E-03)
 number of electron       8.0000000 magnetization 
 augmentation part       -0.4576972 magnetization 

 Broyden mixing:
  rms(total) = 0.71547E-02    rms(broyden)= 0.71547E-02
  rms(prec ) = 0.13002E-01
  weight for this iteration     100.00

 eigenvalues of (default mixing * dielectric matrix)
  average eigenvalue GAMMA=   2.2470
  2.8740  1.9334  1.9334

 Free energy of the ion-electron system (eV)
  ---------------------------------------------------
  alpha Z        PSCENC =         3.10536395
  Ewald energy   TEWEN  =      -222.54581301
  -Hartree energ DENC   =       -15.82524973
  -exchange      EXHF   =         0.00000000
  -V(xc)+E(xc)   XCENC  =       -18.33121419
  PAW double counting   =       746.12462664     -711.09963125
  entropy T*S    EENTRO =        -0.00000000
  eigenvalues    EBANDS =         1.63023083
  atomic energy  EATOM  =       206.13125414
  Solvation  Ediel_sol  =         0.00000000
  ---------------------------------------------------
  free energy    TOTEN  =       -10.81043263 eV

  energy without entropy =      -10.81043263  energy(sigma->0) =      -10.81043263


--------------------------------------------------------------------------------------------------------




--------------------------------------- Iteration      1(   9)  ---------------------------------------


    POTLOK:  cpu time    0.0330: real time    0.0476
    SETDIJ:  cpu time    0.1750: real time    0.1748
     EDDAV:  cpu time    2.0217: real time    2.0248
       DOS:  cpu time    0.0030: real time    0.0021
    CHARGE:  cpu time    0.1120: real time    0.1133
    MIXING:  cpu time    0.0010: real time    0.0015
    --------------------------------------------
      LOOP:  cpu time    2.3456: real time    2.3642

 eigenvalue-minimisations  :  4264
 total energy-change (2. order) :-0.2208439E-03  (-0.2343250E-04)
 number of electron       8.0000000 magnetization 
 augmentation part       -0.4578139 magnetization 

 Broyden mixing:
  rms(total) = 0.51613E-02    rms(broyden)= 0.51613E-02
  rms(prec ) = 0.60289E-02
  weight for this iteration     100.00

[...]
      3       1.3760      2.00000
      4       1.7459      2.00000
      5       8.7396      0.00000
      6       9.3299      0.00000
      7       9.7861      0.00000
      8      10.4166      0.00000

 k-point   148 :      -0.2083    0.4583    0.2083
  band No.  band energies     occupation 
      1      -3.0121      2.00000
      2      -1.7929      2.00000
      3       1.2891      2.00000
      4       2.0245      2.00000
      5       8.7670      0.00000
      6       9.0472      0.00000
      7       9.5530      0.00000
      8      11.1333      0.00000

 k-point   149 :      -0.4583   -0.4583    0.2083
  band No.  band energies     occupation 
      1      -3.2652      2.00000
      2      -1.6404      2.00000
      3       1.4206      2.00000
      4       2.7355      2.00000
      5       6.2943      0.00000
      6       8.4157      0.00000
      7      12.0087      0.00000
      8      12.0667      0.00000

 k-point   150 :      -0.3750   -0.4583    0.2083
  band No.  band energies     occupation 
      1      -2.8126      2.00000
      2      -2.0684      2.00000
      3       1.3438      2.00000
      4       2.3819      2.00000
      5       6.7361      0.00000
      6       8.3876      0.00000
      7      11.6872      0.00000
      8      12.4343      0.00000

 k-point   151 :      -0.2917   -0.4583    0.2083
  band No.  band energies     occupation 
      1      -2.6728      2.00000
      2      -2.1472      2.00000
      3       1.4634      2.00000
      4       1.8402      2.00000
      5       7.9098      0.00000
      6       8.5276      0.00000
      7      10.6807      0.00000
      8      11.3810      0.00000

 k-point   152 :      -0.3750   -0.3750    0.2083
  band No.  band energies     occupation 
      1      -2.8660      2.00000
      2      -2.0441      2.00000
      3       1.2992      2.00000
      4       2.6876      2.00000
      5       6.2304      0.00000
      6       8.3406      0.00000
      7      12.5613      0.00000
      8      12.7731      0.00000

 k-point   153 :      -0.2917   -0.3750    0.2083
  band No.  band energies     occupation 
      1      -3.2219      2.00000
      2      -1.6550      2.00000
      3       1.4434      2.00000
      4       2.4560      2.00000
      5       6.7923      0.00000
      6       8.4643      0.00000
      7      11.0319      0.00000
      8      12.8420      0.00000

 k-point   154 :      -0.2917   -0.2917    0.2083
  band No.  band energies     occupation 
      1      -3.7110      2.00000
      2      -1.1853      2.00000
      3       1.6609      2.00000
      4       2.8306      2.00000
      5       6.4188      0.00000
      6       8.5663      0.00000
      7      11.2531      0.00000
      8      11.4918      0.00000

 k-point   155 :       0.2917    0.2917    0.2917
  band No.  band energies     occupation 
      1      -5.3818      2.00000
      2       0.5737      2.00000
      3       4.2162      2.00000
      4       4.2162      2.00000
      5       6.6570      0.00000
      6       8.5394      0.00000
      7       8.5394      0.00000
      8      12.0125      0.00000

 k-point   156 :       0.3750    0.2917    0.2917
  band No.  band energies     occupation 
      1      -5.1248      2.00000
      2       0.1587      2.00000
      3       3.3733      2.00000
      4       4.2527      2.00000
      5       7.0869      0.00000
      6       8.5454      0.00000
      7       8.7012      0.00000
      8      11.6939      0.00000

 k-point   157 :       0.4583    0.2917    0.2917
  band No.  band energies     occupation 
      1      -4.7205      2.00000
      2      -0.2212      2.00000
      3       2.2521      2.00000
      4       4.0018      2.00000
      5       7.5104      0.00000
      6       9.0793      0.00000
      7       9.1045      0.00000
      8      11.3546      0.00000

 k-point   158 :      -0.4583    0.2917    0.2917
  band No.  band energies     occupation 
      1      -4.1968      2.00000
      2      -0.6765      2.00000
      3       1.4140      2.00000
      4       3.6242      2.00000
      5       7.2544      0.00000
      6       9.9845      0.00000
      7      10.2030      0.00000
      8      11.1987      0.00000

 k-point   159 :      -0.3750    0.2917    0.2917
  band No.  band energies     occupation 
      1      -3.6358      2.00000
      2      -1.2746      2.00000
      3       1.0999      2.00000
      4       3.2612      2.00000
      5       6.8732      0.00000
      6      10.7590      0.00000
      7      10.9486      0.00000
      8      11.6666      0.00000

 k-point   160 :      -0.2917    0.2917    0.2917
  band No.  band energies     occupation 
      1      -3.3504      2.00000
      2      -1.6095      2.00000
      3       1.2323      2.00000
      4       2.9856      2.00000
      5       6.5817      0.00000
      6       9.9954      0.00000
      7      11.1099      0.00000
      8      11.1851      0.00000

 k-point   161 :       0.3750    0.3750    0.2917
  band No.  band energies     occupation 
      1      -4.9323      2.00000
      2      -0.2417      2.00000
      3       3.6770      2.00000
      4       3.7692      2.00000
      5       7.0197      0.00000
      6       8.3025      0.00000
      7       8.9994      0.00000
      8      11.3328      0.00000

 k-point   162 :       0.4583    0.3750    0.2917
  band No.  band energies     occupation 
      1      -4.5930      2.00000
      2      -0.5788      2.00000
      3       2.6878      2.00000
      4       3.7000      2.00000
      5       7.4948      0.00000
      6       8.3167      0.00000
      7       9.5042      0.00000
      8      10.9914      0.00000

 k-point   163 :      -0.4583    0.3750    0.2917
  band No.  band energies     occupation 
      1      -4.1265      2.00000
      2      -0.8931      2.00000
      3       1.7247      2.00000
      4       3.3590      2.00000
      5       7.7548      0.00000
      6       8.6577      0.00000
      7      10.4852      0.00000
      8      10.9316      0.00000

 k-point   164 :      -0.3750    0.3750    0.2917
  band No.  band energies     occupation 
      1      -3.5768      2.00000
      2      -1.3067      2.00000
      3       1.1429      2.00000
      4       2.9601      2.00000
      5       7.3702      0.00000
      6       9.8351      0.00000
      7      10.7932      0.00000
      8      11.7404      0.00000

 k-point   165 :      -0.2917    0.3750    0.2917
  band No.  band energies     occupation 
      1      -3.0995      2.00000
      2      -1.7688      2.00000
      3       1.0873      2.00000
      4       2.6390      2.00000
      5       7.0198      0.00000
      6       9.9544      0.00000
      7      10.7640      0.00000
      8      11.5655      0.00000

 k-point   166 :       0.4583    0.4583    0.2917
  band No.  band energies     occupation 
      1      -4.3261      2.00000
      2      -0.9014      2.00000
      3       2.5817      2.00000
      4       3.3604      2.00000
      5       7.0483      0.00000
      6       8.9995      0.00000
      7       9.7192      0.00000
      8      10.5878      0.00000

 k-point   167 :      -0.4583    0.4583    0.2917
  band No.  band energies     occupation 
      1      -3.9370      2.00000
      2      -1.1706      2.00000
      3       1.9141      2.00000
      4       3.0568      2.00000
      5       7.3378      0.00000
      6       8.9843      0.00000
      7      10.3560      0.00000
      8      10.7858      0.00000

 k-point   168 :      -0.3750    0.4583    0.2917
  band No.  band energies     occupation 
      1      -3.4537      2.00000
      2      -1.4638      2.00000
      3       1.3695      2.00000
      4       2.5477      2.00000
      5       8.3312      0.00000
      6       8.5716      0.00000
      7      10.3312      0.00000
      8      11.9306      0.00000

 k-point   169 :      -0.2917    0.4583    0.2917
  band No.  band energies     occupation 
      1      -2.9237      2.00000
      2      -1.8874      2.00000
      3       1.2133      2.00000
      4       2.0925      2.00000
      5       8.1851      0.00000
      6       9.6453      0.00000
      7      10.1722      0.00000
      8      10.5141      0.00000

 k-point   170 :      -0.4583   -0.4583    0.2917
  band No.  band energies     occupation 
      1      -3.6493      2.00000
      2      -1.4111      2.00000
      3       1.5815      2.00000
      4       3.0716      2.00000
      5       6.7028      0.00000
      6      10.1179      0.00000
      7      10.3741      0.00000
      8      10.6645      0.00000

 k-point   171 :      -0.3750   -0.4583    0.2917
  band No.  band energies     occupation 
      1      -3.2964      2.00000
      2      -1.6290      2.00000
      3       1.2498      2.00000
      4       2.7059      2.00000
      5       7.0774      0.00000
      6       9.9476      0.00000
      7      10.2283      0.00000
      8      11.9991      0.00000

 k-point   172 :      -0.3750   -0.3750    0.2917
  band No.  band energies     occupation 
      1      -3.1588      2.00000
      2      -1.7378      2.00000
      3       1.0430      2.00000
      4       2.9420      2.00000
      5       6.5187      0.00000
      6       9.9318      0.00000
      7      11.6260      0.00000
      8      11.8674      0.00000

 k-point   173 :       0.3750    0.3750    0.3750
  band No.  band energies     occupation 
      1      -4.8136      2.00000
      2      -0.6305      2.00000
      3       4.0290      2.00000
      4       4.0290      2.00000
      5       6.4381      0.00000
      6       8.5005      0.00000
      7       8.5006      0.00000
      8      12.7307      0.00000

 k-point   174 :       0.4583    0.3750    0.3750
  band No.  band energies     occupation 
      1      -4.5529      2.00000
      2      -0.9323      2.00000
      3       3.2769      2.00000
      4       3.9932      2.00000
      5       6.9130      0.00000
      6       8.5329      0.00000
      7       8.6094      0.00000
      8      12.6315      0.00000

 k-point   175 :      -0.4583    0.3750    0.3750
  band No.  band energies     occupation 
      1      -4.1673      2.00000
      2      -1.1442      2.00000
      3       2.2014      2.00000
      4       3.6906      2.00000
      5       7.2636      0.00000
      6       8.9753      0.00000
      7       9.3000      0.00000
      8      12.5984      0.00000

 k-point   176 :      -0.3750    0.3750    0.3750
  band No.  band energies     occupation 
      1      -3.6847      2.00000
      2      -1.3586      2.00000
      3       1.3565      2.00000
      4       3.2972      2.00000
      5       6.9231      0.00000
      6      10.2617      0.00000
      7      10.3796      0.00000
      8      11.7318      0.00000

 k-point   177 :       0.4583    0.4583    0.3750
  band No.  band energies     occupation 
      1      -4.3829      2.00000
      2      -1.2088      2.00000
      3       3.4406      2.00000
      4       3.7369      2.00000
      5       6.8794      0.00000
      6       8.3113      0.00000
      7       8.8227      0.00000
      8      12.3844      0.00000

 k-point   178 :      -0.4583    0.4583    0.3750
  band No.  band energies     occupation 
      1      -4.1016      2.00000
      2      -1.3654      2.00000
      3       2.6051      2.00000
      4       3.5417      2.00000
      5       7.4209      0.00000
      6       8.2305      0.00000
      7       9.4435      0.00000
      8      12.2535      0.00000

 k-point   179 :      -0.3750    0.4583    0.3750
  band No.  band energies     occupation 
      1      -3.7324      2.00000
      2      -1.4481      2.00000
      3       1.7413      2.00000
      4       3.1302      2.00000
      5       7.4946      0.00000
      6       8.7807      0.00000
      7      10.6593      0.00000
      8      11.8847      0.00000

 k-point   180 :      -0.4583   -0.4583    0.3750
  band No.  band energies     occupation 
      1      -3.9504      2.00000
      2      -1.4620      2.00000
      3       2.3213      2.00000
      4       3.4684      2.00000
      5       7.1023      0.00000
      6       8.9397      0.00000
      7       9.4879      0.00000
      8      11.9802      0.00000

 k-point   181 :       0.4583    0.4583    0.4583
  band No.  band energies     occupation 
      1      -4.3268      2.00000
      2      -1.4397      2.00000
      3       3.9336      2.00000
      4       3.9336      2.00000
      5       6.3249      0.00000
      6       8.4290      0.00000
      7       8.4290      0.00000
      8      12.6834      0.00000

 k-point   182 :      -0.4583    0.4583    0.4583
  band No.  band energies     occupation 
      1      -4.1773      2.00000
      2      -1.5192      2.00000
      3       3.3026      2.00000
      4       3.8150      2.00000
      5       6.8418      0.00000
      6       8.3775      0.00000
      7       8.6802      0.00000
      8      12.8915      0.00000


--------------------------------------------------------------------------------------------------------


 soft charge-density along one line, spin component           1
         0         1         2         3         4         5         6         7         8         9
 total charge-density along one line
 
 pseudopotential strength for first ion, spin component:           1
 18.502  25.815   0.000   0.000   0.000   0.000   0.000   0.000
 25.815  36.021   0.000   0.000   0.000   0.000   0.000   0.000
  0.000   0.000   4.187  -0.000  -0.000   7.803  -0.000  -0.000
  0.000   0.000  -0.000   4.187  -0.000  -0.000   7.803  -0.000
  0.000   0.000  -0.000  -0.000   4.187  -0.000  -0.000   7.803
  0.000   0.000   7.803  -0.000  -0.000  14.553  -0.000  -0.000
  0.000   0.000  -0.000   7.803  -0.000  -0.000  14.553  -0.000
  0.000   0.000  -0.000  -0.000   7.803  -0.000  -0.000  14.553
 total augmentation occupancy for first ion, spin component:           1
  5.046  -1.799  -0.000  -0.000   0.000   0.000   0.000   0.000
 -1.799   0.762  -0.000   0.000   0.000   0.000   0.000  -0.000
  0.000  -0.000   2.720  -0.000   0.000  -0.596   0.000  -0.000
 -0.000   0.000  -0.000   2.720   0.000   0.000  -0.596  -0.000
  0.000   0.000   0.000   0.000   2.720  -0.000  -0.000  -0.596
  0.000   0.000  -0.596   0.000  -0.000   0.138  -0.000   0.000
  0.000   0.000   0.000  -0.596  -0.000  -0.000   0.138   0.000
  0.000  -0.000  -0.000  -0.000  -0.596   0.000   0.000   0.138


------------------------ aborting loop because EDIFF is reached ----------------------------------------


    CHARGE:  cpu time    0.1120: real time    0.1123
    FORLOC:  cpu time    0.0010: real time    0.0017
    FORNL :  cpu time    0.1820: real time    0.1820
    STRESS:  cpu time    1.4998: real time    1.5018
    FORCOR:  cpu time    0.0300: real time    0.0318
    FORHAR:  cpu time    0.0060: real time    0.0059
    MIXING:  cpu time    0.0010: real time    0.0013
    OFIELD:  cpu time    0.0000: real time    0.0002

  FORCE on cell =-STRESS in cart. coord.  units (eV):
  Direction    XX          YY          ZZ          XY          YZ          ZX
  --------------------------------------------------------------------------------------
  Alpha Z     3.10536     3.10536     3.10536
  Ewald     -74.18195   -74.18202   -74.18194     0.00001     0.00000     0.00000
  Hartree     5.29402     5.29402     5.29402     0.00000     0.00000     0.00000
  E(xc)     -24.92009   -24.92009   -24.92009    -0.00000    -0.00000    -0.00000
  Local     -30.38068   -30.38066   -30.38066    -0.00000     0.00001     0.00001
  n-local    74.26651    76.55455    78.76653    -1.04382    -1.40204     0.12665
  augment   -11.65275   -11.65275   -11.65276    -0.00001    -0.00001    -0.00001
  Kinetic    53.28701    54.98049    56.59485    -0.33481     0.23583    -0.97590
  Fock        0.00000     0.00000     0.00000     0.00000     0.00000     0.00000
  -------------------------------------------------------------------------------------
  Total      -1.25278    -1.25279    -1.25278     0.00000    -0.00000    -0.00000
  in kB     -46.28977   -46.28980   -46.28975     0.00000    -0.00000    -0.00000
  external pressure =      -46.29 kB  Pullay stress =        0.00 kB


 VOLUME and BASIS-vectors are now :
 -----------------------------------------------------------------------------
  energy-cutoff  :      350.00
  volume of cell :       43.36
      direct lattice vectors                 reciprocal lattice vectors
     3.415096058  0.000000000  1.971706350     0.292817532 -0.103526590  0.000000000
     1.138365353  3.219784717  1.971706350     0.000000000  0.310579771  0.000000000
     0.000000000  0.000000000  3.943412701    -0.146408766 -0.103526590  0.253587457

  length of vectors
     3.943413118  3.943414160  3.943412701     0.310579880  0.310579771  0.310579910


 FORCES acting on ions
    electron-ion (+dipol)            ewald-force                    non-local-force                 convergence-correction
 -----------------------------------------------------------------------------------------------
   0.516E-05 0.241E-04 0.409E-07   -.857E-05 -.402E-04 0.612E-15   0.110E-16 0.101E-16 0.659E-16   0.837E-09 0.177E-08 0.937E-09
   -.516E-05 -.241E-04 -.409E-07   0.857E-05 0.402E-04 -.595E-15   -.162E-16 -.101E-16 -.486E-16   -.837E-09 -.177E-08 -.937E-09
 -----------------------------------------------------------------------------------------------
   0.270E-13 -.858E-13 0.103E-12   -.255E-15 0.970E-16 0.177E-16   -.521E-17 0.000E+00 0.173E-16   -.146E-16 -.129E-15 -.227E-15
 
 
 POSITION                                       TOTAL-FORCE (eV/Angst)
 -----------------------------------------------------------------------------------
      3.98428      2.81731      6.90097        -0.000000     -0.000000     -0.000000
      0.56918      0.40247      0.98585         0.000000      0.000000      0.000000
 -----------------------------------------------------------------------------------
    total drift:                                0.000000     -0.000000      0.000000


--------------------------------------------------------------------------------------------------------



  FREE ENERGIE OF THE ION-ELECTRON SYSTEM (eV)
  ---------------------------------------------------
  free  energy   TOTEN  =       -10.81067541 eV

  energy  without entropy=      -10.81067541  energy(sigma->0) =      -10.81067541
 


--------------------------------------------------------------------------------------------------------


    POTLOK:  cpu time    0.2110: real time    0.2168


--------------------------------------------------------------------------------------------------------




--------------------------------------------------------------------------------------------------------


  
 reached required accuracy - stopping structural energy minimisation
     LOOP+:  cpu time   24.8232: real time   25.1809
    4ORBIT:  cpu time    0.0000: real time    0.0000

 total amount of memory used by VASP MPI-rank0    47684. kBytes
=======================================================================

   base      :      30000. kBytes
   nonl-proj :       7662. kBytes
   fftplans  :       4177. kBytes
   grid      :       1926. kBytes
   one-center:          6. kBytes
   wavefun   :       3913. kBytes
 
  
  
 General timing and accounting informations for this job:
 ========================================================
  
                  Total CPU time used (sec):       27.527
                            User time (sec):       26.965
                          System time (sec):        0.562
                         Elapsed time (sec):       28.783
  
                   Maximum memory used (kb):       71392.
                   Average memory used (kb):          N/A
  
                          Minor page faults:        55428
                          Major page faults:            1
                 Voluntary context switches:        20119
