<?xml version="1.0" encoding="ISO-8859-1"?>
<modeling>
 <generator>
  <i name="program" type="string">vasp </i>
  <i name="version" type="string">6.2.0  </i>
  <i name="subversion" type="string">18Jan21 (build Aug 12 2022 13:00:08) complex                          parallel </i>
  <i name="platform" type="string">LinuxIFC </i>
  <i name="date" type="string">2024 11 05 </i>
  <i name="time" type="string">06:01:06 </i>
 </generator>
 <incar>
  <i type="int" name="ISTART">     0</i>
  <i type="string" name="PREC">Accurate      (Accurate strictly avoids</i>
  <i type="logical" name="ADDGRID"> T  </i>
  <i type="int" name="ISPIN">     1</i>
  <i type="int" name="NELM">    90</i>
  <i type="int" name="NELMIN">     6</i>
  <i type="int" name="IBRION">     2</i>
  <i name="EDIFF">      0.00000100</i>
  <i name="EDIFFG">     -0.00200000</i>
  <i type="int" name="NSW">   100</i>
  <i type="int" name="ISIF">     2</i>
  <i type="int" name="ISYM">     2</i>
  <i name="ENCUT">    350.00000000</i>
  <i type="logical" name="LREAL"> F  </i>
  <i type="int" name="ISMEAR">     0</i>
  <i name="SIGMA">      0.05000000</i>
  <i type="logical" name="LWAVE"> F  </i>
  <i type="logical" name="LCHARG"> F  </i>
  <i type="logical" name="LASPH"> T  </i>
 </incar>
 <primitive_cell>
  <structure name="primitive_cell" >
   <crystal>
    <varray name="basis" >
     <v>       3.41509606       0.00000000       1.97170635 </v>
     <v>       1.13836535       3.21978472       1.97170635 </v>
     <v>       0.00000000       0.00000000       3.94341270 </v>
    </varray>
    <i name="volume">     43.36126957 </i>
    <varray name="rec_basis" >
     <v>       0.29281753      -0.10352659       0.00000000 </v>
     <v>       0.00000000       0.31057977       0.00000000 </v>
     <v>      -0.14640877      -0.10352659       0.25358746 </v>
    </varray>
   </crystal>
   <varray name="positions" >
    <v>       0.87500000       0.87500000       0.87500000 </v>
    <v>       0.12500000       0.12500000       0.12500000 </v>
   </varray>
  </structure>
  <varray name="primitive_index" >
   <v type="int" >        1 </v>
   <v type="int" >        2 </v>
  </varray>
 </primitive_cell>
 <kpoints>
  <generation param="Monkhorst-Pack">
   <v type="int" name="divisions">      12       12       12 </v>
   <v name="usershift">      0.00000000       0.00000000       0.00000000 </v>
   <v name="genvec1">      0.08333333      -0.00000000       0.00000000 </v>
   <v name="genvec2">      0.00000000       0.08333333       0.00000000 </v>
   <v name="genvec3">     -0.00000000       0.00000000       0.08333333 </v>
   <v name="shift">      0.50000000       0.50000000       0.50000000 </v>
  </generation>
  <varray name="kpointlist" >
   <v>       0.04166667       0.04166667       0.04166667 </v>
   <v>       0.12500000       0.04166667       0.04166667 </v>
   <v>       0.20833333       0.04166667       0.04166667 </v>
   <v>       0.29166667       0.04166667       0.04166667 </v>
   <v>       0.37500000       0.04166667       0.04166667 </v>
   <v>       0.45833333       0.04166667       0.04166667 </v>
   <v>      -0.45833333       0.04166667       0.04166667 </v>
   <v>      -0.37500000       0.04166667       0.04166667 </v>
   <v>      -0.29166667       0.04166667       0.04166667 </v>
   <v>      -0.20833333       0.04166667       0.04166667 </v>
   <v>      -0.12500000       0.04166667       0.04166667 </v>
   <v>      -0.04166667       0.04166667       0.04166667 </v>
   <v>       0.12500000       0.12500000       0.04166667 </v>
   <v>       0.20833333       0.12500000       0.04166667 </v>
   <v>       0.29166667       0.12500000       0.04166667 </v>
   <v>       0.37500000       0.12500000       0.04166667 </v>
   <v>       0.45833333       0.12500000       0.04166667 </v>
   <v>      -0.45833333       0.12500000       0.04166667 </v>
   <v>      -0.37500000       0.12500000       0.04166667 </v>
   <v>      -0.29166667       0.12500000       0.04166667 </v>
   <v>      -0.20833333       0.12500000       0.04166667 </v>
   <v>      -0.12500000       0.12500000       0.04166667 </v>
   <v>      -0.04166667       0.12500000       0.04166667 </v>
   <v>       0.20833333       0.20833333       0.04166667 </v>
   <v>       0.29166667       0.20833333       0.04166667 </v>
   <v>       0.37500000       0.20833333       0.04166667 </v>
   <v>       0.45833333       0.20833333       0.04166667 </v>
   <v>      -0.45833333       0.20833333       0.04166667 </v>
   <v>      -0.37500000       0.20833333       0.04166667 </v>
   <v>      -0.29166667       0.20833333       0.04166667 </v>
   <v>      -0.20833333       0.20833333       0.04166667 </v>
   <v>      -0.12500000       0.20833333       0.04166667 </v>
   <v>      -0.04166667       0.20833333       0.04166667 </v>
   <v>       0.29166667       0.29166667       0.04166667 </v>
   <v>       0.37500000       0.29166667       0.04166667 </v>
   <v>       0.45833333       0.29166667       0.04166667 </v>
   <v>      -0.45833333       0.29166667       0.04166667 </v>
   <v>      -0.37500000       0.29166667       0.04166667 </v>
   <v>      -0.29166667       0.29166667       0.04166667 </v>
   <v>      -0.20833333       0.29166667       0.04166667 </v>
   <v>      -0.12500000       0.29166667       0.04166667 </v>
   <v>      -0.04166667       0.29166667       0.04166667 </v>
   <v>       0.37500000       0.37500000       0.04166667 </v>
   <v>       0.45833333       0.37500000       0.04166667 </v>
   <v>      -0.45833333       0.37500000       0.04166667 </v>
   <v>      -0.37500000       0.37500000       0.04166667 </v>
   <v>      -0.29166667       0.37500000       0.04166667 </v>
   <v>      -0.20833333       0.37500000       0.04166667 </v>
   <v>      -0.12500000       0.37500000       0.04166667 </v>
   <v>      -0.04166667       0.37500000       0.04166667 </v>
   <v>       0.45833333       0.45833333       0.04166667 </v>
   <v>      -0.45833333       0.45833333       0.04166667 </v>
   <v>      -0.37500000       0.45833333       0.04166667 </v>
   <v>      -0.29166667       0.45833333       0.04166667 </v>
   <v>      -0.20833333       0.45833333       0.04166667 </v>
   <v>      -0.12500000       0.45833333       0.04166667 </v>
   <v>      -0.04166667       0.45833333       0.04166667 </v>
   <v>      -0.45833333      -0.45833333       0.04166667 </v>
   <v>      -0.37500000      -0.45833333       0.04166667 </v>
   <v>      -0.29166667      -0.45833333       0.04166667 </v>
   <v>      -0.20833333      -0.45833333       0.04166667 </v>
   <v>      -0.12500000      -0.45833333       0.04166667 </v>
   <v>      -0.37500000      -0.37500000       0.04166667 </v>
   <v>      -0.29166667      -0.37500000       0.04166667 </v>
   <v>      -0.20833333      -0.37500000       0.04166667 </v>
   <v>      -0.12500000      -0.37500000       0.04166667 </v>
   <v>      -0.29166667      -0.29166667       0.04166667 </v>
   <v>      -0.20833333      -0.29166667       0.04166667 </v>
   <v>      -0.12500000      -0.29166667       0.04166667 </v>
   <v>      -0.20833333      -0.20833333       0.04166667 </v>
   <v>      -0.12500000      -0.20833333       0.04166667 </v>
   <v>      -0.12500000      -0.12500000       0.04166667 </v>
   <v>       0.12500000       0.12500000       0.12500000 </v>
   <v>       0.20833333       0.12500000       0.12500000 </v>
   <v>       0.29166667       0.12500000       0.12500000 </v>
   <v>       0.37500000       0.12500000       0.12500000 </v>
   <v>       0.45833333       0.12500000       0.12500000 </v>
   <v>      -0.45833333       0.12500000       0.12500000 </v>
   <v>      -0.37500000       0.12500000       0.12500000 </v>
   <v>      -0.29166667       0.12500000       0.12500000 </v>
   <v>      -0.20833333       0.12500000       0.12500000 </v>
   <v>      -0.12500000       0.12500000       0.12500000 </v>
   <v>       0.20833333       0.20833333       0.12500000 </v>
   <v>       0.29166667       0.20833333       0.12500000 </v>
   <v>       0.37500000       0.20833333       0.12500000 </v>
   <v>       0.45833333       0.20833333       0.12500000 </v>
   <v>      -0.45833333       0.20833333       0.12500000 </v>
   <v>      -0.37500000       0.20833333       0.12500000 </v>
   <v>      -0.29166667       0.20833333       0.12500000 </v>
   <v>      -0.20833333       0.20833333       0.12500000 </v>
   <v>      -0.12500000       0.20833333       0.12500000 </v>
   <v>       0.29166667       0.29166667       0.12500000 </v>
   <v>       0.37500000       0.29166667       0.12500000 </v>
   <v>       0.45833333       0.29166667       0.12500000 </v>
   <v>      -0.45833333       0.29166667       0.12500000 </v>
   <v>      -0.37500000       0.29166667       0.12500000 </v>
   <v>      -0.29166667       0.29166667       0.12500000 </v>
   <v>      -0.20833333       0.29166667       0.12500000 </v>
   <v>      -0.12500000       0.29166667       0.12500000 </v>
   <v>       0.37500000       0.37500000       0.12500000 </v>
   <v>       0.45833333       0.37500000       0.12500000 </v>
   <v>      -0.45833333       0.37500000       0.12500000 </v>
   <v>      -0.37500000       0.37500000       0.12500000 </v>
   <v>      -0.29166667       0.37500000       0.12500000 </v>
   <v>      -0.20833333       0.37500000       0.12500000 </v>
   <v>      -0.12500000       0.37500000       0.12500000 </v>
   <v>       0.45833333       0.45833333       0.12500000 </v>
   <v>      -0.45833333       0.45833333       0.12500000 </v>
   <v>      -0.37500000       0.45833333       0.12500000 </v>
   <v>      -0.29166667       0.45833333       0.12500000 </v>
   <v>      -0.20833333       0.45833333       0.12500000 </v>
   <v>      -0.12500000       0.45833333       0.12500000 </v>
   <v>      -0.45833333      -0.45833333       0.12500000 </v>
   <v>      -0.37500000      -0.45833333       0.12500000 </v>
   <v>      -0.29166667      -0.45833333       0.12500000 </v>
   <v>      -0.20833333      -0.45833333       0.12500000 </v>
   <v>      -0.37500000      -0.37500000       0.12500000 </v>
   <v>      -0.29166667      -0.37500000       0.12500000 </v>
   <v>      -0.20833333      -0.37500000       0.12500000 </v>
   <v>      -0.29166667      -0.29166667       0.12500000 </v>
   <v>      -0.20833333      -0.29166667       0.12500000 </v>
   <v>      -0.20833333      -0.20833333       0.12500000 </v>
   <v>       0.20833333       0.20833333       0.20833333 </v>
   <v>       0.29166667       0.20833333       0.20833333 </v>
   <v>       0.37500000       0.20833333       0.20833333 </v>
   <v>       0.45833333       0.20833333       0.20833333 </v>
   <v>      -0.45833333       0.20833333       0.20833333 </v>
   <v>      -0.37500000       0.20833333       0.20833333 </v>
   <v>      -0.29166667       0.20833333       0.20833333 </v>
   <v>      -0.20833333       0.20833333       0.20833333 </v>
   <v>       0.29166667       0.29166667       0.20833333 </v>
   <v>       0.37500000       0.29166667       0.20833333 </v>
   <v>       0.45833333       0.29166667       0.20833333 </v>
   <v>      -0.45833333       0.29166667       0.20833333 </v>
   <v>      -0.37500000       0.29166667       0.20833333 </v>
   <v>      -0.29166667       0.29166667       0.20833333 </v>
   <v>      -0.20833333       0.29166667       0.20833333 </v>
   <v>       0.37500000       0.37500000       0.20833333 </v>
   <v>       0.45833333       0.37500000       0.20833333 </v>
   <v>      -0.45833333       0.37500000       0.20833333 </v>
   <v>      -0.37500000       0.37500000       0.20833333 </v>
   <v>      -0.29166667       0.37500000       0.20833333 </v>
   <v>      -0.20833333       0.37500000       0.20833333 </v>
   <v>       0.45833333       0.45833333       0.20833333 </v>
   <v>      -0.45833333       0.45833333       0.20833333 </v>
   <v>      -0.37500000       0.45833333       0.20833333 </v>
   <v>      -0.29166667       0.45833333       0.20833333 </v>
   <v>      -0.20833333       0.45833333       0.20833333 </v>
   <v>      -0.45833333      -0.45833333       0.20833333 </v>
   <v>      -0.37500000      -0.45833333       0.20833333 </v>
   <v>      -0.29166667      -0.45833333       0.20833333 </v>
   <v>      -0.37500000      -0.37500000       0.20833333 </v>
   <v>      -0.29166667      -0.37500000       0.20833333 </v>
   <v>      -0.29166667      -0.29166667       0.20833333 </v>
   <v>       0.29166667       0.29166667       0.29166667 </v>
   <v>       0.37500000       0.29166667       0.29166667 </v>
   <v>       0.45833333       0.29166667       0.29166667 </v>
   <v>      -0.45833333       0.29166667       0.29166667 </v>
   <v>      -0.37500000       0.29166667       0.29166667 </v>
   <v>      -0.29166667       0.29166667       0.29166667 </v>
   <v>       0.37500000       0.37500000       0.29166667 </v>
   <v>       0.45833333       0.37500000       0.29166667 </v>
   <v>      -0.45833333       0.37500000       0.29166667 </v>
   <v>      -0.37500000       0.37500000       0.29166667 </v>
   <v>      -0.29166667       0.37500000       0.29166667 </v>
   <v>       0.45833333       0.45833333       0.29166667 </v>
   <v>      -0.45833333       0.45833333       0.29166667 </v>
   <v>      -0.37500000       0.45833333       0.29166667 </v>
   <v>      -0.29166667       0.45833333       0.29166667 </v>
   <v>      -0.45833333      -0.45833333       0.29166667 </v>
   <v>      -0.37500000      -0.45833333       0.29166667 </v>
   <v>      -0.37500000      -0.37500000       0.29166667 </v>
   <v>       0.37500000       0.37500000       0.37500000 </v>
   <v>       0.45833333       0.37500000       0.37500000 </v>
   <v>      -0.45833333       0.37500000       0.37500000 </v>
   <v>      -0.37500000       0.37500000       0.37500000 </v>
   <v>       0.45833333       0.45833333       0.37500000 </v>
   <v>      -0.45833333       0.45833333       0.37500000 </v>
   <v>      -0.37500000       0.45833333       0.37500000 </v>
   <v>      -0.45833333      -0.45833333       0.37500000 </v>
   <v>       0.45833333       0.45833333       0.45833333 </v>
   <v>      -0.45833333       0.45833333       0.45833333 </v>
  </varray>
  <varray name="weights" >
   <v>       0.00115741 </v>
   <v>       0.00347222 </v>
   <v>       0.00347222 </v>
   <v>       0.00347222 </v>
   <v>       0.00347222 </v>
   <v>       0.00347222 </v>
   <v>       0.00347222 </v>
   <v>       0.00347222 </v>
   <v>       0.00347222 </v>
   <v>       0.00347222 </v>
   <v>       0.00347222 </v>
   <v>       0.00347222 </v>
   <v>       0.00347222 </v>
   <v>       0.00694444 </v>
   <v>       0.00694444 </v>
   <v>       0.00694444 </v>
   <v>       0.00694444 </v>
   <v>       0.00694444 </v>
   <v>       0.00694444 </v>
   <v>       0.00694444 </v>
   <v>       0.00694444 </v>
   <v>       0.00694444 </v>
   <v>       0.00694444 </v>
   <v>       0.00347222 </v>
   <v>       0.00694444 </v>
   <v>       0.00694444 </v>
   <v>       0.00694444 </v>
   <v>       0.00694444 </v>
   <v>       0.00694444 </v>
   <v>       0.00694444 </v>
   <v>       0.00694444 </v>
   <v>       0.00694444 </v>
   <v>       0.00694444 </v>
   <v>       0.00347222 </v>
   <v>       0.00694444 </v>
   <v>       0.00694444 </v>
   <v>       0.00694444 </v>
   <v>       0.00694444 </v>
   <v>       0.00694444 </v>
   <v>       0.00694444 </v>
   <v>       0.00694444 </v>
   <v>       0.00694444 </v>
   <v>       0.00347222 </v>
   <v>       0.00694444 </v>
   <v>       0.00694444 </v>
   <v>       0.00694444 </v>
   <v>       0.00694444 </v>
   <v>       0.00694444 </v>
   <v>       0.00694444 </v>
   <v>       0.00694444 </v>
   <v>       0.00347222 </v>
   <v>       0.00694444 </v>
   <v>       0.00694444 </v>
   <v>       0.00694444 </v>
   <v>       0.00694444 </v>
   <v>       0.00694444 </v>
   <v>       0.00694444 </v>
   <v>       0.00347222 </v>
   <v>       0.00694444 </v>
   <v>       0.00694444 </v>
   <v>       0.00694444 </v>
   <v>       0.00694444 </v>
   <v>       0.00347222 </v>
   <v>       0.00694444 </v>
   <v>       0.00694444 </v>
   <v>       0.00694444 </v>
   <v>       0.00347222 </v>
   <v>       0.00694444 </v>
   <v>       0.00694444 </v>
   <v>       0.00347222 </v>
   <v>       0.00694444 </v>
   <v>       0.00347222 </v>
   <v>       0.00115741 </v>
   <v>       0.00347222 </v>
   <v>       0.00347222 </v>
   <v>       0.00347222 </v>
   <v>       0.00347222 </v>
   <v>       0.00347222 </v>
   <v>       0.00347222 </v>
   <v>       0.00347222 </v>
   <v>       0.00347222 </v>
   <v>       0.00347222 </v>
   <v>       0.00347222 </v>
   <v>       0.00694444 </v>
   <v>       0.00694444 </v>
   <v>       0.00694444 </v>
   <v>       0.00694444 </v>
   <v>       0.00694444 </v>
   <v>       0.00694444 </v>
   <v>       0.00694444 </v>
   <v>       0.00694444 </v>
   <v>       0.00347222 </v>
   <v>       0.00694444 </v>
   <v>       0.00694444 </v>
   <v>       0.00694444 </v>
   <v>       0.00694444 </v>
   <v>       0.00694444 </v>
   <v>       0.00694444 </v>
   <v>       0.00694444 </v>
   <v>       0.00347222 </v>
   <v>       0.00694444 </v>
   <v>       0.00694444 </v>
   <v>       0.00694444 </v>
   <v>       0.00694444 </v>
   <v>       0.00694444 </v>
   <v>       0.00694444 </v>
   <v>       0.00347222 </v>
   <v>       0.00694444 </v>
   <v>       0.00694444 </v>
   <v>       0.00694444 </v>
   <v>       0.00694444 </v>
   <v>       0.00694444 </v>
   <v>       0.00347222 </v>
   <v>       0.00694444 </v>
   <v>       0.00694444 </v>
   <v>       0.00694444 </v>
   <v>       0.00347222 </v>
   <v>       0.00694444 </v>
   <v>       0.00694444 </v>
   <v>       0.00347222 </v>
   <v>       0.00694444 </v>
   <v>       0.00347222 </v>
   <v>       0.00115741 </v>
   <v>       0.00347222 </v>
   <v>       0.00347222 </v>
   <v>       0.00347222 </v>
   <v>       0.00347222 </v>
   <v>       0.00347222 </v>
   <v>       0.00347222 </v>
   <v>       0.00347222 </v>
   <v>       0.00347222 </v>
   <v>       0.00694444 </v>
   <v>       0.00694444 </v>
   <v>       0.00694444 </v>
   <v>       0.00694444 </v>
   <v>       0.00694444 </v>
   <v>       0.00694444 </v>
   <v>       0.00347222 </v>
   <v>       0.00694444 </v>
   <v>       0.00694444 </v>
   <v>       0.00694444 </v>
   <v>       0.00694444 </v>
   <v>       0.00694444 </v>
   <v>       0.00347222 </v>
   <v>       0.00694444 </v>
   <v>       0.00694444 </v>
   <v>       0.00694444 </v>
   <v>       0.00694444 </v>
   <v>       0.00347222 </v>
   <v>       0.00694444 </v>
   <v>       0.00694444 </v>
   <v>       0.00347222 </v>
   <v>       0.00694444 </v>
   <v>       0.00347222 </v>
   <v>       0.00115741 </v>
   <v>       0.00347222 </v>
   <v>       0.00347222 </v>
   <v>       0.00347222 </v>
   <v>       0.00347222 </v>
   <v>       0.00347222 </v>
   <v>       0.00347222 </v>
   <v>       0.00694444 </v>
   <v>       0.00694444 </v>
   <v>       0.00694444 </v>
   <v>       0.00694444 </v>
   <v>       0.00347222 </v>
   <v>       0.00694444 </v>
   <v>       0.00694444 </v>
   <v>       0.00694444 </v>
   <v>       0.00347222 </v>
   <v>       0.00694444 </v>
   <v>       0.00347222 </v>
   <v>       0.00115741 </v>
   <v>       0.00347222 </v>
   <v>       0.00347222 </v>
   <v>       0.00347222 </v>
   <v>       0.00347222 </v>
   <v>       0.00694444 </v>
   <v>       0.00694444 </v>
   <v>       0.00347222 </v>
   <v>       0.00115741 </v>
   <v>       0.00347222 </v>
  </varray>
 </kpoints>
 <parameters>
  <separator name="general" >
   <i type="string" name="SYSTEM">unknown system</i>
   <i type="logical" name="LCOMPAT"> F  </i>
  </separator>
  <separator name="electronic" >
   <i type="string" name="PREC">accura</i>
   <i name="ENMAX">    350.00000000</i>
   <i name="ENAUG">    322.06900000</i>
   <i name="EDIFF">      0.00000100</i>
   <i type="int" name="IALGO">    38</i>
   <i type="int" name="IWAVPR">    11</i>
   <i type="int" name="NBANDS">     8</i>
   <i type="int" name="NBANDSLOW">    -1</i>
   <i type="int" name="NBANDSHIGH">    -1</i>
   <i name="NELECT">      8.00000000</i>
   <i type="int" name="TURBO">     0</i>
   <i type="int" name="IRESTART">     0</i>
   <i type="int" name="NREBOOT">     0</i>
   <i type="int" name="NMIN">     0</i>
   <i name="EREF">      0.00000000</i>
   <separator name="electronic smearing" >
    <i type="int" name="ISMEAR">     0</i>
    <i name="SIGMA">      0.05000000</i>
    <i name="KSPACING">      0.50000000</i>
    <i type="logical" name="KGAMMA"> T  </i>
    <i type="logical" name="KBLOWUP"> T  </i>
   </separator>
   <separator name="electronic projectors" >
    <i type="logical" name="LREAL"> F  </i>
    <v name="ROPT">      0.00000000</v>
    <i type="int" name="LMAXPAW">  -100</i>
    <i type="int" name="LMAXMIX">     2</i>
    <i type="logical" name="NLSPLINE"> F  </i>
   </separator>
   <separator name="electronic startup" >
    <i type="int" name="ISTART">     0</i>
    <i type="int" name="ICHARG">     2</i>
    <i type="int" name="INIWAV">     1</i>
   </separator>
   <separator name="electronic spin" >
    <i type="int" name="ISPIN">     1</i>
    <i type="logical" name="LNONCOLLINEAR"> F  </i>
    <v name="MAGMOM">      1.00000000      1.00000000</v>
    <i name="NUPDOWN">     -1.00000000</i>
    <i type="logical" name="LSORBIT"> F  </i>
    <v name="SAXIS">      0.00000000      0.00000000      1.00000000</v>
    <i type="logical" name="LSPIRAL"> F  </i>
    <v name="QSPIRAL">      0.00000000      0.00000000      0.00000000</v>
    <i type="logical" name="LZEROZ"> F  </i>
   </separator>
   <separator name="electronic exchange-correlation" >
    <i type="logical" name="LASPH"> T  </i>
    <i type="logical" name="LMETAGGA"> F  </i>
   </separator>
   <separator name="electronic convergence" >
    <i type="int" name="NELM">    90</i>
    <i type="int" name="NELMDL">    -5</i>
    <i type="int" name="NELMIN">     6</i>
    <i name="ENINI">    350.00000000</i>
    <separator name="electronic convergence detail" >
     <i type="logical" name="LDIAG"> T  </i>
     <i type="logical" name="LSUBROT"> F  </i>
     <i name="WEIMIN">      0.00100000</i>
     <i name="EBREAK">      0.00000003</i>
     <i name="DEPER">      0.30000000</i>
     <i type="int" name="NRMM">     4</i>
     <i name="TIME">      0.40000000</i>
    </separator>
   </separator>
   <separator name="electronic mixer" >
    <i name="AMIX">      0.40000000</i>
    <i name="BMIX">      1.00000000</i>
    <i name="AMIN">      0.10000000</i>
    <i name="AMIX_MAG">      1.60000000</i>
    <i name="BMIX_MAG">      1.00000000</i>
    <separator name="electronic mixer details" >
     <i type="int" name="IMIX">     4</i>
     <i type="logical" name="MIXFIRST"> F  </i>
     <i type="int" name="MAXMIX">   -45</i>
     <i name="WC">    100.00000000</i>
     <i type="int" name="INIMIX">     1</i>
     <i type="int" name="MIXPRE">     1</i>
     <i type="int" name="MREMOVE">     5</i>
    </separator>
   </separator>
   <separator name="electronic dipolcorrection" >
    <i type="logical" name="LDIPOL"> F  </i>
    <i type="logical" name="LMONO"> F  </i>
    <i type="int" name="IDIPOL">     0</i>
    <i name="EPSILON">      1.00000000</i>
    <v name="DIPOL">   -100.00000000   -100.00000000   -100.00000000</v>
    <i name="EFIELD">      0.00000000</i>
   </separator>
  </separator>
  <separator name="grids" >
   <i type="int" name="NGX">    24</i>
   <i type="int" name="NGY">    24</i>
   <i type="int" name="NGZ">    24</i>
   <i type="int" name="NGXF">    48</i>
   <i type="int" name="NGYF">    48</i>
   <i type="int" name="NGZF">    48</i>
   <i type="logical" name="ADDGRID"> T  </i>
  </separator>
  <separator name="ionic" >
   <i type="int" name="NSW">   100</i>
   <i type="int" name="IBRION">     2</i>
   <i type="int" name="MDALGO">     0</i>
   <i type="int" name="ISIF">     2</i>
   <i name="PSTRESS">      0.00000000</i>
   <i name="EDIFFG">     -0.00200000</i>
   <i type="int" name="NFREE">     1</i>
   <i name="POTIM">      0.50000000</i>
   <i name="SMASS">     -3.00000000</i>
   <i name="SCALEE">      1.00000000</i>
  </separator>
  <separator name="ionic md" >
   <i name="TEBEG">      0.00010000</i>
   <i name="TEEND">      0.00010000</i>
   <i type="int" name="NBLOCK">     1</i>
   <i type="int" name="KBLOCK">   100</i>
   <i type="int" name="NPACO">   256</i>
   <i name="APACO">     16.00000000</i>
  </separator>
  <separator name="symmetry" >
   <i type="int" name="ISYM">     2</i>
   <i name="SYMPREC">      0.00001000</i>
  </separator>
  <separator name="dos" >
   <i type="int" name="LORBIT">     0</i>
   <v name="RWIGS">     -1.00000000</v>
   <i type="int" name="NEDOS">   301</i>
   <i name="EMIN">     10.00000000</i>
   <i name="EMAX">    -10.00000000</i>
   <i name="EFERMI">      0.00000000</i>
  </separator>
  <separator name="writing" >
   <i type="int" name="NWRITE">     2</i>
   <i type="logical" name="LWAVE"> F  </i>
   <i type="logical" name="LDOWNSAMPLE"> F  </i>
   <i type="logical" name="LCHARG"> F  </i>
   <i type="logical" name="LPARD"> F  </i>
   <i type="logical" name="LVTOT"> F  </i>
   <i type="logical" name="LVHAR"> F  </i>
   <i type="logical" name="LELF"> F  </i>
   <i type="logical" name="LOPTICS"> F  </i>
   <v name="STM">      0.00000000      0.00000000      0.00000000      0.00000000      0.00000000      0.00000000      0.00000000</v>
  </separator>
  <separator name="performance" >
   <i type="int" name="NPAR">     4</i>
   <i type="int" name="NSIM">     4</i>
   <i type="int" name="NBLK">    -1</i>
   <i type="logical" name="LPLANE"> T  </i>
   <i type="logical" name="LSCALAPACK"> T  </i>
   <i type="logical" name="LSCAAWARE"> F  </i>
   <i type="logical" name="LSCALU"> F  </i>
   <i type="logical" name="LASYNC"> F  </i>
   <i type="logical" name="LORBITALREAL"> F  </i>
  </separator>
  <separator name="miscellaneous" >
   <i type="int" name="IDIOT">     3</i>
   <i type="int" name="PHON_NSTRUCT">    -1</i>
   <i type="logical" name="LMUSIC"> F  </i>
   <v name="POMASS">     28.08500000</v>
   <v name="DARWINR">      0.00000000</v>
   <v name="DARWINV">      1.00000000</v>
   <i type="logical" name="LCORR"> T  </i>
  </separator>
  <i type="logical" name="GGA_COMPAT"> T  </i>
  <i type="logical" name="LBERRY"> F  </i>
  <i type="int" name="ICORELEVEL">     0</i>
  <i type="logical" name="LDAU"> F  </i>
  <i type="int" name="I_CONSTRAINED_M">     0</i>
  <separator name="electronic exchange-correlation" >
   <i type="string" name="GGA">--</i>
   <i type="int" name="VOSKOWN">     0</i>
   <i type="logical" name="LHFCALC"> F  </i>
   <i type="string" name="PRECFOCK"></i>
   <i type="logical" name="LSYMGRAD"> F  </i>
   <i type="logical" name="LHFONE"> F  </i>
   <i type="logical" name="LRHFCALC"> F  </i>
   <i type="logical" name="LTHOMAS"> F  </i>
   <i type="logical" name="LMODELHF"> F  </i>
   <i type="logical" name="LFOCKACE"> F  </i>
   <i name="ENCUT4O">     -1.00000000</i>
   <i type="int" name="EXXOEP">     0</i>
   <i type="int" name="FOURORBIT">     0</i>
   <i name="AEXX">      0.00000000</i>
   <i name="HFALPHA">      0.00000000</i>
   <i name="MCALPHA">      0.00000000</i>
   <i name="ALDAX">      1.00000000</i>
   <i name="AGGAX">      1.00000000</i>
   <i name="ALDAC">      1.00000000</i>
   <i name="AGGAC">      1.00000000</i>
   <i type="int" name="NKREDX">     1</i>
   <i type="int" name="NKREDY">     1</i>
   <i type="int" name="NKREDZ">     1</i>
   <i type="logical" name="SHIFTRED"> F  </i>
   <i type="logical" name="ODDONLY"> F  </i>
   <i type="logical" name="EVENONLY"> F  </i>
   <i type="int" name="LMAXFOCK">     0</i>
   <i type="int" name="NMAXFOCKAE">     0</i>
   <i type="logical" name="LFOCKAEDFT"> F  </i>
   <i name="HFSCREEN">      0.00000000</i>
   <i name="HFSCREENC">      0.00000000</i>
   <i type="int" name="NBANDSGWLOW">     0</i>
  </separator>
  <separator name="vdW DFT" >
   <i type="logical" name="LUSE_VDW"> F  </i>
   <i name="Zab_VDW">     -0.84910000</i>
   <i name="PARAM1">      0.12340000</i>
   <i name="PARAM2">      1.00000000</i>
   <i name="PARAM3">      0.00000000</i>
  </separator>
  <separator name="model GW" >
   <i type="int" name="MODEL_GW">     0</i>
   <i name="MODEL_EPS0">     13.00838087</i>
   <i name="MODEL_ALPHA">      1.00000000</i>
  </separator>
  <separator name="linear response parameters" >
   <i type="logical" name="LEPSILON"> F  </i>
   <i type="logical" name="LRPA"> F  </i>
   <i type="logical" name="LNABLA"> F  </i>
   <i type="logical" name="LVEL"> F  </i>
   <i type="int" name="KINTER">     0</i>
   <i name="CSHIFT">      0.10000000</i>
   <i name="OMEGAMAX">     -1.00000000</i>
   <i name="DEG_THRESHOLD">      0.00200000</i>
   <i name="RTIME">     -0.10000000</i>
   <i name="WPLASMAI">      0.00000000</i>
   <v name="DFIELD">      0.00000000      0.00000000      0.00000000</v>
   <v name="WPLASMA">      0.00000000      0.00000000      0.00000000      0.00000000      0.00000000      0.00000000      0.00000000      0.00000000      0.00000000</v>
  </separator>
  <separator name="orbital magnetization" >
   <i type="logical" name="NUCIND"> F  </i>
   <v name="MAGPOS">      0.00000000      0.00000000      0.00000000</v>
   <i type="logical" name="LNICSALL"> T  </i>
   <i type="logical" name="ORBITALMAG"> F  </i>
   <i type="logical" name="LMAGBLOCH"> F  </i>
   <i type="logical" name="LCHIMAG"> F  </i>
   <i type="logical" name="LGAUGE"> T  </i>
   <i type="int" name="MAGATOM">     0</i>
   <v name="MAGDIPOL">      0.00000000      0.00000000      0.00000000</v>
   <v name="AVECCONST">      0.00000000      0.00000000      0.00000000</v>
  </separator>
  <separator name="response functions" >
   <i type="logical" name="LFINITE_TEMPERATURE"> F  </i>
   <i type="logical" name="LADDER"> F  </i>
   <i type="logical" name="LRPAFORCE"> F  </i>
   <i type="logical" name="LFXC"> F  </i>
   <i type="logical" name="LHARTREE"> T  </i>
   <i type="int" name="IBSE">     0</i>
   <v type="int" name="KPOINT">    -1     0     0     0</v>
   <i type="logical" name="LTCTC"> F  </i>
   <i type="logical" name="LTCTE"> F  </i>
   <i type="logical" name="LTETE"> F  </i>
   <i type="logical" name="LTRIPLET"> F  </i>
   <i type="logical" name="LFXCEPS"> F  </i>
   <i type="logical" name="LFXHEG"> F  </i>
   <i type="int" name="NATURALO">     2</i>
   <i type="logical" name="LHOLEGF"> F  </i>
   <i type="logical" name="L2ORDER"> F  </i>
   <i type="logical" name="LDMP1"> F  </i>
   <i type="logical" name="LMP2LT"> F  </i>
   <i type="logical" name="LSMP2LT"> F  </i>
   <i type="logical" name="LGWLF"> F  </i>
   <i name="ENCUTGW">     -2.00000000</i>
   <i name="ENCUTGWSOFT">     -2.00000000</i>
   <i name="ENCUTLF">     -1.00000000</i>
   <i type="logical" name="LESF_SPLINES"> F  </i>
   <i type="int" name="LMAXMP2">    -1</i>
   <i name="SCISSOR">      0.00000000</i>
   <i type="int" name="NOMEGA">     0</i>
   <i type="int" name="NOMEGAR">     0</i>
   <i type="int" name="NBANDSGW">    -1</i>
   <i type="int" name="NBANDSO">    -1</i>
   <i type="int" name="NBANDSV">    -1</i>
   <i type="int" name="NELM">    90</i>
   <i type="int" name="NELMHF">     1</i>
   <i type="int" name="DIM">     3</i>
   <i type="int" name="IESPILON">     4</i>
   <i type="int" name="ANTIRES">     0</i>
   <i name="OMEGAMAX">    -30.00000000</i>
   <i name="OMEGAMIN">    -30.00000000</i>
   <i name="OMEGATL">   -200.00000000</i>
   <i type="int" name="OMEGAGRID">     0</i>
   <i name="CSHIFT">     -0.10000000</i>
   <i type="logical" name="LSELFENERGY"> F  </i>
   <i type="logical" name="LSPECTRAL"> F  </i>
   <i type="logical" name="LSPECTRALGW"> F  </i>
   <i type="logical" name="LSINGLES"> F  </i>
   <i type="logical" name="LFERMIGW"> F  </i>
   <i type="logical" name="ODDONLYGW"> F  </i>
   <i type="logical" name="EVENONLYGW"> F  </i>
   <i type="int" name="NKREDLFX">     1</i>
   <i type="int" name="NKREDLFY">     1</i>
   <i type="int" name="NKREDLFZ">     1</i>
   <i type="int" name="MAXMEM">  2800</i>
   <i type="int" name="TELESCOPE">     0</i>
   <i type="int" name="NTAUPAR">    -1</i>
   <i type="int" name="NOMEGAPAR">    -1</i>
   <i name="DAMP_NEWTON">      0.80000001</i>
   <i name="LAMBDA">      1.00000000</i>
  </separator>
  <separator name="External order field" >
   <i name="OFIELD_KAPPA">      0.00000000</i>
   <v name="OFIELD_K">      0.00000000      0.00000000      0.00000000</v>
   <i name="OFIELD_Q6_NEAR">      0.00000000</i>
   <i name="OFIELD_Q6_FAR">      0.00000000</i>
   <i name="OFIELD_A">      0.00000000</i>
  </separator>
 </parameters>
 <atominfo>
  <atoms>       2 </atoms>
  <types>       1 </types>
  <array name="atoms" >
   <dimension dim="1">ion</dimension>
   <field type="string">element</field>
   <field type="int">atomtype</field>
   <set>
    <rc><c>Si</c><c>   1</c></rc>
    <rc><c>Si</c><c>   1</c></rc>
   </set>
  </array>
  <array name="atomtypes" >
   <dimension dim="1">type</dimension>
   <field type="int">atomspertype</field>
   <field type="string">element</field>
   <field>mass</field>
   <field>valence</field>
   <field type="string">pseudopotential</field>
   <set>
    <rc><c>   2</c><c>Si</c><c>     28.08500000</c><c>      4.00000000</c><c>  PAW_PBE Si 05Jan2001                  </c></rc>
   </set>
  </array>
 </atominfo>
 <structure name="initialpos" >
  <crystal>
   <varray name="basis" >
    <v>       3.41509606       0.00000000       1.97170635 </v>
    <v>       1.13836535       3.21978472       1.97170635 </v>
    <v>       0.00000000       0.00000000       3.94341270 </v>
   </varray>
   <i name="volume">     43.36126957 </i>
   <varray name="rec_basis" >
    <v>       0.29281753      -0.10352659       0.00000000 </v>
    <v>       0.00000000       0.31057977       0.00000000 </v>
    <v>      -0.14640877      -0.10352659       0.25358746 </v>
   </varray>
  </crystal>
  <varray name="positions" >
   <v>       0.87500000       0.87500000       0.87500000 </v>
   <v>       0.12500000       0.12500000       0.12500000 </v>
  </varray>
 </structure>
 <calculation>
  <scstep>
   <time name="dav">    1.47    1.47</time>
   <time name="total">    1.68    1.69</time>
   <energy>
    <i name="alphaZ">      3.10536395 </i>
    <i name="ewald">   -222.54581301 </i>
    <i name="hartreedc">    -12.23516772 </i>
    <i name="XCdc">    -18.90892768 </i>
    <i name="pawpsdc">    176.24759923 </i>
    <i name="pawaedc">   -141.06103558 </i>
    <i name="eentropy">     -0.00074049 </i>
    <i name="bandstr">     11.02309807 </i>
    <i name="atom">    206.13125414 </i>
    <i name="e_fr_energy">      1.75563090 </i>
    <i name="e_wo_entrp">      1.75637140 </i>
    <i name="e_0_energy">      1.75600115 </i>
   </energy>
  </scstep>
  <scstep>
   <time name="dav">    2.12    2.14</time>
   <time name="total">    2.13    2.14</time>
   <energy>
    <i name="e_fr_energy">    -10.78557248 </i>
    <i name="e_wo_entrp">    -10.78557248 </i>
    <i name="e_0_energy">    -10.78557248 </i>
   </energy>
  </scstep>
  <scstep>
   <time name="dav">    1.87    1.89</time>
   <time name="total">    1.87    1.89</time>
   <energy>
    <i name="e_fr_energy">    -10.94739003 </i>
    <i name="e_wo_entrp">    -10.94739003 </i>
    <i name="e_0_energy">    -10.94739003 </i>
   </energy>
  </scstep>
  <scstep>
   <time name="dav">    2.14    2.16</time>
   <time name="total">    2.14    2.16</time>
   <energy>
    <i name="e_fr_energy">    -10.94796568 </i>
    <i name="e_wo_entrp">    -10.94796568 </i>
    <i name="e_0_energy">    -10.94796568 </i>
   </energy>
  </scstep>
  <scstep>
   <time name="dav">    1.93    1.95</time>
   <time name="total">    2.05    2.07</time>
   <energy>
    <i name="e_fr_energy">    -10.94796636 </i>
    <i name="e_wo_entrp">    -10.94796636 </i>
    <i name="e_0_energy">    -10.94796636 </i>
   </energy>
  </scstep>
  <scstep>
   <time name="dav">    1.70    1.70</time>
   <time name="total">    2.02    2.04</time>
   <energy>
    <i name="e_fr_energy">    -10.85462964 </i>
    <i name="e_wo_entrp">    -10.85462964 </i>
    <i name="e_0_energy">    -10.85462964 </i>
   </energy>
  </scstep>
  <scstep>
   <time name="dav">    1.81    1.81</time>
   <time name="total">    2.13    2.15</time>
   <energy>
    <i name="e_fr_energy">    -10.80927479 </i>
    <i name="e_wo_entrp">    -10.80927479 </i>
    <i name="e_0_energy">    -10.80927479 </i>
   </energy>
  </scstep>
  <scstep>
   <time name="dav">    1.61    1.61</time>
   <time name="total">    1.93    1.95</time>
   <energy>
    <i name="e_fr_energy">    -10.81043263 </i>
    <i name="e_wo_entrp">    -10.81043263 </i>
    <i name="e_0_energy">    -10.81043263 </i>
   </energy>
  </scstep>
  <scstep>
   <time name="dav">    2.02    2.02</time>
   <time name="total">    2.35    2.36</time>
   <energy>
    <i name="e_fr_energy">    -10.81065347 </i>
    <i name="e_wo_entrp">    -10.81065347 </i>
    <i name="e_0_energy">    -10.81065347 </i>
   </energy>
  </scstep>
  <scstep>
   <time name="dav">    1.69    1.69</time>
   <time name="total">    2.01    2.03</time>
   <energy>
    <i name="e_fr_energy">    -10.81067552 </i>
    <i name="e_wo_entrp">    -10.81067552 </i>
    <i name="e_0_energy">    -10.81067552 </i>
   </energy>
  </scstep>
  <scstep>
   <time name="dav">    2.03    2.03</time>
   <time name="total">    2.23    2.25</time>
   <energy>
    <i name="alphaZ">      3.10536395 </i>
    <i name="ewald">   -222.54581301 </i>
    <i name="hartreedc">    -15.88011907 </i>
    <i name="XCdc">    -18.32259945 </i>
    <i name="pawpsdc">    736.99194735 </i>
    <i name="pawaedc">   -701.96401705 </i>
    <i name="eentropy">     -0.00000000 </i>
    <i name="bandstr">      1.67330773 </i>
    <i name="atom">    206.13125414 </i>
    <i name="e_fr_energy">    -10.81067541 </i>
    <i name="e_wo_entrp">    -10.81067541 </i>
    <i name="e_0_energy">    -10.81067541 </i>
   </energy>
  </scstep>
  <structure>
   <crystal>
    <varray name="basis" >
     <v>       3.41509606       0.00000000       1.97170635 </v>
     <v>       1.13836535       3.21978472       1.97170635 </v>
     <v>       0.00000000       0.00000000       3.94341270 </v>
    </varray>
    <i name="volume">     43.36126957 </i>
    <varray name="rec_basis" >
     <v>       0.29281753      -0.10352659       0.00000000 </v>
     <v>       0.00000000       0.31057977       0.00000000 </v>
     <v>      -0.14640877      -0.10352659       0.25358746 </v>
    </varray>
   </crystal>
   <varray name="positions" >
    <v>       0.87500000       0.87500000       0.87500000 </v>
    <v>       0.12500000       0.12500000       0.12500000 </v>
   </varray>
  </structure>
  <varray name="forces" >
   <v>      -0.00000000      -0.00000000      -0.00000000 </v>
   <v>       0.00000000       0.00000000       0.00000000 </v>
  </varray>
  <varray name="stress" >
   <v>     -46.28976580      -0.00000000      -0.00000000 </v>
   <v>       0.00000000     -46.28980249       0.00000000 </v>
   <v>      -0.00000000      -0.00000000     -46.28975275 </v>
  </varray>
  <energy>
   <i name="e_fr_energy">    -10.81067541 </i>
   <i name="e_wo_entrp">    -10.81067541 </i>
   <i name="e_0_energy">    -10.81067541 </i>
  </energy>
  <time name="totalsc">   24.82   25.18</time>
  <eigenvalues>
   <array>
    <dimension dim="1">band</dimension>
    <dimension dim="2">kpoint</dimension>
    <dimension dim="3">spin</dimension>
    <field>eigene</field>
    <field>occ</field>
    <set>
     <set comment="spin 1">
      <set comment="kpoint 1">
       <r>   -6.3589    1.0000 </r>
       <r>    4.7827    1.0000 </r>
       <r>    5.0136    1.0000 </r>
       <r>    5.0136    1.0000 </r>
       <r>    7.5256    0.0000 </r>
       <r>    7.6316    0.0000 </r>
       <r>    7.6316    0.0000 </r>
       <r>    7.8119    0.0000 </r>
      </set>
      <set comment="kpoint 2">
       <r>   -6.2458    1.0000 </r>
       <r>    3.8931    1.0000 </r>
       <r>    4.6286    1.0000 </r>
       <r>    4.9615    1.0000 </r>
       <r>    7.5187    0.0000 </r>
       <r>    7.7431    0.0000 </r>
       <r>    7.8838    0.0000 </r>
       <r>    8.7631    0.0000 </r>
      </set>
      <set comment="kpoint 3">
       <r>   -5.9671    1.0000 </r>
       <r>    2.4552    1.0000 </r>
       <r>    4.2797    1.0000 </r>
       <r>    4.7095    1.0000 </r>
       <r>    7.2177    0.0000 </r>
       <r>    8.1115    0.0000 </r>
       <r>    8.3771    0.0000 </r>
       <r>   10.1156    0.0000 </r>
      </set>
      <set comment="kpoint 4">
       <r>   -5.5360    1.0000 </r>
       <r>    1.0245    1.0000 </r>
       <r>    3.9971    1.0000 </r>
       <r>    4.4119    1.0000 </r>
       <r>    6.9062    0.0000 </r>
       <r>    8.4079    0.0000 </r>
       <r>    8.6434    0.0000 </r>
       <r>   11.3600    0.0000 </r>
      </set>
      <set comment="kpoint 5">
       <r>   -4.9885    1.0000 </r>
       <r>   -0.2536    1.0000 </r>
       <r>    3.8103    1.0000 </r>
       <r>    4.1544    1.0000 </r>
       <r>    6.6625    0.0000 </r>
       <r>    8.4812    0.0000 </r>
       <r>    8.6084    0.0000 </r>
       <r>   12.3846    0.0000 </r>
      </set>
      <set comment="kpoint 6">
       <r>   -4.4396    1.0000 </r>
       <r>   -1.2286    1.0000 </r>
       <r>    3.7291    1.0000 </r>
       <r>    3.9717    1.0000 </r>
       <r>    6.5174    0.0000 </r>
       <r>    8.4669    0.0000 </r>
       <r>    8.4710    0.0000 </r>
       <r>   12.7438    0.0000 </r>
      </set>
      <set comment="kpoint 7">
       <r>   -4.2341    1.0000 </r>
       <r>   -1.5415    1.0000 </r>
       <r>    3.7527    1.0000 </r>
       <r>    3.8794    1.0000 </r>
       <r>    6.4823    0.0000 </r>
       <r>    8.3813    0.0000 </r>
       <r>    8.5015    0.0000 </r>
       <r>   12.7333    0.0000 </r>
      </set>
      <set comment="kpoint 8">
       <r>   -4.6078    1.0000 </r>
       <r>   -0.9535    1.0000 </r>
       <r>    3.8756    1.0000 </r>
       <r>    3.8858    1.0000 </r>
       <r>    6.5590    0.0000 </r>
       <r>    8.3767    0.0000 </r>
       <r>    8.6146    0.0000 </r>
       <r>   12.6050    0.0000 </r>
      </set>
      <set comment="kpoint 9">
       <r>   -5.1795    1.0000 </r>
       <r>    0.1481    1.0000 </r>
       <r>    3.9954    1.0000 </r>
       <r>    4.0881    1.0000 </r>
       <r>    6.7421    0.0000 </r>
       <r>    8.3900    0.0000 </r>
       <r>    8.7362    0.0000 </r>
       <r>   11.7963    0.0000 </r>
      </set>
      <set comment="kpoint 10">
       <r>   -5.6951    1.0000 </r>
       <r>    1.4901    1.0000 </r>
       <r>    4.2051    1.0000 </r>
       <r>    4.3716    1.0000 </r>
       <r>    7.0143    0.0000 </r>
       <r>    8.2480    0.0000 </r>
       <r>    8.6923    0.0000 </r>
       <r>   10.8702    0.0000 </r>
      </set>
      <set comment="kpoint 11">
       <r>   -6.0778    1.0000 </r>
       <r>    2.9495    1.0000 </r>
       <r>    4.4958    1.0000 </r>
       <r>    4.6790    1.0000 </r>
       <r>    7.3288    0.0000 </r>
       <r>    7.8854    0.0000 </r>
       <r>    8.3584    0.0000 </r>
       <r>    9.6337    0.0000 </r>
      </set>
      <set comment="kpoint 12">
       <r>   -6.3022    1.0000 </r>
       <r>    4.3489    1.0000 </r>
       <r>    4.8097    1.0000 </r>
       <r>    4.8931    1.0000 </r>
       <r>    7.4953    0.0000 </r>
       <r>    7.6818    0.0000 </r>
       <r>    7.9035    0.0000 </r>
       <r>    8.2705    0.0000 </r>
      </set>
      <set comment="kpoint 13">
       <r>   -6.1891    1.0000 </r>
       <r>    3.7838    1.0000 </r>
       <r>    4.4921    1.0000 </r>
       <r>    4.5689    1.0000 </r>
       <r>    7.2779    0.0000 </r>
       <r>    8.0746    0.0000 </r>
       <r>    8.3560    0.0000 </r>
       <r>    8.8186    0.0000 </r>
      </set>
      <set comment="kpoint 14">
       <r>   -5.9651    1.0000 </r>
       <r>    2.7814    1.0000 </r>
       <r>    3.9441    1.0000 </r>
       <r>    4.4299    1.0000 </r>
       <r>    7.2858    0.0000 </r>
       <r>    8.1860    0.0000 </r>
       <r>    8.8266    0.0000 </r>
       <r>    9.6467    0.0000 </r>
      </set>
      <set comment="kpoint 15">
       <r>   -5.5831    1.0000 </r>
       <r>    1.4495    1.0000 </r>
       <r>    3.5723    1.0000 </r>
       <r>    4.1575    1.0000 </r>
       <r>    7.4082    0.0000 </r>
       <r>    8.2080    0.0000 </r>
       <r>    9.2069    0.0000 </r>
       <r>   10.0695    0.0000 </r>
      </set>
      <set comment="kpoint 16">
       <r>   -5.0681    1.0000 </r>
       <r>    0.1596    1.0000 </r>
       <r>    3.3138    1.0000 </r>
       <r>    3.8781    1.0000 </r>
       <r>    7.2849    0.0000 </r>
       <r>    8.3294    0.0000 </r>
       <r>    9.2427    0.0000 </r>
       <r>   10.6514    0.0000 </r>
      </set>
      <set comment="kpoint 17">
       <r>   -4.4959    1.0000 </r>
       <r>   -0.9190    1.0000 </r>
       <r>    3.1331    1.0000 </r>
       <r>    3.7034    1.0000 </r>
       <r>    7.1460    0.0000 </r>
       <r>    8.3151    0.0000 </r>
       <r>    9.1024    0.0000 </r>
       <r>   11.7043    0.0000 </r>
      </set>
      <set comment="kpoint 18">
       <r>   -4.1203    1.0000 </r>
       <r>   -1.5004    1.0000 </r>
       <r>    3.0144    1.0000 </r>
       <r>    3.6813    1.0000 </r>
       <r>    7.0911    0.0000 </r>
       <r>    8.3023    0.0000 </r>
       <r>    8.9776    0.0000 </r>
       <r>   12.7978    0.0000 </r>
      </set>
      <set comment="kpoint 19">
       <r>   -4.3284    1.0000 </r>
       <r>   -1.1879    1.0000 </r>
       <r>    2.9744    1.0000 </r>
       <r>    3.8046    1.0000 </r>
       <r>    7.1383    0.0000 </r>
       <r>    8.3519    0.0000 </r>
       <r>    8.9513    0.0000 </r>
       <r>   12.4906    0.0000 </r>
      </set>
      <set comment="kpoint 20">
       <r>   -4.8787    1.0000 </r>
       <r>   -0.2285    1.0000 </r>
       <r>    3.0415    1.0000 </r>
       <r>    4.0402    1.0000 </r>
       <r>    7.2832    0.0000 </r>
       <r>    8.4070    0.0000 </r>
       <r>    9.0101    0.0000 </r>
       <r>   11.3837    0.0000 </r>
      </set>
      <set comment="kpoint 21">
       <r>   -5.4256    1.0000 </r>
       <r>    1.0046    1.0000 </r>
       <r>    3.2412    1.0000 </r>
       <r>    4.3438    1.0000 </r>
       <r>    7.5025    0.0000 </r>
       <r>    8.2895    0.0000 </r>
       <r>    9.0021    0.0000 </r>
       <r>   10.5561    0.0000 </r>
      </set>
      <set comment="kpoint 22">
       <r>   -5.8556    1.0000 </r>
       <r>    2.3096    1.0000 </r>
       <r>    3.6180    1.0000 </r>
       <r>    4.6392    1.0000 </r>
       <r>    7.6948    0.0000 </r>
       <r>    7.9512    0.0000 </r>
       <r>    8.6620    0.0000 </r>
       <r>   10.0692    0.0000 </r>
      </set>
      <set comment="kpoint 23">
       <r>   -6.1333    1.0000 </r>
       <r>    3.3533    1.0000 </r>
       <r>    4.3069    1.0000 </r>
       <r>    4.7856    1.0000 </r>
       <r>    7.5199    0.0000 </r>
       <r>    7.7936    0.0000 </r>
       <r>    8.2755    0.0000 </r>
       <r>    9.3106    0.0000 </r>
      </set>
      <set comment="kpoint 24">
       <r>   -5.7959    1.0000 </r>
       <r>    2.4884    1.0000 </r>
       <r>    3.7884    1.0000 </r>
       <r>    3.7926    1.0000 </r>
       <r>    6.7225    0.0000 </r>
       <r>    8.8088    0.0000 </r>
       <r>    9.5231    0.0000 </r>
       <r>    9.5290    0.0000 </r>
      </set>
      <set comment="kpoint 25">
       <r>   -5.4654    1.0000 </r>
       <r>    1.5798    1.0000 </r>
       <r>    3.2427    1.0000 </r>
       <r>    3.6186    1.0000 </r>
       <r>    6.7544    0.0000 </r>
       <r>    8.5836    0.0000 </r>
       <r>    9.7142    0.0000 </r>
       <r>   10.0986    0.0000 </r>
      </set>
      <set comment="kpoint 26">
       <r>   -4.9910    1.0000 </r>
       <r>    0.4630    1.0000 </r>
       <r>    2.7997    1.0000 </r>
       <r>    3.3763    1.0000 </r>
       <r>    6.9992    0.0000 </r>
       <r>    8.8027    0.0000 </r>
       <r>    9.5265    0.0000 </r>
       <r>   10.3190    0.0000 </r>
      </set>
      <set comment="kpoint 27">
       <r>   -4.4223    1.0000 </r>
       <r>   -0.6010    1.0000 </r>
       <r>    2.4187    1.0000 </r>
       <r>    3.2504    1.0000 </r>
       <r>    7.0628    0.0000 </r>
       <r>    9.1961    0.0000 </r>
       <r>    9.8193    0.0000 </r>
       <r>   10.2304    0.0000 </r>
      </set>
      <set comment="kpoint 28">
       <r>   -3.9304    1.0000 </r>
       <r>   -1.3521    1.0000 </r>
       <r>    2.1266    1.0000 </r>
       <r>    3.2826    1.0000 </r>
       <r>    7.1209    0.0000 </r>
       <r>    9.0313    0.0000 </r>
       <r>   10.0313    0.0000 </r>
       <r>   11.1654    0.0000 </r>
      </set>
      <set comment="kpoint 29">
       <r>   -3.9409    1.0000 </r>
       <r>   -1.3342    1.0000 </r>
       <r>    1.9633    1.0000 </r>
       <r>    3.4566    1.0000 </r>
       <r>    7.2815    0.0000 </r>
       <r>    8.9247    0.0000 </r>
       <r>    9.8981    0.0000 </r>
       <r>   12.4561    0.0000 </r>
      </set>
      <set comment="kpoint 30">
       <r>   -4.4394    1.0000 </r>
       <r>   -0.5712    1.0000 </r>
       <r>    1.9697    1.0000 </r>
       <r>    3.7428    1.0000 </r>
       <r>    7.5406    0.0000 </r>
       <r>    8.8663    0.0000 </r>
       <r>    9.7993    0.0000 </r>
       <r>   11.1557    0.0000 </r>
      </set>
      <set comment="kpoint 31">
       <r>   -5.0055    1.0000 </r>
       <r>    0.4400    1.0000 </r>
       <r>    2.2236    1.0000 </r>
       <r>    4.0916    1.0000 </r>
       <r>    7.8301    0.0000 </r>
       <r>    8.6408    0.0000 </r>
       <r>    9.6249    0.0000 </r>
       <r>   10.2634    0.0000 </r>
      </set>
      <set comment="kpoint 32">
       <r>   -5.4757    1.0000 </r>
       <r>    1.3276    1.0000 </r>
       <r>    2.8965    1.0000 </r>
       <r>    4.4062    1.0000 </r>
       <r>    7.8753    0.0000 </r>
       <r>    8.1984    0.0000 </r>
       <r>    9.1048    0.0000 </r>
       <r>   10.1888    0.0000 </r>
      </set>
      <set comment="kpoint 33">
       <r>   -5.8019    1.0000 </r>
       <r>    1.9496    1.0000 </r>
       <r>    3.9402    1.0000 </r>
       <r>    4.5229    1.0000 </r>
       <r>    7.3472    0.0000 </r>
       <r>    8.0717    0.0000 </r>
       <r>    8.7283    0.0000 </r>
       <r>   10.3655    0.0000 </r>
      </set>
      <set comment="kpoint 34">
       <r>   -5.1860    1.0000 </r>
       <r>    1.1146    1.0000 </r>
       <r>    3.1254    1.0000 </r>
       <r>    3.1750    1.0000 </r>
       <r>    6.2252    0.0000 </r>
       <r>    7.9436    0.0000 </r>
       <r>   10.7619    0.0000 </r>
       <r>   10.8474    0.0000 </r>
      </set>
      <set comment="kpoint 35">
       <r>   -4.7566    1.0000 </r>
       <r>    0.3177    1.0000 </r>
       <r>    2.6702    1.0000 </r>
       <r>    2.9614    1.0000 </r>
       <r>    6.3356    0.0000 </r>
       <r>    7.6582    0.0000 </r>
       <r>   10.8918    0.0000 </r>
       <r>   11.4888    0.0000 </r>
      </set>
      <set comment="kpoint 36">
       <r>   -4.2093    1.0000 </r>
       <r>   -0.5542    1.0000 </r>
       <r>    2.0833    1.0000 </r>
       <r>    2.8411    1.0000 </r>
       <r>    6.5745    0.0000 </r>
       <r>    8.1449    0.0000 </r>
       <r>   10.6805    0.0000 </r>
       <r>   11.5830    0.0000 </r>
      </set>
      <set comment="kpoint 37">
       <r>   -3.6532    1.0000 </r>
       <r>   -1.3069    1.0000 </r>
       <r>    1.5738    1.0000 </r>
       <r>    2.8765    1.0000 </r>
       <r>    6.6852    0.0000 </r>
       <r>    9.3360    0.0000 </r>
       <r>   10.4330    0.0000 </r>
       <r>   11.4216    0.0000 </r>
      </set>
      <set comment="kpoint 38">
       <r>   -3.4735    1.0000 </r>
       <r>   -1.5206    1.0000 </r>
       <r>    1.2632    1.0000 </r>
       <r>    3.0555    1.0000 </r>
       <r>    6.8799    0.0000 </r>
       <r>   10.1891    0.0000 </r>
       <r>   10.8864    0.0000 </r>
       <r>   11.2156    0.0000 </r>
      </set>
      <set comment="kpoint 39">
       <r>   -3.8973    1.0000 </r>
       <r>   -0.9992    1.0000 </r>
       <r>    1.2401    1.0000 </r>
       <r>    3.3544    1.0000 </r>
       <r>    7.1967    0.0000 </r>
       <r>    9.9474    0.0000 </r>
       <r>   10.8873    0.0000 </r>
       <r>   11.2006    0.0000 </r>
      </set>
      <set comment="kpoint 40">
       <r>   -4.4665    1.0000 </r>
       <r>   -0.3387    1.0000 </r>
       <r>    1.6541    1.0000 </r>
       <r>    3.7272    1.0000 </r>
       <r>    7.5655    0.0000 </r>
       <r>    9.2344    0.0000 </r>
       <r>   10.2238    0.0000 </r>
       <r>   10.6004    0.0000 </r>
      </set>
      <set comment="kpoint 41">
       <r>   -4.9626    1.0000 </r>
       <r>    0.1558    1.0000 </r>
       <r>    2.5621    1.0000 </r>
       <r>    4.0758    1.0000 </r>
       <r>    7.6441    0.0000 </r>
       <r>    8.5025    0.0000 </r>
       <r>    9.3151    0.0000 </r>
       <r>   10.7456    0.0000 </r>
      </set>
      <set comment="kpoint 42">
       <r>   -5.3262    1.0000 </r>
       <r>    0.5785    1.0000 </r>
       <r>    3.6800    1.0000 </r>
       <r>    4.2232    1.0000 </r>
       <r>    7.0760    0.0000 </r>
       <r>    8.3290    0.0000 </r>
       <r>    8.8776    0.0000 </r>
       <r>   11.1251    0.0000 </r>
      </set>
      <set comment="kpoint 43">
       <r>   -4.3716    1.0000 </r>
       <r>   -0.2606    1.0000 </r>
       <r>    2.6469    1.0000 </r>
       <r>    2.7277    1.0000 </r>
       <r>    5.9109    0.0000 </r>
       <r>    6.9779    0.0000 </r>
       <r>   12.1936    0.0000 </r>
       <r>   12.2443    0.0000 </r>
      </set>
      <set comment="kpoint 44">
       <r>   -3.8558    1.0000 </r>
       <r>   -0.9642    1.0000 </r>
       <r>    2.2817    1.0000 </r>
       <r>    2.5445    1.0000 </r>
       <r>    6.1142    0.0000 </r>
       <r>    6.8752    0.0000 </r>
       <r>   12.2436    0.0000 </r>
       <r>   12.9391    0.0000 </r>
      </set>
      <set comment="kpoint 45">
       <r>   -3.2750    1.0000 </r>
       <r>   -1.6241    1.0000 </r>
       <r>    1.6373    1.0000 </r>
       <r>    2.5584    1.0000 </r>
       <r>    6.3093    0.0000 </r>
       <r>    7.7163    0.0000 </r>
       <r>   12.0098    0.0000 </r>
       <r>   12.9386    0.0000 </r>
      </set>
      <set comment="kpoint 46">
       <r>   -2.9697    1.0000 </r>
       <r>   -1.9193    1.0000 </r>
       <r>    1.1426    1.0000 </r>
       <r>    2.7200    1.0000 </r>
       <r>    6.4997    0.0000 </r>
       <r>    9.1278    0.0000 </r>
       <r>   11.7052    0.0000 </r>
       <r>   12.4371    0.0000 </r>
      </set>
      <set comment="kpoint 47">
       <r>   -3.3654    1.0000 </r>
       <r>   -1.5316    1.0000 </r>
       <r>    1.0457    1.0000 </r>
       <r>    3.0098    1.0000 </r>
       <r>    6.8231    0.0000 </r>
       <r>   10.6440    0.0000 </r>
       <r>   10.9405    0.0000 </r>
       <r>   11.6240    0.0000 </r>
      </set>
      <set comment="kpoint 48">
       <r>   -3.9086    1.0000 </r>
       <r>   -1.1466    1.0000 </r>
       <r>    1.5159    1.0000 </r>
       <r>    3.3890    1.0000 </r>
       <r>    7.2322    0.0000 </r>
       <r>    9.4556    0.0000 </r>
       <r>   10.4447    0.0000 </r>
       <r>   11.7533    0.0000 </r>
      </set>
      <set comment="kpoint 49">
       <r>   -4.3900    1.0000 </r>
       <r>   -0.8881    1.0000 </r>
       <r>    2.4482    1.0000 </r>
       <r>    3.7706    1.0000 </r>
       <r>    7.4254    0.0000 </r>
       <r>    8.5137    0.0000 </r>
       <r>    9.3427    0.0000 </r>
       <r>   11.8338    0.0000 </r>
      </set>
      <set comment="kpoint 50">
       <r>   -4.7580    1.0000 </r>
       <r>   -0.6121    1.0000 </r>
       <r>    3.5232    1.0000 </r>
       <r>    3.9782    1.0000 </r>
       <r>    6.8694    0.0000 </r>
       <r>    8.3666    0.0000 </r>
       <r>    8.7807    0.0000 </r>
       <r>   12.0698    0.0000 </r>
      </set>
      <set comment="kpoint 51">
       <r>   -3.3714    1.0000 </r>
       <r>   -1.5848    1.0000 </r>
       <r>    2.3769    1.0000 </r>
       <r>    2.4731    1.0000 </r>
       <r>    5.8388    0.0000 </r>
       <r>    6.2971    0.0000 </r>
       <r>   13.6532    0.0000 </r>
       <r>   13.6586    0.0000 </r>
      </set>
      <set comment="kpoint 52">
       <r>   -2.7904    1.0000 </r>
       <r>   -2.2018    1.0000 </r>
       <r>    2.1098    1.0000 </r>
       <r>    2.3685    1.0000 </r>
       <r>    6.0921    0.0000 </r>
       <r>    6.4538    0.0000 </r>
       <r>   13.6168    0.0000 </r>
       <r>   14.0600    0.0000 </r>
      </set>
      <set comment="kpoint 53">
       <r>   -2.7934    1.0000 </r>
       <r>   -2.1350    1.0000 </r>
       <r>    1.5465    1.0000 </r>
       <r>    2.5027    1.0000 </r>
       <r>    6.2538    0.0000 </r>
       <r>    7.6306    0.0000 </r>
       <r>   12.6730    0.0000 </r>
       <r>   13.2918    0.0000 </r>
      </set>
      <set comment="kpoint 54">
       <r>   -3.2674    1.0000 </r>
       <r>   -1.6484    1.0000 </r>
       <r>    1.2909    1.0000 </r>
       <r>    2.7721    1.0000 </r>
       <r>    6.5627    0.0000 </r>
       <r>    9.1970    0.0000 </r>
       <r>   11.0806    0.0000 </r>
       <r>   12.0653    0.0000 </r>
      </set>
      <set comment="kpoint 55">
       <r>   -3.6723    1.0000 </r>
       <r>   -1.4683    1.0000 </r>
       <r>    1.6455    1.0000 </r>
       <r>    3.1464    1.0000 </r>
       <r>    6.9863    0.0000 </r>
       <r>    9.5989    0.0000 </r>
       <r>   10.6086    0.0000 </r>
       <r>   10.9919    0.0000 </r>
      </set>
      <set comment="kpoint 56">
       <r>   -4.0085    1.0000 </r>
       <r>   -1.4684    1.0000 </r>
       <r>    2.4873    1.0000 </r>
       <r>    3.5546    1.0000 </r>
       <r>    7.2763    0.0000 </r>
       <r>    8.4946    0.0000 </r>
       <r>    9.3947    0.0000 </r>
       <r>   12.7581    0.0000 </r>
      </set>
      <set comment="kpoint 57">
       <r>   -4.2702    1.0000 </r>
       <r>   -1.4171    1.0000 </r>
       <r>    3.4563    1.0000 </r>
       <r>    3.8383    1.0000 </r>
       <r>    6.7609    0.0000 </r>
       <r>    8.3415    0.0000 </r>
       <r>    8.6666    0.0000 </r>
       <r>   12.7814    0.0000 </r>
      </set>
      <set comment="kpoint 58">
       <r>   -2.8098    1.0000 </r>
       <r>   -2.2122    1.0000 </r>
       <r>    2.3226    1.0000 </r>
       <r>    2.4218    1.0000 </r>
       <r>    5.8958    0.0000 </r>
       <r>    6.0878    0.0000 </r>
       <r>   14.2508    0.0000 </r>
       <r>   14.2785    0.0000 </r>
      </set>
      <set comment="kpoint 59">
       <r>   -3.3412    1.0000 </r>
       <r>   -1.5929    1.0000 </r>
       <r>    2.1674    1.0000 </r>
       <r>    2.4270    1.0000 </r>
       <r>    6.0845    0.0000 </r>
       <r>    6.6098    0.0000 </r>
       <r>   12.9394    0.0000 </r>
       <r>   13.6418    0.0000 </r>
      </set>
      <set comment="kpoint 60">
       <r>   -3.7574    1.0000 </r>
       <r>   -1.0857    1.0000 </r>
       <r>    1.8179    1.0000 </r>
       <r>    2.6706    1.0000 </r>
       <r>    6.4177    0.0000 </r>
       <r>    7.8881    0.0000 </r>
       <r>   11.3368    0.0000 </r>
       <r>   12.2637    0.0000 </r>
      </set>
      <set comment="kpoint 61">
       <r>   -4.0473    1.0000 </r>
       <r>   -0.9564    1.0000 </r>
       <r>    1.9634    1.0000 </r>
       <r>    3.0347    1.0000 </r>
       <r>    6.8583    0.0000 </r>
       <r>    9.5445    0.0000 </r>
       <r>    9.8033    0.0000 </r>
       <r>   10.7935    0.0000 </r>
      </set>
      <set comment="kpoint 62">
       <r>   -4.2139    1.0000 </r>
       <r>   -1.1677    1.0000 </r>
       <r>    2.6448    1.0000 </r>
       <r>    3.4662    1.0000 </r>
       <r>    7.2226    0.0000 </r>
       <r>    8.5539    0.0000 </r>
       <r>    9.5231    0.0000 </r>
       <r>   11.4027    0.0000 </r>
      </set>
      <set comment="kpoint 63">
       <r>   -3.8932    1.0000 </r>
       <r>   -0.9322    1.0000 </r>
       <r>    2.4852    1.0000 </r>
       <r>    2.5754    1.0000 </r>
       <r>    5.8423    0.0000 </r>
       <r>    6.5971    0.0000 </r>
       <r>   12.9278    0.0000 </r>
       <r>   12.9567    0.0000 </r>
      </set>
      <set comment="kpoint 64">
       <r>   -4.3288    1.0000 </r>
       <r>   -0.3246    1.0000 </r>
       <r>    2.4504    1.0000 </r>
       <r>    2.7223    1.0000 </r>
       <r>    6.1976    0.0000 </r>
       <r>    7.2288    0.0000 </r>
       <r>   11.5585    0.0000 </r>
       <r>   12.2106    0.0000 </r>
      </set>
      <set comment="kpoint 65">
       <r>   -4.6222    1.0000 </r>
       <r>   -0.0382    1.0000 </r>
       <r>    2.4195    1.0000 </r>
       <r>    3.0741    1.0000 </r>
       <r>    6.7722    0.0000 </r>
       <r>    8.4762    0.0000 </r>
       <r>   10.0514    0.0000 </r>
       <r>   10.9309    0.0000 </r>
      </set>
      <set comment="kpoint 66">
       <r>   -4.7652    1.0000 </r>
       <r>   -0.2319    1.0000 </r>
       <r>    2.8869    1.0000 </r>
       <r>    3.5319    1.0000 </r>
       <r>    7.2497    0.0000 </r>
       <r>    8.6601    0.0000 </r>
       <r>    9.6747    0.0000 </r>
       <r>   10.2258    0.0000 </r>
      </set>
      <set comment="kpoint 67">
       <r>   -4.8034    1.0000 </r>
       <r>    0.4237    1.0000 </r>
       <r>    2.8609    1.0000 </r>
       <r>    2.9284    1.0000 </r>
       <r>    6.0405    0.0000 </r>
       <r>    7.4324    0.0000 </r>
       <r>   11.4687    0.0000 </r>
       <r>   11.5392    0.0000 </r>
      </set>
      <set comment="kpoint 68">
       <r>   -5.1362    1.0000 </r>
       <r>    0.9546    1.0000 </r>
       <r>    2.9362    1.0000 </r>
       <r>    3.2616    1.0000 </r>
       <r>    6.5238    0.0000 </r>
       <r>    8.1394    0.0000 </r>
       <r>   10.2559    0.0000 </r>
       <r>   10.7829    0.0000 </r>
      </set>
      <set comment="kpoint 69">
       <r>   -5.3121    1.0000 </r>
       <r>    0.9559    1.0000 </r>
       <r>    3.1906    1.0000 </r>
       <r>    3.7478    1.0000 </r>
       <r>    7.2331    0.0000 </r>
       <r>    8.6325    0.0000 </r>
       <r>    9.5804    0.0000 </r>
       <r>    9.7694    0.0000 </r>
      </set>
      <set comment="kpoint 70">
       <r>   -5.5174    1.0000 </r>
       <r>    1.8053    1.0000 </r>
       <r>    3.4378    1.0000 </r>
       <r>    3.4638    1.0000 </r>
       <r>    6.4565    0.0000 </r>
       <r>    8.4617    0.0000 </r>
       <r>   10.0906    0.0000 </r>
       <r>   10.1727    0.0000 </r>
      </set>
      <set comment="kpoint 71">
       <r>   -5.7421    1.0000 </r>
       <r>    2.1894    1.0000 </r>
       <r>    3.5825    1.0000 </r>
       <r>    4.0185    1.0000 </r>
       <r>    7.0151    0.0000 </r>
       <r>    8.6095    0.0000 </r>
       <r>    9.4416    0.0000 </r>
       <r>    9.5757    0.0000 </r>
      </set>
      <set comment="kpoint 72">
       <r>   -6.0201    1.0000 </r>
       <r>    3.1535    1.0000 </r>
       <r>    4.1380    1.0000 </r>
       <r>    4.1788    1.0000 </r>
       <r>    7.0055    0.0000 </r>
       <r>    8.5685    0.0000 </r>
       <r>    8.9100    0.0000 </r>
       <r>    9.2421    0.0000 </r>
      </set>
      <set comment="kpoint 73">
       <r>   -6.1897    1.0000 </r>
       <r>    3.4645    1.0000 </r>
       <r>    4.7829    1.0000 </r>
       <r>    4.7830    1.0000 </r>
       <r>    7.2893    0.0000 </r>
       <r>    7.9717    0.0000 </r>
       <r>    7.9717    0.0000 </r>
       <r>    9.1189    0.0000 </r>
      </set>
      <set comment="kpoint 74">
       <r>   -6.0219    1.0000 </r>
       <r>    2.8404    1.0000 </r>
       <r>    3.9822    1.0000 </r>
       <r>    4.8426    1.0000 </r>
       <r>    7.6217    0.0000 </r>
       <r>    7.9666    0.0000 </r>
       <r>    8.1878    0.0000 </r>
       <r>    9.8223    0.0000 </r>
      </set>
      <set comment="kpoint 75">
       <r>   -5.6920    1.0000 </r>
       <r>    1.8184    1.0000 </r>
       <r>    3.2540    1.0000 </r>
       <r>    4.6400    1.0000 </r>
       <r>    7.7462    0.0000 </r>
       <r>    8.3027    0.0000 </r>
       <r>    8.5486    0.0000 </r>
       <r>   10.3737    0.0000 </r>
      </set>
      <set comment="kpoint 76">
       <r>   -5.2179    1.0000 </r>
       <r>    0.5700    1.0000 </r>
       <r>    2.8968    1.0000 </r>
       <r>    4.3189    1.0000 </r>
       <r>    7.5112    0.0000 </r>
       <r>    8.6580    0.0000 </r>
       <r>    8.8241    0.0000 </r>
       <r>   11.0065    0.0000 </r>
      </set>
      <set comment="kpoint 77">
       <r>   -4.6502    1.0000 </r>
       <r>   -0.5809    1.0000 </r>
       <r>    2.7482    1.0000 </r>
       <r>    4.0012    1.0000 </r>
       <r>    7.2910    0.0000 </r>
       <r>    8.7074    0.0000 </r>
       <r>    8.8366    0.0000 </r>
       <r>   12.0649    0.0000 </r>
      </set>
      <set comment="kpoint 78">
       <r>   -4.1591    1.0000 </r>
       <r>   -1.3771    1.0000 </r>
       <r>    2.7533    1.0000 </r>
       <r>    3.7491    1.0000 </r>
       <r>    7.1468    0.0000 </r>
       <r>    8.5458    0.0000 </r>
       <r>    8.9530    0.0000 </r>
       <r>   12.9877    0.0000 </r>
      </set>
      <set comment="kpoint 79">
       <r>   -4.1561    1.0000 </r>
       <r>   -1.3826    1.0000 </r>
       <r>    2.8909    1.0000 </r>
       <r>    3.5942    1.0000 </r>
       <r>    7.1008    0.0000 </r>
       <r>    8.4747    0.0000 </r>
       <r>    9.1169    0.0000 </r>
       <r>   12.1677    0.0000 </r>
      </set>
      <set comment="kpoint 80">
       <r>   -4.6452    1.0000 </r>
       <r>   -0.5916    1.0000 </r>
       <r>    3.1433    1.0000 </r>
       <r>    3.5536    1.0000 </r>
       <r>    7.1525    0.0000 </r>
       <r>    8.4924    0.0000 </r>
       <r>    9.3278    0.0000 </r>
       <r>   10.9240    0.0000 </r>
      </set>
      <set comment="kpoint 81">
       <r>   -5.2136    1.0000 </r>
       <r>    0.5667    1.0000 </r>
       <r>    3.4858    1.0000 </r>
       <r>    3.6349    1.0000 </r>
       <r>    7.2423    0.0000 </r>
       <r>    8.4894    0.0000 </r>
       <r>    9.4772    0.0000 </r>
       <r>   10.0357    0.0000 </r>
      </set>
      <set comment="kpoint 82">
       <r>   -5.6890    1.0000 </r>
       <r>    1.8750    1.0000 </r>
       <r>    3.8357    1.0000 </r>
       <r>    3.8680    1.0000 </r>
       <r>    7.1764    0.0000 </r>
       <r>    8.4222    0.0000 </r>
       <r>    9.3598    0.0000 </r>
       <r>    9.7327    0.0000 </r>
      </set>
      <set comment="kpoint 83">
       <r>   -5.9106    1.0000 </r>
       <r>    2.4155    1.0000 </r>
       <r>    4.1666    1.0000 </r>
       <r>    4.3263    1.0000 </r>
       <r>    7.3756    0.0000 </r>
       <r>    7.9876    0.0000 </r>
       <r>    8.8345    0.0000 </r>
       <r>    9.9297    0.0000 </r>
      </set>
      <set comment="kpoint 84">
       <r>   -5.6351    1.0000 </r>
       <r>    1.7738    1.0000 </r>
       <r>    3.2576    1.0000 </r>
       <r>    4.2680    1.0000 </r>
       <r>    7.5020    0.0000 </r>
       <r>    8.2722    0.0000 </r>
       <r>    9.2932    0.0000 </r>
       <r>    9.8086    0.0000 </r>
      </set>
      <set comment="kpoint 85">
       <r>   -5.2080    1.0000 </r>
       <r>    0.8415    1.0000 </r>
       <r>    2.5679    1.0000 </r>
       <r>    4.0173    1.0000 </r>
       <r>    7.8734    0.0000 </r>
       <r>    8.2942    0.0000 </r>
       <r>    9.6652    0.0000 </r>
       <r>    9.8540    0.0000 </r>
      </set>
      <set comment="kpoint 86">
       <r>   -4.6631    1.0000 </r>
       <r>   -0.2365    1.0000 </r>
       <r>    2.2489    1.0000 </r>
       <r>    3.6939    1.0000 </r>
       <r>    7.8548    0.0000 </r>
       <r>    8.3388    0.0000 </r>
       <r>    9.9171    0.0000 </r>
       <r>   10.3980    0.0000 </r>
      </set>
      <set comment="kpoint 87">
       <r>   -4.1095    1.0000 </r>
       <r>   -1.1440    1.0000 </r>
       <r>    2.1455    1.0000 </r>
       <r>    3.4328    1.0000 </r>
       <r>    7.6874    0.0000 </r>
       <r>    8.3078    0.0000 </r>
       <r>    9.9947    0.0000 </r>
       <r>   11.5370    0.0000 </r>
      </set>
      <set comment="kpoint 88">
       <r>   -3.8952    1.0000 </r>
       <r>   -1.4527    1.0000 </r>
       <r>    2.1781    1.0000 </r>
       <r>    3.3057    1.0000 </r>
       <r>    7.5485    0.0000 </r>
       <r>    8.3677    0.0000 </r>
       <r>   10.0272    0.0000 </r>
       <r>   12.0503    0.0000 </r>
      </set>
      <set comment="kpoint 89">
       <r>   -4.2751    1.0000 </r>
       <r>   -0.8920    1.0000 </r>
       <r>    2.3086    1.0000 </r>
       <r>    3.3495    1.0000 </r>
       <r>    7.4854    0.0000 </r>
       <r>    8.5399    0.0000 </r>
       <r>   10.0779    0.0000 </r>
       <r>   10.6744    0.0000 </r>
      </set>
      <set comment="kpoint 90">
       <r>   -4.8485    1.0000 </r>
       <r>    0.1155    1.0000 </r>
       <r>    2.5372    1.0000 </r>
       <r>    3.5539    1.0000 </r>
       <r>    7.4567    0.0000 </r>
       <r>    8.7164    0.0000 </r>
       <r>    9.5643    0.0000 </r>
       <r>   10.2068    0.0000 </r>
      </set>
      <set comment="kpoint 91">
       <r>   -5.3618    1.0000 </r>
       <r>    1.2333    1.0000 </r>
       <r>    2.9229    1.0000 </r>
       <r>    3.8367    1.0000 </r>
       <r>    7.2598    0.0000 </r>
       <r>    8.6306    0.0000 </r>
       <r>    9.4220    0.0000 </r>
       <r>    9.9812    0.0000 </r>
      </set>
      <set comment="kpoint 92">
       <r>   -5.4141    1.0000 </r>
       <r>    1.3268    1.0000 </r>
       <r>    3.3963    1.0000 </r>
       <r>    3.5247    1.0000 </r>
       <r>    6.9242    0.0000 </r>
       <r>    8.6966    0.0000 </r>
       <r>    9.5771    0.0000 </r>
       <r>    9.9133    0.0000 </r>
      </set>
      <set comment="kpoint 93">
       <r>   -5.0374    1.0000 </r>
       <r>    0.6846    1.0000 </r>
       <r>    2.6256    1.0000 </r>
       <r>    3.4101    1.0000 </r>
       <r>    7.0361    0.0000 </r>
       <r>    8.4988    0.0000 </r>
       <r>    9.5753    0.0000 </r>
       <r>   10.6947    0.0000 </r>
      </set>
      <set comment="kpoint 94">
       <r>   -4.5278    1.0000 </r>
       <r>   -0.1295    1.0000 </r>
       <r>    2.0427    1.0000 </r>
       <r>    3.1178    1.0000 </r>
       <r>    7.5014    0.0000 </r>
       <r>    8.6611    0.0000 </r>
       <r>    9.2760    0.0000 </r>
       <r>   11.3497    0.0000 </r>
      </set>
      <set comment="kpoint 95">
       <r>   -3.9532    1.0000 </r>
       <r>   -0.9736    1.0000 </r>
       <r>    1.7070    1.0000 </r>
       <r>    2.8697    1.0000 </r>
       <r>    7.7018    0.0000 </r>
       <r>    8.9340    0.0000 </r>
       <r>    9.6493    0.0000 </r>
       <r>   11.5045    0.0000 </r>
      </set>
      <set comment="kpoint 96">
       <r>   -3.5649    1.0000 </r>
       <r>   -1.4845    1.0000 </r>
       <r>    1.5392    1.0000 </r>
       <r>    2.8015    1.0000 </r>
       <r>    7.8594    0.0000 </r>
       <r>    8.6579    0.0000 </r>
       <r>   11.0605    0.0000 </r>
       <r>   11.4775    0.0000 </r>
      </set>
      <set comment="kpoint 97">
       <r>   -3.7923    1.0000 </r>
       <r>   -1.1895    1.0000 </r>
       <r>    1.5234    1.0000 </r>
       <r>    2.9359    1.0000 </r>
       <r>    8.1092    0.0000 </r>
       <r>    8.4783    0.0000 </r>
       <r>   10.5040    0.0000 </r>
       <r>   11.4624    0.0000 </r>
      </set>
      <set comment="kpoint 98">
       <r>   -4.3510    1.0000 </r>
       <r>   -0.4146    1.0000 </r>
       <r>    1.7275    1.0000 </r>
       <r>    3.2262    1.0000 </r>
       <r>    8.2404    0.0000 </r>
       <r>    8.4694    0.0000 </r>
       <r>    9.3954    0.0000 </r>
       <r>   11.2516    0.0000 </r>
      </set>
      <set comment="kpoint 99">
       <r>   -4.8911    1.0000 </r>
       <r>    0.3577    1.0000 </r>
       <r>    2.2808    1.0000 </r>
       <r>    3.5664    1.0000 </r>
       <r>    7.6814    0.0000 </r>
       <r>    8.6663    0.0000 </r>
       <r>    9.2271    0.0000 </r>
       <r>   10.5760    0.0000 </r>
      </set>
      <set comment="kpoint 100">
       <r>   -4.7114    1.0000 </r>
       <r>    0.1880    1.0000 </r>
       <r>    2.5797    1.0000 </r>
       <r>    3.0063    1.0000 </r>
       <r>    6.4672    0.0000 </r>
       <r>    7.9576    0.0000 </r>
       <r>   10.7131    0.0000 </r>
       <r>   11.0801    0.0000 </r>
      </set>
      <set comment="kpoint 101">
       <r>   -4.2447    1.0000 </r>
       <r>   -0.4492    1.0000 </r>
       <r>    2.1673    1.0000 </r>
       <r>    2.7030    1.0000 </r>
       <r>    6.7025    0.0000 </r>
       <r>    7.6923    0.0000 </r>
       <r>   10.6937    0.0000 </r>
       <r>   12.1801    0.0000 </r>
      </set>
      <set comment="kpoint 102">
       <r>   -3.6781    1.0000 </r>
       <r>   -1.1340    1.0000 </r>
       <r>    1.7305    1.0000 </r>
       <r>    2.3806    1.0000 </r>
       <r>    7.2518    0.0000 </r>
       <r>    8.0333    0.0000 </r>
       <r>   10.3744    0.0000 </r>
       <r>   12.9011    0.0000 </r>
      </set>
      <set comment="kpoint 103">
       <r>   -3.1721    1.0000 </r>
       <r>   -1.6883    1.0000 </r>
       <r>    1.3214    1.0000 </r>
       <r>    2.3322    1.0000 </r>
       <r>    7.4536    0.0000 </r>
       <r>    9.2766    0.0000 </r>
       <r>   10.0802    0.0000 </r>
       <r>   12.1436    0.0000 </r>
      </set>
      <set comment="kpoint 104">
       <r>   -3.2469    1.0000 </r>
       <r>   -1.6022    1.0000 </r>
       <r>    1.1318    1.0000 </r>
       <r>    2.5173    1.0000 </r>
       <r>    7.7164    0.0000 </r>
       <r>    9.7394    0.0000 </r>
       <r>   10.5743    0.0000 </r>
       <r>   10.9790    0.0000 </r>
      </set>
      <set comment="kpoint 105">
       <r>   -3.7803    1.0000 </r>
       <r>   -1.0717    1.0000 </r>
       <r>    1.3220    1.0000 </r>
       <r>    2.8618    1.0000 </r>
       <r>    8.0849    0.0000 </r>
       <r>    8.9485    0.0000 </r>
       <r>    9.9010    0.0000 </r>
       <r>   12.0154    0.0000 </r>
      </set>
      <set comment="kpoint 106">
       <r>   -4.3242    1.0000 </r>
       <r>   -0.6105    1.0000 </r>
       <r>    1.9628    1.0000 </r>
       <r>    3.2677    1.0000 </r>
       <r>    7.8566    0.0000 </r>
       <r>    8.5056    0.0000 </r>
       <r>    9.9073    0.0000 </r>
       <r>   10.7731    0.0000 </r>
      </set>
      <set comment="kpoint 107">
       <r>   -3.8221    1.0000 </r>
       <r>   -1.0050    1.0000 </r>
       <r>    2.0434    1.0000 </r>
       <r>    2.6620    1.0000 </r>
       <r>    6.1590    0.0000 </r>
       <r>    7.2782    0.0000 </r>
       <r>   12.1765    0.0000 </r>
       <r>   12.3234    0.0000 </r>
      </set>
      <set comment="kpoint 108">
       <r>   -3.2835    1.0000 </r>
       <r>   -1.6131    1.0000 </r>
       <r>    1.9100    1.0000 </r>
       <r>    2.2885    1.0000 </r>
       <r>    6.5521    0.0000 </r>
       <r>    7.1474    0.0000 </r>
       <r>   11.9946    0.0000 </r>
       <r>   13.5656    0.0000 </r>
      </set>
      <set comment="kpoint 109">
       <r>   -2.7124    1.0000 </r>
       <r>   -2.1637    1.0000 </r>
       <r>    1.6308    1.0000 </r>
       <r>    2.0070    1.0000 </r>
       <r>    7.1589    0.0000 </r>
       <r>    7.7297    0.0000 </r>
       <r>   11.6761    0.0000 </r>
       <r>   12.3858    0.0000 </r>
      </set>
      <set comment="kpoint 110">
       <r>   -2.8553    1.0000 </r>
       <r>   -1.9832    1.0000 </r>
       <r>    1.2300    1.0000 </r>
       <r>    2.2247    1.0000 </r>
       <r>    7.4001    0.0000 </r>
       <r>    9.2120    0.0000 </r>
       <r>   10.7066    0.0000 </r>
       <r>   11.4461    0.0000 </r>
      </set>
      <set comment="kpoint 111">
       <r>   -3.3603    1.0000 </r>
       <r>   -1.5674    1.0000 </r>
       <r>    1.2835    1.0000 </r>
       <r>    2.6107    1.0000 </r>
       <r>    7.7670    0.0000 </r>
       <r>    9.1862    0.0000 </r>
       <r>   10.9380    0.0000 </r>
       <r>   11.3189    0.0000 </r>
      </set>
      <set comment="kpoint 112">
       <r>   -3.8259    1.0000 </r>
       <r>   -1.3438    1.0000 </r>
       <r>    1.8392    1.0000 </r>
       <r>    3.0861    1.0000 </r>
       <r>    7.9213    0.0000 </r>
       <r>    8.2719    0.0000 </r>
       <r>   10.6938    0.0000 </r>
       <r>   11.3087    0.0000 </r>
      </set>
      <set comment="kpoint 113">
       <r>   -2.7893    1.0000 </r>
       <r>   -2.1796    1.0000 </r>
       <r>    1.8154    1.0000 </r>
       <r>    2.5116    1.0000 </r>
       <r>    6.0276    0.0000 </r>
       <r>    6.9718    0.0000 </r>
       <r>   13.5042    0.0000 </r>
       <r>   13.6459    0.0000 </r>
      </set>
      <set comment="kpoint 114">
       <r>   -2.7554    1.0000 </r>
       <r>   -2.1838    1.0000 </r>
       <r>    1.8588    1.0000 </r>
       <r>    2.2044    1.0000 </r>
       <r>    6.5338    0.0000 </r>
       <r>    7.0246    0.0000 </r>
       <r>   12.6803    0.0000 </r>
       <r>   13.3583    0.0000 </r>
      </set>
      <set comment="kpoint 115">
       <r>   -3.2035    1.0000 </r>
       <r>   -1.6512    1.0000 </r>
       <r>    1.6580    1.0000 </r>
       <r>    2.1388    1.0000 </r>
       <r>    7.1877    0.0000 </r>
       <r>    7.8336    0.0000 </r>
       <r>   11.0059    0.0000 </r>
       <r>   13.0621    0.0000 </r>
      </set>
      <set comment="kpoint 116">
       <r>   -3.5616    1.0000 </r>
       <r>   -1.3337    1.0000 </r>
       <r>    1.4879    1.0000 </r>
       <r>    2.5492    1.0000 </r>
       <r>    7.5570    0.0000 </r>
       <r>    9.3529    0.0000 </r>
       <r>    9.5520    0.0000 </r>
       <r>   12.2419    0.0000 </r>
      </set>
      <set comment="kpoint 117">
       <r>   -3.3177    1.0000 </r>
       <r>   -1.6030    1.0000 </r>
       <r>    1.8912    1.0000 </r>
       <r>    2.5619    1.0000 </r>
       <r>    6.0711    0.0000 </r>
       <r>    7.0748    0.0000 </r>
       <r>   12.9269    0.0000 </r>
       <r>   12.9579    0.0000 </r>
      </set>
      <set comment="kpoint 118">
       <r>   -3.7828    1.0000 </r>
       <r>   -1.0308    1.0000 </r>
       <r>    2.0129    1.0000 </r>
       <r>    2.4556    1.0000 </r>
       <r>    6.6047    0.0000 </r>
       <r>    7.3753    0.0000 </r>
       <r>   11.3291    0.0000 </r>
       <r>   12.9268    0.0000 </r>
      </set>
      <set comment="kpoint 119">
       <r>   -4.1219    1.0000 </r>
       <r>   -0.6258    1.0000 </r>
       <r>    1.8584    1.0000 </r>
       <r>    2.7133    1.0000 </r>
       <r>    7.3563    0.0000 </r>
       <r>    8.3183    0.0000 </r>
       <r>    9.7897    0.0000 </r>
       <r>   12.1357    0.0000 </r>
      </set>
      <set comment="kpoint 120">
       <r>   -4.2884    1.0000 </r>
       <r>   -0.4045    1.0000 </r>
       <r>    2.2731    1.0000 </r>
       <r>    2.8107    1.0000 </r>
       <r>    6.2916    0.0000 </r>
       <r>    7.5763    0.0000 </r>
       <r>   11.4341    0.0000 </r>
       <r>   11.6925    0.0000 </r>
      </set>
      <set comment="kpoint 121">
       <r>   -4.6641    1.0000 </r>
       <r>    0.1239    1.0000 </r>
       <r>    2.3724    1.0000 </r>
       <r>    3.0251    1.0000 </r>
       <r>    6.8475    0.0000 </r>
       <r>    8.0830    0.0000 </r>
       <r>   10.0964    0.0000 </r>
       <r>   11.4308    0.0000 </r>
      </set>
      <set comment="kpoint 122">
       <r>   -5.0875    1.0000 </r>
       <r>    0.7656    1.0000 </r>
[...]
       <r>   -1.6290    1.0000 </r>
       <r>    1.2498    1.0000 </r>
       <r>    2.7059    1.0000 </r>
       <r>    7.0774    0.0000 </r>
       <r>    9.9476    0.0000 </r>
       <r>   10.2283    0.0000 </r>
       <r>   11.9991    0.0000 </r>
      </set>
      <set comment="kpoint 172">
       <r>   -3.1588    1.0000 </r>
       <r>   -1.7378    1.0000 </r>
       <r>    1.0430    1.0000 </r>
       <r>    2.9420    1.0000 </r>
       <r>    6.5187    0.0000 </r>
       <r>    9.9318    0.0000 </r>
       <r>   11.6260    0.0000 </r>
       <r>   11.8674    0.0000 </r>
      </set>
      <set comment="kpoint 173">
       <r>   -4.8136    1.0000 </r>
       <r>   -0.6305    1.0000 </r>
       <r>    4.0290    1.0000 </r>
       <r>    4.0290    1.0000 </r>
       <r>    6.4381    0.0000 </r>
       <r>    8.5005    0.0000 </r>
       <r>    8.5006    0.0000 </r>
       <r>   12.7307    0.0000 </r>
      </set>
      <set comment="kpoint 174">
       <r>   -4.5529    1.0000 </r>
       <r>   -0.9323    1.0000 </r>
       <r>    3.2769    1.0000 </r>
       <r>    3.9932    1.0000 </r>
       <r>    6.9130    0.0000 </r>
       <r>    8.5329    0.0000 </r>
       <r>    8.6094    0.0000 </r>
       <r>   12.6315    0.0000 </r>
      </set>
      <set comment="kpoint 175">
       <r>   -4.1673    1.0000 </r>
       <r>   -1.1442    1.0000 </r>
       <r>    2.2014    1.0000 </r>
       <r>    3.6906    1.0000 </r>
       <r>    7.2636    0.0000 </r>
       <r>    8.9753    0.0000 </r>
       <r>    9.3000    0.0000 </r>
       <r>   12.5984    0.0000 </r>
      </set>
      <set comment="kpoint 176">
       <r>   -3.6847    1.0000 </r>
       <r>   -1.3586    1.0000 </r>
       <r>    1.3565    1.0000 </r>
       <r>    3.2972    1.0000 </r>
       <r>    6.9231    0.0000 </r>
       <r>   10.2617    0.0000 </r>
       <r>   10.3796    0.0000 </r>
       <r>   11.7318    0.0000 </r>
      </set>
      <set comment="kpoint 177">
       <r>   -4.3829    1.0000 </r>
       <r>   -1.2088    1.0000 </r>
       <r>    3.4406    1.0000 </r>
       <r>    3.7369    1.0000 </r>
       <r>    6.8794    0.0000 </r>
       <r>    8.3113    0.0000 </r>
       <r>    8.8227    0.0000 </r>
       <r>   12.3844    0.0000 </r>
      </set>
      <set comment="kpoint 178">
       <r>   -4.1016    1.0000 </r>
       <r>   -1.3654    1.0000 </r>
       <r>    2.6051    1.0000 </r>
       <r>    3.5417    1.0000 </r>
       <r>    7.4209    0.0000 </r>
       <r>    8.2305    0.0000 </r>
       <r>    9.4435    0.0000 </r>
       <r>   12.2535    0.0000 </r>
      </set>
      <set comment="kpoint 179">
       <r>   -3.7324    1.0000 </r>
       <r>   -1.4481    1.0000 </r>
       <r>    1.7413    1.0000 </r>
       <r>    3.1302    1.0000 </r>
       <r>    7.4946    0.0000 </r>
       <r>    8.7807    0.0000 </r>
       <r>   10.6593    0.0000 </r>
       <r>   11.8847    0.0000 </r>
      </set>
      <set comment="kpoint 180">
       <r>   -3.9504    1.0000 </r>
       <r>   -1.4620    1.0000 </r>
       <r>    2.3213    1.0000 </r>
       <r>    3.4684    1.0000 </r>
       <r>    7.1023    0.0000 </r>
       <r>    8.9397    0.0000 </r>
       <r>    9.4879    0.0000 </r>
       <r>   11.9802    0.0000 </r>
      </set>
      <set comment="kpoint 181">
       <r>   -4.3268    1.0000 </r>
       <r>   -1.4397    1.0000 </r>
       <r>    3.9336    1.0000 </r>
       <r>    3.9336    1.0000 </r>
       <r>    6.3249    0.0000 </r>
       <r>    8.4290    0.0000 </r>
       <r>    8.4290    0.0000 </r>
       <r>   12.6834    0.0000 </r>
      </set>
      <set comment="kpoint 182">
       <r>   -4.1773    1.0000 </r>
       <r>   -1.5192    1.0000 </r>
       <r>    3.3026    1.0000 </r>
       <r>    3.8150    1.0000 </r>
       <r>    6.8418    0.0000 </r>
       <r>    8.3775    0.0000 </r>
       <r>    8.6802    0.0000 </r>
       <r>   12.8915    0.0000 </r>
      </set>
     </set>
    </set>
   </array>
  </eigenvalues>
  <separator name="orbital magnetization" >
   <v name="MAGDIPOLOUT">      0.00000000      0.00000000      0.00000000</v>
  </separator>
  <dos>
   <i name="efermi">      5.24740918 </i>
   <total>
    <array>
     <dimension dim="1">gridpoints</dimension>
     <dimension dim="2">spin</dimension>
     <field>energy</field>
     <field>total</field>
     <field>integrated</field>
     <set>
      <set comment="spin 1">
       <r>    -7.3907     0.0000     0.0000 </r>
       <r>    -7.3151     0.0000     0.0000 </r>
       <r>    -7.2394     0.0000     0.0000 </r>
       <r>    -7.1637     0.0000     0.0000 </r>
       <r>    -7.0881     0.0000     0.0000 </r>
       <r>    -7.0124     0.0000     0.0000 </r>
       <r>    -6.9367     0.0000     0.0000 </r>
       <r>    -6.8610     0.0000     0.0000 </r>
       <r>    -6.7854     0.0000     0.0000 </r>
       <r>    -6.7097     0.0000     0.0000 </r>
       <r>    -6.6340     0.0000     0.0000 </r>
       <r>    -6.5584     0.0000     0.0000 </r>
       <r>    -6.4827     0.0000     0.0000 </r>
       <r>    -6.4070     0.0028     0.0002 </r>
       <r>    -6.3314     0.0406     0.0033 </r>
       <r>    -6.2557     0.1098     0.0116 </r>
       <r>    -6.1800     0.1492     0.0229 </r>
       <r>    -6.1043     0.2013     0.0381 </r>
       <r>    -6.0287     0.1868     0.0522 </r>
       <r>    -5.9530     0.2877     0.0740 </r>
       <r>    -5.8773     0.2290     0.0913 </r>
       <r>    -5.8017     0.2969     0.1138 </r>
       <r>    -5.7260     0.3150     0.1376 </r>
       <r>    -5.6503     0.3597     0.1649 </r>
       <r>    -5.5746     0.3238     0.1894 </r>
       <r>    -5.4990     0.3171     0.2134 </r>
       <r>    -5.4233     0.4975     0.2510 </r>
       <r>    -5.3476     0.3906     0.2806 </r>
       <r>    -5.2720     0.3818     0.3095 </r>
       <r>    -5.1963     0.4178     0.3411 </r>
       <r>    -5.1206     0.5583     0.3833 </r>
       <r>    -5.0450     0.4391     0.4165 </r>
       <r>    -4.9693     0.5702     0.4597 </r>
       <r>    -4.8936     0.4893     0.4967 </r>
       <r>    -4.8179     0.4708     0.5323 </r>
       <r>    -4.7423     0.5975     0.5776 </r>
       <r>    -4.6666     0.7070     0.6311 </r>
       <r>    -4.5909     0.6663     0.6815 </r>
       <r>    -4.5153     0.5237     0.7211 </r>
       <r>    -4.4396     0.6879     0.7731 </r>
       <r>    -4.3639     0.7205     0.8277 </r>
       <r>    -4.2883     0.9074     0.8963 </r>
       <r>    -4.2126     0.8323     0.9593 </r>
       <r>    -4.1369     1.0504     1.0388 </r>
       <r>    -4.0612     1.0294     1.1167 </r>
       <r>    -3.9856     0.5272     1.1566 </r>
       <r>    -3.9099     1.0483     1.2359 </r>
       <r>    -3.8342     0.8310     1.2988 </r>
       <r>    -3.7586     0.8171     1.3606 </r>
       <r>    -3.6829     0.7603     1.4182 </r>
       <r>    -3.6072     0.9350     1.4889 </r>
       <r>    -3.5315     0.7408     1.5450 </r>
       <r>    -3.4559     0.3660     1.5727 </r>
       <r>    -3.3802     0.4692     1.6082 </r>
       <r>    -3.3045     0.8044     1.6690 </r>
       <r>    -3.2289     0.8909     1.7364 </r>
       <r>    -3.1532     0.6226     1.7836 </r>
       <r>    -3.0775     0.4812     1.8200 </r>
       <r>    -3.0019     0.2326     1.8376 </r>
       <r>    -2.9262     0.2930     1.8597 </r>
       <r>    -2.8505     0.3293     1.8847 </r>
       <r>    -2.7748     0.6604     1.9346 </r>
       <r>    -2.6992     0.4749     1.9706 </r>
       <r>    -2.6235     0.3289     1.9955 </r>
       <r>    -2.5478     0.0596     2.0000 </r>
       <r>    -2.4722     0.0004     2.0000 </r>
       <r>    -2.3965     0.0000     2.0000 </r>
       <r>    -2.3208     0.0002     2.0000 </r>
       <r>    -2.2451     0.0495     2.0038 </r>
       <r>    -2.1695     0.5526     2.0456 </r>
       <r>    -2.0938     0.6734     2.0965 </r>
       <r>    -2.0181     0.2789     2.1176 </r>
       <r>    -1.9425     0.2240     2.1346 </r>
       <r>    -1.8668     0.2720     2.1552 </r>
       <r>    -1.7911     0.2142     2.1714 </r>
       <r>    -1.7155     0.4966     2.2090 </r>
       <r>    -1.6398     0.9847     2.2835 </r>
       <r>    -1.5641     1.2593     2.3788 </r>
       <r>    -1.4884     1.0577     2.4588 </r>
       <r>    -1.4128     1.4788     2.5707 </r>
       <r>    -1.3371     1.2956     2.6687 </r>
       <r>    -1.2614     0.9012     2.7369 </r>
       <r>    -1.1858     0.8426     2.8007 </r>
       <r>    -1.1101     1.1210     2.8855 </r>
       <r>    -1.0344     0.5495     2.9271 </r>
       <r>    -0.9588     0.7546     2.9842 </r>
       <r>    -0.8831     1.0018     3.0600 </r>
       <r>    -0.8074     0.4949     3.0975 </r>
       <r>    -0.7317     0.2665     3.1176 </r>
       <r>    -0.6561     0.3734     3.1459 </r>
       <r>    -0.5804     0.8679     3.2115 </r>
       <r>    -0.5047     0.5544     3.2535 </r>
       <r>    -0.4291     0.2328     3.2711 </r>
       <r>    -0.3534     0.3612     3.2984 </r>
       <r>    -0.2777     0.5757     3.3420 </r>
       <r>    -0.2020     0.7090     3.3957 </r>
       <r>    -0.1264     0.2535     3.4148 </r>
       <r>    -0.0507     0.1577     3.4268 </r>
       <r>     0.0250     0.2552     3.4461 </r>
       <r>     0.1006     0.2860     3.4677 </r>
       <r>     0.1763     0.7019     3.5208 </r>
       <r>     0.2520     0.2455     3.5394 </r>
       <r>     0.3276     0.1481     3.5506 </r>
       <r>     0.4033     0.2605     3.5703 </r>
       <r>     0.4790     0.3315     3.5954 </r>
       <r>     0.5547     0.2974     3.6179 </r>
       <r>     0.6303     0.3555     3.6448 </r>
       <r>     0.7060     0.1511     3.6563 </r>
       <r>     0.7817     0.1158     3.6650 </r>
       <r>     0.8573     0.1700     3.6779 </r>
       <r>     0.9330     0.2226     3.6947 </r>
       <r>     1.0087     0.4584     3.7294 </r>
       <r>     1.0844     0.5785     3.7732 </r>
       <r>     1.1600     0.6500     3.8224 </r>
       <r>     1.2357     0.8333     3.8854 </r>
       <r>     1.3114     1.5705     4.0043 </r>
       <r>     1.3870     1.2421     4.0983 </r>
       <r>     1.4627     1.1093     4.1822 </r>
       <r>     1.5384     1.2816     4.2792 </r>
       <r>     1.6140     1.1345     4.3650 </r>
       <r>     1.6897     1.0946     4.4479 </r>
       <r>     1.7654     1.0939     4.5306 </r>
       <r>     1.8411     1.0147     4.6074 </r>
       <r>     1.9167     1.1511     4.6945 </r>
       <r>     1.9924     1.3165     4.7942 </r>
       <r>     2.0681     1.1601     4.8819 </r>
       <r>     2.1437     1.0098     4.9584 </r>
       <r>     2.2194     1.3501     5.0605 </r>
       <r>     2.2951     1.3534     5.1629 </r>
       <r>     2.3707     1.3158     5.2625 </r>
       <r>     2.4464     1.6779     5.3895 </r>
       <r>     2.5221     1.6397     5.5135 </r>
       <r>     2.5978     1.7536     5.6462 </r>
       <r>     2.6734     1.4892     5.7589 </r>
       <r>     2.7491     1.5082     5.8730 </r>
       <r>     2.8248     1.3248     5.9733 </r>
       <r>     2.9004     1.6812     6.1005 </r>
       <r>     2.9761     1.6685     6.2268 </r>
       <r>     3.0518     1.5493     6.3440 </r>
       <r>     3.1275     1.2535     6.4389 </r>
       <r>     3.2031     1.1818     6.5283 </r>
       <r>     3.2788     1.5208     6.6434 </r>
       <r>     3.3545     1.5804     6.7630 </r>
       <r>     3.4301     1.4165     6.8701 </r>
       <r>     3.5058     1.1372     6.9562 </r>
       <r>     3.5815     1.3114     7.0554 </r>
       <r>     3.6571     1.1768     7.1445 </r>
       <r>     3.7328     1.4705     7.2557 </r>
       <r>     3.8085     1.3272     7.3562 </r>
       <r>     3.8842     1.0246     7.4337 </r>
       <r>     3.9598     0.9680     7.5070 </r>
       <r>     4.0355     1.3339     7.6079 </r>
       <r>     4.1112     0.7207     7.6624 </r>
       <r>     4.1868     0.5539     7.7044 </r>
       <r>     4.2625     0.5484     7.7459 </r>
       <r>     4.3382     0.6406     7.7943 </r>
       <r>     4.4139     0.5893     7.8389 </r>
       <r>     4.4895     0.4048     7.8696 </r>
       <r>     4.5652     0.3619     7.8969 </r>
       <r>     4.6409     0.3204     7.9212 </r>
       <r>     4.7165     0.2893     7.9431 </r>
       <r>     4.7922     0.2443     7.9616 </r>
       <r>     4.8679     0.2564     7.9810 </r>
       <r>     4.9435     0.1207     7.9901 </r>
       <r>     5.0192     0.0992     7.9976 </r>
       <r>     5.0949     0.0308     7.9999 </r>
       <r>     5.1706     0.0007     8.0000 </r>
       <r>     5.2462     0.0000     8.0000 </r>
       <r>     5.3219     0.0000     8.0000 </r>
       <r>     5.3976     0.0000     8.0000 </r>
       <r>     5.4732     0.0000     8.0000 </r>
       <r>     5.5489     0.0000     8.0000 </r>
       <r>     5.6246     0.0000     8.0000 </r>
       <r>     5.7002     0.0000     8.0000 </r>
       <r>     5.7759     0.0063     8.0005 </r>
       <r>     5.8516     0.1220     8.0097 </r>
       <r>     5.9273     0.1912     8.0242 </r>
       <r>     6.0029     0.0890     8.0309 </r>
       <r>     6.0786     0.3864     8.0601 </r>
       <r>     6.1543     0.5161     8.0992 </r>
       <r>     6.2299     0.3681     8.1271 </r>
       <r>     6.3056     0.5340     8.1675 </r>
       <r>     6.3813     0.4106     8.1985 </r>
       <r>     6.4570     0.4756     8.2345 </r>
       <r>     6.5326     0.8756     8.3008 </r>
       <r>     6.6083     1.0815     8.3826 </r>
       <r>     6.6840     0.6698     8.4333 </r>
       <r>     6.7596     0.8957     8.5011 </r>
       <r>     6.8353     0.9599     8.5737 </r>
       <r>     6.9110     1.2730     8.6700 </r>
       <r>     6.9866     0.9144     8.7392 </r>
       <r>     7.0623     1.6027     8.8605 </r>
       <r>     7.1380     1.5114     8.9749 </r>
       <r>     7.2137     1.5769     9.0942 </r>
       <r>     7.2893     2.2530     9.2647 </r>
       <r>     7.3650     1.4774     9.3765 </r>
       <r>     7.4407     1.3545     9.4790 </r>
       <r>     7.5163     1.6258     9.6020 </r>
       <r>     7.5920     1.3751     9.7060 </r>
       <r>     7.6677     1.0573     9.7860 </r>
       <r>     7.7434     1.5252     9.9015 </r>
       <r>     7.8190     1.0879     9.9838 </r>
       <r>     7.8947     1.3330    10.0847 </r>
       <r>     7.9704     1.1384    10.1708 </r>
       <r>     8.0460     0.7299    10.2260 </r>
       <r>     8.1217     1.0648    10.3066 </r>
       <r>     8.1974     1.0680    10.3874 </r>
       <r>     8.2730     1.5481    10.5046 </r>
       <r>     8.3487     2.6914    10.7082 </r>
       <r>     8.4244     2.1354    10.8698 </r>
       <r>     8.5001     2.0564    11.0254 </r>
       <r>     8.5757     2.1321    11.1867 </r>
       <r>     8.6514     2.0861    11.3446 </r>
       <r>     8.7271     1.8895    11.4876 </r>
       <r>     8.8027     1.4495    11.5973 </r>
       <r>     8.8784     1.3974    11.7030 </r>
       <r>     8.9541     1.1999    11.7938 </r>
       <r>     9.0297     1.4023    11.8999 </r>
       <r>     9.1054     1.3878    12.0049 </r>
       <r>     9.1811     1.0248    12.0825 </r>
       <r>     9.2568     1.2437    12.1766 </r>
       <r>     9.3324     1.6020    12.2978 </r>
       <r>     9.4081     1.1793    12.3871 </r>
       <r>     9.4838     1.1026    12.4705 </r>
       <r>     9.5594     1.7355    12.6018 </r>
       <r>     9.6351     1.6642    12.7278 </r>
       <r>     9.7108     1.2620    12.8233 </r>
       <r>     9.7865     1.1431    12.9098 </r>
       <r>     9.8621     1.4213    13.0173 </r>
       <r>     9.9378     1.2490    13.1118 </r>
       <r>    10.0135     1.2715    13.2080 </r>
       <r>    10.0891     1.5219    13.3232 </r>
       <r>    10.1648     1.2128    13.4150 </r>
       <r>    10.2405     1.6495    13.5398 </r>
       <r>    10.3161     0.9468    13.6114 </r>
       <r>    10.3918     1.1151    13.6958 </r>
       <r>    10.4675     1.1372    13.7819 </r>
       <r>    10.5432     0.9376    13.8528 </r>
       <r>    10.6188     0.9700    13.9262 </r>
       <r>    10.6945     1.4041    14.0325 </r>
       <r>    10.7702     1.4570    14.1427 </r>
       <r>    10.8458     1.0372    14.2212 </r>
       <r>    10.9215     1.0132    14.2979 </r>
       <r>    10.9972     1.1843    14.3875 </r>
       <r>    11.0729     0.8046    14.4484 </r>
       <r>    11.1485     0.8588    14.5133 </r>
       <r>    11.2242     1.1184    14.5980 </r>
       <r>    11.2999     0.6588    14.6478 </r>
       <r>    11.3755     1.0575    14.7279 </r>
       <r>    11.4512     1.1962    14.8184 </r>
       <r>    11.5269     1.1342    14.9042 </r>
       <r>    11.6025     0.9523    14.9763 </r>
       <r>    11.6782     0.7719    15.0347 </r>
       <r>    11.7539     0.8898    15.1020 </r>
       <r>    11.8296     0.4420    15.1354 </r>
       <r>    11.9052     0.5549    15.1774 </r>
       <r>    11.9809     0.5686    15.2205 </r>
       <r>    12.0566     1.0067    15.2966 </r>
       <r>    12.1322     0.9081    15.3654 </r>
       <r>    12.2079     0.7997    15.4259 </r>
       <r>    12.2836     0.9182    15.4953 </r>
       <r>    12.3592     0.3512    15.5219 </r>
       <r>    12.4349     0.5036    15.5600 </r>
       <r>    12.5106     0.4599    15.5948 </r>
       <r>    12.5863     0.2035    15.6102 </r>
       <r>    12.6619     0.3375    15.6358 </r>
       <r>    12.7376     0.5165    15.6749 </r>
       <r>    12.8133     0.7171    15.7291 </r>
       <r>    12.8889     0.4680    15.7645 </r>
       <r>    12.9646     0.9413    15.8358 </r>
       <r>    13.0403     0.3750    15.8641 </r>
       <r>    13.1160     0.1319    15.8741 </r>
       <r>    13.1916     0.0121    15.8750 </r>
       <r>    13.2673     0.0453    15.8785 </r>
       <r>    13.3430     0.1854    15.8925 </r>
       <r>    13.4186     0.1287    15.9022 </r>
       <r>    13.4943     0.0472    15.9058 </r>
       <r>    13.5700     0.1737    15.9189 </r>
       <r>    13.6456     0.4215    15.9508 </r>
       <r>    13.7213     0.2727    15.9715 </r>
       <r>    13.7970     0.0100    15.9722 </r>
       <r>    13.8727     0.0000    15.9722 </r>
       <r>    13.9483     0.0001    15.9722 </r>
       <r>    14.0240     0.0281    15.9744 </r>
       <r>    14.0997     0.1312    15.9843 </r>
       <r>    14.1753     0.0256    15.9862 </r>
       <r>    14.2510     0.0646    15.9911 </r>
       <r>    14.3267     0.1080    15.9993 </r>
       <r>    14.4024     0.0094    16.0000 </r>
       <r>    14.4780     0.0000    16.0000 </r>
       <r>    14.5537     0.0000    16.0000 </r>
       <r>    14.6294     0.0000    16.0000 </r>
       <r>    14.7050     0.0000    16.0000 </r>
       <r>    14.7807     0.0000    16.0000 </r>
       <r>    14.8564     0.0000    16.0000 </r>
       <r>    14.9320     0.0000    16.0000 </r>
       <r>    15.0077     0.0000    16.0000 </r>
       <r>    15.0834     0.0000    16.0000 </r>
       <r>    15.1591     0.0000    16.0000 </r>
       <r>    15.2347     0.0000    16.0000 </r>
       <r>    15.3104     0.0000    16.0000 </r>
      </set>
     </set>
    </array>
   </total>
  </dos>
 </calculation>
 <structure name="finalpos" >
  <crystal>
   <varray name="basis" >
    <v>       3.41509606       0.00000000       1.97170635 </v>
    <v>       1.13836535       3.21978472       1.97170635 </v>
    <v>       0.00000000       0.00000000       3.94341270 </v>
   </varray>
   <i name="volume">     43.36126957 </i>
   <varray name="rec_basis" >
    <v>       0.29281753      -0.10352659       0.00000000 </v>
    <v>       0.00000000       0.31057977       0.00000000 </v>
    <v>      -0.14640877      -0.10352659       0.25358746 </v>
   </varray>
  </crystal>
  <varray name="positions" >
   <v>       0.87500000       0.87500000       0.87500000 </v>
   <v>       0.12500000       0.12500000       0.12500000 </v>
  </varray>
 </structure>
</modeling>
