unknown system                          
           1
     3.415096    0.000000    1.971706
     1.138365    3.219785    1.971706
     0.000000    0.000000    3.943413
   Si
     2
Direct configuration=     1
   0.87500000  0.87500000  0.87500000
   0.12500000  0.12500000  0.12500000
