unknown system                          
   1.00000000000000     
     2.796113   -0.000000    0.000000
     0.000000    2.796113    0.000000
     0.000000    0.000000    2.796113
   Fe
     2
Direct
  0.000000  0.000000  0.000000
  0.500000  0.500000  0.500000
 
   36   36   36
  198.99      194.02      179.81      158.31      132.26      104.68      78.336      55.349      37.025      23.790    
  15.291      10.574      8.3642      7.2829      6.5141      5.9931      5.6734      5.5111      5.4590      5.5111    
  5.6734      5.9931      6.5141      7.2829      8.3642      10.574      15.291      23.790      37.025      55.349    
  78.336      104.68      132.26      158.31      179.81      194.02      194.02      189.19      175.39      154.47    
  129.12      102.24      76.530      54.089      36.203      23.298      15.033      10.463      8.3284      7.2666    
  6.5041      5.9897      5.6736      5.5138      5.4621      5.5138      5.6736      5.9897      6.5041      7.2666    
  8.3284      10.463      15.033      23.298      36.203      54.089      76.530      102.24      129.12      154.47    
  175.39      189.19      179.81      175.39      162.71      143.47      120.07      95.177      71.313      50.448    
  33.830      21.886      14.298      10.154      8.2279      7.2173      6.4745      5.9792      5.6743      5.5212    
  5.4710      5.5212      5.6743      5.9792      6.4745      7.2173      8.2279      10.154      14.298      21.886    
  33.830      50.448      71.313      95.177      120.07      143.47      162.71      175.39      158.31      154.47    
  143.47      126.70      106.22      84.332      63.270      44.833      30.187      19.743      13.205      9.7084    
  8.0776      7.1334      6.4268      5.9613      5.6754      5.5322      5.4852      5.5322      5.6754      5.9613    
  6.4268      7.1334      8.0776      9.7084      13.205      19.743      30.187      44.833      63.270      84.332    
  106.22      126.70      143.47      154.47      132.26      129.12      120.07      106.22      89.207      70.946    
  53.318      37.899      25.726      17.168      11.932      9.2103      7.8914      7.0144      6.3640      5.9360    
  5.6770      5.5448      5.5034      5.5448      5.6770      5.9360      6.3640      7.0144      7.8914      9.2103    
  11.932      17.168      25.726      37.899      53.318      70.946      89.207      106.22      120.07      129.12    
  104.68      102.24      95.177      84.332      70.946      56.524      42.594      30.473      21.023      14.531    
  10.686      8.7351      7.6700      6.8660      6.2884      5.9050      5.6777      5.5579      5.5233      5.5579    
  5.6777      5.9050      6.2884      6.8660      7.6700      8.7351      10.686      14.531      21.023      30.473    
  42.594      56.524      70.946      84.332      95.177      102.24      78.336      76.530      71.313      63.270    
  53.318      42.594      32.289      23.430      16.673      12.189      9.6388      8.3083      7.4085      6.7010    
  6.2024      5.8716      5.6752      5.5710      5.5407      5.5710      5.6752      5.8716      6.2024      6.7010    
  7.4085      8.3083      9.6388      12.189      16.673      23.430      32.289      42.594      53.318      63.270    
  71.313      76.530      55.349      54.089      50.448      44.833      37.899      30.473      23.430      17.508    
  13.155      10.389      8.8520      7.8953      7.1201      6.5308      6.1110      5.8373      5.6690      5.5824    
  5.5541      5.5824      5.6690      5.8373      6.1110      6.5308      7.1201      7.8953      8.8520      10.389    
  13.155      17.508      23.430      30.473      37.899      44.833      50.448      54.089      37.025      36.203    
  33.830      30.187      25.726      21.023      16.673      13.155      10.685      9.1796      8.2359      7.4660    
  6.8359      6.3603      6.0240      5.7998      5.6615      5.5871      5.5641      5.5871      5.6615      5.7998    
  6.0240      6.3603      6.8359      7.4660      8.2359      9.1796      10.685      13.155      16.673      21.023    
  25.726      30.187      33.830      36.203      23.790      23.298      21.886      19.743      17.168      14.531    
  12.189      10.389      9.1796      8.3594      7.6618      7.0547      6.5696      6.2028      5.9409      5.7624    
  5.6495      5.5872      5.5676      5.5872      5.6495      5.7624      5.9409      6.2028      6.5696      7.0547    
  7.6618      8.3594      9.1796      10.389      12.189      14.531      17.168      19.743      21.886      23.298    
  15.291      15.033      14.298      13.205      11.932      10.686      9.6388      8.8520      8.2359      7.6618    
  7.1344      6.6897      6.3334      6.0628      5.8646      5.7257      5.6336      5.5813      5.5641      5.5813    
  5.6336      5.7257      5.8646      6.0628      6.3334      6.6897      7.1344      7.6618      8.2359      8.8520    
  9.6388      10.686      11.932      13.205      14.298      15.033      10.574      10.463      10.154      9.7084    
  9.2103      8.7351      8.3083      7.8953      7.4660      7.0547      6.6897      6.3814      6.1340      5.9416    
  5.7953      5.6871      5.6126      5.5685      5.5541      5.5685      5.6126      5.6871      5.7953      5.9416    
  6.1340      6.3814      6.6897      7.0547      7.4660      7.8953      8.3083      8.7351      9.2103      9.7084    
  10.154      10.463      8.3642      8.3284      8.2279      8.0776      7.8914      7.6700      7.4085      7.1201    
  6.8359      6.5696      6.3334      6.1340      5.9703      5.8372      5.7306      5.6486      5.5893      5.5531    
  5.5407      5.5531      5.5893      5.6486      5.7306      5.8372      5.9703      6.1340      6.3334      6.5696    
  6.8359      7.1201      7.4085      7.6700      7.8914      8.0776      8.2279      8.3284      7.2829      7.2666    
  7.2173      7.1334      7.0144      6.8660      6.7010      6.5308      6.3603      6.2028      6.0628      5.9416    
  5.8372      5.7475      5.6726      5.6109      5.5637      5.5335      5.5233      5.5335      5.5637      5.6109    
  5.6726      5.7475      5.8372      5.9416      6.0628      6.2028      6.3603      6.5308      6.7010      6.8660    
  7.0144      7.1334      7.2173      7.2666      6.5141      6.5041      6.4745      6.4268      6.3640      6.2884    
  6.2024      6.1110      6.0240      5.9409      5.8646      5.7953      5.7306      5.6726      5.6198      5.5732    
  5.5359      5.5119      5.5034      5.5119      5.5359      5.5732      5.6198      5.6726      5.7306      5.7953    
  5.8646      5.9409      6.0240      6.1110      6.2024      6.2884      6.3640      6.4268      6.4745      6.5041    
  5.9931      5.9897      5.9792      5.9613      5.9360      5.9050      5.8716      5.8373      5.7998      5.7624    
  5.7257      5.6871      5.6486      5.6109      5.5732      5.5382      5.5099      5.4916      5.4852      5.4916    
  5.5099      5.5382      5.5732      5.6109      5.6486      5.6871      5.7257      5.7624      5.7998      5.8373    
  5.8716      5.9050      5.9360      5.9613      5.9792      5.9897      5.6734      5.6736      5.6743      5.6754    
  5.6770      5.6777      5.6752      5.6690      5.6615      5.6495      5.6336      5.6126      5.5893      5.5637    
  5.5359      5.5099      5.4890      5.4757      5.4710      5.4757      5.4890      5.5099      5.5359      5.5637    
  5.5893      5.6126      5.6336      5.6495      5.6615      5.6690      5.6752      5.6777      5.6770      5.6754    
  5.6743      5.6736      5.5111      5.5138      5.5212      5.5322      5.5448      5.5579      5.5710      5.5824    
  5.5871      5.5872      5.5813      5.5685      5.5531      5.5335      5.5119      5.4916      5.4757      5.4655    
  5.4621      5.4655      5.4757      5.4916      5.5119      5.5335      5.5531      5.5685      5.5813      5.5872    
  5.5871      5.5824      5.5710      5.5579      5.5448      5.5322      5.5212      5.5138      5.4590      5.4621    
  5.4710      5.4852      5.5034      5.5233      5.5407      5.5541      5.5641      5.5676      5.5641      5.5541    
  5.5407      5.5233      5.5034      5.4852      5.4710      5.4621      5.4590      5.4621      5.4710      5.4852    
  5.5034      5.5233      5.5407      5.5541      5.5641      5.5676      5.5641      5.5541      5.5407      5.5233    
  5.5034      5.4852      5.4710      5.4621      5.5111      5.5138      5.5212      5.5322      5.5448      5.5579    
  5.5710      5.5824      5.5871      5.5872      5.5813      5.5685      5.5531      5.5335      5.5119      5.4916    
  5.4757      5.4655      5.4621      5.4655      5.4757      5.4916      5.5119      5.5335      5.5531      5.5685    
  5.5813      5.5872      5.5871      5.5824      5.5710      5.5579      5.5448      5.5322      5.5212      5.5138    
  5.6734      5.6736      5.6743      5.6754      5.6770      5.6777      5.6752      5.6690      5.6615      5.6495    
  5.6336      5.6126      5.5893      5.5637      5.5359      5.5099      5.4890      5.4757      5.4710      5.4757    
  5.4890      5.5099      5.5359      5.5637      5.5893      5.6126      5.6336      5.6495      5.6615      5.6690    
  5.6752      5.6777      5.6770      5.6754      5.6743      5.6736      5.9931      5.9897      5.9792      5.9613    
  5.9360      5.9050      5.8716      5.8373      5.7998      5.7624      5.7257      5.6871      5.6486      5.6109    
  5.5732      5.5382      5.5099      5.4916      5.4852      5.4916      5.5099      5.5382      5.5732      5.6109    
  5.6486      5.6871      5.7257      5.7624      5.7998      5.8373      5.8716      5.9050      5.9360      5.9613    
  5.9792      5.9897      6.5141      6.5041      6.4745      6.4268      6.3640      6.2884      6.2024      6.1110    
  6.0240      5.9409      5.8646      5.7953      5.7306      5.6726      5.6198      5.5732      5.5359      5.5119    
  5.5034      5.5119      5.5359      5.5732      5.6198      5.6726      5.7306      5.7953      5.8646      5.9409    
  6.0240      6.1110      6.2024      6.2884      6.3640      6.4268      6.4745      6.5041      7.2829      7.2666    
  7.2173      7.1334      7.0144      6.8660      6.7010      6.5308      6.3603      6.2028      6.0628      5.9416    
  5.8372      5.7475      5.6726      5.6109      5.5637      5.5335      5.5233      5.5335      5.5637      5.6109    
  5.6726      5.7475      5.8372      5.9416      6.0628      6.2028      6.3603      6.5308      6.7010      6.8660    
  7.0144      7.1334      7.2173      7.2666      8.3642      8.3284      8.2279      8.0776      7.8914      7.6700    
  7.4085      7.1201      6.8359      6.5696      6.3334      6.1340      5.9703      5.8372      5.7306      5.6486    
  5.5893      5.5531      5.5407      5.5531      5.5893      5.6486      5.7306      5.8372      5.9703      6.1340    
  6.3334      6.5696      6.8359      7.1201      7.4085      7.6700      7.8914      8.0776      8.2279      8.3284    
  10.574      10.463      10.154      9.7084      9.2103      8.7351      8.3083      7.8953      7.4660      7.0547    
  6.6897      6.3814      6.1340      5.9416      5.7953      5.6871      5.6126      5.5685      5.5541      5.5685    
  5.6126      5.6871      5.7953      5.9416      6.1340      6.3814      6.6897      7.0547      7.4660      7.8953    
  8.3083      8.7351      9.2103      9.7084      10.154      10.463      15.291      15.033      14.298      13.205    
  11.932      10.686      9.6388      8.8520      8.2359      7.6618      7.1344      6.6897      6.3334      6.0628    
  5.8646      5.7257      5.6336      5.5813      5.5641      5.5813      5.6336      5.7257      5.8646      6.0628    
  6.3334      6.6897      7.1344      7.6618      8.2359      8.8520      9.6388      10.686      11.932      13.205    
  14.298      15.033      23.790      23.298      21.886      19.743      17.168      14.531      12.189      10.389    
  9.1796      8.3594      7.6618      7.0547      6.5696      6.2028      5.9409      5.7624      5.6495      5.5872    
  5.5676      5.5872      5.6495      5.7624      5.9409      6.2028      6.5696      7.0547      7.6618      8.3594    
  9.1796      10.389      12.189      14.531      17.168      19.743      21.886      23.298      37.025      36.203    
  33.830      30.187      25.726      21.023      16.673      13.155      10.685      9.1796      8.2359      7.4660    
  6.8359      6.3603      6.0240      5.7998      5.6615      5.5871      5.5641      5.5871      5.6615      5.7998    
  6.0240      6.3603      6.8359      7.4660      8.2359      9.1796      10.685      13.155      16.673      21.023    
  25.726      30.187      33.830      36.203      55.349      54.089      50.448      44.833      37.899      30.473    
  23.430      17.508      13.155      10.389      8.8520      7.8953      7.1201      6.5308      6.1110      5.8373    
  5.6690      5.5824      5.5541      5.5824      5.6690      5.8373      6.1110      6.5308      7.1201      7.8953    
  8.8520      10.389      13.155      17.508      23.430      30.473      37.899      44.833      50.448      54.089    
  78.336      76.530      71.313      63.270      53.318      42.594      32.289      23.430      16.673      12.189    
  9.6388      8.3083      7.4085      6.7010      6.2024      5.8716      5.6752      5.5710      5.5407      5.5710    
  5.6752      5.8716      6.2024      6.7010      7.4085      8.3083      9.6388      12.189      16.673      23.430    
  32.289      42.594      53.318      63.270      71.313      76.530      104.68      102.24      95.177      84.332    
  70.946      56.524      42.594      30.473      21.023      14.531      10.686      8.7351      7.6700      6.8660    
  6.2884      5.9050      5.6777      5.5579      5.5233      5.5579      5.6777      5.9050      6.2884      6.8660    
  7.6700      8.7351      10.686      14.531      21.023      30.473      42.594      56.524      70.946      84.332    
  95.177      102.24      132.26      129.12      120.07      106.22      89.207      70.946      53.318      37.899    
  25.726      17.168      11.932      9.2103      7.8914      7.0144      6.3640      5.9360      5.6770      5.5448    
  5.5034      5.5448      5.6770      5.9360      6.3640      7.0144      7.8914      9.2103      11.932      17.168    
  25.726      37.899      53.318      70.946      89.207      106.22      120.07      129.12      158.31      154.47    
  143.47      126.70      106.22      84.332      63.270      44.833      30.187      19.743      13.205      9.7084    
  8.0776      7.1334      6.4268      5.9613      5.6754      5.5322      5.4852      5.5322      5.6754      5.9613    
  6.4268      7.1334      8.0776      9.7084      13.205      19.743      30.187      44.833      63.270      84.332    
  106.22      126.70      143.47      154.47      179.81      175.39      162.71      143.47      120.07      95.177    
  71.313      50.448      33.830      21.886      14.298      10.154      8.2279      7.2173      6.4745      5.9792    
  5.6743      5.5212      5.4710      5.5212      5.6743      5.9792      6.4745      7.2173      8.2279      10.154    
  14.298      21.886      33.830      50.448      71.313      95.177      120.07      143.47      162.71      175.39    
  194.02      189.19      175.39      154.47      129.12      102.24      76.530      54.089      36.203      23.298    
  15.033      10.463      8.3284      7.2666      6.5041      5.9897      5.6736      5.5138      5.4621      5.5138    
  5.6736      5.9897      6.5041      7.2666      8.3284      10.463      15.033      23.298      36.203      54.089    
  76.530      102.24      129.12      154.47      175.39      189.19      194.02      189.19      175.39      154.47    
  129.12      102.24      76.530      54.089      36.203      23.298      15.033      10.463      8.3284      7.2666    
  6.5041      5.9897      5.6736      5.5138      5.4621      5.5138      5.6736      5.9897      6.5041      7.2666    
  8.3284      10.463      15.033      23.298      36.203      54.089      76.530      102.24      129.12      154.47    
  175.39      189.19      189.19      184.50      171.08      150.74      126.05      99.847      74.765      52.856    
  35.400      22.818      14.782      10.358      8.2946      7.2509      6.4947      5.9867      5.6743      5.5167    
  5.4655      5.5167      5.6743      5.9867      6.4947      7.2509      8.2946      10.358      14.782      22.818    
  35.400      52.856      74.765      99.847      126.05      150.74      171.08      184.50      175.39      171.08    
  158.76      140.03      117.23      92.955      69.665      49.296      33.081      21.443      14.071      10.061    
  8.1990      7.2030      6.4668      5.9775      5.6763      5.5253      5.4757      5.5253      5.6763      5.9775    
  6.4668      7.2030      8.1990      10.061      14.071      21.443      33.081      49.296      69.665      92.955    
  117.23      140.03      158.76      171.08      154.47      150.74      140.03      123.69      103.72      82.364    
  61.804      43.808      29.524      19.357      13.013      9.6353      8.0552      7.1212      6.4220      5.9617    
  5.6795      5.5378      5.4916      5.5378      5.6795      5.9617      6.4220      7.1212      8.0552      9.6353    
  13.013      19.357      29.524      43.808      61.804      82.364      103.72      123.69      140.03      150.74    
  129.12      126.05      117.23      103.72      87.117      69.289      52.080      37.037      25.174      16.857    
  11.786      9.1595      7.8752      7.0054      6.3624      5.9390      5.6834      5.5524      5.5119      5.5524    
  5.6834      5.9390      6.3624      7.0054      7.8752      9.1595      11.786      16.857      25.174      37.037    
  52.080      69.289      87.117      103.72      117.23      126.05      102.24      99.847      92.955      82.364    
  69.289      55.205      41.610      29.793      20.598      14.302      10.588      8.7048      7.6580      6.8611    
  6.2903      5.9110      5.6864      5.5677      5.5335      5.5677      5.6864      5.9110      6.2903      6.8611    
  7.6580      8.7048      10.588      14.302      20.598      29.793      41.610      55.205      69.289      82.364    
  92.955      99.847      76.530      74.765      69.665      61.804      52.080      41.610      31.561      22.936    
  16.378      12.041      9.5837      8.2914      7.4005      6.7008      6.2076      5.8808      5.6863      5.5833    
  5.5531      5.5833      5.6863      5.8808      6.2076      6.7008      7.4005      8.2914      9.5837      12.041    
  16.378      22.936      31.561      41.610      52.080      61.804      69.665      74.765      54.089      52.856    
  49.296      43.808      37.037      29.793      22.936      17.188      12.976      10.310      8.8265      7.8849    
  7.1173      6.5349      6.1201      5.8493      5.6826      5.5967      5.5685      5.5967      5.6826      5.8493    
  6.1201      6.5349      7.1173      7.8849      8.8265      10.310      12.976      17.188      22.936      29.793    
  37.037      43.808      49.296      52.856      36.203      35.400      33.081      29.524      25.174      20.598    
  16.378      12.976      10.597      9.1470      8.2234      7.4610      6.8387      6.3688      6.0364      5.8146    
  5.6778      5.6041      5.5813      5.6041      5.6778      5.8146      6.0364      6.3688      6.8387      7.4610    
  8.2234      9.1470      10.597      12.976      16.378      20.598      25.174      29.524      33.081      35.400    
  23.298      22.818      21.443      19.357      16.857      14.302      12.041      10.310      9.1470      8.3459    
  7.6556      7.0564      6.5774      6.2155      5.9571      5.7808      5.6688      5.6068      5.5872      5.6068    
  5.6688      5.7808      5.9571      6.2155      6.5774      7.0564      7.6556      8.3459      9.1470      10.310    
  12.041      14.302      16.857      19.357      21.443      22.818      15.033      14.782      14.071      13.013    
  11.786      10.588      9.5837      8.8265      8.2234      7.6556      7.1357      6.6971      6.3463      6.0800    
  5.8841      5.7465      5.6556      5.6041      5.5871      5.6041      5.6556      5.7465      5.8841      6.0800    
  6.3463      6.6971      7.1357      7.6556      8.2234      8.8265      9.5837      10.588      11.786      13.013    
  14.071      14.782      10.463      10.358      10.061      9.6353      9.1595      8.7048      8.2914      7.8849    
  7.4610      7.0564      6.6971      6.3944      6.1516      5.9617      5.8183      5.7128      5.6400      5.5967    
  5.5824      5.5967      5.6400      5.7128      5.8183      5.9617      6.1516      6.3944      6.6971      7.0564    
  7.4610      7.8849      8.2914      8.7048      9.1595      9.6353      10.061      10.358      8.3284      8.2946    
  8.1990      8.0552      7.8752      7.6580      7.4005      7.1173      6.8387      6.5774      6.3463      6.1516    
  5.9907      5.8618      5.7589      5.6784      5.6194      5.5833      5.5710      5.5833      5.6194      5.6784    
  5.7589      5.8618      5.9907      6.1516      6.3463      6.5774      6.8387      7.1173      7.4005      7.6580    
  7.8752      8.0552      8.1990      8.2946      7.2666      7.2509      7.2030      7.1212      7.0054      6.8611    
  6.7008      6.5349      6.3688      6.2155      6.0800      5.9617      5.8618      5.7765      5.7030      5.6423    
  5.5965      5.5677      5.5579      5.5677      5.5965      5.6423      5.7030      5.7765      5.8618      5.9617    
  6.0800      6.2155      6.3688      6.5349      6.7008      6.8611      7.0054      7.1212      7.2030      7.2509    
  6.5041      6.4947      6.4668      6.4220      6.3624      6.2903      6.2076      6.1201      6.0364      5.9571    
  5.8841      5.8183      5.7589      5.7030      5.6520      5.6084      5.5744      5.5524      5.5448      5.5524    
  5.5744      5.6084      5.6520      5.7030      5.7589      5.8183      5.8841      5.9571      6.0364      6.1201    
  6.2076      6.2903      6.3624      6.4220      6.4668      6.4947      5.9897      5.9867      5.9775      5.9617    
  5.9390      5.9110      5.8808      5.8493      5.8146      5.7808      5.7465      5.7128      5.6784      5.6423    
  5.6084      5.5782      5.5539      5.5378      5.5322      5.5378      5.5539      5.5782      5.6084      5.6423    
  5.6784      5.7128      5.7465      5.7808      5.8146      5.8493      5.8808      5.9110      5.9390      5.9617    
  5.9775      5.9867      5.6736      5.6743      5.6763      5.6795      5.6834      5.6864      5.6863      5.6826    
  5.6778      5.6688      5.6556      5.6400      5.6194      5.5965      5.5744      5.5539      5.5368      5.5253    
  5.5212      5.5253      5.5368      5.5539      5.5744      5.5965      5.6194      5.6400      5.6556      5.6688    
  5.6778      5.6826      5.6863      5.6864      5.6834      5.6795      5.6763      5.6743      5.5138      5.5167    
  5.5253      5.5378      5.5524      5.5677      5.5833      5.5967      5.6041      5.6068      5.6041      5.5967    
  5.5833      5.5677      5.5524      5.5378      5.5253      5.5167      5.5138      5.5167      5.5253      5.5378    
  5.5524      5.5677      5.5833      5.5967      5.6041      5.6068      5.6041      5.5967      5.5833      5.5677    
  5.5524      5.5378      5.5253      5.5167      5.4621      5.4655      5.4757      5.4916      5.5119      5.5335    
  5.5531      5.5685      5.5813      5.5872      5.5871      5.5824      5.5710      5.5579      5.5448      5.5322    
  5.5212      5.5138      5.5111      5.5138      5.5212      5.5322      5.5448      5.5579      5.5710      5.5824    
  5.5871      5.5872      5.5813      5.5685      5.5531      5.5335      5.5119      5.4916      5.4757      5.4655    
  5.5138      5.5167      5.5253      5.5378      5.5524      5.5677      5.5833      5.5967      5.6041      5.6068    
  5.6041      5.5967      5.5833      5.5677      5.5524      5.5378      5.5253      5.5167      5.5138      5.5167    
  5.5253      5.5378      5.5524      5.5677      5.5833      5.5967      5.6041      5.6068      5.6041      5.5967    
  5.5833      5.5677      5.5524      5.5378      5.5253      5.5167      5.6736      5.6743      5.6763      5.6795    
  5.6834      5.6864      5.6863      5.6826      5.6778      5.6688      5.6556      5.6400      5.6194      5.5965    
  5.5744      5.5539      5.5368      5.5253      5.5212      5.5253      5.5368      5.5539      5.5744      5.5965    
  5.6194      5.6400      5.6556      5.6688      5.6778      5.6826      5.6863      5.6864      5.6834      5.6795    
  5.6763      5.6743      5.9897      5.9867      5.9775      5.9617      5.9390      5.9110      5.8808      5.8493    
  5.8146      5.7808      5.7465      5.7128      5.6784      5.6423      5.6084      5.5782      5.5539      5.5378    
  5.5322      5.5378      5.5539      5.5782      5.6084      5.6423      5.6784      5.7128      5.7465      5.7808    
  5.8146      5.8493      5.8808      5.9110      5.9390      5.9617      5.9775      5.9867      6.5041      6.4947    
  6.4668      6.4220      6.3624      6.2903      6.2076      6.1201      6.0364      5.9571      5.8841      5.8183    
  5.7589      5.7030      5.6520      5.6084      5.5744      5.5524      5.5448      5.5524      5.5744      5.6084    
  5.6520      5.7030      5.7589      5.8183      5.8841      5.9571      6.0364      6.1201      6.2076      6.2903    
  6.3624      6.4220      6.4668      6.4947      7.2666      7.2509      7.2030      7.1212      7.0054      6.8611    
  6.7008      6.5349      6.3688      6.2155      6.0800      5.9617      5.8618      5.7765      5.7030      5.6423    
  5.5965      5.5677      5.5579      5.5677      5.5965      5.6423      5.7030      5.7765      5.8618      5.9617    
  6.0800      6.2155      6.3688      6.5349      6.7008      6.8611      7.0054      7.1212      7.2030      7.2509    
  8.3284      8.2946      8.1990      8.0552      7.8752      7.6580      7.4005      7.1173      6.8387      6.5774    
  6.3463      6.1516      5.9907      5.8618      5.7589      5.6784      5.6194      5.5833      5.5710      5.5833    
  5.6194      5.6784      5.7589      5.8618      5.9907      6.1516      6.3463      6.5774      6.8387      7.1173    
  7.4005      7.6580      7.8752      8.0552      8.1990      8.2946      10.463      10.358      10.061      9.6353    
  9.1595      8.7048      8.2914      7.8849      7.4610      7.0564      6.6971      6.3944      6.1516      5.9617    
  5.8183      5.7128      5.6400      5.5967      5.5824      5.5967      5.6400      5.7128      5.8183      5.9617    
  6.1516      6.3944      6.6971      7.0564      7.4610      7.8849      8.2914      8.7048      9.1595      9.6353    
  10.061      10.358      15.033      14.782      14.071      13.013      11.786      10.588      9.5837      8.8265    
  8.2234      7.6556      7.1357      6.6971      6.3463      6.0800      5.8841      5.7465      5.6556      5.6041    
  5.5871      5.6041      5.6556      5.7465      5.8841      6.0800      6.3463      6.6971      7.1357      7.6556    
  8.2234      8.8265      9.5837      10.588      11.786      13.013      14.071      14.782      23.298      22.818    
  21.443      19.357      16.857      14.302      12.041      10.310      9.1470      8.3459      7.6556      7.0564    
  6.5774      6.2155      5.9571      5.7808      5.6688      5.6068      5.5872      5.6068      5.6688      5.7808    
  5.9571      6.2155      6.5774      7.0564      7.6556      8.3459      9.1470      10.310      12.041      14.302    
  16.857      19.357      21.443      22.818      36.203      35.400      33.081      29.524      25.174      20.598    
  16.378      12.976      10.597      9.1470      8.2234      7.4610      6.8387      6.3688      6.0364      5.8146    
  5.6778      5.6041      5.5813      5.6041      5.6778      5.8146      6.0364      6.3688      6.8387      7.4610    
  8.2234      9.1470      10.597      12.976      16.378      20.598      25.174      29.524      33.081      35.400    
  54.089      52.856      49.296      43.808      37.037      29.793      22.936      17.188      12.976      10.310    
  8.8265      7.8849      7.1173      6.5349      6.1201      5.8493      5.6826      5.5967      5.5685      5.5967    
  5.6826      5.8493      6.1201      6.5349      7.1173      7.8849      8.8265      10.310      12.976      17.188    
  22.936      29.793      37.037      43.808      49.296      52.856      76.530      74.765      69.665      61.804    
  52.080      41.610      31.561      22.936      16.378      12.041      9.5837      8.2914      7.4005      6.7008    
  6.2076      5.8808      5.6863      5.5833      5.5531      5.5833      5.6863      5.8808      6.2076      6.7008    
  7.4005      8.2914      9.5837      12.041      16.378      22.936      31.561      41.610      52.080      61.804    
  69.665      74.765      102.24      99.847      92.955      82.364      69.289      55.205      41.610      29.793    
  20.598      14.302      10.588      8.7048      7.6580      6.8611      6.2903      5.9110      5.6864      5.5677    
  5.5335      5.5677      5.6864      5.9110      6.2903      6.8611      7.6580      8.7048      10.588      14.302    
  20.598      29.793      41.610      55.205      69.289      82.364      92.955      99.847      129.12      126.05    