unknown system                          
   1.00000000000000     
     2.828042   -0.000000    0.000000
     0.000000    2.828042    0.000000
     0.000000    0.000000    2.828042
   Fe
     2
Direct
  0.000000 -0.000000 -0.000000
  0.500000  0.500000  0.500000
 
   36   36   36
 0.19154856970E+03 0.18688064767E+03 0.17352268422E+03 0.15325885689E+03 0.12863152637E+03
 0.10243616065E+03 0.77259206991E+02 0.55120550439E+02 0.37287398848E+02 0.24224652259E+02
 0.15675173457E+02 0.10807477675E+02 0.84674715484E+01 0.73662493537E+01 0.66162140240E+01
 0.60953608489E+01 0.57756717988E+01 0.56097885293E+01 0.55582849725E+01 0.56097885293E+01
 0.57756717988E+01 0.60953608489E+01 0.66162140240E+01 0.73662493537E+01 0.84674715484E+01
 0.10807477675E+02 0.15675173457E+02 0.24224652259E+02 0.37287398848E+02 0.55120550439E+02
 0.77259206991E+02 0.10243616065E+03 0.12863152637E+03 0.15325885689E+03 0.17352268422E+03
 0.18688064767E+03 0.18688064767E+03 0.18234281586E+03 0.16935258710E+03 0.14963183927E+03
 0.12564171029E+03 0.10009670252E+03 0.75520861831E+02 0.53896081787E+02 0.36479402685E+02
 0.23733778771E+02 0.15410942158E+02 0.10690375351E+02 0.84286581467E+01 0.73510015386E+01
 0.66065945633E+01 0.60922964423E+01 0.57761091957E+01 0.56128594323E+01 0.55616348355E+01
 0.56128594323E+01 0.57761091957E+01 0.60922964423E+01 0.66065945633E+01 0.73510015386E+01
 0.84286581467E+01 0.10690375351E+02 0.15410942158E+02 0.23733778771E+02 0.36479402685E+02
 0.53896081787E+02 0.75520861831E+02 0.10009670252E+03 0.12564171029E+03 0.14963183927E+03
 0.16935258710E+03 0.18234281586E+03 0.17352268422E+03 0.16935258710E+03 0.15740166441E+03
 0.13921919940E+03 0.11703749064E+03 0.93345678052E+02 0.70493759899E+02 0.50356738809E+02
 0.34144941111E+02 0.22321747234E+02 0.14658374212E+02 0.10361078809E+02 0.83204590258E+01
 0.73047951651E+01 0.65782225200E+01 0.60828056055E+01 0.57773250477E+01 0.56212812392E+01
 0.55713036932E+01 0.56212812392E+01 0.57773250477E+01 0.60828056055E+01 0.65782225200E+01
 0.73047951651E+01 0.83204590258E+01 0.10361078809E+02 0.14658374212E+02 0.22321747234E+02
 0.34144941111E+02 0.50356738809E+02 0.70493759899E+02 0.93345678052E+02 0.11703749064E+03
 0.13921919940E+03 0.15740166441E+03 0.16935258710E+03 0.15325885689E+03 0.14963183927E+03
 0.13921919940E+03 0.12332383674E+03 0.10384977294E+03 0.82957843567E+02 0.62735555940E+02
 0.44888880051E+02 0.30553124249E+02 0.20171094345E+02 0.13532298930E+02 0.98833980279E+01
 0.81617878487E+01 0.72267789843E+01 0.65316885260E+01 0.60667195181E+01 0.57790510067E+01
 0.56340504373E+01 0.55864242875E+01 0.56340504373E+01 0.57790510067E+01 0.60667195181E+01
 0.65316885260E+01 0.72267789843E+01 0.81617878487E+01 0.98833980279E+01 0.13532298930E+02
 0.20171094345E+02 0.30553124249E+02 0.44888880051E+02 0.62735555940E+02 0.82957843567E+02
 0.10384977294E+03 0.12332383674E+03 0.13921919940E+03 0.14963183927E+03 0.12863152637E+03
 0.12564171029E+03 0.11703749064E+03 0.10384977294E+03 0.87610166246E+02 0.70105461660E+02
 0.53109516253E+02 0.38116648172E+02 0.26136891695E+02 0.17571912549E+02 0.12211013644E+02
 0.93461104576E+01 0.79720231506E+01 0.71147655708E+01 0.64700566324E+01 0.60432226916E+01
 0.57812349063E+01 0.56485101677E+01 0.56057330347E+01 0.56485101677E+01 0.57812349063E+01
 0.60432226916E+01 0.64700566324E+01 0.71147655708E+01 0.79720231506E+01 0.93461104576E+01
 0.12211013644E+02 0.17571912549E+02 0.26136891695E+02 0.38116648172E+02 0.53109516253E+02
 0.70105461660E+02 0.87610166246E+02 0.10384977294E+03 0.11703749064E+03 0.12564171029E+03
 0.10243616065E+03 0.10009670252E+03 0.93345678052E+02 0.82957843567E+02 0.70105461660E+02
 0.56203546435E+02 0.42692690497E+02 0.30824661715E+02 0.21448753046E+02 0.14885034710E+02
 0.10900846646E+02 0.88349945332E+01 0.77563139510E+01 0.69717915658E+01 0.63960510985E+01
 0.60131698193E+01 0.57830149863E+01 0.56630594506E+01 0.56270521073E+01 0.56630594506E+01
 0.57830149863E+01 0.60131698193E+01 0.63960510985E+01 0.69717915658E+01 0.77563139510E+01
 0.88349945332E+01 0.10900846646E+02 0.14885034710E+02 0.21448753046E+02 0.30824661715E+02
 0.42692690497E+02 0.56203546435E+02 0.70105461660E+02 0.82957843567E+02 0.93345678052E+02
 0.10009670252E+03 0.77259206991E+02 0.75520861831E+02 0.70493759899E+02 0.62735555940E+02
 0.53109516253E+02 0.42692690497E+02 0.32609629246E+02 0.23850544787E+02 0.17065449523E+02
 0.12466021405E+02 0.97836315715E+01 0.83900607946E+01 0.75068873761E+01 0.68089039237E+01
 0.63120827322E+01 0.59793618335E+01 0.57819718262E+01 0.56765773338E+01 0.56464675098E+01
 0.56765773338E+01 0.57819718262E+01 0.59793618335E+01 0.63120827322E+01 0.68089039237E+01
 0.75068873761E+01 0.83900607946E+01 0.97836315715E+01 0.12466021405E+02 0.17065449523E+02
 0.23850544787E+02 0.32609629246E+02 0.42692690497E+02 0.53109516253E+02 0.62735555940E+02
 0.70493759899E+02 0.75520861831E+02 0.55120550439E+02 0.53896081787E+02 0.50356738809E+02
 0.44888880051E+02 0.38116648172E+02 0.30824661715E+02 0.23850544787E+02 0.17910913775E+02
 0.13463131506E+02 0.10573145280E+02 0.89444021470E+01 0.79841219051E+01 0.72267913833E+01
 0.66402484687E+01 0.62209170342E+01 0.59449351241E+01 0.57762254637E+01 0.56887478687E+01
 0.56608551988E+01 0.56887478687E+01 0.57762254637E+01 0.59449351241E+01 0.62209170342E+01
 0.66402484687E+01 0.72267913833E+01 0.79841219051E+01 0.89444021470E+01 0.10573145280E+02
 0.13463131506E+02 0.17910913775E+02 0.23850544787E+02 0.30824661715E+02 0.38116648172E+02
 0.44888880051E+02 0.50356738809E+02 0.53896081787E+02 0.37287398848E+02 0.36479402685E+02
 0.34144941111E+02 0.30553124249E+02 0.26136891695E+02 0.21448753046E+02 0.17065449523E+02
 0.13463131506E+02 0.10884383949E+02 0.92838529852E+01 0.83197444533E+01 0.75694159781E+01
 0.69450746812E+01 0.64710741059E+01 0.61324406935E+01 0.59074561478E+01 0.57681471745E+01
 0.56943303240E+01 0.56709215412E+01 0.56943303240E+01 0.57681471745E+01 0.59074561478E+01
 0.61324406935E+01 0.64710741059E+01 0.69450746812E+01 0.75694159781E+01 0.83197444533E+01
 0.92838529852E+01 0.10884383949E+02 0.13463131506E+02 0.17065449523E+02 0.21448753046E+02
 0.26136891695E+02 0.30553124249E+02 0.34144941111E+02 0.36479402685E+02 0.24224652259E+02
 0.23733778771E+02 0.22321747234E+02 0.20171094345E+02 0.17571912549E+02 0.14885034710E+02
 0.12466021405E+02 0.10573145280E+02 0.92838529852E+01 0.84420288243E+01 0.77625558186E+01
 0.71635800335E+01 0.66804907633E+01 0.63119588016E+01 0.60485763946E+01 0.58690770153E+01
 0.57564597472E+01 0.56942717960E+01 0.56750428118E+01 0.56942717960E+01 0.57564597472E+01
 0.58690770153E+01 0.60485763946E+01 0.63119588016E+01 0.66804907633E+01 0.71635800335E+01
 0.77625558186E+01 0.84420288243E+01 0.92838529852E+01 0.10573145280E+02 0.12466021405E+02
 0.14885034710E+02 0.17571912549E+02 0.20171094345E+02 0.22321747234E+02 0.23733778771E+02
 0.15675173457E+02 0.15410942158E+02 0.14658374212E+02 0.13532298930E+02 0.12211013644E+02
 0.10900846646E+02 0.97836315715E+01 0.89444021470E+01 0.83197444533E+01 0.77625558186E+01
 0.72432026130E+01 0.68005992685E+01 0.64429360698E+01 0.61705513653E+01 0.59709296813E+01
 0.58315380772E+01 0.57395872295E+01 0.56879329487E+01 0.56709215412E+01 0.56879329487E+01
 0.57395872295E+01 0.58315380772E+01 0.59709296813E+01 0.61705513653E+01 0.64429360698E+01
 0.68005992685E+01 0.72432026130E+01 0.77625558186E+01 0.83197444533E+01 0.89444021470E+01
 0.97836315715E+01 0.10900846646E+02 0.12211013644E+02 0.13532298930E+02 0.14658374212E+02
 0.15410942158E+02 0.10807477675E+02 0.10690375351E+02 0.10361078809E+02 0.98833980279E+01
 0.93461104576E+01 0.88349945332E+01 0.83900607946E+01 0.79841219051E+01 0.75694159781E+01
 0.71635800335E+01 0.68005992685E+01 0.64910890805E+01 0.62419358284E+01 0.60474769306E+01
 0.59000870572E+01 0.57919427727E+01 0.57182731033E+01 0.56749693313E+01 0.56608551988E+01
 0.56749693313E+01 0.57182731033E+01 0.57919427727E+01 0.59000870572E+01 0.60474769306E+01
 0.62419358284E+01 0.64910890805E+01 0.68005992685E+01 0.71635800335E+01 0.75694159781E+01
 0.79841219051E+01 0.83900607946E+01 0.88349945332E+01 0.93461104576E+01 0.98833980279E+01
 0.10361078809E+02 0.10690375351E+02 0.84674715484E+01 0.84286581467E+01 0.83204590258E+01
 0.81617878487E+01 0.79720231506E+01 0.77563139510E+01 0.75068873761E+01 0.72267913833E+01
 0.69450746812E+01 0.66804907633E+01 0.64429360698E+01 0.62419358284E+01 0.60760102831E+01
 0.59414826864E+01 0.58348067800E+01 0.57533125567E+01 0.56944899723E+01 0.56586757497E+01
 0.56464675098E+01 0.56586757497E+01 0.56944899723E+01 0.57533125567E+01 0.58348067800E+01
 0.59414826864E+01 0.60760102831E+01 0.62419358284E+01 0.64429360698E+01 0.66804907633E+01
 0.69450746812E+01 0.72267913833E+01 0.75068873761E+01 0.77563139510E+01 0.79720231506E+01
 0.81617878487E+01 0.83204590258E+01 0.84286581467E+01 0.73662493537E+01 0.73510015386E+01
 0.73047951651E+01 0.72267789843E+01 0.71147655708E+01 0.69717915658E+01 0.68089039237E+01
 0.66402484687E+01 0.64710741059E+01 0.63119588016E+01 0.61705513653E+01 0.60474769306E+01
 0.59414826864E+01 0.58514850647E+01 0.57765050101E+01 0.57145291828E+01 0.56673118914E+01
 0.56372567754E+01 0.56270521073E+01 0.56372567754E+01 0.56673118914E+01 0.57145291828E+01
 0.57765050101E+01 0.58514850647E+01 0.59414826864E+01 0.60474769306E+01 0.61705513653E+01
 0.63119588016E+01 0.64710741059E+01 0.66402484687E+01 0.68089039237E+01 0.69717915658E+01
 0.71147655708E+01 0.72267789843E+01 0.73047951651E+01 0.73510015386E+01 0.66162140240E+01
 0.66065945633E+01 0.65782225200E+01 0.65316885260E+01 0.64700566324E+01 0.63960510985E+01
 0.63120827322E+01 0.62209170342E+01 0.61324406935E+01 0.60485763946E+01 0.59709296813E+01
 0.59000870572E+01 0.58348067800E+01 0.57765050101E+01 0.57228339693E+01 0.56757337379E+01
 0.56381918336E+01 0.56141806527E+01 0.56057330347E+01 0.56141806527E+01 0.56381918336E+01
 0.56757337379E+01 0.57228339693E+01 0.57765050101E+01 0.58348067800E+01 0.59000870572E+01
 0.59709296813E+01 0.60485763946E+01 0.61324406935E+01 0.62209170342E+01 0.63120827322E+01
 0.63960510985E+01 0.64700566324E+01 0.65316885260E+01 0.65782225200E+01 0.66065945633E+01
 0.60953608489E+01 0.60922964423E+01 0.60828056055E+01 0.60667195181E+01 0.60432226916E+01
 0.60131698193E+01 0.59793618335E+01 0.59449351241E+01 0.59074561478E+01 0.58690770153E+01
 0.58315380772E+01 0.57919427727E+01 0.57533125567E+01 0.57145291828E+01 0.56757337379E+01
 0.56399904073E+01 0.56113907331E+01 0.55927954508E+01 0.55864242875E+01 0.55927954508E+01
 0.56113907331E+01 0.56399904073E+01 0.56757337379E+01 0.57145291828E+01 0.57533125567E+01
 0.57919427727E+01 0.58315380772E+01 0.58690770153E+01 0.59074561478E+01 0.59449351241E+01
 0.59793618335E+01 0.60131698193E+01 0.60432226916E+01 0.60667195181E+01 0.60828056055E+01
 0.60922964423E+01 0.57756717988E+01 0.57761091957E+01 0.57773250477E+01 0.57790510067E+01
 0.57812349063E+01 0.57830149863E+01 0.57819718262E+01 0.57762254637E+01 0.57681471745E+01
 0.57564597472E+01 0.57395872295E+01 0.57182731033E+01 0.56944899723E+01 0.56673118914E+01
 0.56381918336E+01 0.56113907331E+01 0.55899077681E+01 0.55761226727E+01 0.55713036932E+01
 0.55761226727E+01 0.55899077681E+01 0.56113907331E+01 0.56381918336E+01 0.56673118914E+01
 0.56944899723E+01 0.57182731033E+01 0.57395872295E+01 0.57564597472E+01 0.57681471745E+01
 0.57762254637E+01 0.57819718262E+01 0.57830149863E+01 0.57812349063E+01 0.57790510067E+01
 0.57773250477E+01 0.57761091957E+01 0.56097885293E+01 0.56128594323E+01 0.56212812392E+01
 0.56340504373E+01 0.56485101677E+01 0.56630594506E+01 0.56765773338E+01 0.56887478687E+01
 0.56943303240E+01 0.56942717960E+01 0.56879329487E+01 0.56749693313E+01 0.56586757497E+01
 0.56372567754E+01 0.56141806527E+01 0.55927954508E+01 0.55761226727E+01 0.55652706276E+01
 0.55616348355E+01 0.55652706276E+01 0.55761226727E+01 0.55927954508E+01 0.56141806527E+01
 0.56372567754E+01 0.56586757497E+01 0.56749693313E+01 0.56879329487E+01 0.56942717960E+01
 0.56943303240E+01 0.56887478687E+01 0.56765773338E+01 0.56630594506E+01 0.56485101677E+01
 0.56340504373E+01 0.56212812392E+01 0.56128594323E+01 0.55582849725E+01 0.55616348355E+01
 0.55713036932E+01 0.55864242875E+01 0.56057330347E+01 0.56270521073E+01 0.56464675098E+01
 0.56608551988E+01 0.56709215412E+01 0.56750428118E+01 0.56709215412E+01 0.56608551988E+01
 0.56464675098E+01 0.56270521073E+01 0.56057330347E+01 0.55864242875E+01 0.55713036932E+01
 0.55616348355E+01 0.55582849725E+01 0.55616348355E+01 0.55713036932E+01 0.55864242875E+01
 0.56057330347E+01 0.56270521073E+01 0.56464675098E+01 0.56608551988E+01 0.56709215412E+01
 0.56750428118E+01 0.56709215412E+01 0.56608551988E+01 0.56464675098E+01 0.56270521073E+01
 0.56057330347E+01 0.55864242875E+01 0.55713036932E+01 0.55616348355E+01 0.56097885293E+01
 0.56128594323E+01 0.56212812392E+01 0.56340504373E+01 0.56485101677E+01 0.56630594506E+01
 0.56765773338E+01 0.56887478687E+01 0.56943303240E+01 0.56942717960E+01 0.56879329487E+01
 0.56749693313E+01 0.56586757497E+01 0.56372567754E+01 0.56141806527E+01 0.55927954508E+01
 0.55761226727E+01 0.55652706276E+01 0.55616348355E+01 0.55652706276E+01 0.55761226727E+01
 0.55927954508E+01 0.56141806527E+01 0.56372567754E+01 0.56586757497E+01 0.56749693313E+01
 0.56879329487E+01 0.56942717960E+01 0.56943303240E+01 0.56887478687E+01 0.56765773338E+01
 0.56630594506E+01 0.56485101677E+01 0.56340504373E+01 0.56212812392E+01 0.56128594323E+01
 0.57756717988E+01 0.57761091957E+01 0.57773250477E+01 0.57790510067E+01 0.57812349063E+01
 0.57830149863E+01 0.57819718262E+01 0.57762254637E+01 0.57681471745E+01 0.57564597472E+01
 0.57395872295E+01 0.57182731033E+01 0.56944899723E+01 0.56673118914E+01 0.56381918336E+01
 0.56113907331E+01 0.55899077681E+01 0.55761226727E+01 0.55713036932E+01 0.55761226727E+01
 0.55899077681E+01 0.56113907331E+01 0.56381918336E+01 0.56673118914E+01 0.56944899723E+01
 0.57182731033E+01 0.57395872295E+01 0.57564597472E+01 0.57681471745E+01 0.57762254637E+01
 0.57819718262E+01 0.57830149863E+01 0.57812349063E+01 0.57790510067E+01 0.57773250477E+01
 0.57761091957E+01 0.60953608489E+01 0.60922964423E+01 0.60828056055E+01 0.60667195181E+01
 0.60432226916E+01 0.60131698193E+01 0.59793618335E+01 0.59449351241E+01 0.59074561478E+01
 0.58690770153E+01 0.58315380772E+01 0.57919427727E+01 0.57533125567E+01 0.57145291828E+01
 0.56757337379E+01 0.56399904073E+01 0.56113907331E+01 0.55927954508E+01 0.55864242875E+01
 0.55927954508E+01 0.56113907331E+01 0.56399904073E+01 0.56757337379E+01 0.57145291828E+01
 0.57533125567E+01 0.57919427727E+01 0.58315380772E+01 0.58690770153E+01 0.59074561478E+01
 0.59449351241E+01 0.59793618335E+01 0.60131698193E+01 0.60432226916E+01 0.60667195181E+01
 0.60828056055E+01 0.60922964423E+01 0.66162140240E+01 0.66065945633E+01 0.65782225200E+01
 0.65316885260E+01 0.64700566324E+01 0.63960510985E+01 0.63120827322E+01 0.62209170342E+01
 0.61324406935E+01 0.60485763946E+01 0.59709296813E+01 0.59000870572E+01 0.58348067800E+01
 0.57765050101E+01 0.57228339693E+01 0.56757337379E+01 0.56381918336E+01 0.56141806527E+01
 0.56057330347E+01 0.56141806527E+01 0.56381918336E+01 0.56757337379E+01 0.57228339693E+01
 0.57765050101E+01 0.58348067800E+01 0.59000870572E+01 0.59709296813E+01 0.60485763946E+01
 0.61324406935E+01 0.62209170342E+01 0.63120827322E+01 0.63960510985E+01 0.64700566324E+01
 0.65316885260E+01 0.65782225200E+01 0.66065945633E+01 0.73662493537E+01 0.73510015386E+01
 0.73047951651E+01 0.72267789843E+01 0.71147655708E+01 0.69717915658E+01 0.68089039237E+01
 0.66402484687E+01 0.64710741059E+01 0.63119588016E+01 0.61705513653E+01 0.60474769306E+01
 0.59414826864E+01 0.58514850647E+01 0.57765050101E+01 0.57145291828E+01 0.56673118914E+01
 0.56372567754E+01 0.56270521073E+01 0.56372567754E+01 0.56673118914E+01 0.57145291828E+01
 0.57765050101E+01 0.58514850647E+01 0.59414826864E+01 0.60474769306E+01 0.61705513653E+01
 0.63119588016E+01 0.64710741059E+01 0.66402484687E+01 0.68089039237E+01 0.69717915658E+01
 0.71147655708E+01 0.72267789843E+01 0.73047951651E+01 0.73510015386E+01 0.84674715484E+01
 0.84286581467E+01 0.83204590258E+01 0.81617878487E+01 0.79720231506E+01 0.77563139510E+01
 0.75068873761E+01 0.72267913833E+01 0.69450746812E+01 0.66804907633E+01 0.64429360698E+01
 0.62419358284E+01 0.60760102831E+01 0.59414826864E+01 0.58348067800E+01 0.57533125567E+01
 0.56944899723E+01 0.56586757497E+01 0.56464675098E+01 0.56586757497E+01 0.56944899723E+01
 0.57533125567E+01 0.58348067800E+01 0.59414826864E+01 0.60760102831E+01 0.62419358284E+01
 0.64429360698E+01 0.66804907633E+01 0.69450746812E+01 0.72267913833E+01 0.75068873761E+01
 0.77563139510E+01 0.79720231506E+01 0.81617878487E+01 0.83204590258E+01 0.84286581467E+01
 0.10807477675E+02 0.10690375351E+02 0.10361078809E+02 0.98833980279E+01 0.93461104576E+01
 0.88349945332E+01 0.83900607946E+01 0.79841219051E+01 0.75694159781E+01 0.71635800335E+01
 0.68005992685E+01 0.64910890805E+01 0.62419358284E+01 0.60474769306E+01 0.59000870572E+01
 0.57919427727E+01 0.57182731033E+01 0.56749693313E+01 0.56608551988E+01 0.56749693313E+01
 0.57182731033E+01 0.57919427727E+01 0.59000870572E+01 0.60474769306E+01 0.62419358284E+01
 0.64910890805E+01 0.68005992685E+01 0.71635800335E+01 0.75694159781E+01 0.79841219051E+01
 0.83900607946E+01 0.88349945332E+01 0.93461104576E+01 0.98833980279E+01 0.10361078809E+02
 0.10690375351E+02 0.15675173457E+02 0.15410942158E+02 0.14658374212E+02 0.13532298930E+02
 0.12211013644E+02 0.10900846646E+02 0.97836315715E+01 0.89444021470E+01 0.83197444533E+01
 0.77625558186E+01 0.72432026130E+01 0.68005992685E+01 0.64429360698E+01 0.61705513653E+01
 0.59709296813E+01 0.58315380772E+01 0.57395872295E+01 0.56879329487E+01 0.56709215412E+01
 0.56879329487E+01 0.57395872295E+01 0.58315380772E+01 0.59709296813E+01 0.61705513653E+01
 0.64429360698E+01 0.68005992685E+01 0.72432026130E+01 0.77625558186E+01 0.83197444533E+01
 0.89444021470E+01 0.97836315715E+01 0.10900846646E+02 0.12211013644E+02 0.13532298930E+02
 0.14658374212E+02 0.15410942158E+02 0.24224652259E+02 0.23733778771E+02 0.22321747234E+02
 0.20171094345E+02 0.17571912549E+02 0.14885034710E+02 0.12466021405E+02 0.10573145280E+02
 0.92838529852E+01 0.84420288243E+01 0.77625558186E+01 0.71635800335E+01 0.66804907633E+01
 0.63119588016E+01 0.60485763946E+01 0.58690770153E+01 0.57564597472E+01 0.56942717960E+01
 0.56750428118E+01 0.56942717960E+01 0.57564597472E+01 0.58690770153E+01 0.60485763946E+01
 0.63119588016E+01 0.66804907633E+01 0.71635800335E+01 0.77625558186E+01 0.84420288243E+01
 0.92838529852E+01 0.10573145280E+02 0.12466021405E+02 0.14885034710E+02 0.17571912549E+02
 0.20171094345E+02 0.22321747234E+02 0.23733778771E+02 0.37287398848E+02 0.36479402685E+02
 0.34144941111E+02 0.30553124249E+02 0.26136891695E+02 0.21448753046E+02 0.17065449523E+02
 0.13463131506E+02 0.10884383949E+02 0.92838529852E+01 0.83197444533E+01 0.75694159781E+01
 0.69450746812E+01 0.64710741059E+01 0.61324406935E+01 0.59074561478E+01 0.57681471745E+01
 0.56943303240E+01 0.56709215412E+01 0.56943303240E+01 0.57681471745E+01 0.59074561478E+01
 0.61324406935E+01 0.64710741059E+01 0.69450746812E+01 0.75694159781E+01 0.83197444533E+01
 0.92838529852E+01 0.10884383949E+02 0.13463131506E+02 0.17065449523E+02 0.21448753046E+02
 0.26136891695E+02 0.30553124249E+02 0.34144941111E+02 0.36479402685E+02 0.55120550439E+02
 0.53896081787E+02 0.50356738809E+02 0.44888880051E+02 0.38116648172E+02 0.30824661715E+02
 0.23850544787E+02 0.17910913775E+02 0.13463131506E+02 0.10573145280E+02 0.89444021470E+01
 0.79841219051E+01 0.72267913833E+01 0.66402484687E+01 0.62209170342E+01 0.59449351241E+01
 0.57762254637E+01 0.56887478687E+01 0.56608551988E+01 0.56887478687E+01 0.57762254637E+01
 0.59449351241E+01 0.62209170342E+01 0.66402484687E+01 0.72267913833E+01 0.79841219051E+01
 0.89444021470E+01 0.10573145280E+02 0.13463131506E+02 0.17910913775E+02 0.23850544787E+02
 0.30824661715E+02 0.38116648172E+02 0.44888880051E+02 0.50356738809E+02 0.53896081787E+02
 0.77259206991E+02 0.75520861831E+02 0.70493759899E+02 0.62735555940E+02 0.53109516253E+02
 0.42692690497E+02 0.32609629246E+02 0.23850544787E+02 0.17065449523E+02 0.12466021405E+02
 0.97836315715E+01 0.83900607946E+01 0.75068873761E+01 0.68089039237E+01 0.63120827322E+01
 0.59793618335E+01 0.57819718262E+01 0.56765773338E+01 0.56464675098E+01 0.56765773338E+01
 0.57819718262E+01 0.59793618335E+01 0.63120827322E+01 0.68089039237E+01 0.75068873761E+01
 0.83900607946E+01 0.97836315715E+01 0.12466021405E+02 0.17065449523E+02 0.23850544787E+02
 0.32609629246E+02 0.42692690497E+02 0.53109516253E+02 0.62735555940E+02 0.70493759899E+02
 0.75520861831E+02 0.10243616065E+03 0.10009670252E+03 0.93345678052E+02 0.82957843567E+02
 0.70105461660E+02 0.56203546435E+02 0.42692690497E+02 0.30824661715E+02 0.21448753046E+02
 0.14885034710E+02 0.10900846646E+02 0.88349945332E+01 0.77563139510E+01 0.69717915658E+01
 0.63960510985E+01 0.60131698193E+01 0.57830149863E+01 0.56630594506E+01 0.56270521073E+01
 0.56630594506E+01 0.57830149863E+01 0.60131698193E+01 0.63960510985E+01 0.69717915658E+01
 0.77563139510E+01 0.88349945332E+01 0.10900846646E+02 0.14885034710E+02 0.21448753046E+02
 0.30824661715E+02 0.42692690497E+02 0.56203546435E+02 0.70105461660E+02 0.82957843567E+02
 0.93345678052E+02 0.10009670252E+03 0.12863152637E+03 0.12564171029E+03 0.11703749064E+03
 0.10384977294E+03 0.87610166246E+02 0.70105461660E+02 0.53109516253E+02 0.38116648172E+02
 0.26136891695E+02 0.17571912549E+02 0.12211013644E+02 0.93461104576E+01 0.79720231506E+01
 0.71147655708E+01 0.64700566324E+01 0.60432226916E+01 0.57812349063E+01 0.56485101677E+01
 0.56057330347E+01 0.56485101677E+01 0.57812349063E+01 0.60432226916E+01 0.64700566324E+01
 0.71147655708E+01 0.79720231506E+01 0.93461104576E+01 0.12211013644E+02 0.17571912549E+02
 0.26136891695E+02 0.38116648172E+02 0.53109516253E+02 0.70105461660E+02 0.87610166246E+02
 0.10384977294E+03 0.11703749064E+03 0.12564171029E+03 0.15325885689E+03 0.14963183927E+03
 0.13921919940E+03 0.12332383674E+03 0.10384977294E+03 0.82957843567E+02 0.62735555940E+02
 0.44888880051E+02 0.30553124249E+02 0.20171094345E+02 0.13532298930E+02 0.98833980279E+01
 0.81617878487E+01 0.72267789843E+01 0.65316885260E+01 0.60667195181E+01 0.57790510067E+01
 0.56340504373E+01 0.55864242875E+01 0.56340504373E+01 0.57790510067E+01 0.60667195181E+01
 0.65316885260E+01 0.72267789843E+01 0.81617878487E+01 0.98833980279E+01 0.13532298930E+02
 0.20171094345E+02 0.30553124249E+02 0.44888880051E+02 0.62735555940E+02 0.82957843567E+02
 0.10384977294E+03 0.12332383674E+03 0.13921919940E+03 0.14963183927E+03 0.17352268422E+03
 0.16935258710E+03 0.15740166441E+03 0.13921919940E+03 0.11703749064E+03 0.93345678052E+02
 0.70493759899E+02 0.50356738809E+02 0.34144941111E+02 0.22321747234E+02 0.14658374212E+02
 0.10361078809E+02 0.83204590258E+01 0.73047951651E+01 0.65782225200E+01 0.60828056055E+01
 0.57773250477E+01 0.56212812392E+01 0.55713036932E+01 0.56212812392E+01 0.57773250477E+01
 0.60828056055E+01 0.65782225200E+01 0.73047951651E+01 0.83204590258E+01 0.10361078809E+02
 0.14658374212E+02 0.22321747234E+02 0.34144941111E+02 0.50356738809E+02 0.70493759899E+02
 0.93345678052E+02 0.11703749064E+03 0.13921919940E+03 0.15740166441E+03 0.16935258710E+03
 0.18688064767E+03 0.18234281586E+03 0.16935258710E+03 0.14963183927E+03 0.12564171029E+03
 0.10009670252E+03 0.75520861831E+02 0.53896081787E+02 0.36479402685E+02 0.23733778771E+02
 0.15410942158E+02 0.10690375351E+02 0.84286581467E+01 0.73510015386E+01 0.66065945633E+01
 0.60922964423E+01 0.57761091957E+01 0.56128594323E+01 0.55616348355E+01 0.56128594323E+01
 0.57761091957E+01 0.60922964423E+01 0.66065945633E+01 0.73510015386E+01 0.84286581467E+01
 0.10690375351E+02 0.15410942158E+02 0.23733778771E+02 0.36479402685E+02 0.53896081787E+02
 0.75520861831E+02 0.10009670252E+03 0.12564171029E+03 0.14963183927E+03 0.16935258710E+03
 0.18234281586E+03 0.18688064767E+03 0.18234281586E+03 0.16935258710E+03 0.14963183927E+03
 0.12564171029E+03 0.10009670252E+03 0.75520861831E+02 0.53896081787E+02 0.36479402685E+02
 0.23733778771E+02 0.15410942158E+02 0.10690375351E+02 0.84286581467E+01 0.73510015386E+01
 0.66065945633E+01 0.60922964423E+01 0.57761091957E+01 0.56128594323E+01 0.55616348355E+01
 0.56128594323E+01 0.57761091957E+01 0.60922964423E+01 0.66065945633E+01 0.73510015386E+01
 0.84286581467E+01 0.10690375351E+02 0.15410942158E+02 0.23733778771E+02 0.36479402685E+02
 0.53896081787E+02 0.75520861831E+02 0.10009670252E+03 0.12564171029E+03 0.14963183927E+03
 0.16935258710E+03 0.18234281586E+03 0.18234281586E+03 0.17793050721E+03 0.16529527163E+03
 0.14609943310E+03 0.12272618482E+03 0.97811989445E+02 0.73820770988E+02 0.52697850146E+02
 0.35689227201E+02 0.23254728356E+02 0.15154477254E+02 0.10577922357E+02 0.83918511053E+01
 0.73363122480E+01 0.65976209607E+01 0.60896944897E+01 0.57769246069E+01 0.56161955001E+01
 0.55652706276E+01 0.56161955001E+01 0.57769246069E+01 0.60896944897E+01 0.65976209607E+01
 0.73363122480E+01 0.83918511053E+01 0.10577922357E+02 0.15154477254E+02 0.23254728356E+02
 0.35689227201E+02 0.52697850146E+02 0.73820770988E+02 0.97811989445E+02 0.12272618482E+03
 0.14609943310E+03 0.16529527163E+03 0.17793050721E+03 0.16935258710E+03 0.16529527163E+03
 0.15366363487E+03 0.13595505173E+03 0.11433303774E+03 0.91217874050E+02 0.68904732561E+02
 0.49235127627E+02 0.33406957451E+02 0.21877614710E+02 0.14424681260E+02 0.10261872042E+02
 0.82894272743E+01 0.72916720494E+01 0.65708368724E+01 0.60815408142E+01 0.57794752746E+01
 0.56257323322E+01 0.55761226727E+01 0.56257323322E+01 0.57794752746E+01 0.60815408142E+01
 0.65708368724E+01 0.72916720494E+01 0.82894272743E+01 0.10261872042E+02 0.14424681260E+02
 0.21877614710E+02 0.33406957451E+02 0.49235127627E+02 0.68904732561E+02 0.91217874050E+02
 0.11433303774E+03 0.13595505173E+03 0.15366363487E+03 0.16529527163E+03 0.14963183927E+03
 0.14609943310E+03 0.13595505173E+03 0.12046053043E+03 0.10146380600E+03 0.81069362147E+02
 0.61318266014E+02 0.43888315594E+02 0.29898239885E+02 0.19782663905E+02 0.13334357823E+02
 0.98042648273E+01 0.81383106673E+01 0.72158051375E+01 0.65270348399E+01 0.60673800033E+01
 0.57830751563E+01 0.56398534732E+01 0.55927954508E+01 0.56398534732E+01 0.57830751563E+01
 0.60673800033E+01 0.65270348399E+01 0.72158051375E+01 0.81383106673E+01 0.98042648273E+01
 0.13334357823E+02 0.19782663905E+02 0.29898239885E+02 0.43888315594E+02 0.61318266014E+02
 0.81069362147E+02 0.10146380600E+03 0.12046053043E+03 0.13595505173E+03 0.14609943310E+03
 0.12564171029E+03 0.12272618482E+03 0.11433303774E+03 0.10146380600E+03 0.85608070801E+02
 0.68510653898E+02 0.51908378240E+02 0.37271368766E+02 0.25589206397E+02 0.17255731727E+02
 0.12057890945E+02 0.92905305269E+01 0.79559093431E+01 0.71064466876E+01 0.64686056110E+01
 0.60462533543E+01 0.57876607619E+01 0.56561839435E+01 0.56141806527E+01 0.56561839435E+01
 0.57876607619E+01 0.60462533543E+01 0.64686056110E+01 0.71064466876E+01 0.79559093431E+01
 0.92905305269E+01 0.12057890945E+02 0.17255731727E+02 0.25589206397E+02 0.37271368766E+02
 0.51908378240E+02 0.68510653898E+02 0.85608070801E+02 0.10146380600E+03 0.11433303774E+03
 0.12272618482E+03 0.10009670252E+03 0.97811989445E+02 0.91217874050E+02 0.81069362147E+02
 0.68510653898E+02 0.54926931382E+02 0.41732202104E+02 0.30154580988E+02 0.21023205087E+02
 0.14650191823E+02 0.10795806329E+02 0.88018233526E+01 0.77453907331E+01 0.69671444727E+01
 0.63980147312E+01 0.60189954973E+01 0.57916132421E+01 0.56726704936E+01 0.56372567754E+01
 0.56726704936E+01 0.57916132421E+01 0.60189954973E+01 0.63980147312E+01 0.69671444727E+01
 0.77453907331E+01 0.88018233526E+01 0.10795806329E+02 0.14650191823E+02 0.21023205087E+02
 0.30154580988E+02 0.41732202104E+02 0.54926931382E+02 0.68510653898E+02 0.81069362147E+02
 0.91217874050E+02 0.97811989445E+02 0.75520861831E+02 0.73820770988E+02 0.68904732561E+02
 0.61318266014E+02 0.51908378240E+02 0.41732202104E+02 0.31893185827E+02 0.23358661473E+02
 0.16765378206E+02 0.12311419737E+02 0.97230686589E+01 0.83728515067E+01 0.74997240213E+01
 0.68086757992E+01 0.63171276474E+01 0.59882508362E+01 0.57928585068E+01 0.56886350767E+01
 0.56586757497E+01 0.56886350767E+01 0.57928585068E+01 0.59882508362E+01 0.63171276474E+01
 0.68086757992E+01 0.74997240213E+01 0.83728515067E+01 0.97230686589E+01 0.12311419737E+02
 0.16765378206E+02 0.23358661473E+02 0.31893185827E+02 0.41732202104E+02 0.51908378240E+02
 0.61318266014E+02 0.68904732561E+02 0.73820770988E+02 0.53896081787E+02 0.52697850146E+02
 0.49235127627E+02 0.43888315594E+02 0.37271368766E+02 0.30154580988E+02 0.23358661473E+02
 0.17585768507E+02 0.13277411915E+02 0.10487597667E+02 0.89166948203E+01 0.79747618694E+01
 0.72240980157E+01 0.66443531592E+01 0.62296050682E+01 0.59566568235E+01 0.57893925528E+01
 0.57027410780E+01 0.56749693313E+01 0.57027410780E+01 0.57893925528E+01 0.59566568235E+01
 0.62296050682E+01 0.66443531592E+01 0.72240980157E+01 0.79747618694E+01 0.89166948203E+01
 0.10487597667E+02 0.13277411915E+02 0.17585768507E+02 0.23358661473E+02 0.30154580988E+02
 0.37271368766E+02 0.43888315594E+02 0.49235127627E+02 0.52697850146E+02 0.36479402685E+02
 0.35689227201E+02 0.33406957451E+02 0.29898239885E+02 0.25589206397E+02 0.21023205087E+02
 0.16765378206E+02 0.13277411915E+02 0.10788841287E+02 0.92478843362E+01 0.83079815227E+01
 0.75648956894E+01 0.69478877948E+01 0.64792184078E+01 0.61445530790E+01 0.59220135831E+01
 0.57843019846E+01 0.57110673016E+01 0.56879329487E+01 0.57110673016E+01 0.57843019846E+01
 0.59220135831E+01 0.61445530790E+01 0.64792184078E+01 0.69478877948E+01 0.75648956894E+01
 0.83079815227E+01 0.92478843362E+01 0.10788841287E+02 0.13277411915E+02 0.16765378206E+02
 0.21023205087E+02 0.25589206397E+02 0.29898239885E+02 0.33406957451E+02 0.35689227201E+02
 0.23733778771E+02 0.23254728356E+02 0.21877614710E+02 0.19782663905E+02 0.17255731727E+02
 0.14650191823E+02 0.12311419737E+02 0.10487597667E+02 0.92478843362E+01 0.84291189514E+01