   2   2   1   0
  0.1173411E+02  0.2863036E-09  0.2863036E-09  0.2863036E-09  0.5000000E-15
  1.000000000000000E-004
  CAR 
 unknown system                          
     44.91026857     -4.84945779  301      5.87586501      1.00000000
     -4.849  0.0000E+00  0.0000E+00  0.0000E+00  0.0000E+00
     -4.684  0.0000E+00  0.0000E+00  0.0000E+00  0.0000E+00
     -4.518  0.0000E+00  0.0000E+00  0.0000E+00  0.0000E+00
     -4.352 -0.1100E-37  0.0000E+00 -0.1825E-38  0.0000E+00
     -4.186 -0.1133E-31 -0.1539E-37 -0.1879E-32 -0.2553E-38
     -4.020 -0.2917E-26 -0.1535E-31 -0.4838E-27 -0.2546E-32
     -3.854 -0.1874E-21 -0.3827E-26 -0.3108E-22 -0.6348E-27
     -3.688 -0.2898E-17 -0.2380E-21 -0.4807E-18 -0.3948E-22
     -3.523 -0.1136E-13 -0.3564E-17 -0.1885E-14 -0.5912E-18
     -3.357 -0.1099E-10 -0.1353E-13 -0.1825E-11 -0.2244E-14
     -3.191 -0.2632E-08 -0.1266E-10 -0.4384E-09 -0.2102E-11
     -3.025 -0.1590E-06 -0.2932E-08 -0.2681E-07 -0.4885E-09
     -2.859 -0.2449E-05 -0.1712E-06 -0.4329E-06 -0.2889E-07
     -2.693 -0.5722E-05 -0.2543E-05 -0.1382E-05 -0.4507E-06
     -2.527  0.5746E-04 -0.5438E-05  0.8148E-05 -0.1353E-05
     -2.361  0.2567E-03  0.6020E-04  0.5073E-04  0.8632E-05
     -2.196  0.3352E-03  0.2595E-03  0.1063E-03  0.5168E-04
     -2.030  0.4443E-03  0.3326E-03  0.1800E-03  0.1069E-03
     -1.864  0.7410E-03  0.4378E-03  0.3029E-03  0.1795E-03
     -1.698  0.4700E-03  0.7380E-03  0.3809E-03  0.3019E-03
     -1.532  0.6273E-03  0.4633E-03  0.4849E-03  0.3787E-03
     -1.366  0.1013E-02  0.5905E-03  0.6530E-03  0.4767E-03
     -1.200  0.8294E-03  0.9948E-03  0.7906E-03  0.6417E-03
     -1.035  0.9965E-03  0.8142E-03  0.9558E-03  0.7767E-03
     -0.869  0.9704E-03  0.9004E-03  0.1117E-02  0.9261E-03
     -0.703  0.8035E-03  0.1041E-02  0.1250E-02  0.1099E-02
     -0.537  0.1595E-02  0.6413E-03  0.1515E-02  0.1205E-02
     -0.371  0.1522E-02  0.1369E-02  0.1767E-02  0.1432E-02
     -0.205  0.1346E-02  0.1447E-02  0.1990E-02  0.1672E-02
     -0.039  0.1173E-02  0.1389E-02  0.2185E-02  0.1903E-02
      0.127  0.1843E-02  0.1057E-02  0.2491E-02  0.2078E-02
      0.292  0.2001E-02  0.1035E-02  0.2823E-02  0.2250E-02
      0.458  0.2649E-02  0.1892E-02  0.3262E-02  0.2563E-02
      0.624  0.2408E-02  0.1752E-02  0.3661E-02  0.2854E-02
      0.790  0.2596E-02  0.2064E-02  0.4092E-02  0.3196E-02
      0.956  0.5649E-02  0.1695E-02  0.5029E-02  0.3478E-02
      1.122  0.9912E-02  0.1848E-02  0.6673E-02  0.3784E-02
      1.288  0.1163E-01  0.2047E-02  0.8601E-02  0.4124E-02
      1.453  0.1306E-01  0.2445E-02  0.1077E-01  0.4529E-02
      1.619  0.1734E-01  0.3046E-02  0.1364E-01  0.5034E-02
      1.785  0.1931E-01  0.3027E-02  0.1685E-01  0.5537E-02
      1.951  0.1360E-01  0.3902E-02  0.1910E-01  0.6184E-02
      2.117  0.1109E-01  0.3718E-02  0.2094E-01  0.6800E-02
      2.283  0.8183E-02  0.5752E-02  0.2230E-01  0.7755E-02
      2.449  0.1501E-01  0.7919E-02  0.2479E-01  0.9068E-02
      2.615  0.2881E-01  0.7354E-02  0.2956E-01  0.1029E-01
      2.780  0.2699E-01  0.6505E-02  0.3404E-01  0.1137E-01
      2.946  0.1978E-01  0.8690E-02  0.3732E-01  0.1281E-01
      3.112  0.2136E-01  0.1117E-01  0.4086E-01  0.1466E-01
      3.278  0.2707E-01  0.1260E-01  0.4535E-01  0.1675E-01
      3.444  0.2812E-01  0.1245E-01  0.5002E-01  0.1882E-01
      3.610  0.2018E-01  0.8624E-02  0.5337E-01  0.2025E-01
      3.776  0.1077E-01  0.6001E-02  0.5515E-01  0.2124E-01
      3.941  0.8811E-02  0.7730E-02  0.5662E-01  0.2252E-01
      4.107  0.8462E-02  0.1717E-01  0.5802E-01  0.2537E-01
      4.273  0.9840E-02  0.2604E-01  0.5965E-01  0.2969E-01
      4.439  0.1604E-01  0.2530E-01  0.6231E-01  0.3389E-01
      4.605  0.2699E-01  0.2292E-01  0.6679E-01  0.3769E-01
      4.771  0.3814E-01  0.2259E-01  0.7312E-01  0.4144E-01
      4.937  0.4963E-01  0.2351E-01  0.8135E-01  0.4534E-01
      5.102  0.4308E-01  0.2410E-01  0.8849E-01  0.4933E-01
      5.268  0.2389E-01  0.2136E-01  0.9245E-01  0.5288E-01
      5.434  0.1667E-01  0.1464E-01  0.9522E-01  0.5531E-01
      5.600  0.1441E-01  0.8815E-02  0.9761E-01  0.5677E-01
      5.766  0.1452E-01  0.6284E-02  0.1000E+00  0.5781E-01
      5.932  0.1591E-01  0.3905E-02  0.1027E+00  0.5846E-01
      6.098  0.1344E-01  0.5401E-02  0.1049E+00  0.5935E-01
      6.264  0.6115E-02  0.6027E-02  0.1059E+00  0.6035E-01
      6.429  0.2056E-02  0.6670E-02  0.1062E+00  0.6146E-01
      6.595  0.2679E-02  0.1086E-01  0.1067E+00  0.6326E-01
      6.761  0.3652E-02  0.1383E-01  0.1073E+00  0.6555E-01
      6.927  0.2958E-02  0.1604E-01  0.1078E+00  0.6821E-01
      7.093  0.2583E-02  0.2008E-01  0.1082E+00  0.7154E-01
      7.259  0.3806E-02  0.2575E-01  0.1088E+00  0.7582E-01
      7.425  0.3173E-02  0.2580E-01  0.1094E+00  0.8010E-01
      7.590  0.2091E-02  0.2646E-01  0.1097E+00  0.8448E-01
      7.756  0.2371E-02  0.4178E-01  0.1101E+00  0.9141E-01
      7.922  0.2786E-02  0.4381E-01  0.1106E+00  0.9868E-01
      8.088  0.2664E-02  0.2322E-01  0.1110E+00  0.1025E+00
      8.254  0.2404E-02  0.1324E-01  0.1114E+00  0.1047E+00
      8.420  0.2582E-02  0.8898E-02  0.1118E+00  0.1062E+00
      8.586  0.3388E-02  0.5004E-02  0.1124E+00  0.1070E+00
      8.752  0.3888E-02  0.3708E-02  0.1130E+00  0.1076E+00
      8.917  0.2348E-02  0.4370E-02  0.1134E+00  0.1084E+00
      9.083  0.9807E-03  0.5003E-02  0.1136E+00  0.1092E+00
      9.249  0.1680E-02  0.4021E-02  0.1139E+00  0.1099E+00
      9.415  0.1637E-02  0.1937E-02  0.1141E+00  0.1102E+00
      9.581  0.2509E-02  0.2743E-02  0.1146E+00  0.1106E+00
      9.747  0.3383E-02  0.4092E-02  0.1151E+00  0.1113E+00
      9.913  0.2450E-02  0.4332E-02  0.1155E+00  0.1120E+00
     10.078  0.2091E-02  0.3421E-02  0.1159E+00  0.1126E+00
     10.244  0.1175E-02  0.3294E-02  0.1161E+00  0.1132E+00
     10.410  0.2168E-02  0.1776E-02  0.1164E+00  0.1135E+00
     10.576  0.2177E-02  0.1885E-02  0.1168E+00  0.1138E+00
     10.742  0.1946E-02  0.2778E-02  0.1171E+00  0.1142E+00
     10.908  0.1672E-02  0.3086E-02  0.1174E+00  0.1147E+00
     11.074  0.6638E-03  0.3164E-02  0.1175E+00  0.1153E+00
     11.240  0.3989E-03  0.2781E-02  0.1176E+00  0.1157E+00
     11.405  0.1041E-02  0.1896E-02  0.1177E+00  0.1160E+00
     11.571  0.2084E-02  0.1642E-02  0.1181E+00  0.1163E+00
     11.737  0.2719E-02  0.2272E-02  0.1185E+00  0.1167E+00
     11.903  0.1892E-02  0.2098E-02  0.1189E+00  0.1170E+00
     12.069  0.4301E-03  0.2145E-02  0.1189E+00  0.1174E+00
     12.235  0.3612E-03  0.1138E-02  0.1190E+00  0.1176E+00
     12.401  0.1144E-02  0.7666E-03  0.1192E+00  0.1177E+00
     12.566  0.5013E-03  0.1435E-02  0.1193E+00  0.1179E+00
     12.732  0.2390E-03  0.2680E-02  0.1193E+00  0.1184E+00
     12.898  0.4455E-03  0.2635E-02  0.1194E+00  0.1188E+00
     13.064  0.2982E-03  0.6250E-03  0.1194E+00  0.1189E+00
     13.230  0.8440E-03  0.2707E-03  0.1196E+00  0.1190E+00
     13.396  0.3079E-02  0.1133E-02  0.1201E+00  0.1192E+00
     13.562  0.4810E-02  0.5330E-03  0.1209E+00  0.1193E+00
     13.728  0.4645E-02  0.1232E-03  0.1216E+00  0.1193E+00
     13.893  0.4985E-02  0.6976E-03  0.1225E+00  0.1194E+00
     14.059  0.5575E-02  0.1077E-02  0.1234E+00  0.1196E+00
     14.225  0.3781E-02  0.1183E-02  0.1240E+00  0.1198E+00
     14.391  0.3468E-02  0.6474E-03  0.1246E+00  0.1199E+00
     14.557  0.2528E-02  0.1186E-02  0.1250E+00  0.1201E+00
     14.723  0.2569E-02  0.4342E-02  0.1254E+00  0.1208E+00
     14.889  0.3337E-02  0.5031E-02  0.1260E+00  0.1216E+00
     15.054  0.3819E-02  0.6891E-02  0.1266E+00  0.1228E+00
     15.220  0.3576E-02  0.6601E-02  0.1272E+00  0.1239E+00
     15.386  0.4125E-02  0.5075E-02  0.1279E+00  0.1247E+00
     15.552  0.3301E-02  0.2467E-02  0.1285E+00  0.1251E+00
     15.718  0.1528E-02  0.1711E-02  0.1287E+00  0.1254E+00
     15.884  0.3239E-02  0.4542E-02  0.1292E+00  0.1261E+00
     16.050  0.5451E-02  0.4390E-02  0.1301E+00  0.1269E+00
     16.215  0.4405E-02  0.3666E-02  0.1309E+00  0.1275E+00
     16.381  0.2812E-02  0.5273E-02  0.1313E+00  0.1284E+00
     16.547  0.3502E-02  0.3739E-02  0.1319E+00  0.1290E+00
     16.713  0.5074E-02  0.2681E-02  0.1328E+00  0.1294E+00
     16.879  0.4773E-02  0.3823E-02  0.1336E+00  0.1301E+00
     17.045  0.3750E-02  0.4199E-02  0.1342E+00  0.1308E+00
     17.211  0.2985E-02  0.3630E-02  0.1347E+00  0.1314E+00
     17.377  0.1713E-02  0.4244E-02  0.1350E+00  0.1321E+00
     17.542  0.2753E-02  0.6221E-02  0.1354E+00  0.1331E+00
     17.708  0.3750E-02  0.5133E-02  0.1360E+00  0.1339E+00
     17.874  0.5438E-02  0.2681E-02  0.1369E+00  0.1344E+00
     18.040  0.6017E-02  0.2744E-02  0.1379E+00  0.1348E+00
     18.206  0.3956E-02  0.2175E-02  0.1386E+00  0.1352E+00
     18.372  0.2433E-02  0.2757E-02  0.1390E+00  0.1357E+00
     18.538  0.3417E-02  0.4961E-02  0.1396E+00  0.1365E+00
     18.703  0.2426E-02  0.5986E-02  0.1400E+00  0.1375E+00
     18.869  0.1306E-02  0.5750E-02  0.1402E+00  0.1384E+00
     19.035  0.3462E-02  0.2883E-02  0.1408E+00  0.1389E+00
     19.201  0.5861E-02  0.2877E-02  0.1417E+00  0.1394E+00
     19.367  0.3844E-02  0.3342E-02  0.1424E+00  0.1399E+00
     19.533  0.3471E-02  0.1688E-02  0.1429E+00  0.1402E+00
     19.699  0.5089E-02  0.3502E-02  0.1438E+00  0.1408E+00
     19.865  0.4459E-02  0.4893E-02  0.1445E+00  0.1416E+00
     20.030  0.1463E-02  0.3547E-02  0.1448E+00  0.1422E+00
     20.196  0.1086E-02  0.4486E-02  0.1449E+00  0.1429E+00
     20.362  0.2685E-02  0.5259E-02  0.1454E+00  0.1438E+00
     20.528  0.4839E-02  0.3953E-02  0.1462E+00  0.1445E+00
     20.694  0.3770E-02  0.1840E-02  0.1468E+00  0.1448E+00
     20.860  0.3403E-02  0.1786E-02  0.1474E+00  0.1451E+00
     21.026  0.4380E-02  0.3442E-02  0.1481E+00  0.1456E+00
     21.191  0.3805E-02  0.4836E-02  0.1487E+00  0.1464E+00
     21.357  0.2882E-02  0.3562E-02  0.1492E+00  0.1470E+00
     21.523  0.2462E-02  0.3166E-02  0.1496E+00  0.1476E+00
     21.689  0.3271E-02  0.4305E-02  0.1502E+00  0.1483E+00
     21.855  0.3021E-02  0.3718E-02  0.1507E+00  0.1489E+00
     22.021  0.3825E-02  0.3346E-02  0.1513E+00  0.1494E+00
     22.187  0.3130E-02  0.3097E-02  0.1518E+00  0.1500E+00
     22.353  0.3537E-02  0.2763E-02  0.1524E+00  0.1504E+00
     22.518  0.5199E-02  0.3397E-02  0.1533E+00  0.1510E+00
     22.684  0.5522E-02  0.2825E-02  0.1542E+00  0.1515E+00
     22.850  0.4463E-02  0.3571E-02  0.1549E+00  0.1520E+00
     23.016  0.3091E-02  0.5103E-02  0.1554E+00  0.1529E+00
     23.182  0.3170E-02  0.4644E-02  0.1560E+00  0.1537E+00
     23.348  0.4037E-02  0.4534E-02  0.1566E+00  0.1544E+00
     23.514  0.5142E-02  0.4420E-02  0.1575E+00  0.1551E+00
     23.679  0.5236E-02  0.3536E-02  0.1584E+00  0.1557E+00
     23.845  0.4644E-02  0.4490E-02  0.1591E+00  0.1565E+00
     24.011  0.4858E-02  0.5361E-02  0.1599E+00  0.1574E+00
     24.177  0.5956E-02  0.4893E-02  0.1609E+00  0.1582E+00
     24.343  0.6123E-02  0.5552E-02  0.1619E+00  0.1591E+00
     24.509  0.4908E-02  0.6726E-02  0.1628E+00  0.1602E+00
     24.675  0.3873E-02  0.5862E-02  0.1634E+00  0.1612E+00
     24.841  0.4379E-02  0.4572E-02  0.1641E+00  0.1619E+00
     25.006  0.3570E-02  0.5890E-02  0.1647E+00  0.1629E+00
     25.172  0.4370E-02  0.4105E-02  0.1654E+00  0.1636E+00
     25.338  0.7337E-02  0.3359E-02  0.1667E+00  0.1642E+00
     25.504  0.6989E-02  0.3878E-02  0.1678E+00  0.1648E+00
     25.670  0.3050E-02  0.5535E-02  0.1683E+00  0.1657E+00
     25.836  0.5015E-02  0.7252E-02  0.1692E+00  0.1669E+00
     26.002  0.7010E-02  0.5801E-02  0.1703E+00  0.1679E+00
     26.167  0.5296E-02  0.4509E-02  0.1712E+00  0.1686E+00
     26.333  0.4104E-02  0.6659E-02  0.1719E+00  0.1697E+00
     26.499  0.3527E-02  0.5844E-02  0.1725E+00  0.1707E+00
     26.665  0.3855E-02  0.4104E-02  0.1731E+00  0.1714E+00
     26.831  0.4463E-02  0.4860E-02  0.1738E+00  0.1722E+00
     26.997  0.6112E-02  0.3464E-02  0.1749E+00  0.1728E+00
     27.163  0.6600E-02  0.3495E-02  0.1760E+00  0.1733E+00
     27.328  0.3281E-02  0.5103E-02  0.1765E+00  0.1742E+00
     27.494  0.2638E-02  0.5958E-02  0.1769E+00  0.1752E+00
     27.660  0.4167E-02  0.5850E-02  0.1776E+00  0.1762E+00
     27.826  0.4330E-02  0.3339E-02  0.1783E+00  0.1767E+00
     27.992  0.4404E-02  0.3373E-02  0.1791E+00  0.1773E+00
     28.158  0.3047E-02  0.4738E-02  0.1796E+00  0.1781E+00
     28.324  0.2647E-02  0.4273E-02  0.1800E+00  0.1788E+00
     28.490  0.2288E-02  0.3871E-02  0.1804E+00  0.1794E+00
     28.655  0.2687E-02  0.2819E-02  0.1808E+00  0.1799E+00
     28.821  0.3863E-02  0.2204E-02  0.1815E+00  0.1802E+00
     28.987  0.3100E-02  0.1594E-02  0.1820E+00  0.1805E+00
     29.153  0.2100E-02  0.2373E-02  0.1823E+00  0.1809E+00
     29.319  0.2840E-02  0.4343E-02  0.1828E+00  0.1816E+00
     29.485  0.4396E-02  0.4012E-02  0.1835E+00  0.1823E+00
     29.651  0.3447E-02  0.1923E-02  0.1841E+00  0.1826E+00
     29.816  0.2156E-02  0.3683E-02  0.1845E+00  0.1832E+00
     29.982  0.3114E-02  0.4808E-02  0.1850E+00  0.1840E+00
     30.148  0.2965E-02  0.2354E-02  0.1855E+00  0.1844E+00
     30.314  0.2704E-02  0.2501E-02  0.1859E+00  0.1848E+00
     30.480  0.5854E-02  0.4546E-02  0.1869E+00  0.1856E+00
     30.646  0.6183E-02  0.3388E-02  0.1879E+00  0.1861E+00
     30.812  0.6845E-02  0.4765E-02  0.1891E+00  0.1869E+00
     30.978  0.6292E-02  0.5896E-02  0.1901E+00  0.1879E+00
     31.143  0.5990E-02  0.6271E-02  0.1911E+00  0.1889E+00
     31.309  0.5706E-02  0.6813E-02  0.1920E+00  0.1901E+00
     31.475  0.5534E-02  0.4788E-02  0.1930E+00  0.1909E+00
     31.641  0.5090E-02  0.5234E-02  0.1938E+00  0.1917E+00
     31.807  0.1984E-02  0.7077E-02  0.1941E+00  0.1929E+00
     31.973  0.1210E-02  0.5416E-02  0.1943E+00  0.1938E+00
     32.139  0.2994E-02  0.1789E-02  0.1948E+00  0.1941E+00
     32.304  0.3469E-02  0.2090E-02  0.1954E+00  0.1944E+00
     32.470  0.2884E-02  0.4086E-02  0.1959E+00  0.1951E+00
     32.636  0.2678E-02  0.4002E-02  0.1963E+00  0.1958E+00
     32.802  0.1698E-02  0.2226E-02  0.1966E+00  0.1962E+00
     32.968  0.1152E-02  0.1191E-02  0.1968E+00  0.1964E+00
     33.134  0.5809E-03  0.1421E-02  0.1969E+00  0.1966E+00
     33.300 -0.5338E-04  0.1590E-02  0.1969E+00  0.1969E+00
     33.466  0.5120E-03  0.3372E-03  0.1970E+00  0.1969E+00
     33.631  0.1903E-02  0.8688E-03  0.1973E+00  0.1971E+00
     33.797  0.9891E-03  0.1774E-02  0.1975E+00  0.1973E+00
     33.963 -0.6853E-04  0.6717E-03  0.1974E+00  0.1975E+00
     34.129  0.2262E-03 -0.1257E-03  0.1975E+00  0.1974E+00
     34.295  0.1363E-02  0.3255E-03  0.1977E+00  0.1975E+00
     34.461  0.1543E-02  0.1886E-02  0.1980E+00  0.1978E+00
     34.627  0.9440E-03  0.1559E-02  0.1981E+00  0.1981E+00
     34.792  0.8545E-03  0.1101E-02  0.1983E+00  0.1982E+00
     34.958  0.5102E-03  0.4734E-03  0.1983E+00  0.1983E+00
     35.124  0.7864E-03  0.3081E-03  0.1985E+00  0.1984E+00
     35.290  0.4044E-03  0.7816E-03  0.1985E+00  0.1985E+00
     35.456  0.9339E-04  0.3631E-03  0.1986E+00  0.1986E+00
     35.622  0.3994E-03  0.3810E-03  0.1986E+00  0.1986E+00
     35.788  0.1255E-03  0.1275E-03  0.1986E+00  0.1987E+00
     35.954  0.2055E-03  0.4965E-04  0.1987E+00  0.1987E+00
     36.119  0.8307E-03  0.7181E-03  0.1988E+00  0.1988E+00
     36.285  0.3485E-03  0.5774E-03  0.1989E+00  0.1989E+00
     36.451 -0.4913E-04 -0.8379E-05  0.1989E+00  0.1989E+00
     36.617 -0.6347E-04 -0.8699E-04  0.1989E+00  0.1989E+00
     36.783  0.4168E-03  0.3624E-03  0.1989E+00  0.1989E+00
     36.949  0.1472E-02  0.1509E-02  0.1992E+00  0.1992E+00
     37.115  0.8290E-03  0.8624E-03  0.1993E+00  0.1993E+00
     37.280  0.1574E-03  0.2426E-03  0.1993E+00  0.1994E+00
     37.446  0.4294E-03  0.3605E-03  0.1994E+00  0.1994E+00
     37.612  0.3705E-03  0.2630E-03  0.1995E+00  0.1995E+00
     37.778  0.1397E-03  0.2066E-03  0.1995E+00  0.1995E+00
     37.944 -0.1091E-04  0.9619E-05  0.1995E+00  0.1995E+00
     38.110 -0.1930E-04 -0.2457E-04  0.1995E+00  0.1995E+00
     38.276  0.2593E-04  0.4184E-04  0.1995E+00  0.1995E+00
     38.442  0.3488E-03  0.3726E-03  0.1995E+00  0.1996E+00
     38.607  0.3044E-03  0.2732E-03  0.1996E+00  0.1996E+00
     38.773  0.4833E-05 -0.1228E-04  0.1996E+00  0.1996E+00
     38.939 -0.2701E-04 -0.1325E-04  0.1996E+00  0.1996E+00
     39.105  0.4178E-04  0.2699E-03  0.1996E+00  0.1996E+00
     39.271  0.3723E-03  0.3737E-03  0.1997E+00  0.1997E+00
     39.437  0.2656E-03  0.2945E-04  0.1997E+00  0.1997E+00
     39.603 -0.1241E-04  0.1623E-04  0.1997E+00  0.1997E+00
     39.768  0.2326E-03  0.3484E-03  0.1997E+00  0.1998E+00
     39.934  0.3751E-03  0.2890E-03  0.1998E+00  0.1998E+00
     40.100  0.1039E-03  0.2772E-03  0.1998E+00  0.1999E+00
     40.266  0.3565E-03  0.3611E-03  0.1999E+00  0.1999E+00
     40.432  0.2702E-03  0.4101E-04  0.1999E+00  0.1999E+00
     40.598 -0.3404E-05 -0.1573E-04  0.1999E+00  0.1999E+00
     40.764 -0.9404E-05 -0.1332E-05  0.1999E+00  0.1999E+00
     40.929 -0.4436E-06 -0.1958E-07  0.1999E+00  0.1999E+00
     41.095 -0.4113E-08 -0.6422E-10  0.1999E+00  0.1999E+00
     41.261 -0.8731E-11 -0.5000E-13  0.1999E+00  0.1999E+00
     41.427 -0.4442E-14 -0.1391E-16  0.1999E+00  0.1999E+00
     41.593 -0.5062E-15 -0.2447E-13  0.1999E+00  0.1999E+00
     41.759 -0.1337E-11 -0.3312E-10  0.1999E+00  0.1999E+00
     41.925 -0.8513E-09 -0.1067E-07  0.1999E+00  0.1999E+00
     42.091 -0.1259E-06 -0.7714E-06  0.1999E+00  0.1999E+00
     42.256 -0.3857E-05 -0.9902E-05  0.1999E+00  0.1999E+00
     42.422 -0.1091E-04  0.2217E-04  0.1999E+00  0.1999E+00
     42.588  0.1278E-03  0.2399E-03  0.1999E+00  0.2000E+00
     42.754  0.2756E-03  0.1938E-03  0.2000E+00  0.2000E+00
     42.920  0.6508E-04  0.1253E-05  0.2000E+00  0.2000E+00
     43.086 -0.1275E-04 -0.6948E-05  0.2000E+00  0.2000E+00
     43.252 -0.1798E-05 -0.3609E-06  0.2000E+00  0.2000E+00
     43.417 -0.3736E-07 -0.3629E-08  0.2000E+00  0.2000E+00
     43.583 -0.1686E-09 -0.8334E-11  0.2000E+00  0.2000E+00
     43.749 -0.1791E-12 -0.4586E-14  0.2000E+00  0.2000E+00
     43.915 -0.4607E-16 -0.6337E-18  0.2000E+00  0.2000E+00
     44.081  0.0000E+00  0.0000E+00  0.2000E+00  0.2000E+00
     44.247  0.0000E+00  0.0000E+00  0.2000E+00  0.2000E+00
     44.413  0.0000E+00  0.0000E+00  0.2000E+00  0.2000E+00
     44.579  0.0000E+00  0.0000E+00  0.2000E+00  0.2000E+00
     44.744  0.0000E+00  0.0000E+00  0.2000E+00  0.2000E+00
     44.910  0.0000E+00  0.0000E+00  0.2000E+00  0.2000E+00
     44.91026857     -4.84945779  301      5.87586501      1.00000000
     -4.849  0.0000E+00  0.0000E+00  0.0000E+00  0.0000E+00  0.0000E+00  0.0000E+00  0.0000E+00  0.0000E+00  0.0000E+00  0.0000E+00  0.0000E+00  0.0000E+00  0.0000E+00  0.0000E+00  0.0000E+00  0.0000E+00  0.0000E+00  0.0000E+00
     -4.684  0.0000E+00  0.0000E+00  0.0000E+00  0.0000E+00  0.0000E+00  0.0000E+00  0.0000E+00  0.0000E+00  0.0000E+00  0.0000E+00  0.0000E+00  0.0000E+00  0.0000E+00  0.0000E+00  0.0000E+00  0.0000E+00  0.0000E+00  0.0000E+00
     -4.518  0.0000E+00  0.0000E+00  0.0000E+00  0.0000E+00  0.0000E+00  0.0000E+00  0.0000E+00  0.0000E+00  0.0000E+00  0.0000E+00  0.0000E+00  0.0000E+00  0.0000E+00  0.0000E+00  0.0000E+00  0.0000E+00  0.0000E+00  0.0000E+00
     -4.352 -0.4046E-36  0.0000E+00 -0.4341E-66  0.0000E+00 -0.4341E-66  0.0000E+00 -0.4341E-66  0.0000E+00 -0.6461E-50  0.0000E+00 -0.6461E-50  0.0000E+00 -0.4474E-52  0.0000E+00 -0.6461E-50  0.0000E+00 -0.4474E-52  0.0000E+00
     -4.186 -0.4166E-30 -0.5658E-36 -0.3858E-36  0.0000E+00 -0.3858E-36  0.0000E+00 -0.3858E-36  0.0000E+00 -0.6655E-44 -0.7863E-50 -0.6655E-44 -0.7863E-50 -0.5727E-38 -0.7059E-49 -0.6655E-44 -0.7863E-50 -0.5727E-38 -0.7059E-49
     -4.020 -0.1073E-24 -0.5642E-30 -0.2785E-30 -0.5128E-36 -0.2785E-30 -0.5128E-36 -0.2785E-30 -0.5128E-36 -0.1267E-35 -0.7845E-44 -0.1267E-35 -0.7845E-44 -0.4133E-32 -0.5339E-38 -0.1267E-35 -0.7845E-44 -0.4133E-32 -0.5339E-38
     -3.854 -0.6889E-20 -0.1407E-24 -0.5022E-25 -0.3601E-30 -0.5022E-25 -0.3601E-30 -0.5022E-25 -0.3601E-30 -0.6334E-30 -0.1119E-35 -0.6334E-30 -0.1119E-35 -0.7452E-27 -0.3748E-32 -0.6334E-30 -0.1119E-35 -0.7452E-27 -0.3748E-32
     -3.688 -0.1065E-15 -0.8750E-20 -0.2257E-20 -0.6318E-25 -0.2257E-20 -0.6318E-25 -0.2257E-20 -0.6318E-25 -0.7912E-25 -0.5472E-30 -0.7912E-25 -0.5472E-30 -0.3348E-22 -0.6575E-27 -0.7912E-25 -0.5472E-30 -0.3348E-22 -0.6575E-27
     -3.523 -0.4178E-12 -0.1310E-15 -0.2433E-16 -0.2763E-20 -0.2433E-16 -0.2763E-20 -0.2433E-16 -0.2763E-20 -0.2352E-20 -0.6690E-25 -0.2352E-20 -0.6690E-25 -0.3604E-18 -0.2874E-22 -0.2352E-20 -0.6690E-25 -0.3604E-18 -0.2874E-22
     -3.357 -0.4040E-09 -0.4972E-12 -0.6640E-13 -0.2896E-16 -0.6640E-13 -0.2896E-16 -0.6640E-13 -0.2896E-16 -0.1826E-16 -0.1959E-20 -0.1826E-16 -0.1959E-20 -0.9796E-15 -0.3008E-18 -0.1826E-16 -0.1959E-20 -0.9796E-15 -0.3008E-18
     -3.191 -0.9665E-07 -0.4652E-09 -0.4437E-10 -0.7684E-13 -0.4437E-10 -0.7684E-13 -0.4437E-10 -0.7684E-13 -0.3419E-13 -0.1479E-16 -0.3419E-13 -0.1479E-16 -0.6473E-12 -0.7949E-15 -0.3419E-13 -0.1479E-16 -0.6473E-12 -0.7949E-15
     -3.025 -0.5825E-05 -0.1076E-06 -0.7216E-08 -0.4991E-10 -0.7216E-08 -0.4991E-10 -0.7216E-08 -0.4991E-10 -0.1549E-10 -0.2709E-13 -0.1549E-10 -0.2709E-13 -0.1020E-09 -0.5104E-12 -0.1549E-10 -0.2709E-13 -0.1020E-09 -0.5104E-12
     -2.859 -0.8919E-04 -0.6271E-05 -0.2816E-06 -0.7881E-08 -0.2816E-06 -0.7881E-08 -0.2816E-06 -0.7881E-08 -0.1654E-08 -0.1200E-10 -0.1654E-08 -0.1200E-10 -0.3629E-08 -0.7800E-10 -0.1654E-08 -0.1200E-10 -0.3629E-08 -0.7800E-10
     -2.693 -0.2035E-03 -0.9259E-04 -0.2306E-05 -0.2982E-06 -0.2306E-05 -0.2982E-06 -0.2306E-05 -0.2982E-06 -0.3829E-07 -0.1252E-08 -0.3829E-07 -0.1252E-08 -0.2179E-07 -0.2683E-08 -0.3829E-07 -0.1252E-08 -0.2179E-07 -0.2683E-08
     -2.527  0.2101E-02 -0.1928E-03  0.3937E-05 -0.2347E-05  0.3937E-05 -0.2347E-05  0.3937E-05 -0.2347E-05 -0.9716E-07 -0.2822E-07 -0.9716E-07 -0.2822E-07  0.6314E-07 -0.1519E-07 -0.9716E-07 -0.2822E-07  0.6314E-07 -0.1519E-07
     -2.361  0.9277E-02  0.2200E-02  0.5454E-04  0.4437E-05  0.5454E-04  0.4437E-05  0.5454E-04  0.4437E-05  0.8757E-06 -0.6662E-07  0.8757E-06 -0.6662E-07  0.1404E-06  0.4940E-07  0.8757E-06 -0.6662E-07  0.1404E-06  0.4940E-07
     -2.196  0.1200E-01  0.9372E-02  0.1072E-03  0.5599E-04  0.1072E-03  0.5599E-04  0.1072E-03  0.5599E-04  0.2181E-05  0.6545E-06  0.2181E-05  0.6545E-06  0.8704E-06  0.1114E-06  0.2181E-05  0.6545E-06  0.8704E-06  0.1114E-06
     -2.030  0.1550E-01  0.1190E-01  0.2715E-03  0.1076E-03  0.2715E-03  0.1076E-03  0.2715E-03  0.1076E-03  0.7936E-05  0.1591E-05  0.7936E-05  0.1591E-05  0.1106E-04  0.6098E-06  0.7936E-05  0.1591E-05  0.1106E-04  0.6098E-06
     -1.864  0.2552E-01  0.1526E-01  0.5534E-03  0.2697E-03  0.5534E-03  0.2697E-03  0.5534E-03  0.2697E-03  0.2561E-04  0.5445E-05  0.2561E-04  0.5445E-05  0.1984E-04  0.7446E-05  0.2561E-04  0.5445E-05  0.1984E-04  0.7446E-05
     -1.698  0.1602E-01  0.2541E-01  0.3998E-03  0.5561E-03  0.3998E-03  0.5561E-03  0.3998E-03  0.5561E-03  0.2945E-04  0.1781E-04  0.2945E-04  0.1781E-04  0.1003E-04  0.1344E-04  0.2945E-04  0.1781E-04  0.1003E-04  0.1344E-04
     -1.532  0.2064E-01  0.1579E-01  0.7414E-03  0.3949E-03  0.7414E-03  0.3949E-03  0.7414E-03  0.3949E-03  0.7061E-04  0.1947E-04  0.7061E-04  0.1947E-04  0.4268E-04  0.6488E-05  0.7061E-04  0.1947E-04  0.4268E-04  0.6488E-05
     -1.366  0.3292E-01  0.1945E-01  0.1315E-02  0.7038E-03  0.1315E-02  0.7038E-03  0.1315E-02  0.7038E-03  0.9757E-04  0.4572E-04  0.9757E-04  0.4572E-04  0.1305E-03  0.2450E-04  0.9757E-04  0.4572E-04  0.1305E-03  0.2450E-04
     -1.200  0.2645E-01  0.3238E-01  0.1199E-02  0.1301E-02  0.1199E-02  0.1301E-02  0.1199E-02  0.1301E-02  0.1172E-03  0.6544E-04  0.1172E-03  0.6544E-04  0.1308E-03  0.8090E-04  0.1172E-03  0.6544E-04  0.1308E-03  0.8090E-04
     -1.035  0.3077E-01  0.2609E-01  0.1650E-02  0.1180E-02  0.1650E-02  0.1180E-02  0.1650E-02  0.1180E-02  0.3054E-03  0.6915E-04  0.3054E-03  0.6915E-04  0.1525E-03  0.8300E-04  0.3054E-03  0.6915E-04  0.1525E-03  0.8300E-04
     -0.869  0.2970E-01  0.2799E-01  0.1672E-02  0.1518E-02  0.1672E-02  0.1518E-02  0.1672E-02  0.1518E-02  0.3237E-03  0.1722E-03  0.3237E-03  0.1722E-03  0.1591E-03  0.8448E-04  0.3237E-03  0.1722E-03  0.1591E-03  0.8448E-04
     -0.703  0.2353E-01  0.3203E-01  0.1635E-02  0.1836E-02  0.1635E-02  0.1836E-02  0.1635E-02  0.1836E-02  0.2529E-03  0.2296E-03  0.2529E-03  0.2296E-03  0.3323E-03  0.9914E-04  0.2529E-03  0.2296E-03  0.3323E-03  0.9914E-04
     -0.537  0.4564E-01  0.1917E-01  0.3388E-02  0.1290E-02  0.3388E-02  0.1290E-02  0.3388E-02  0.1290E-02  0.7056E-03  0.1245E-03  0.7056E-03  0.1245E-03  0.7606E-03  0.1381E-03  0.7056E-03  0.1245E-03  0.7606E-03  0.1381E-03
     -0.371  0.4230E-01  0.3981E-01  0.3355E-02  0.3005E-02  0.3355E-02  0.3005E-02  0.3355E-02  0.3005E-02  0.9564E-03  0.3418E-03  0.9564E-03  0.3418E-03  0.8511E-03  0.3900E-03  0.9564E-03  0.3418E-03  0.8511E-03  0.3900E-03
     -0.205  0.3641E-01  0.4140E-01  0.3150E-02  0.3278E-02  0.3150E-02  0.3278E-02  0.3150E-02  0.3278E-02  0.1043E-02  0.5050E-03  0.1043E-02  0.5050E-03  0.7380E-03  0.4350E-03  0.1043E-02  0.5050E-03  0.7380E-03  0.4350E-03
     -0.039  0.3032E-01  0.3854E-01  0.2825E-02  0.3391E-02  0.2825E-02  0.3391E-02  0.2825E-02  0.3391E-02  0.1389E-02  0.6259E-03  0.1389E-02  0.6259E-03  0.6580E-03  0.4799E-03  0.1389E-02  0.6259E-03  0.6580E-03  0.4799E-03
      0.127  0.4511E-01  0.2897E-01  0.4621E-02  0.2680E-02  0.4621E-02  0.2680E-02  0.4621E-02  0.2680E-02  0.2305E-02  0.5759E-03  0.2305E-02  0.5759E-03  0.2046E-02  0.2600E-03  0.2305E-02  0.5759E-03  0.2046E-02  0.2600E-03
      0.292  0.4730E-01  0.2698E-01  0.5406E-02  0.2794E-02  0.5406E-02  0.2794E-02  0.5406E-02  0.2794E-02  0.2190E-02  0.8115E-03  0.2190E-02  0.8115E-03  0.2966E-02  0.4181E-03  0.2190E-02  0.8115E-03  0.2966E-02  0.4181E-03
      0.458  0.5879E-01  0.4804E-01  0.7058E-02  0.5331E-02  0.7058E-02  0.5331E-02  0.7058E-02  0.5331E-02  0.4541E-02  0.1343E-02  0.4541E-02  0.1343E-02  0.4059E-02  0.1292E-02  0.4541E-02  0.1343E-02  0.4059E-02  0.1292E-02
      0.624  0.5015E-01  0.4337E-01  0.6022E-02  0.5253E-02  0.6022E-02  0.5253E-02  0.6022E-02  0.5253E-02  0.5620E-02  0.1161E-02  0.5620E-02  0.1161E-02  0.4249E-02  0.1395E-02  0.5620E-02  0.1161E-02  0.4249E-02  0.1395E-02
      0.790  0.4787E-01  0.4919E-01  0.5928E-02  0.6381E-02  0.5928E-02  0.6381E-02  0.5928E-02  0.6381E-02  0.8903E-02  0.1925E-02  0.8903E-02  0.1925E-02  0.5289E-02  0.1639E-02  0.8903E-02  0.1925E-02  0.5289E-02  0.1639E-02
      0.956  0.7871E-01  0.3900E-01  0.9763E-02  0.5097E-02  0.9763E-02  0.5097E-02  0.9763E-02  0.5097E-02  0.2546E-01  0.2143E-02  0.2546E-01  0.2143E-02  0.2373E-01  0.1609E-02  0.2546E-01  0.2143E-02  0.2373E-01  0.1609E-02
      1.122  0.1023E+00  0.4020E-01  0.1256E-01  0.5619E-02  0.1256E-01  0.5619E-02  0.1256E-01  0.5619E-02  0.4813E-01  0.3147E-02  0.4813E-01  0.3147E-02  0.6645E-01  0.1870E-02  0.4813E-01  0.3147E-02  0.6645E-01  0.1870E-02
      1.288  0.9078E-01  0.4365E-01  0.1192E-01  0.6580E-02  0.1192E-01  0.6580E-02  0.1192E-01  0.6580E-02  0.5731E-01  0.3426E-02  0.5731E-01  0.3426E-02  0.9940E-01  0.2036E-02  0.5731E-01  0.3426E-02  0.9940E-01  0.2036E-02
      1.453  0.7804E-01  0.4819E-01  0.1354E-01  0.8002E-02  0.1354E-01  0.8002E-02  0.1354E-01  0.8002E-02  0.5652E-01  0.4246E-02  0.5652E-01  0.4246E-02  0.1372E+00  0.4237E-02  0.5652E-01  0.4246E-02  0.1372E+00  0.4237E-02
      1.619  0.7984E-01  0.5713E-01  0.2022E-01  0.9701E-02  0.2022E-01  0.9701E-02  0.2022E-01  0.9701E-02  0.6456E-01  0.6029E-02  0.6456E-01  0.6029E-02  0.2079E+00  0.6394E-02  0.6456E-01  0.6029E-02  0.2079E+00  0.6394E-02
      1.785  0.7258E-01  0.5352E-01  0.2238E-01  0.9725E-02  0.2238E-01  0.9725E-02  0.2238E-01  0.9725E-02  0.7535E-01  0.7384E-02  0.7535E-01  0.7384E-02  0.2374E+00  0.6172E-02  0.7535E-01  0.7384E-02  0.2374E+00  0.6172E-02
      1.951  0.3847E-01  0.6386E-01  0.1458E-01  0.1120E-01  0.1458E-01  0.1120E-01  0.1458E-01  0.1120E-01  0.6248E-01  0.1294E-01  0.6248E-01  0.1294E-01  0.1643E+00  0.8579E-02  0.6248E-01  0.1294E-01  0.1643E+00  0.8579E-02
      2.117  0.2623E-01  0.5162E-01  0.1126E-01  0.7853E-02  0.1126E-01  0.7853E-02  0.1126E-01  0.7853E-02  0.7394E-01  0.1720E-01  0.7394E-01  0.1720E-01  0.1064E+00  0.1179E-01  0.7394E-01  0.1720E-01  0.1064E+00  0.1179E-01
      2.283  0.1185E-01  0.6994E-01  0.8098E-02  0.1165E-01  0.8098E-02  0.1165E-01  0.8098E-02  0.1165E-01  0.4766E-01  0.2875E-01  0.4766E-01  0.2875E-01  0.9354E-01  0.2195E-01  0.4766E-01  0.2875E-01  0.9354E-01  0.2195E-01
      2.449  0.2986E-02  0.8811E-01  0.1349E-01  0.1629E-01  0.1349E-01  0.1629E-01  0.1349E-01  0.1629E-01  0.1409E+00  0.3953E-01  0.1409E+00  0.3953E-01  0.1111E+00  0.3464E-01  0.1409E+00  0.3953E-01  0.1111E+00  0.3464E-01
      2.615  0.2952E-02  0.7360E-01  0.2144E-01  0.1343E-01  0.2144E-01  0.1343E-01  0.2144E-01  0.1343E-01  0.3268E+00  0.4119E-01  0.3268E+00  0.4119E-01  0.1449E+00  0.3385E-01  0.3268E+00  0.4119E-01  0.1449E+00  0.3385E-01
      2.780  0.5552E-02  0.5764E-01  0.1922E-01  0.1211E-01  0.1922E-01  0.1211E-01  0.1922E-01  0.1211E-01  0.2949E+00  0.3925E-01  0.2949E+00  0.3925E-01  0.1529E+00  0.3010E-01  0.2949E+00  0.3925E-01  0.1529E+00  0.3010E-01
      2.946  0.8185E-02  0.5822E-01  0.1533E-01  0.1560E-01  0.1533E-01  0.1560E-01  0.1533E-01  0.1560E-01  0.2253E+00  0.4337E-01  0.2253E+00  0.4337E-01  0.9523E-01  0.6471E-01  0.2253E+00  0.4337E-01  0.9523E-01  0.6471E-01
      3.112  0.1155E-01  0.5326E-01  0.2354E-01  0.1830E-01  0.2354E-01  0.1830E-01  0.2354E-01  0.1830E-01  0.2328E+00  0.4498E-01  0.2328E+00  0.4498E-01  0.1042E+00  0.1138E+00  0.2328E+00  0.4498E-01  0.1042E+00  0.1138E+00
      3.278  0.1745E-01  0.4447E-01  0.3364E-01  0.2009E-01  0.3364E-01  0.2009E-01  0.3364E-01  0.2009E-01  0.2910E+00  0.4582E-01  0.2910E+00  0.4582E-01  0.1305E+00  0.1454E+00  0.2910E+00  0.4582E-01  0.1305E+00  0.1454E+00
      3.444  0.1960E-01  0.3409E-01  0.3184E-01  0.1746E-01  0.3184E-01  0.1746E-01  0.3184E-01  0.1746E-01  0.3162E+00  0.5590E-01  0.3162E+00  0.5590E-01  0.1222E+00  0.1395E+00  0.3162E+00  0.5590E-01  0.1222E+00  0.1395E+00