    2    2  100    2
  0.1173411E+02  0.2863035E-09  0.2863035E-09  0.2863035E-09  0.5000000E-15
  1.000000000000000E-004
  CAR 
 unknown system                          
     16     84     20
 
  0.0000000E+00  0.0000000E+00  0.0000000E+00  0.4551661E-03
    1       -2.587652     -2.425619   1.000000   1.000000
    2        1.000660      2.813873   1.000000   1.000000
    3        1.000661      2.814014   1.000000   1.000000
    4        3.566151      5.458964   1.000000   1.006027
    5        3.566152      5.459097   1.000000   1.006041
    6        3.566152      5.459108   1.000000   1.006042
    7        4.782055      7.527700   1.000000  -0.000000
    8        4.782056      7.527864   1.000000  -0.000000
    9        6.001830      8.168118   0.067052  -0.000000
   10        6.001831      8.168242   0.067048  -0.000000
   11        6.001831      8.168253   0.067048  -0.000000
   12       15.839645     16.104317   0.000000   0.000000
   13       15.839645     16.104318   0.000000   0.000000
   14       15.839645     16.104321   0.000000   0.000000
   15       21.569492     22.624059   0.000000   0.000000
   16       21.569493     22.624071   0.000000   0.000000
   17       26.735689     27.834251   0.000000   0.000000
   18       30.939848     30.684314   0.000000   0.000000
   19       30.939848     30.684314   0.000000   0.000000
   20       30.939848     30.684314   0.000000   0.000000
 
  0.7692308E-01  0.0000000E+00  0.0000000E+00  0.2730997E-02
    1       -2.464325     -2.301745   1.000000   1.000000
    2        1.053524      2.858305   1.000000   1.000000
    3        1.055626      2.876735   1.000000   1.000000
    4        3.565189      5.453438   1.000000   1.005473
    5        3.565190      5.453581   1.000000   1.005487
    6        3.600010      5.496377   1.000000   1.010977
    7        4.726839      7.455773   1.000000  -0.000000
    8        4.803881      7.555358   1.000000  -0.000000
    9        5.898040      8.031514   0.406806  -0.000000
   10        5.898042      8.031648   0.406799  -0.000000
   11        5.965237      8.127146   0.160470  -0.000000
   12       14.973948     15.385448   0.000000   0.000000
   13       16.073292     16.371803   0.000000   0.000000
   14       16.073292     16.371804   0.000000   0.000000
   15       21.605258     22.648813   0.000000   0.000000
   16       22.212084     23.144773   0.000000   0.000000
   17       27.140399     28.218647   0.000000   0.000000
   18       30.131886     29.978518   0.000000   0.000000
   19       30.828938     30.627175   0.000000   0.000000
   20       30.828938     30.627176   0.000000   0.000000
 
  0.1538462E+00 -0.6162976E-32  0.0000000E+00  0.2730997E-02
    1       -2.100938     -1.935614   1.000000   1.000000
    2        1.206582      2.969474   1.000000   1.000000
    3        1.209198      3.062052   1.000000   1.000000
    4        3.566890      5.442673   1.000000   1.004510
    5        3.566891      5.442815   1.000000   1.004522
    6        3.699895      5.606433   1.000000   1.033514
    7        4.563982      7.243874   1.000000  -0.000000
    8        4.867562      7.633490   1.000000  -0.000000
    9        5.619209      7.676219   1.034971  -0.000000
   10        5.619211      7.676351   1.034971  -0.000000
   11        5.857047      8.005678   0.579237  -0.000000
   12       13.181995     13.830479   0.000000   0.000000
   13       16.739030     17.116676   0.000000   0.000000
   14       16.739030     17.116680   0.000000   0.000000
   15       21.714288     22.725282   0.000000   0.000000
   16       23.189606     23.984498   0.000000   0.000000
   17       28.514737     28.619891   0.000000   0.000000
   18       28.628066     29.516555   0.000000   0.000000
   19       30.303024     30.296931   0.000000   0.000000
   20       30.303024     30.296934   0.000000   0.000000
 
  0.2307692E+00  0.1232595E-31  0.0000000E+00  0.2730997E-02
    1       -1.519127     -1.344656   1.000000   1.000000
    2        1.412076      3.081475   1.000000   1.000000
    3        1.460335      3.362512   1.000000   1.000000
    4        3.584253      5.442989   1.000000   1.004536
    5        3.584254      5.443130   1.000000   1.004548
    6        3.860728      5.783812   1.000000   0.847500
    7        4.302101      6.904589   1.000000  -0.000000
    8        4.969954      7.214985   1.000000  -0.000000
    9        5.240492      7.215115   1.000034  -0.000000
   10        5.240494      7.749774   1.000034  -0.000000
   11        5.684420      7.812085   1.020100  -0.000000
   12       11.221042     12.125614  -0.000000   0.000000
   13       17.756775     18.220892   0.000000   0.000000
   14       17.756775     18.220896   0.000000   0.000000
   15       21.905432     22.862189   0.000000   0.000000
   16       23.811855     24.524048   0.000000   0.000000
   17       27.137035     27.265950   0.000000   0.000000
   18       29.123134     29.396925   0.000000   0.000000
   19       29.123135     29.396931   0.000000   0.000000
   20       30.843121     31.505555   0.000000   0.000000
 
  0.3076923E+00 -0.1232595E-31  0.0000000E+00  0.2730997E-02
    1       -0.762372     -0.561138   1.000000   1.000000
    2        1.598437      3.078018   1.000000   1.000000
    3        1.794400      3.765107   1.000000   1.000000
    4        3.634155      5.475622   1.000000   1.007963
    5        3.634156      5.475761   1.000000   1.007981
    6        3.955491      6.019620   1.000000   0.033742
    7        4.074204      6.458313   1.000000  -0.000151
    8        4.836197      6.743426   1.000000  -0.000000
    9        4.836199      6.743556   1.000000  -0.000000
   10        5.117078      7.558947   1.000001  -0.000000
   11        5.458370      7.890601   1.005965  -0.000000
   12        9.364056     10.595337  -0.000000  -0.000000
   13       19.042810     19.578592   0.000000   0.000000
   14       19.042810     19.578596   0.000000   0.000000
   15       22.192356     23.073642   0.000000   0.000000
   16       24.252051     24.883061   0.000000   0.000000
   17       25.824671     26.091908   0.000000   0.000000
   18       27.494322     27.963938   0.000000   0.000000
   19       27.494323     27.963944   0.000000   0.000000
   20       29.260990     29.674854   0.000000   0.000000
 
  0.3846154E+00  0.1232595E-31  0.0000000E+00  0.2730997E-02
    1        0.088008      0.360747   1.000000   1.000000
    2        1.654936      2.813183   1.000000   1.000000
    3        2.193867      4.251173   1.000000   1.000000
    4        3.545095      5.564098   1.000000   1.024971
    5        3.735224      5.564235   1.000000   1.025002
    6        3.735225      5.934803   1.000000   0.262213
    7        4.329027      6.301658   1.000000  -0.005156
    8        4.460469      6.321562   1.000000  -0.003570
    9        4.460470      6.321694   1.000000  -0.003561
   10        5.193103      7.262593   1.000008  -0.000000
   11        5.347155      8.055792   1.000595  -0.000000
   12        7.759154      9.425516  -0.000000  -0.000000
   13       20.529886     21.114935   0.000000   0.000000
   14       20.529887     21.114937   0.000000   0.000000
   15       22.594107     23.379641   0.000000   0.000000
   16       24.725855     25.132989   0.000000   0.000000
   17       24.746363     25.293012   0.000000   0.000000
   18       25.707188     26.274774   0.000000   0.000000
   19       25.707189     26.274779   0.000000   0.000000
   20       27.684885     28.093507   0.000000   0.000000
 
  0.4615385E+00  0.1232595E-31  0.0000000E+00  0.2730997E-02
    1        0.887389      1.330246   1.000000   1.000000
    2        1.443349      2.204333   1.000000   1.000000
    3        2.636514      4.795897   1.000000   1.000000
    4        3.096472      5.368919   1.000000   1.000990
    5        3.902621      5.728026   1.000000   0.972817
    6        3.902622      5.728161   1.000000   0.972606
    7        4.144411      5.979241   1.000000   0.120772
    8        4.144412      5.979374   1.000000   0.120418
    9        4.611411      6.615011   1.000000  -0.000001
   10        4.904924      6.941347   1.000000  -0.000000
   11        5.765004      8.284533   0.898454  -0.000000
   12        6.537243      8.686520  -0.000015  -0.000000
   13       22.165836     22.775656   0.000000   0.000000
   14       22.165837     22.775656   0.000000   0.000000
   15       23.133652     23.805390   0.000000   0.000000
   16       23.836598     24.380182   0.000000   0.000000
   17       23.907675     24.514513   0.000000   0.000000
   18       23.907676     24.514516   0.000000   0.000000
   19       25.437207     25.911219   0.000000   0.000000
   20       26.405904     26.832431   0.000000   0.000000
 
  0.7692308E-01  0.7692308E-01  0.0000000E+00  0.5461994E-02
    1       -2.342286     -2.178973   1.000000   1.000000
    2        1.104285      2.914421   1.000000   1.000000
    3        1.111136      2.925928   1.000000   1.000000
    4        3.499276      5.378617   1.000000   1.001231
    5        3.559848      5.443524   1.000000   1.004581
    6        3.698372      5.602873   1.000000   1.032973
    7        4.717629      7.441286   1.000000  -0.000000
    8        4.787564      7.533983   1.000000  -0.000000
    9        5.714479      7.810258   0.991800  -0.000000
   10        5.793997      7.895324   0.816327  -0.000000
   11        6.017489      8.185689   0.037323  -0.000000
   12       15.000011     15.460716   0.000000   0.000000
   13       15.383157     15.811291   0.000000   0.000000
   14       16.297539     16.624020   0.000000   0.000000
   15       21.934411     22.910981   0.000000   0.000000
   16       22.634422     23.495704   0.000000   0.000000
   17       27.500915     28.565687   0.000000   0.000000
   18       29.406938     29.381220   0.000000   0.000000
   19       30.563305     30.386858   0.000000   0.000000
   20       30.771751     30.604478   0.000000   0.000000
 
  0.1538462E+00  0.7692308E-01  0.0000000E+00  0.1092399E-01
    1       -1.983004     -1.816239   1.000000   1.000000
    2        1.249222      3.030729   1.000000   1.000000
    3        1.268789      3.101424   1.000000   1.000000
    4        3.448359      5.312831   1.000000   1.000253
    5        3.548823      5.420166   1.000000   1.002940
    6        3.849384      5.767072   1.000000   0.893284
    7        4.588656      7.267859   1.000000  -0.000000
    8        4.840509      7.415607   1.000000  -0.000000
    9        5.390311      7.546962   1.001589  -0.000000
   10        5.518014      7.598383   1.014848  -0.000000
   11        5.978602      8.139587   0.122479  -0.000000
   12       13.335057     14.011921   0.000000   0.000000
   13       15.850249     16.371899   0.000000   0.000000
   14       16.940035     17.333820   0.000000   0.000000
   15       22.148523     23.075100   0.000000   0.000000
   16       23.682355     24.410838   0.000000   0.000000
   17       27.867749     28.002108   0.000000   0.000000
   18       28.763597     29.766597   0.000000   0.000000
   19       29.918517     29.895955   0.000000   0.000000
   20       30.370980     30.363311   0.000000   0.000000
 
  0.2307692E+00  0.7692308E-01  0.0000000E+00  0.1092399E-01
    1       -1.409194     -1.231503   1.000000   1.000000
    2        1.456606      3.142333   1.000000   1.000000
    3        1.509064      3.390483   1.000000   1.000000
    4        3.431324      5.278780   1.000000   1.000101
    5        3.540803      5.398306   1.000000   1.001884
    6        4.041767      5.976874   1.000000   0.127144
    7        4.366601      6.952357   1.000000  -0.000000
    8        4.945224      6.964601   1.000000  -0.000000
    9        5.000055      7.107888   1.000000  -0.000000
   10        5.149713      7.719069   1.000002  -0.000000
   11        5.846329      7.987127   0.623477  -0.000000
   12       11.368763     12.290500   0.000000   0.000000
   13       16.760597     17.368694   0.000000   0.000000
   14       17.929886     18.400107   0.000000   0.000000
   15       22.389110     23.254275   0.000000   0.000000
   16       24.441447     25.090938   0.000000   0.000000
   17       26.253238     26.535942   0.000000   0.000000
   18       28.735827     28.914113   0.000000   0.000000
   19       29.247076     29.521585   0.000000   0.000000
   20       30.996975     31.898451   0.000000   0.000000
 
  0.3076923E+00  0.7692308E-01  0.0000000E+00  0.1092399E-01
    1       -0.666209     -0.457841   1.000000   1.000000
    2        1.642366      3.134573   1.000000   1.000000
    3        1.827551      3.774285   1.000000   1.000000
    4        3.458404      5.289538   1.000000   1.000136
    5        3.521373      5.388768   1.000000   1.001537
    6        4.111255      6.230688   1.000000  -0.015446
    7        4.273277      6.491922   1.000000  -0.000059
    8        4.599716      6.578918   1.000000  -0.000004
    9        4.771381      6.687254   1.000000  -0.000000
   10        5.094610      7.757416   1.000000  -0.000000
   11        5.644218      7.865220   1.034713  -0.000000
   12        9.498555     10.729323  -0.000000  -0.000000
   13       17.888800     18.564124   0.000000   0.000000
   14       19.190192     19.726024   0.000000   0.000000
   15       22.734228     23.516820   0.000000   0.000000
   16       24.722900     25.154268   0.000000   0.000000
   17       25.013166     25.592943   0.000000   0.000000
   18       27.300697     27.603810   0.000000   0.000000
   19       27.609276     28.083868   0.000000   0.000000
   20       30.616719     31.033237   0.000000   0.000000
 
  0.3846154E+00  0.7692308E-01  0.0000000E+00  0.1092399E-01
    1        0.162547      0.449696   1.000000   1.000000
    2        1.691535      2.863347   1.000000   1.000000
    3        2.207107      4.228982   1.000000   1.000000
    4        3.374915      5.359609   1.000000   1.000799
    5        3.543168      5.362682   1.000000   1.000858
    6        3.972659      6.083172   1.000000  -0.028515
    7        4.233125      6.193441   1.000000  -0.023627
    8        4.445757      6.350275   1.000000  -0.002012
    9        4.537177      6.521662   1.000000  -0.000025
   10        5.331742      7.474727   1.000409  -0.000000
   11        5.393196      8.036627   1.001691  -0.000000
   12        7.867296      9.509854  -0.000000  -0.000000
   13       19.152822     19.864971   0.000000   0.000000
   14       20.656396     21.238803   0.000000   0.000000
   15       23.218988     23.841626   0.000000   0.000000
   16       23.274775     23.900044   0.000000   0.000000
   17       25.651385     26.164605   0.000000   0.000000
   18       25.811843     26.310935   0.000000   0.000000
   19       25.930681     26.381137   0.000000   0.000000
   20       29.010574     29.438035   0.000000   0.000000
 
  0.4615385E+00  0.7692308E-01  0.0000000E+00  0.1092399E-01
    1        0.935461      1.400924   1.000000   1.000000
    2        1.476036      2.258632   1.000000   1.000000
    3        2.621619      4.715810   1.000000   1.000000
    4        3.034216      5.149377   1.000000   1.000002
    5        3.697447      5.513885   1.000000   1.014054
    6        3.928064      5.753675   1.000000   0.924868
    7        4.038355      6.013666   1.000000   0.044023
    8        4.203686      6.113252   1.000000  -0.035226
    9        4.821874      6.837054   1.000000  -0.000000
   10        5.112857      7.160997   1.000000  -0.000000
   11        5.776700      8.279549   0.867795  -0.000000
   12        6.599590      8.716341  -0.000002  -0.000000
   13       20.493105     21.204125   0.000000   0.000000
   14       21.871132     22.535311   0.000000   0.000000
   15       22.277705     22.884503   0.000000   0.000000
   16       23.885456     24.454763   0.000000   0.000000
   17       24.011212     24.616725   0.000000   0.000000
   18       24.779740     25.243894   0.000000   0.000000
   19       26.501167     26.964777   0.000000   0.000000
   20       27.622140     28.059718   0.000000   0.000000
 
  0.1538462E+00  0.1538462E+00  0.0000000E+00  0.5461994E-02
    1       -1.637265     -1.464334   1.000000   1.000000
    2        1.365116      3.191235   1.000000   1.000000
    3        1.441665      3.215604   1.000000   1.000000
    4        3.316946      5.160118   1.000000   1.000003
    5        3.507323      5.363880   1.000000   1.000882
    6        4.075981      6.014895   1.000000   0.041832
    7        4.608047      6.968778   1.000000  -0.000000
    8        4.806158      7.228130   1.000000  -0.000000
    9        5.007005      7.268454   1.000000  -0.000000
   10        5.255688      7.556098   1.000053  -0.000000
   11        6.060277      8.233380  -0.015034  -0.000000
   12       13.318245     14.060795   0.000000   0.000000
   13       14.559090     15.293672   0.000000   0.000000
   14       17.523246     17.958582   0.000000   0.000000
   15       22.513769     23.366529   0.000000   0.000000
   16       25.002561     25.591359   0.000000   0.000000
   17       26.244693     26.557797   0.000000   0.000000
   18       29.276896     29.277040   0.000000   0.000000
   19       29.681733     30.421653   0.000000   0.000000
   20       30.402755     30.669725   0.000000   0.000000
 
  0.2307692E+00  0.1538462E+00  0.0000000E+00  0.1092399E-01
    1       -1.090359     -0.899669   1.000000   1.000000
    2        1.529774      3.285197   1.000000   1.000000
    3        1.697041      3.485480   1.000000   1.000000
    4        3.228158      5.049957   1.000000   1.000000
    5        3.463009      5.296822   1.000000   1.000166
    6        4.330931      6.293978   1.000000  -0.005902
    7        4.503391      6.488888   1.000000  -0.000065
    8        4.589242      6.862592   1.000000  -0.000000
    9        4.881545      7.098834   1.000000  -0.000000
   10        4.925658      7.642374   1.000000  -0.000000
   11        6.033336      8.200629   0.013258  -0.000000
   12       11.688878     12.633312   0.000000   0.000000
   13       15.007034     15.821230   0.000000   0.000000
   14       18.438987     18.926551   0.000000   0.000000
   15       22.766947     23.549949   0.000000   0.000000
   16       24.494316     24.945636   0.000000   0.000000
   17       26.175197     26.682010   0.000000   0.000000
   18       28.274617     28.370119   0.000000   0.000000
   19       29.606617     29.873654   0.000000   0.000000
   20       31.543053     32.459671   0.000000   0.000000
 
  0.3076923E+00  0.1538462E+00  0.0000000E+00  0.1092399E-01
    1       -0.395059     -0.158465   1.000000   1.000000
    2        1.679623      3.246979   1.000000   1.000000
    3        2.003098      3.834970   1.000000   1.000000
    4        3.195779      4.998999   1.000000   1.000000
    5        3.407740      5.230271   1.000000   1.000025
    6        4.186012      6.035436   1.000000   0.010503
    7        4.360014      6.579789   1.000000  -0.000004
    8        4.606868      6.596934   1.000000  -0.000002
    9        4.624953      6.833839   1.000000  -0.000000
   10        5.030160      7.794113   1.000000  -0.000000
   11        5.910566      8.057849   0.355590  -0.000000
   12        9.825556     11.039801  -0.000000  -0.000000
   13       15.976736     16.825526   0.000000   0.000000
   14       19.627457     20.164567   0.000000   0.000000
   15       22.807982     23.380109   0.000000   0.000000
   16       23.074310     23.770410   0.000000   0.000000
   17       27.041090     27.250622   0.000000   0.000000
   18       27.057864     27.507526   0.000000   0.000000
   19       27.945265     28.436086   0.000000   0.000000
   20       32.740370     33.174061   0.000000   0.000000
 
  0.3846154E+00  0.1538462E+00  0.0000000E+00  0.1092399E-01
    1        0.356655      0.700466   1.000000   1.000000
    2        1.704099      2.957401   1.000000   1.000000
    3        2.340787      4.229085   1.000000   1.000000
    4        3.232692      5.023186   1.000000   1.000000
    5        3.276912      5.136638   1.000000   1.000001
    6        3.832019      5.646111   1.000000   1.034474
    7        4.291144      6.439327   1.000000  -0.000250
    8        4.426280      6.580169   1.000000  -0.000004
    9        4.896139      6.916286   1.000000  -0.000000
   10        5.284634      7.832658   1.000119  -0.000000
   11        5.713890      7.979415   0.992532  -0.000000
   12        8.141377      9.715681  -0.000000  -0.000000
   13       17.117940     17.967652   0.000000   0.000000
   14       21.033147     21.608823   0.000000   0.000000
   15       21.223610     21.899580   0.000000   0.000000
   16       23.498131     24.091514   0.000000   0.000000
   17       25.879620     26.161448   0.000000   0.000000
   18       26.116267     26.691181   0.000000   0.000000
   19       27.875758     28.310121   0.000000   0.000000
   20       31.326581     31.732965   0.000000   0.000000
 
  0.4615385E+00  0.1538462E+00  0.0000000E+00  0.1092399E-01
    1        1.030966      1.587157   1.000000   1.000000
    2        1.498912      2.380805   1.000000   1.000000
    3        2.692812      4.621766   1.000000   1.000000
    4        3.023832      4.943908   1.000000   1.000000
    5        3.348687      5.135090   1.000000   1.000001
    6        3.549220      5.342830   1.000000   1.000536
    7        4.306759      6.401790   1.000000  -0.000636
    8        4.340889      6.432318   1.000000  -0.000299
    9        5.187301      7.239901   1.000006  -0.000000
   10        5.466042      7.552278   1.006799  -0.000000
   11        5.810319      8.260270   0.761526  -0.000000
   12        6.766786      8.790302  -0.000000  -0.000000
   13       18.379145     19.197322   0.000000   0.000000
   14       19.747617     20.506542   0.000000   0.000000
   15       22.609467     23.208104   0.000000   0.000000
   16       24.085921     24.569516   0.000000   0.000000
   17       24.316743     24.918307   0.000000   0.000000
   18       24.875243     25.252828   0.000000   0.000000
   19       28.843605     29.255025   0.000000   0.000000
   20       29.997960     30.399891   0.000000   0.000000
 
  0.2307692E+00  0.2307692E+00  0.0000000E+00  0.5461994E-02
    1       -0.598875     -0.373234   1.000000   1.000000
    2        1.606555      3.350892   1.000000   1.000000
    3        1.989988      3.718169   1.000000   1.000000
    4        3.067628      4.863668   1.000000   1.000000
    5        3.421092      5.194085   1.000000   1.000008
    6        4.161393      6.008575   1.000000   0.053501
    7        4.603403      6.630909   1.000000  -0.000001
    8        4.640535      6.635303   1.000000  -0.000001
    9        4.673220      7.179175   1.000000  -0.000000
   10        4.841096      7.601064   1.000000  -0.000000
   11        6.120888      8.301015  -0.035458  -0.000000
   12       11.491270     12.457703   0.000000   0.000000
   13       13.913139     14.920775   0.000000   0.000000
   14       19.255535     19.768631   0.000000   0.000000
   15       22.645499     23.219820   0.000000   0.000000
   16       22.991075     23.695518   0.000000   0.000000
   17       27.579999     27.664933   0.000000   0.000000
   18       28.006408     28.389228   0.000000   0.000000
   19       30.028502     30.229392   0.000000   0.000000
   20       30.686444     31.449427   0.000000   0.000000
 
  0.3076923E+00  0.2307692E+00  0.0000000E+00  0.1092399E-01
    1       -0.004802      0.303868   1.000000   1.000000
    2        1.644758      3.248290   1.000000   1.000000
    3        2.336418      4.053447   1.000000   1.000000
    4        2.970399      4.744688   1.000000   1.000000
    5        3.434042      5.120850   1.000000   1.000001
    6        3.765772      5.570492   1.000000   1.026439
    7        4.493781      6.533378   1.000000  -0.000017
    8        4.581822      6.982375   1.000000  -0.000000
    9        4.939300      7.087049   1.000000  -0.000000
   10        4.954233      7.701738   1.000000  -0.000000
   11        6.100643      8.276085  -0.033667  -0.000000
   12       10.087196     11.245774  -0.000000  -0.000000
   13       14.302331     15.342469   0.000000   0.000000
   14       20.340482     20.882170   0.000000   0.000000
   15       20.883490     21.565518   0.000000   0.000000
   16       23.247228     23.856101   0.000000   0.000000
   17       26.651631     26.773541   0.000000   0.000000
   18       28.460318     28.991590   0.000000   0.000000
   19       29.385253     29.722583   0.000000   0.000000
   20       31.080357     31.556582   0.000000   0.000000
 
  0.3846154E+00  0.2307692E+00  0.0000000E+00  0.1092399E-01
    1        0.586130      1.063371   1.000000   1.000000
    2        1.588513      2.952238   1.000000   1.000000
    3        2.689850      4.409574   1.000000   1.000000
    4        2.950913      4.710261   1.000000   1.000000
    5        3.425164      5.062948   1.000000   1.000000
    6        3.432291      5.207204   1.000000   1.000012
    7        4.442891      6.588696   1.000000  -0.000003
    8        4.573525      6.937103   1.000000  -0.000000
    9        5.204332      7.322700   1.000011  -0.000000
   10        5.260219      7.888313   1.000060  -0.000000
   11        5.984912      8.141699   0.106077  -0.000000
   12        8.443228      9.906166  -0.000000  -0.000000
   13       15.259038     16.266251   0.000000   0.000000
   14       19.252492     20.032916   0.000000   0.000000
   15       21.651821     22.219800   0.000000   0.000000
   16       23.606986     24.105761   0.000000   0.000000
   17       25.677015     25.865717   0.000000   0.000000
   18       26.585917     27.172059   0.000000   0.000000
   19       30.449391     30.787006   0.000000   0.000000
   20       32.036095     32.485693   0.000000   0.000000
 
  0.4615385E+00  0.2307692E+00  0.0000000E+00  0.1092399E-01
    1        1.069620      1.814257   1.000000   1.000000
    2        1.402094      2.464565   1.000000   1.000000
    3        3.016267      4.728301   1.000000   1.000000
    4        3.019220      4.772553   1.000000   1.000000
    5        3.180221      4.938261   1.000000   1.000000
    6        3.280308      4.952166   1.000000   1.000000
    7        4.494901      6.711755   1.000000  -0.000000
    8        4.562323      6.820713   1.000000  -0.000000
    9        5.545161      7.641955   1.020614  -0.000000
   10        5.793040      7.922285   0.819358  -0.000000
   11        5.857101      8.212041   0.579010  -0.000000
   12        6.978292      8.855846  -0.000000  -0.000000
   13       16.432693     17.380149   0.000000   0.000000
   14       17.767008     18.636829   0.000000   0.000000
   15       23.151095     23.738434   0.000000   0.000000
   16       24.117873     24.502320   0.000000   0.000000
   17       24.805310     25.087809   0.000000   0.000000
   18       24.809869     25.400843   0.000000   0.000000
   19       31.450302     31.802976   0.000000   0.000000
   20       32.434408     32.827107   0.000000   0.000000
 
  0.3076923E+00  0.3076923E+00  0.0000000E+00  0.5461994E-02
    1        0.410649      0.870122   1.000000   1.000000
    2        1.550817      3.080210   1.000000   1.000000
    3        2.749740      4.419258   1.000000   1.000000
    4        2.811214      4.561163   1.000000   1.000000
    5        3.389428      5.115296   1.000000   1.000001
    6        3.654738      5.157485   1.000000   1.000002
    7        4.450798      6.608832   1.000000  -0.000001
    8        4.717569      7.224656   1.000000  -0.000000
    9        4.888932      7.355293   1.000000  -0.000000
   10        5.288518      7.666107   1.000132  -0.000000
   11        6.185706      8.373398  -0.025415  -0.000000
   12        9.713651     10.854593  -0.000000  -0.000000
   13       13.533178     14.729174   0.000000   0.000000
   14       19.085711     19.873069   0.000000   0.000000
   15       21.306528     21.857023   0.000000   0.000000
   16       23.440102     23.943543   0.000000   0.000000
   17       26.050399     26.139824   0.000000   0.000000
   18       28.631285     29.325296   0.000000   0.000000
   19       29.733882     30.074856   0.000000   0.000000
   20       31.490689     31.725987   0.000000   0.000000
 
  0.3846154E+00  0.3076923E+00  0.0000000E+00  0.1092399E-01
    1        0.760751      1.459007   1.000000   1.000000
    2        1.407804      2.799940   1.000000   1.000000
    3        2.735147      4.468212   1.000000   1.000000
    4        3.085190      4.810898   1.000000   1.000000
    5        3.174921      4.827524   1.000000   1.000000
    6        3.906080      5.201323   1.000000   1.000010
    7        4.511094      6.785401   1.000000  -0.000000
    8        4.775900      7.201460   1.000000  -0.000000
    9        5.090148      7.696751   1.000000  -0.000000
   10        5.592817      7.782542   1.031202  -0.000000
   11        6.164555      8.347817  -0.030082  -0.000000
   12        8.526915      9.851591  -0.000000  -0.000000
   13       13.884038     15.073480   0.000000   0.000000
   14       17.456507     18.350396   0.000000   0.000000
   15       22.497362     23.059686   0.000000   0.000000
   16       23.719728     24.104991   0.000000   0.000000
   17       25.348819     25.455787   0.000000   0.000000
   18       27.099866     27.709388   0.000000   0.000000
   19       30.373934     30.814180   0.000000   0.000000
   20       33.010654     33.251634   0.000000   0.000000
 
  0.4615385E+00  0.3076923E+00  0.0000000E+00  0.1092399E-01
    1        1.023862      1.993284   1.000000   1.000000
    2        1.231271      2.438311   1.000000   1.000000
    3        2.753120      4.478531   1.000000   1.000000
    4        2.870159      4.598338   1.000000   1.000000
    5        3.554068      5.121098   1.000000   1.000001
    6        3.835802      5.253894   1.000000   1.000050