 vasp.6.2.0 18Jan21 (build Aug 12 2022 13:00:08) complex                        
  
 executed on             LinuxIFC date 2024.11.04  04:42:33
 running on    4 total cores
 distrk:  each k-point on    4 cores,    1 groups
 distr:  one band on NCORE=   1 cores,    4 groups


--------------------------------------------------------------------------------------------------------


 INCAR:
   ISTART = 0            (Read existing wavefunction, if there)
   ISPIN = 2            (Non-Spin polarised DFT)
   MAGMOM = 5 5          (Set this parameters manually)
   GGA_COMPAT = .FALSE.   (Apply spherical cutoff on gradient field)
   VOSKOWN = 1        (Enhances the magnetic moments and the magnetic energies)
   LMAXMIX = 4        (For d elements increase LMAXMIX to 4, f: LMAXMIX \= 6)
   LREAL = .FALSE.       (Projection operators: automatic)
   ENCUT = 350          (Cut-off energy for plane wave basis set, in eV)
   LORBIT = 11           (Write orbital decomposed charge densities and magnetic moments)
   ADDGRID = .TRUE.        (Increase grid, helps GGA convergence)
   LASPH = .TRUE.        (Give more accurate total energies and band structure calculations)
   PREC = Accurate      (Accurate strictly avoids any aliasing or wrap around errors)
   KSPACING = 0.17
   ISMEAR = 1            (Gaussian smearing, metals:1)
   SIGMA = 0.2          (Smearing value in eV, metals:0.2)
   NELM = 90           (Max electronic SCF steps)
   NELMIN = 6            (Min electronic SCF steps)
   EDIFF = 1E-06        (SCF energy convergence, in eV)
   NSW = 100          (Max ionic steps)
   IBRION = 2            (Algorithm: 0-MD, 1-Quasi-New, 2-CG)
   ISIF = 3            (Stress/relaxation: 2-Ions, 3-Shape/Ions/V, 4-Shape/Ions)
   EDIFFG = -2E-03        (Ionic convergence, eV/AA)
   ISYM = 2              (Symmetry: 0\=none, 2\=GGA, 3\=hybrids)

 POTCAR:    PAW_PBE Fe 06Sep2000                  
 POTCAR:    PAW_PBE Fe 06Sep2000                  
   VRHFIN =Fe:  d7 s1                                                                               
   LEXCH  = PE                                                                                      
   EATOM  =   594.3153 eV,   43.6809 Ry                                                             
                                                                                                    
   TITEL  = PAW_PBE Fe 06Sep2000                                                                    
   LULTRA =        F    use ultrasoft PP ?                                                          
   IUNSCR =        1    unscreen: 0-lin 1-nonlin 2-no                                               
   RPACOR =    2.000    partial core radius                                                         
   POMASS =   55.847; ZVAL   =    8.000    mass and valenz                                          
   RCORE  =    2.300    outmost cutoff radius                                                       
   RWIGS  =    2.460; RWIGS  =    1.302    wigner-seitz radius (au A)                               
   ENMAX  =  267.882; ENMIN  =  200.911 eV                                                          
   RCLOC  =    1.701    cutoff for local pot                                                        
   LCOR   =        T    correct aug charges                                                         
   LPAW   =        T    paw PP                                                                      
   EAUG   =  511.368                                                                                
   DEXC   =    0.000                                                                                
   RMAX   =    2.356    core radius for proj-oper                                                   
   RAUG   =    1.300    factor for augmentation sphere                                              
   RDEP   =    2.442    radius for radial grids                                                     
   RDEPT  =    1.890    core radius for aug-charge                                                  
                                                                                                    
   Atomic configuration                                                                             
    9 entries                                                                                       
     n  l   j            E        occ.                                                              
     1  0  0.50     -6993.8440   2.0000                                                             
     2  0  0.50      -814.6047   2.0000                                                             
     2  1  1.50      -693.3689   6.0000                                                             
     3  0  0.50       -89.4732   2.0000                                                             
     3  1  1.50       -55.6373   6.0000                                                             
     3  2  2.50        -3.8151   7.0000                                                             
     4  0  0.50        -4.2551   1.0000                                                             
     4  1  1.50        -3.4015   0.0000                                                             
     4  3  2.50        -1.3606   0.0000                                                             
   Description                                                                                      
     l       E           TYP  RCUT    TYP  RCUT                                                     
     2     -3.8151135     23  2.300                                                                 
     2     -5.1756961     23  2.300                                                                 
     0     -4.2550963     23  2.300                                                                 
     0      7.2035603     23  2.300                                                                 
     1     -2.7211652     23  2.300                                                                 
     1     18.4316424     23  2.300                                                                 
  local pseudopotential read in
  partial core-charges read in
  partial kinetic energy density read in
  atomic valenz-charges read in
  non local Contribution for L=           2  read in
    real space projection operators read in
  non local Contribution for L=           2  read in
    real space projection operators read in
  non local Contribution for L=           0  read in
    real space projection operators read in
  non local Contribution for L=           0  read in
    real space projection operators read in
  non local Contribution for L=           1  read in
    real space projection operators read in
  non local Contribution for L=           1  read in
    real space projection operators read in
    PAW grid and wavefunctions read in
 
   number of l-projection  operators is LMAX  =           6
   number of lm-projection operators is LMMAX =          18
 
  PAW_PBE Fe 06Sep2000                  :
 energy of atom  1       EATOM= -594.3153
 kinetic energy error for atom=    0.0205 (will be added to EATOM!!)
 
 
 POSCAR: Fe2
  positions in direct lattice
  No initial velocities read in
 exchange correlation table for  LEXCH =        8
   RHO(1)=    0.500       N(1)  =     2000
   RHO(2)=  100.500       N(2)  =     4000
 


--------------------------------------------------------------------------------------------------------


 ion  position               nearest neighbor table
   1  0.000  0.000  0.000-   2 2.48   2 2.48   2 2.48   2 2.48   2 2.48   2 2.48   2 2.48   2 2.48

   2  0.500  0.500  0.500-   1 2.48   1 2.48   1 2.48   1 2.48   1 2.48   1 2.48   1 2.48   1 2.48

 
  LATTYP: Found a simple cubic cell.
 ALAT       =     2.8630354989
  
  Lattice vectors:
  
 A1 = (   2.8630354989,   0.0000000000,   0.0000000000)
 A2 = (   0.0000000000,   2.8630354989,   0.0000000000)
 A3 = (   0.0000000000,   0.0000000000,   2.8630354989)


Analysis of symmetry for initial positions (statically):
=====================================================================
 Subroutine PRICEL returns following result:
 
  LATTYP: Found a body centered cubic cell.
 ALAT       =     2.8630354989
  
  Lattice vectors:
  
 A1 = (   1.4315177495,   1.4315177495,  -1.4315177495)
 A2 = (  -1.4315177495,   1.4315177495,   1.4315177495)
 A3 = (   1.4315177495,  -1.4315177495,   1.4315177495)
 
   2 primitive cells build up your supercell.
 

 Routine SETGRP: Setting up the symmetry group for a 
 simple cubic supercell.


 Subroutine GETGRP returns: Found 48 space group operations
 (whereof 48 operations were pure point group operations)
 out of a pool of 48 trial point group operations.


The static configuration has the point symmetry O_h .


Analysis of symmetry for dynamics (positions and initial velocities):
=====================================================================
 Subroutine PRICEL returns following result:
 
  LATTYP: Found a body centered cubic cell.
 ALAT       =     2.8630354989
  
  Lattice vectors:
  
 A1 = (   1.4315177495,   1.4315177495,  -1.4315177495)
 A2 = (  -1.4315177495,   1.4315177495,   1.4315177495)
 A3 = (   1.4315177495,  -1.4315177495,   1.4315177495)
 
   2 primitive cells build up your supercell.
 

 Routine SETGRP: Setting up the symmetry group for a 
 simple cubic supercell.


 Subroutine GETGRP returns: Found 48 space group operations
 (whereof 48 operations were pure point group operations)
 out of a pool of 48 trial point group operations.


The dynamic configuration has the point symmetry O_h .


Analysis of structural, dynamic, and magnetic symmetry:
=====================================================================
 Subroutine PRICEL returns following result:
 
  LATTYP: Found a body centered cubic cell.
 ALAT       =     2.8630354989
  
  Lattice vectors:
  
 A1 = (   1.4315177495,   1.4315177495,  -1.4315177495)
 A2 = (  -1.4315177495,   1.4315177495,   1.4315177495)
 A3 = (   1.4315177495,  -1.4315177495,   1.4315177495)
 
   2 primitive cells build up your supercell.
 

 Routine SETGRP: Setting up the symmetry group for a 
 simple cubic supercell.


 Subroutine GETGRP returns: Found 48 space group operations
 (whereof 48 operations were pure point group operations)
 out of a pool of 48 trial point group operations.


The overall configuration has the point symmetry O_h .


 Subroutine INISYM returns: Found 48 space group operations
 (whereof 48 operations are pure point group operations),
 and found     2 'primitive' translations


----------------------------------------------------------------------------------------

                                     Primitive cell                                     

  volume of cell :      11.7341

  direct lattice vectors                    reciprocal lattice vectors
     1.431517749  1.431517749 -1.431517749     0.349279637  0.349279637  0.000000000
    -1.431517749  1.431517749  1.431517749     0.000000000  0.349279637  0.349279637
     1.431517749 -1.431517749  1.431517749     0.349279637 -0.000000000  0.349279637

  length of vectors
     2.479461474  2.479461474  2.479461474     0.493956000  0.493956000  0.493956000

  position of ions in fractional coordinates (direct lattice)
     0.000000000  0.000000000  0.000000000

  ion indices of the primitive-cell ions
   primitive index   ion index
                 1           1

----------------------------------------------------------------------------------------

 
 -----------------------------------------------------------------------------
|                                                                             |
|           W    W    AA    RRRRR   N    N  II  N    N   GGGG   !!!           |
|           W    W   A  A   R    R  NN   N  II  NN   N  G    G  !!!           |
|           W    W  A    A  R    R  N N  N  II  N N  N  G       !!!           |
|           W WW W  AAAAAA  RRRRR   N  N N  II  N  N N  G  GGG   !            |
|           WW  WW  A    A  R   R   N   NN  II  N   NN  G    G                |
|           W    W  A    A  R    R  N    N  II  N    N   GGGG   !!!           |
|                                                                             |
|     The requested file  could not be found or opened for reading            |
|     k-point information. Automatic k-point generation is used as a          |
|     fallback, which may lead to unwanted results.                           |
|                                                                             |
 -----------------------------------------------------------------------------

 

Automatic generation of k-mesh.
 Grid dimensions derived from KSPACING:
 generate k-points for:   13   13   13

 Generating k-lattice:

  Cartesian coordinates                     Fractional coordinates (reciprocal lattice)
     0.026867664 -0.000000000  0.000000000     0.076923077  0.000000000  0.000000000
     0.000000000  0.026867664  0.000000000     0.000000000  0.076923077  0.000000000
    -0.000000000 -0.000000000  0.026867664    -0.000000000  0.000000000  0.076923077

  Length of vectors
     0.026867664  0.026867664  0.026867664

  Shift w.r.t. Gamma in fractional coordinates (k-lattice)
     0.000000000  0.000000000  0.000000000

 
 Subroutine IBZKPT returns following result:
 ===========================================
 
 Found     84 irreducible k-points:
 
 Following reciprocal coordinates:
            Coordinates               Weight
  0.000000  0.000000  0.000000      1.000000
  0.076923  0.000000  0.000000      6.000000
  0.153846 -0.000000  0.000000      6.000000
  0.230769  0.000000  0.000000      6.000000
  0.307692 -0.000000  0.000000      6.000000
  0.384615  0.000000  0.000000      6.000000
  0.461538  0.000000  0.000000      6.000000
  0.076923  0.076923  0.000000     12.000000
  0.153846  0.076923  0.000000     24.000000
  0.230769  0.076923  0.000000     24.000000
  0.307692  0.076923  0.000000     24.000000
  0.384615  0.076923  0.000000     24.000000
  0.461538  0.076923  0.000000     24.000000
  0.153846  0.153846  0.000000     12.000000
  0.230769  0.153846  0.000000     24.000000
  0.307692  0.153846  0.000000     24.000000
  0.384615  0.153846  0.000000     24.000000
  0.461538  0.153846  0.000000     24.000000
  0.230769  0.230769  0.000000     12.000000
  0.307692  0.230769  0.000000     24.000000
  0.384615  0.230769  0.000000     24.000000
  0.461538  0.230769  0.000000     24.000000
  0.307692  0.307692  0.000000     12.000000
  0.384615  0.307692  0.000000     24.000000
  0.461538  0.307692  0.000000     24.000000
  0.384615  0.384615  0.000000     12.000000
  0.461538  0.384615  0.000000     24.000000
  0.461538  0.461538  0.000000     12.000000
  0.076923  0.076923  0.076923      8.000000
  0.153846  0.076923  0.076923     24.000000
  0.230769  0.076923  0.076923     24.000000
  0.307692  0.076923  0.076923     24.000000
  0.384615  0.076923  0.076923     24.000000
  0.461538  0.076923  0.076923     24.000000
  0.153846  0.153846  0.076923     24.000000
  0.230769  0.153846  0.076923     48.000000
  0.307692  0.153846  0.076923     48.000000
  0.384615  0.153846  0.076923     48.000000
  0.461538  0.153846  0.076923     48.000000
  0.230769  0.230769  0.076923     24.000000
  0.307692  0.230769  0.076923     48.000000
  0.384615  0.230769  0.076923     48.000000
  0.461538  0.230769  0.076923     48.000000
  0.307692  0.307692  0.076923     24.000000
  0.384615  0.307692  0.076923     48.000000
  0.461538  0.307692  0.076923     48.000000
  0.384615  0.384615  0.076923     24.000000
  0.461538  0.384615  0.076923     48.000000
  0.461538  0.461538  0.076923     24.000000
  0.153846  0.153846  0.153846      8.000000
  0.230769  0.153846  0.153846     24.000000
  0.307692  0.153846  0.153846     24.000000
  0.384615  0.153846  0.153846     24.000000
  0.461538  0.153846  0.153846     24.000000
  0.230769  0.230769  0.153846     24.000000
  0.307692  0.230769  0.153846     48.000000
  0.384615  0.230769  0.153846     48.000000
  0.461538  0.230769  0.153846     48.000000
  0.307692  0.307692  0.153846     24.000000
  0.384615  0.307692  0.153846     48.000000
  0.461538  0.307692  0.153846     48.000000
  0.384615  0.384615  0.153846     24.000000
  0.461538  0.384615  0.153846     48.000000
  0.461538  0.461538  0.153846     24.000000
  0.230769  0.230769  0.230769      8.000000
  0.307692  0.230769  0.230769     24.000000
  0.384615  0.230769  0.230769     24.000000
  0.461538  0.230769  0.230769     24.000000
  0.307692  0.307692  0.230769     24.000000
  0.384615  0.307692  0.230769     48.000000
  0.461538  0.307692  0.230769     48.000000
  0.384615  0.384615  0.230769     24.000000
  0.461538  0.384615  0.230769     48.000000
  0.461538  0.461538  0.230769     24.000000
  0.307692  0.307692  0.307692      8.000000
  0.384615  0.307692  0.307692     24.000000
  0.461538  0.307692  0.307692     24.000000
  0.384615  0.384615  0.307692     24.000000
  0.461538  0.384615  0.307692     48.000000
  0.461538  0.461538  0.307692     24.000000
  0.384615  0.384615  0.384615      8.000000
  0.461538  0.384615  0.384615     24.000000
  0.461538  0.461538  0.384615     24.000000
  0.461538  0.461538  0.461538      8.000000
 
 Following cartesian coordinates:
            Coordinates               Weight
  0.000000  0.000000  0.000000      1.000000
  0.026868 -0.000000  0.000000      6.000000
  0.053735 -0.000000  0.000000      6.000000
  0.080603 -0.000000  0.000000      6.000000
  0.107471 -0.000000  0.000000      6.000000
  0.134338 -0.000000  0.000000      6.000000
  0.161206 -0.000000  0.000000      6.000000
  0.026868  0.026868  0.000000     12.000000
  0.053735  0.026868  0.000000     24.000000
  0.080603  0.026868  0.000000     24.000000
  0.107471  0.026868  0.000000     24.000000
  0.134338  0.026868  0.000000     24.000000
  0.161206  0.026868  0.000000     24.000000
  0.053735  0.053735  0.000000     12.000000
  0.080603  0.053735  0.000000     24.000000
  0.107471  0.053735  0.000000     24.000000
  0.134338  0.053735  0.000000     24.000000
  0.161206  0.053735  0.000000     24.000000
  0.080603  0.080603  0.000000     12.000000
  0.107471  0.080603  0.000000     24.000000
  0.134338  0.080603  0.000000     24.000000
  0.161206  0.080603  0.000000     24.000000
  0.107471  0.107471  0.000000     12.000000
  0.134338  0.107471  0.000000     24.000000
  0.161206  0.107471  0.000000     24.000000
  0.134338  0.134338  0.000000     12.000000
  0.161206  0.134338  0.000000     24.000000
  0.161206  0.161206  0.000000     12.000000
  0.026868  0.026868  0.026868      8.000000
  0.053735  0.026868  0.026868     24.000000
  0.080603  0.026868  0.026868     24.000000
  0.107471  0.026868  0.026868     24.000000
  0.134338  0.026868  0.026868     24.000000
  0.161206  0.026868  0.026868     24.000000
  0.053735  0.053735  0.026868     24.000000
  0.080603  0.053735  0.026868     48.000000
  0.107471  0.053735  0.026868     48.000000
  0.134338  0.053735  0.026868     48.000000
  0.161206  0.053735  0.026868     48.000000
  0.080603  0.080603  0.026868     24.000000
  0.107471  0.080603  0.026868     48.000000
  0.134338  0.080603  0.026868     48.000000
  0.161206  0.080603  0.026868     48.000000
  0.107471  0.107471  0.026868     24.000000
  0.134338  0.107471  0.026868     48.000000
  0.161206  0.107471  0.026868     48.000000
  0.134338  0.134338  0.026868     24.000000
  0.161206  0.134338  0.026868     48.000000
  0.161206  0.161206  0.026868     24.000000
  0.053735  0.053735  0.053735      8.000000
  0.080603  0.053735  0.053735     24.000000
  0.107471  0.053735  0.053735     24.000000
  0.134338  0.053735  0.053735     24.000000
  0.161206  0.053735  0.053735     24.000000
  0.080603  0.080603  0.053735     24.000000
  0.107471  0.080603  0.053735     48.000000
  0.134338  0.080603  0.053735     48.000000
  0.161206  0.080603  0.053735     48.000000
  0.107471  0.107471  0.053735     24.000000
  0.134338  0.107471  0.053735     48.000000
  0.161206  0.107471  0.053735     48.000000
  0.134338  0.134338  0.053735     24.000000
  0.161206  0.134338  0.053735     48.000000
  0.161206  0.161206  0.053735     24.000000
  0.080603  0.080603  0.080603      8.000000
  0.107471  0.080603  0.080603     24.000000
  0.134338  0.080603  0.080603     24.000000
  0.161206  0.080603  0.080603     24.000000
  0.107471  0.107471  0.080603     24.000000
  0.134338  0.107471  0.080603     48.000000
  0.161206  0.107471  0.080603     48.000000
  0.134338  0.134338  0.080603     24.000000
  0.161206  0.134338  0.080603     48.000000
  0.161206  0.161206  0.080603     24.000000
  0.107471  0.107471  0.107471      8.000000
  0.134338  0.107471  0.107471     24.000000
  0.161206  0.107471  0.107471     24.000000
  0.134338  0.134338  0.107471     24.000000
  0.161206  0.134338  0.107471     48.000000
  0.161206  0.161206  0.107471     24.000000
  0.134338  0.134338  0.134338      8.000000
  0.161206  0.134338  0.134338     24.000000
  0.161206  0.161206  0.134338     24.000000
  0.161206  0.161206  0.161206      8.000000
 


--------------------------------------------------------------------------------------------------------




 Dimension of arrays:
   k-points           NKPTS =     84   k-points in BZ     NKDIM =     84   number of bands    NBANDS=     20
   number of dos      NEDOS =    301   number of ions     NIONS =      2
   non local maximal  LDIM  =      6   non local SUM 2l+1 LMDIM =     18
   total plane-waves  NPLWV =   5832
   max r-space proj   IRMAX =      1   max aug-charges    IRDMAX=  71010
   dimension x,y,z NGX =    18 NGY =   18 NGZ =   18
   dimension x,y,z NGXF=    36 NGYF=   36 NGZF=   36
   support grid    NGXF=    72 NGYF=   72 NGZF=   72
   ions per type =               2
   NGX,Y,Z   is equivalent  to a cutoff of  10.45, 10.45, 10.45 a.u.
   NGXF,Y,Z  is equivalent  to a cutoff of  20.90, 20.90, 20.90 a.u.

 SYSTEM =  unknown system                          
 POSCAR =  Fe2                                     

 Startparameter for this run:
   NWRITE =      2    write-flag & timer
   PREC   = accura    normal or accurate (medium, high low for compatibility)
   ISTART =      0    job   : 0-new  1-cont  2-samecut
   ICHARG =      2    charge: 1-file 2-atom 10-const
   ISPIN  =      2    spin polarized calculation?
   LNONCOLLINEAR =      F non collinear calculations
   LSORBIT =      F    spin-orbit coupling
   INIWAV =      1    electr: 0-lowe 1-rand  2-diag
   LASPH  =      T    aspherical Exc in radial PAW
   METAGGA=      F    non-selfconsistent MetaGGA calc.

 Electronic Relaxation 1
   ENCUT  =  350.0 eV  25.72 Ry    5.07 a.u.   4.37  4.37  4.37*2*pi/ulx,y,z
   ENINI  =  350.0     initial cutoff
   ENAUG  =  511.4 eV  augmentation charge cutoff
   NELM   =     90;   NELMIN=  6; NELMDL= -5     # of ELM steps 
   EDIFF  = 0.1E-05   stopping-criterion for ELM
   LREAL  =      F    real-space projection
   NLSPLINE    = F    spline interpolate recip. space projectors
   LCOMPAT=      F    compatible to vasp.4.4
   GGA_COMPAT  = F    GGA compatible to vasp.4.4-vasp.4.6
   LMAXPAW     = -100 max onsite density
   LMAXMIX     =    4 max onsite mixed and CHGCAR
   VOSKOWN=      1    Vosko Wilk Nusair interpolation
   ROPT   =    0.00000
 Ionic relaxation
   EDIFFG = -.2E-02   stopping-criterion for IOM
   NSW    =    100    number of steps for IOM
   NBLOCK =      1;   KBLOCK =    100    inner block; outer block 
   IBRION =      2    ionic relax: 0-MD 1-quasi-New 2-CG
   NFREE  =      1    steps in history (QN), initial steepest desc. (CG)
   ISIF   =      3    stress and relaxation
   IWAVPR =     11    prediction:  0-non 1-charg 2-wave 3-comb
   ISYM   =      2    0-nonsym 1-usesym 2-fastsym
   LCORR  =      T    Harris-Foulkes like correction to forces

   POTIM  = 0.5000    time-step for ionic-motion
   TEIN   =    0.0    initial temperature
   TEBEG  =    0.0;   TEEND  =   0.0 temperature during run
   SMASS  =  -3.00    Nose mass-parameter (am)
   estimated Nose-frequenzy (Omega)   =  0.10E-29 period in steps = 0.13E+47 mass=  -0.187E-27a.u.
   SCALEE = 1.0000    scale energy and forces
   NPACO  =    256;   APACO  = 16.0  distance and # of slots for P.C.
   PSTRESS=    0.0 pullay stress

  Mass of Ions in am
   POMASS =  55.85
  Ionic Valenz
   ZVAL   =   8.00
  Atomic Wigner-Seitz radii
   RWIGS  =  -1.00
  virtual crystal weights 
   VCA    =   1.00
   NELECT =      16.0000    total number of electrons
   NUPDOWN=      -1.0000    fix difference up-down

 DOS related values:
   EMIN   =  10.00;   EMAX   =-10.00  energy-range for DOS
   EFERMI =   0.00
   ISMEAR =     1;   SIGMA  =   0.20  broadening in eV -4-tet -1-fermi 0-gaus

 Electronic relaxation 2 (details)
   IALGO  =     38    algorithm
   LDIAG  =      T    sub-space diagonalisation (order eigenvalues)
   LSUBROT=      F    optimize rotation matrix (better conditioning)
   TURBO    =      0    0=normal 1=particle mesh
   IRESTART =      0    0=no restart 2=restart with 2 vectors
   NREBOOT  =      0    no. of reboots
   NMIN     =      0    reboot dimension
   EREF     =   0.00    reference energy to select bands
   IMIX   =      4    mixing-type and parameters
     AMIX     =   0.40;   BMIX     =  1.00
     AMIX_MAG =   1.60;   BMIX_MAG =  1.00
     AMIN     =   0.10
     WC   =   100.;   INIMIX=   1;  MIXPRE=   1;  MAXMIX= -45

 Intra band minimization:
   WEIMIN = 0.0010     energy-eigenvalue tresh-hold
   EBREAK =  0.12E-07  absolut break condition
   DEPER  =   0.30     relativ break condition  

   TIME   =   0.40     timestep for ELM

  volume/ion in A,a.u.               =      11.73        79.19
  Fermi-wavevector in a.u.,A,eV,Ry     =   1.440859  2.722828 28.246703  2.076074
  Thomas-Fermi vector in A             =   2.559556
 
 Write flags
   LWAVE        =      T    write WAVECAR
   LDOWNSAMPLE  =      F    k-point downsampling of WAVECAR
   LCHARG       =      T    write CHGCAR
   LVTOT        =      F    write LOCPOT, total local potential
   LVHAR        =      F    write LOCPOT, Hartree potential only
   LELF         =      F    write electronic localiz. function (ELF)
   LORBIT       =     11    0 simple, 1 ext, 2 COOP (PROOUT), +10 PAW based schemes


 Dipole corrections
   LMONO  =      F    monopole corrections only (constant potential shift)
   LDIPOL =      F    correct potential (dipole corrections)
   IDIPOL =      0    1-x, 2-y, 3-z, 4-all directions 
   EPSILON=  1.0000000 bulk dielectric constant

 Exchange correlation treatment:
   GGA     =    --    GGA type
   LEXCH   =     8    internal setting for exchange type
   VOSKOWN=      1    Vosko Wilk Nusair interpolation
   LHFCALC =     F    Hartree Fock is set to
   LHFONE  =     F    Hartree Fock one center treatment
   AEXX    =    0.0000 exact exchange contribution

 Linear response parameters
   LEPSILON=     F    determine dielectric tensor
   LRPA    =     F    only Hartree local field effects (RPA)
   LNABLA  =     F    use nabla operator in PAW spheres
   LVEL    =     F    velocity operator in full k-point grid
   LINTERFAST=   F  fast interpolation
   KINTER  =     0    interpolate to denser k-point grid
   CSHIFT  =0.1000    complex shift for real part using Kramers Kronig
   OMEGAMAX=  -1.0    maximum frequency
   DEG_THRESHOLD= 0.2000000E-02 threshold for treating states as degnerate
   RTIME   =   -0.100 relaxation time in fs
  (WPLASMAI=    0.000 imaginary part of plasma frequency in eV, 0.658/RTIME)
   DFIELD  = 0.0000000 0.0000000 0.0000000 field for delta impulse in time
 
 Orbital magnetization related:
   ORBITALMAG=     F  switch on orbital magnetization
   LCHIMAG   =     F  perturbation theory with respect to B field
   DQ        =  0.001000  dq finite difference perturbation B field
   LLRAUG    =     F  two centre corrections for induced B field



--------------------------------------------------------------------------------------------------------


 conjugate gradient relaxation of ions
 charge density and potential will be updated during run
 spin polarized calculation
 Variant of blocked Davidson
 Davidson routine will perform the subspace rotation
 perform sub-space diagonalisation
    after iterative eigenvector-optimisation
 modified Broyden-mixing scheme, WC =      100.0
 initial mixing is a Kerker type mixing with AMIX =  0.4000 and BMIX =      1.0000
 Hartree-type preconditioning will be used
 using additional bands           12
 reciprocal scheme for non local part
 use partial core corrections
 calculate Harris-corrections to forces 
   (improved forces if not selfconsistent)
 use gradient corrections 
 use of overlap-Matrix (Vanderbilt PP)
 Methfessel and Paxton  Order N= 1 SIGMA  =   0.20


--------------------------------------------------------------------------------------------------------


  energy-cutoff  :      350.00
  volume of cell :       23.47
      direct lattice vectors                 reciprocal lattice vectors
     2.863035499  0.000000000  0.000000000     0.349279637 -0.000000000  0.000000000
     0.000000000  2.863035499  0.000000000     0.000000000  0.349279637  0.000000000
     0.000000000  0.000000000  2.863035499    -0.000000000 -0.000000000  0.349279637

  length of vectors
     2.863035499  2.863035499  2.863035499     0.349279637  0.349279637  0.349279637


 
 k-points in units of 2pi/SCALE and weight: read from INCAR                         
   0.00000000  0.00000000  0.00000000       0.000
   0.02686766 -0.00000000  0.00000000       0.003
   0.05373533 -0.00000000  0.00000000       0.003
   0.08060299 -0.00000000  0.00000000       0.003
   0.10747066 -0.00000000  0.00000000       0.003
   0.13433832 -0.00000000  0.00000000       0.003
   0.16120599 -0.00000000  0.00000000       0.003
   0.02686766  0.02686766  0.00000000       0.005
   0.05373533  0.02686766  0.00000000       0.011
   0.08060299  0.02686766  0.00000000       0.011
   0.10747066  0.02686766  0.00000000       0.011
   0.13433832  0.02686766  0.00000000       0.011
   0.16120599  0.02686766  0.00000000       0.011
   0.05373533  0.05373533  0.00000000       0.005
   0.08060299  0.05373533  0.00000000       0.011
   0.10747066  0.05373533  0.00000000       0.011
   0.13433832  0.05373533  0.00000000       0.011
   0.16120599  0.05373533  0.00000000       0.011
   0.08060299  0.08060299  0.00000000       0.005
   0.10747066  0.08060299  0.00000000       0.011
   0.13433832  0.08060299  0.00000000       0.011
   0.16120599  0.08060299  0.00000000       0.011
   0.10747066  0.10747066  0.00000000       0.005
   0.13433832  0.10747066  0.00000000       0.011
   0.16120599  0.10747066  0.00000000       0.011
   0.13433832  0.13433832  0.00000000       0.005
   0.16120599  0.13433832  0.00000000       0.011
   0.16120599  0.16120599  0.00000000       0.005
   0.02686766  0.02686766  0.02686766       0.004
   0.05373533  0.02686766  0.02686766       0.011
   0.08060299  0.02686766  0.02686766       0.011
   0.10747066  0.02686766  0.02686766       0.011
   0.13433832  0.02686766  0.02686766       0.011
   0.16120599  0.02686766  0.02686766       0.011
   0.05373533  0.05373533  0.02686766       0.011
   0.08060299  0.05373533  0.02686766       0.022
   0.10747066  0.05373533  0.02686766       0.022
   0.13433832  0.05373533  0.02686766       0.022
   0.16120599  0.05373533  0.02686766       0.022
   0.08060299  0.08060299  0.02686766       0.011
   0.10747066  0.08060299  0.02686766       0.022
   0.13433832  0.08060299  0.02686766       0.022
   0.16120599  0.08060299  0.02686766       0.022
   0.10747066  0.10747066  0.02686766       0.011
   0.13433832  0.10747066  0.02686766       0.022
   0.16120599  0.10747066  0.02686766       0.022
   0.13433832  0.13433832  0.02686766       0.011
   0.16120599  0.13433832  0.02686766       0.022
   0.16120599  0.16120599  0.02686766       0.011
   0.05373533  0.05373533  0.05373533       0.004
   0.08060299  0.05373533  0.05373533       0.011
   0.10747066  0.05373533  0.05373533       0.011
   0.13433832  0.05373533  0.05373533       0.011
   0.16120599  0.05373533  0.05373533       0.011
   0.08060299  0.08060299  0.05373533       0.011
   0.10747066  0.08060299  0.05373533       0.022
   0.13433832  0.08060299  0.05373533       0.022
   0.16120599  0.08060299  0.05373533       0.022
   0.10747066  0.10747066  0.05373533       0.011
   0.13433832  0.10747066  0.05373533       0.022
   0.16120599  0.10747066  0.05373533       0.022
   0.13433832  0.13433832  0.05373533       0.011
   0.16120599  0.13433832  0.05373533       0.022
   0.16120599  0.16120599  0.05373533       0.011
   0.08060299  0.08060299  0.08060299       0.004
   0.10747066  0.08060299  0.08060299       0.011
   0.13433832  0.08060299  0.08060299       0.011
   0.16120599  0.08060299  0.08060299       0.011
   0.10747066  0.10747066  0.08060299       0.011
   0.13433832  0.10747066  0.08060299       0.022
   0.16120599  0.10747066  0.08060299       0.022
   0.13433832  0.13433832  0.08060299       0.011
   0.16120599  0.13433832  0.08060299       0.022
   0.16120599  0.16120599  0.08060299       0.011
   0.10747066  0.10747066  0.10747066       0.004
   0.13433832  0.10747066  0.10747066       0.011
   0.16120599  0.10747066  0.10747066       0.011
   0.13433832  0.13433832  0.10747066       0.011
   0.16120599  0.13433832  0.10747066       0.022
   0.16120599  0.16120599  0.10747066       0.011
   0.13433832  0.13433832  0.13433832       0.004
   0.16120599  0.13433832  0.13433832       0.011
   0.16120599  0.16120599  0.13433832       0.011
   0.16120599  0.16120599  0.16120599       0.004
 
 k-points in reciprocal lattice and weights: read from INCAR                         
   0.00000000  0.00000000  0.00000000       0.000
   0.07692308  0.00000000  0.00000000       0.003
   0.15384615 -0.00000000  0.00000000       0.003
   0.23076923  0.00000000  0.00000000       0.003
   0.30769231 -0.00000000  0.00000000       0.003
   0.38461538  0.00000000  0.00000000       0.003
   0.46153846  0.00000000  0.00000000       0.003
   0.07692308  0.07692308  0.00000000       0.005
   0.15384615  0.07692308  0.00000000       0.011
   0.23076923  0.07692308  0.00000000       0.011
   0.30769231  0.07692308  0.00000000       0.011
   0.38461538  0.07692308  0.00000000       0.011
   0.46153846  0.07692308  0.00000000       0.011
   0.15384615  0.15384615  0.00000000       0.005
   0.23076923  0.15384615  0.00000000       0.011
   0.30769231  0.15384615  0.00000000       0.011
   0.38461538  0.15384615  0.00000000       0.011
   0.46153846  0.15384615  0.00000000       0.011
   0.23076923  0.23076923  0.00000000       0.005
   0.30769231  0.23076923  0.00000000       0.011
   0.38461538  0.23076923  0.00000000       0.011
   0.46153846  0.23076923  0.00000000       0.011
   0.30769231  0.30769231  0.00000000       0.005
   0.38461538  0.30769231  0.00000000       0.011
   0.46153846  0.30769231  0.00000000       0.011
   0.38461538  0.38461538  0.00000000       0.005
   0.46153846  0.38461538  0.00000000       0.011
   0.46153846  0.46153846  0.00000000       0.005
   0.07692308  0.07692308  0.07692308       0.004
   0.15384615  0.07692308  0.07692308       0.011
   0.23076923  0.07692308  0.07692308       0.011
   0.30769231  0.07692308  0.07692308       0.011
   0.38461538  0.07692308  0.07692308       0.011
   0.46153846  0.07692308  0.07692308       0.011
   0.15384615  0.15384615  0.07692308       0.011
   0.23076923  0.15384615  0.07692308       0.022
   0.30769231  0.15384615  0.07692308       0.022
   0.38461538  0.15384615  0.07692308       0.022
   0.46153846  0.15384615  0.07692308       0.022
   0.23076923  0.23076923  0.07692308       0.011
   0.30769231  0.23076923  0.07692308       0.022
   0.38461538  0.23076923  0.07692308       0.022
   0.46153846  0.23076923  0.07692308       0.022
   0.30769231  0.30769231  0.07692308       0.011
   0.38461538  0.30769231  0.07692308       0.022
   0.46153846  0.30769231  0.07692308       0.022
   0.38461538  0.38461538  0.07692308       0.011
   0.46153846  0.38461538  0.07692308       0.022
   0.46153846  0.46153846  0.07692308       0.011
   0.15384615  0.15384615  0.15384615       0.004
   0.23076923  0.15384615  0.15384615       0.011
   0.30769231  0.15384615  0.15384615       0.011
   0.38461538  0.15384615  0.15384615       0.011
   0.46153846  0.15384615  0.15384615       0.011
   0.23076923  0.23076923  0.15384615       0.011
   0.30769231  0.23076923  0.15384615       0.022
   0.38461538  0.23076923  0.15384615       0.022
   0.46153846  0.23076923  0.15384615       0.022
   0.30769231  0.30769231  0.15384615       0.011
   0.38461538  0.30769231  0.15384615       0.022
   0.46153846  0.30769231  0.15384615       0.022
   0.38461538  0.38461538  0.15384615       0.011
   0.46153846  0.38461538  0.15384615       0.022
   0.46153846  0.46153846  0.15384615       0.011
   0.23076923  0.23076923  0.23076923       0.004
   0.30769231  0.23076923  0.23076923       0.011
   0.38461538  0.23076923  0.23076923       0.011
   0.46153846  0.23076923  0.23076923       0.011
   0.30769231  0.30769231  0.23076923       0.011
   0.38461538  0.30769231  0.23076923       0.022
   0.46153846  0.30769231  0.23076923       0.022
   0.38461538  0.38461538  0.23076923       0.011
   0.46153846  0.38461538  0.23076923       0.022
   0.46153846  0.46153846  0.23076923       0.011
   0.30769231  0.30769231  0.30769231       0.004
   0.38461538  0.30769231  0.30769231       0.011
   0.46153846  0.30769231  0.30769231       0.011
   0.38461538  0.38461538  0.30769231       0.011
   0.46153846  0.38461538  0.30769231       0.022
   0.46153846  0.46153846  0.30769231       0.011
   0.38461538  0.38461538  0.38461538       0.004
   0.46153846  0.38461538  0.38461538       0.011
   0.46153846  0.46153846  0.38461538       0.011
   0.46153846  0.46153846  0.46153846       0.004
 
 position of ions in fractional coordinates (direct lattice) 
   0.00000000  0.00000000  0.00000000
   0.50000000  0.50000000  0.50000000
 
 position of ions in cartesian coordinates  (Angst):
   0.00000000  0.00000000  0.00000000
   1.43151775  1.43151775  1.43151775
 


--------------------------------------------------------------------------------------------------------


 k-point   1 :   0.0000 0.0000 0.0000  plane waves:     365
 k-point   2 :   0.0769 0.0000 0.0000  plane waves:     353
 k-point   3 :   0.1538-0.0000 0.0000  plane waves:     353
 k-point   4 :   0.2308 0.0000 0.0000  plane waves:     349
 k-point   5 :   0.3077-0.0000 0.0000  plane waves:     357
 k-point   6 :   0.3846 0.0000 0.0000  plane waves:     352
 k-point   7 :   0.4615 0.0000 0.0000  plane waves:     344
 k-point   8 :   0.0769 0.0769 0.0000  plane waves:     355
 k-point   9 :   0.1538 0.0769 0.0000  plane waves:     352
 k-point  10 :   0.2308 0.0769 0.0000  plane waves:     355
 k-point  11 :   0.3077 0.0769 0.0000  plane waves:     352
 k-point  12 :   0.3846 0.0769 0.0000  plane waves:     347
 k-point  13 :   0.4615 0.0769 0.0000  plane waves:     348
 k-point  14 :   0.1538 0.1538 0.0000  plane waves:     356
 k-point  15 :   0.2308 0.1538 0.0000  plane waves:     354
 k-point  16 :   0.3077 0.1538 0.0000  plane waves:     353
 k-point  17 :   0.3846 0.1538 0.0000  plane waves:     348
 k-point  18 :   0.4615 0.1538 0.0000  plane waves:     346
 k-point  19 :   0.2308 0.2308 0.0000  plane waves:     346
 k-point  20 :   0.3077 0.2308 0.0000  plane waves:     346
 k-point  21 :   0.3846 0.2308 0.0000  plane waves:     350
 k-point  22 :   0.4615 0.2308 0.0000  plane waves:     350
 k-point  23 :   0.3077 0.3077 0.0000  plane waves:     346
 k-point  24 :   0.3846 0.3077 0.0000  plane waves:     351
 k-point  25 :   0.4615 0.3077 0.0000  plane waves:     352
 k-point  26 :   0.3846 0.3846 0.0000  plane waves:     354
 k-point  27 :   0.4615 0.3846 0.0000  plane waves:     353
 k-point  28 :   0.4615 0.4615 0.0000  plane waves:     360
 k-point  29 :   0.0769 0.0769 0.0769  plane waves:     353
 k-point  30 :   0.1538 0.0769 0.0769  plane waves:     350
 k-point  31 :   0.2308 0.0769 0.0769  plane waves:     355
 k-point  32 :   0.3077 0.0769 0.0769  plane waves:     346
 k-point  33 :   0.3846 0.0769 0.0769  plane waves:     346
 k-point  34 :   0.4615 0.0769 0.0769  plane waves:     348
 k-point  35 :   0.1538 0.1538 0.0769  plane waves:     351
 k-point  36 :   0.2308 0.1538 0.0769  plane waves:     349
 k-point  37 :   0.3077 0.1538 0.0769  plane waves:     352
 k-point  38 :   0.3846 0.1538 0.0769  plane waves:     350
 k-point  39 :   0.4615 0.1538 0.0769  plane waves:     351
 k-point  40 :   0.2308 0.2308 0.0769  plane waves:     347
 k-point  41 :   0.3077 0.2308 0.0769  plane waves:     350
 k-point  42 :   0.3846 0.2308 0.0769  plane waves:     350
 k-point  43 :   0.4615 0.2308 0.0769  plane waves:     352
 k-point  44 :   0.3077 0.3077 0.0769  plane waves:     353
 k-point  45 :   0.3846 0.3077 0.0769  plane waves:     349
 k-point  46 :   0.4615 0.3077 0.0769  plane waves:     349
 k-point  47 :   0.3846 0.3846 0.0769  plane waves:     348
 k-point  48 :   0.4615 0.3846 0.0769  plane waves:     351
 k-point  49 :   0.4615 0.4615 0.0769  plane waves:     352
 k-point  50 :   0.1538 0.1538 0.1538  plane waves:     350
 k-point  51 :   0.2308 0.1538 0.1538  plane waves:     351
 k-point  52 :   0.3077 0.1538 0.1538  plane waves:     358
 k-point  53 :   0.3846 0.1538 0.1538  plane waves:     353
 k-point  54 :   0.4615 0.1538 0.1538  plane waves:     351
 k-point  55 :   0.2308 0.2308 0.1538  plane waves:     349
 k-point  56 :   0.3077 0.2308 0.1538  plane waves:     349
 k-point  57 :   0.3846 0.2308 0.1538  plane waves:     348
 k-point  58 :   0.4615 0.2308 0.1538  plane waves:     351
 k-point  59 :   0.3077 0.3077 0.1538  plane waves:     351
 k-point  60 :   0.3846 0.3077 0.1538  plane waves:     344
 k-point  61 :   0.4615 0.3077 0.1538  plane waves:     346
 k-point  62 :   0.3846 0.3846 0.1538  plane waves:     345
 k-point  63 :   0.4615 0.3846 0.1538  plane waves:     346
 k-point  64 :   0.4615 0.4615 0.1538  plane waves:     347
 k-point  65 :   0.2308 0.2308 0.2308  plane waves:     350
 k-point  66 :   0.3077 0.2308 0.2308  plane waves:     350
 k-point  67 :   0.3846 0.2308 0.2308  plane waves:     345
 k-point  68 :   0.4615 0.2308 0.2308  plane waves:     348
 k-point  69 :   0.3077 0.3077 0.2308  plane waves:     347
 k-point  70 :   0.3846 0.3077 0.2308  plane waves:     350
 k-point  71 :   0.4615 0.3077 0.2308  plane waves:     348
 k-point  72 :   0.3846 0.3846 0.2308  plane waves:     348
 k-point  73 :   0.4615 0.3846 0.2308  plane waves:     344
 k-point  74 :   0.4615 0.4615 0.2308  plane waves:     346
 k-point  75 :   0.3077 0.3077 0.3077  plane waves:     344
 k-point  76 :   0.3846 0.3077 0.3077  plane waves:     344
 k-point  77 :   0.4615 0.3077 0.3077  plane waves:     346
 k-point  78 :   0.3846 0.3846 0.3077  plane waves:     344
 k-point  79 :   0.4615 0.3846 0.3077  plane waves:     342
 k-point  80 :   0.4615 0.4615 0.3077  plane waves:     341
 k-point  81 :   0.3846 0.3846 0.3846  plane waves:     344
 k-point  82 :   0.4615 0.3846 0.3846  plane waves:     340
 k-point  83 :   0.4615 0.4615 0.3846  plane waves:     339
 k-point  84 :   0.4615 0.4615 0.4615  plane waves:     347

 maximum and minimum number of plane-waves per node :       365      339

 maximum number of plane-waves:       365
 maximum index in each direction: 
   IXMAX=    4   IYMAX=    4   IZMAX=    4
   IXMIN=   -4   IYMIN=   -4   IZMIN=   -4


 serial   3D FFT for wavefunctions
 parallel 3D FFT for charge:
    minimum data exchange during FFTs selected (reduces bandwidth)


 total amount of memory used by VASP MPI-rank0    43082. kBytes
=======================================================================

   base      :      30000. kBytes
   nonl-proj :       4463. kBytes
   fftplans  :       1775. kBytes
   grid      :       1353. kBytes
   one-center:         62. kBytes
   wavefun   :       5429. kBytes
 
     INWAV:  cpu time    0.0000: real time    0.0006
 Broyden mixing: mesh for mixing (old mesh)
   NGX =  9   NGY =  9   NGZ =  9
  (NGX  = 36   NGY  = 36   NGZ  = 36)
  gives a total of    729 points

 initial charge density was supplied:
 charge density of overlapping atoms calculated
 number of electron      16.0000000 magnetization      10.0000000
 keeping initial charge density in first step


--------------------------------------------------------------------------------------------------------


 Maximum index for augmentation-charges        17277 (set IRDMAX)


--------------------------------------------------------------------------------------------------------


 First call to EWALD:  gamma=   0.619
 Maximum number of real-space cells 3x 3x 3
 Maximum number of reciprocal cells 3x 3x 3

    FEWALD:  cpu time    0.0030: real time    0.0035


--------------------------------------- Iteration      1(   1)  ---------------------------------------


    POTLOK:  cpu time    0.0340: real time    0.0388
    SETDIJ:  cpu time    1.5488: real time    1.5485
     EDDAV:  cpu time    2.6636: real time    2.6658
       DOS:  cpu time    0.0070: real time    0.0078
    --------------------------------------------
      LOOP:  cpu time    4.2534: real time    4.2612

 eigenvalue-minimisations  :  7444
 total energy-change (2. order) : 0.6456733E+02  (-0.6041046E+03)
 number of electron      16.0000000 magnetization      10.0000000
 augmentation part       16.0000000 magnetization      10.0000000

 Free energy of the ion-electron system (eV)
  ---------------------------------------------------
  alpha Z        PSCENC =       117.79976220
  Ewald energy   TEWEN  =     -1171.43779597
  -Hartree energ DENC   =      -228.04061711
  -exchange      EXHF   =         0.00000000
  -V(xc)+E(xc)   XCENC  =        14.27160946
  PAW double counting   =      1103.49540010    -1119.11610375
  entropy T*S    EENTRO =        -0.00562632
  eigenvalues    EBANDS =       159.01104141
  atomic energy  EATOM  =      1188.58965621
  Solvation  Ediel_sol  =         0.00000000
  ---------------------------------------------------
  free energy    TOTEN  =        64.56732623 eV

  energy without entropy =       64.57295255  energy(sigma->0) =       64.56920167


--------------------------------------------------------------------------------------------------------




--------------------------------------- Iteration      1(   2)  ---------------------------------------


     EDDAV:  cpu time    2.4886: real time    2.5078
       DOS:  cpu time    0.0080: real time    0.0078
    --------------------------------------------
      LOOP:  cpu time    2.4966: real time    2.5156

 eigenvalue-minimisations  :  6852
 total energy-change (2. order) :-0.7798652E+02  (-0.6951829E+02)
 number of electron      16.0000000 magnetization      10.0000000
 augmentation part       16.0000000 magnetization      10.0000000

 Free energy of the ion-electron system (eV)
  ---------------------------------------------------
  alpha Z        PSCENC =       117.79976220
  Ewald energy   TEWEN  =     -1171.43779597
  -Hartree energ DENC   =      -228.04061711
  -exchange      EXHF   =         0.00000000
  -V(xc)+E(xc)   XCENC  =        14.27160946
  PAW double counting   =      1103.49540010    -1119.11610375
  entropy T*S    EENTRO =        -0.00036282
  eigenvalues    EBANDS =        81.01925417
  atomic energy  EATOM  =      1188.58965621
  Solvation  Ediel_sol  =         0.00000000
  ---------------------------------------------------
  free energy    TOTEN  =       -13.41919750 eV

  energy without entropy =      -13.41883469  energy(sigma->0) =      -13.41907656


--------------------------------------------------------------------------------------------------------




--------------------------------------- Iteration      1(   3)  ---------------------------------------


     EDDAV:  cpu time    2.6886: real time    2.7072
       DOS:  cpu time    0.0070: real time    0.0079
    --------------------------------------------
      LOOP:  cpu time    2.6966: real time    2.7151

 eigenvalue-minimisations  :  7592
 total energy-change (2. order) :-0.2647872E+01  (-0.2589546E+01)
 number of electron      16.0000000 magnetization      10.0000000
 augmentation part       16.0000000 magnetization      10.0000000

 Free energy of the ion-electron system (eV)
  ---------------------------------------------------
  alpha Z        PSCENC =       117.79976220
  Ewald energy   TEWEN  =     -1171.43779597
  -Hartree energ DENC   =      -228.04061711
  -exchange      EXHF   =         0.00000000
  -V(xc)+E(xc)   XCENC  =        14.27160946
  PAW double counting   =      1103.49540010    -1119.11610375
  entropy T*S    EENTRO =         0.00088854
  eigenvalues    EBANDS =        78.37013055
  atomic energy  EATOM  =      1188.58965621
  Solvation  Ediel_sol  =         0.00000000
  ---------------------------------------------------
  free energy    TOTEN  =       -16.06706977 eV

  energy without entropy =      -16.06795831  energy(sigma->0) =      -16.06736595


--------------------------------------------------------------------------------------------------------




--------------------------------------- Iteration      1(   4)  ---------------------------------------


     EDDAV:  cpu time    2.6146: real time    2.6319
       DOS:  cpu time    0.0070: real time    0.0077
    --------------------------------------------
      LOOP:  cpu time    2.6216: real time    2.6396

 eigenvalue-minimisations  :  7320
 total energy-change (2. order) :-0.1981734E-01  (-0.1981310E-01)
 number of electron      16.0000000 magnetization      10.0000000
 augmentation part       16.0000000 magnetization      10.0000000

 Free energy of the ion-electron system (eV)
  ---------------------------------------------------
  alpha Z        PSCENC =       117.79976220
  Ewald energy   TEWEN  =     -1171.43779597
  -Hartree energ DENC   =      -228.04061711
  -exchange      EXHF   =         0.00000000
  -V(xc)+E(xc)   XCENC  =        14.27160946
  PAW double counting   =      1103.49540010    -1119.11610375
  entropy T*S    EENTRO =         0.00087659
  eigenvalues    EBANDS =        78.35032516
  atomic energy  EATOM  =      1188.58965621
  Solvation  Ediel_sol  =         0.00000000
  ---------------------------------------------------
  free energy    TOTEN  =       -16.08688711 eV

  energy without entropy =      -16.08776370  energy(sigma->0) =      -16.08717931


--------------------------------------------------------------------------------------------------------




--------------------------------------- Iteration      1(   5)  ---------------------------------------


     EDDAV:  cpu time    2.6976: real time    2.7159
       DOS:  cpu time    0.0070: real time    0.0081
    CHARGE:  cpu time    0.1690: real time    0.1696
    MIXING:  cpu time    0.0020: real time    0.0011
    --------------------------------------------
      LOOP:  cpu time    2.8746: real time    2.8948

 eigenvalue-minimisations  :  7548
 total energy-change (2. order) :-0.2445583E-03  (-0.2445545E-03)
 number of electron      16.0000001 magnetization       4.3513326
 augmentation part        7.3767818 magnetization       2.6916783

 Broyden mixing:
  rms(total) = 0.19617E+01    rms(broyden)= 0.19615E+01
  rms(prec ) = 0.35412E+01
  weight for this iteration     100.00

 Free energy of the ion-electron system (eV)
  ---------------------------------------------------
  alpha Z        PSCENC =       117.79976220
  Ewald energy   TEWEN  =     -1171.43779597
  -Hartree energ DENC   =      -228.04061711
  -exchange      EXHF   =         0.00000000
  -V(xc)+E(xc)   XCENC  =        14.27160946
  PAW double counting   =      1103.49540010    -1119.11610375
  entropy T*S    EENTRO =         0.00087642
  eigenvalues    EBANDS =        78.35008077
  atomic energy  EATOM  =      1188.58965621
  Solvation  Ediel_sol  =         0.00000000
  ---------------------------------------------------
  free energy    TOTEN  =       -16.08713167 eV

  energy without entropy =      -16.08800809  energy(sigma->0) =      -16.08742381


--------------------------------------------------------------------------------------------------------




--------------------------------------- Iteration      1(   6)  ---------------------------------------


    POTLOK:  cpu time    0.0370: real time    0.0518
    SETDIJ:  cpu time    1.5538: real time    1.5540
     EDDAV:  cpu time    2.6576: real time    2.6609
       DOS:  cpu time    0.0090: real time    0.0086
    CHARGE:  cpu time    0.1570: real time    0.1574
    MIXING:  cpu time    0.0010: real time    0.0012
    --------------------------------------------
      LOOP:  cpu time    4.4153: real time    4.4339

 eigenvalue-minimisations  :  7456
 total energy-change (2. order) :-0.4780767E+00  (-0.5151134E+00)
 number of electron      16.0000001 magnetization       4.6052811
 augmentation part        8.4902310 magnetization       3.7855633

 Broyden mixing:
  rms(total) = 0.61672E+00    rms(broyden)= 0.61591E+00
  rms(prec ) = 0.69383E+00
  weight for this iteration     100.00

 eigenvalues of (default mixing * dielectric matrix)
  average eigenvalue GAMMA=   0.8790
  0.8790

 Free energy of the ion-electron system (eV)
  ---------------------------------------------------
  alpha Z        PSCENC =       117.79976220
  Ewald energy   TEWEN  =     -1171.43779597
  -Hartree energ DENC   =      -196.92006357
  -exchange      EXHF   =         0.00000000
  -V(xc)+E(xc)   XCENC  =         8.21562266
  PAW double counting   =      1215.23774469    -1227.45727898
  entropy T*S    EENTRO =        -0.00333571
  eigenvalues    EBANDS =        49.41048014
  atomic energy  EATOM  =      1188.58965621
  Solvation  Ediel_sol  =         0.00000000
  ---------------------------------------------------
  free energy    TOTEN  =       -16.56520833 eV

  energy without entropy =      -16.56187262  energy(sigma->0) =      -16.56409643


--------------------------------------------------------------------------------------------------------




--------------------------------------- Iteration      1(   7)  ---------------------------------------


    POTLOK:  cpu time    0.0360: real time    0.0512
    SETDIJ:  cpu time    1.5498: real time    1.5507
     EDDAV:  cpu time    2.7756: real time    2.7773
       DOS:  cpu time    0.0070: real time    0.0084
    CHARGE:  cpu time    0.1570: real time    0.1567
    MIXING:  cpu time    0.0010: real time    0.0011
    --------------------------------------------
      LOOP:  cpu time    4.5263: real time    4.5454

 eigenvalue-minimisations  :  7940
 total energy-change (2. order) : 0.5949514E-01  (-0.3809272E-01)
 number of electron      16.0000001 magnetization       4.4817321
 augmentation part        8.2512144 magnetization       3.7009452

 Broyden mixing:
  rms(total) = 0.43956E+00    rms(broyden)= 0.43943E+00
  rms(prec ) = 0.52377E+00
  weight for this iteration     100.00

 eigenvalues of (default mixing * dielectric matrix)
  average eigenvalue GAMMA=   0.7726
  1.0280  0.5172

 Free energy of the ion-electron system (eV)
  ---------------------------------------------------
  alpha Z        PSCENC =       117.79976220
  Ewald energy   TEWEN  =     -1171.43779597
  -Hartree energ DENC   =      -199.49792781
  -exchange      EXHF   =         0.00000000
  -V(xc)+E(xc)   XCENC  =         8.85442754
  PAW double counting   =      1292.35262985    -1307.63585597
  entropy T*S    EENTRO =        -0.00152250
  eigenvalues    EBANDS =        54.47091326
  atomic energy  EATOM  =      1188.58965621
  Solvation  Ediel_sol  =         0.00000000
  ---------------------------------------------------
  free energy    TOTEN  =       -16.50571319 eV

  energy without entropy =      -16.50419069  energy(sigma->0) =      -16.50520569


--------------------------------------------------------------------------------------------------------




--------------------------------------- Iteration      1(   8)  ---------------------------------------


    POTLOK:  cpu time    0.0360: real time    0.0520
    SETDIJ:  cpu time    1.5438: real time    1.5441
     EDDAV:  cpu time    3.0085: real time    3.0122
       DOS:  cpu time    0.0090: real time    0.0087
    CHARGE:  cpu time    0.1570: real time    0.1567
    MIXING:  cpu time    0.0000: real time    0.0011
    --------------------------------------------
      LOOP:  cpu time    4.7553: real time    4.7749

 eigenvalue-minimisations  :  8720
 total energy-change (2. order) : 0.1700800E-01  (-0.1037682E-02)
 number of electron      16.0000001 magnetization       4.4047376
 augmentation part        8.2789847 magnetization       3.6255352

 Broyden mixing:
  rms(total) = 0.16190E+00    rms(broyden)= 0.16187E+00
  rms(prec ) = 0.23285E+00
  weight for this iteration     100.00

 eigenvalues of (default mixing * dielectric matrix)
  average eigenvalue GAMMA=   1.1090
  1.8779  0.8732  0.5759

 Free energy of the ion-electron system (eV)
  ---------------------------------------------------
  alpha Z        PSCENC =       117.79976220
  Ewald energy   TEWEN  =     -1171.43779597
  -Hartree energ DENC   =      -197.72163225
  -exchange      EXHF   =         0.00000000
  -V(xc)+E(xc)   XCENC  =         8.62001637
  PAW double counting   =      1330.93912164    -1347.05597685
  entropy T*S    EENTRO =        -0.00135779
  eigenvalues    EBANDS =        53.77950124
  atomic energy  EATOM  =      1188.58965621
  Solvation  Ediel_sol  =         0.00000000
  ---------------------------------------------------
  free energy    TOTEN  =       -16.48870519 eV

  energy without entropy =      -16.48734740  energy(sigma->0) =      -16.48825260


--------------------------------------------------------------------------------------------------------




--------------------------------------- Iteration      1(   9)  ---------------------------------------


    POTLOK:  cpu time    0.0360: real time    0.0518
    SETDIJ:  cpu time    1.5508: real time    1.5501
     EDDAV:  cpu time    3.3385: real time    3.3427
       DOS:  cpu time    0.0080: real time    0.0085
    CHARGE:  cpu time    0.1570: real time    0.1567
    MIXING:  cpu time    0.0010: real time    0.0012
    --------------------------------------------
      LOOP:  cpu time    5.0902: real time    5.1111

 eigenvalue-minimisations  :  9900
 total energy-change (2. order) : 0.1144051E-01  (-0.3199519E-03)
 number of electron      16.0000001 magnetization       4.4379332
 augmentation part        8.3192770 magnetization       3.6612144

 Broyden mixing:
  rms(total) = 0.40987E-01    rms(broyden)= 0.40959E-01
  rms(prec ) = 0.48250E-01
  weight for this iteration     100.00

 eigenvalues of (default mixing * dielectric matrix)
  average eigenvalue GAMMA=   1.1820
  2.3216  1.0502  0.6781  0.6781

 Free energy of the ion-electron system (eV)
  ---------------------------------------------------
  alpha Z        PSCENC =       117.79976220
  Ewald energy   TEWEN  =     -1171.43779597
  -Hartree energ DENC   =      -195.24360035
  -exchange      EXHF   =         0.00000000
  -V(xc)+E(xc)   XCENC  =         8.46702840
  PAW double counting   =      1391.55144249    -1409.04782966
  entropy T*S    EENTRO =        -0.00141665
  eigenvalues    EBANDS =        52.84548865
  atomic energy  EATOM  =      1188.58965621
  Solvation  Ediel_sol  =         0.00000000
  ---------------------------------------------------
  free energy    TOTEN  =       -16.47726468 eV

  energy without entropy =      -16.47584803  energy(sigma->0) =      -16.47679246


--------------------------------------------------------------------------------------------------------




--------------------------------------- Iteration      1(  10)  ---------------------------------------


    POTLOK:  cpu time    0.0360: real time    0.0510
    SETDIJ:  cpu time    1.5438: real time    1.5438
     EDDAV:  cpu time    2.7726: real time    2.7769
       DOS:  cpu time    0.0090: real time    0.0084
    CHARGE:  cpu time    0.1570: real time    0.1569
    MIXING:  cpu time    0.0010: real time    0.0012
    --------------------------------------------
      LOOP:  cpu time    4.5193: real time    4.5382

 eigenvalue-minimisations  :  7944
 total energy-change (2. order) : 0.4584428E-03  (-0.1617921E-03)
 number of electron      16.0000001 magnetization       4.4522583
 augmentation part        8.3063320 magnetization       3.6714515

 Broyden mixing:
  rms(total) = 0.67089E-02    rms(broyden)= 0.67046E-02
  rms(prec ) = 0.92580E-02
  weight for this iteration     100.00

 eigenvalues of (default mixing * dielectric matrix)
  average eigenvalue GAMMA=   1.1436
  2.4002  1.1286  0.6322  0.7785  0.7785

 Free energy of the ion-electron system (eV)
  ---------------------------------------------------
  alpha Z        PSCENC =       117.79976220
  Ewald energy   TEWEN  =     -1171.43779597
  -Hartree energ DENC   =      -195.10623277
  -exchange      EXHF   =         0.00000000
  -V(xc)+E(xc)   XCENC  =         8.50154637
  PAW double counting   =      1408.69205471    -1426.66626006
  entropy T*S    EENTRO =        -0.00154867
  eigenvalues    EBANDS =        53.15201174
  atomic energy  EATOM  =      1188.58965621
  Solvation  Ediel_sol  =         0.00000000
  ---------------------------------------------------
  free energy    TOTEN  =       -16.47680624 eV

  energy without entropy =      -16.47525757  energy(sigma->0) =      -16.47629002


--------------------------------------------------------------------------------------------------------




--------------------------------------- Iteration      1(  11)  ---------------------------------------


    POTLOK:  cpu time    0.0360: real time    0.0510
    SETDIJ:  cpu time    1.5468: real time    1.5484
     EDDAV:  cpu time    2.7906: real time    2.7929
       DOS:  cpu time    0.0080: real time    0.0084
    CHARGE:  cpu time    0.1570: real time    0.1570
    MIXING:  cpu time    0.0010: real time    0.0012
    --------------------------------------------
      LOOP:  cpu time    4.5403: real time    4.5590

 eigenvalue-minimisations  :  7972
 total energy-change (2. order) :-0.3445281E-04  (-0.7199304E-05)
 number of electron      16.0000001 magnetization       4.4505579
 augmentation part        8.3078139 magnetization       3.6698321

 Broyden mixing:
  rms(total) = 0.46850E-02    rms(broyden)= 0.46847E-02
  rms(prec ) = 0.51100E-02
  weight for this iteration     100.00

 eigenvalues of (default mixing * dielectric matrix)
  average eigenvalue GAMMA=   1.1205
  2.3998  1.2981  0.9986  0.7001  0.7001  0.6265

 Free energy of the ion-electron system (eV)
  ---------------------------------------------------
  alpha Z        PSCENC =       117.79976220
  Ewald energy   TEWEN  =     -1171.43779597
  -Hartree energ DENC   =      -195.05470071
  -exchange      EXHF   =         0.00000000
  -V(xc)+E(xc)   XCENC  =         8.51601101
  PAW double counting   =      1410.95069505    -1428.95380223
  entropy T*S    EENTRO =        -0.00156125
  eigenvalues    EBANDS =        53.11489500
  atomic energy  EATOM  =      1188.58965621
  Solvation  Ediel_sol  =         0.00000000
  ---------------------------------------------------
  free energy    TOTEN  =       -16.47684069 eV

  energy without entropy =      -16.47527945  energy(sigma->0) =      -16.47632028


--------------------------------------------------------------------------------------------------------




--------------------------------------- Iteration      1(  12)  ---------------------------------------


    POTLOK:  cpu time    0.0370: real time    0.0508
    SETDIJ:  cpu time    1.5458: real time    1.5473
     EDDAV:  cpu time    2.5456: real time    2.5477
       DOS:  cpu time    0.0070: real time    0.0085
    CHARGE:  cpu time    0.1570: real time    0.1568
    MIXING:  cpu time    0.0010: real time    0.0013
    --------------------------------------------
      LOOP:  cpu time    4.2933: real time    4.3124

 eigenvalue-minimisations  :  7032
 total energy-change (2. order) : 0.8785594E-05  (-0.2815055E-06)
 number of electron      16.0000001 magnetization       4.4489608
 augmentation part        8.3079945 magnetization       3.6682546

 Broyden mixing:
  rms(total) = 0.19697E-02    rms(broyden)= 0.19696E-02
  rms(prec ) = 0.23008E-02
  weight for this iteration     100.00

 eigenvalues of (default mixing * dielectric matrix)
  average eigenvalue GAMMA=   1.2347
  2.4467  2.2563  1.0871  0.8300  0.6566  0.6566  0.7092

 Free energy of the ion-electron system (eV)
  ---------------------------------------------------
  alpha Z        PSCENC =       117.79976220
  Ewald energy   TEWEN  =     -1171.43779597
  -Hartree energ DENC   =      -195.06229579
  -exchange      EXHF   =         0.00000000
  -V(xc)+E(xc)   XCENC  =         8.51440125
  PAW double counting   =      1411.21446476    -1429.20145907
  entropy T*S    EENTRO =        -0.00156739
  eigenvalues    EBANDS =        53.10800189
  atomic energy  EATOM  =      1188.58965621
  Solvation  Ediel_sol  =         0.00000000
  ---------------------------------------------------
  free energy    TOTEN  =       -16.47683191 eV

  energy without entropy =      -16.47526452  energy(sigma->0) =      -16.47630944


--------------------------------------------------------------------------------------------------------




--------------------------------------- Iteration      1(  13)  ---------------------------------------


    POTLOK:  cpu time    0.0370: real time    0.0514
    SETDIJ:  cpu time    1.5448: real time    1.5465
     EDDAV:  cpu time    2.1347: real time    2.1354
       DOS:  cpu time    0.0070: real time    0.0085
    CHARGE:  cpu time    0.1570: real time    0.1569
    MIXING:  cpu time    0.0010: real time    0.0013
    --------------------------------------------
      LOOP:  cpu time    3.8814: real time    3.9000

 eigenvalue-minimisations  :  5364
 total energy-change (2. order) :-0.1377150E-05  (-0.1013752E-06)
 number of electron      16.0000001 magnetization       4.4480948
 augmentation part        8.3083710 magnetization       3.6675056

 Broyden mixing:
  rms(total) = 0.10166E-02    rms(broyden)= 0.10166E-02
  rms(prec ) = 0.12067E-02
  weight for this iteration     100.00

 eigenvalues of (default mixing * dielectric matrix)
  average eigenvalue GAMMA=   1.2431
  2.6290  2.3866  1.1816  1.0449  0.7839  0.6709  0.6709  0.5767

 Free energy of the ion-electron system (eV)
  ---------------------------------------------------
  alpha Z        PSCENC =       117.79976220
  Ewald energy   TEWEN  =     -1171.43779597
  -Hartree energ DENC   =      -195.06496617
  -exchange      EXHF   =         0.00000000
  -V(xc)+E(xc)   XCENC  =         8.51439696
  PAW double counting   =      1411.73399849    -1429.70911021
  entropy T*S    EENTRO =        -0.00156985
  eigenvalues    EBANDS =        53.09879506
  atomic energy  EATOM  =      1188.58965621
  Solvation  Ediel_sol  =         0.00000000
  ---------------------------------------------------
  free energy    TOTEN  =       -16.47683328 eV

  energy without entropy =      -16.47526343  energy(sigma->0) =      -16.47631000


--------------------------------------------------------------------------------------------------------




--------------------------------------- Iteration      1(  14)  ---------------------------------------


    POTLOK:  cpu time    0.0370: real time    0.0514
    SETDIJ:  cpu time    1.5438: real time    1.5455
     EDDAV:  cpu time    1.7247: real time    1.7255
       DOS:  cpu time    0.0070: real time    0.0083
    --------------------------------------------
      LOOP:  cpu time    3.3125: real time    3.3307

 eigenvalue-minimisations  :  3656
 total energy-change (2. order) : 0.8149786E-06  (-0.3244688E-07)
 number of electron      16.0000001 magnetization       4.4480948
 augmentation part        8.3083710 magnetization       3.6675056

 Free energy of the ion-electron system (eV)
  ---------------------------------------------------
  alpha Z        PSCENC =       117.79976220
  Ewald energy   TEWEN  =     -1171.43779597
  -Hartree energ DENC   =      -195.06964806
  -exchange      EXHF   =         0.00000000
  -V(xc)+E(xc)   XCENC  =         8.51316243
  PAW double counting   =      1411.72313024    -1429.69669511
  entropy T*S    EENTRO =        -0.00156627
  eigenvalues    EBANDS =        53.10316187
  atomic energy  EATOM  =      1188.58965621
  Solvation  Ediel_sol  =         0.00000000
  ---------------------------------------------------
  free energy    TOTEN  =       -16.47683247 eV

  energy without entropy =      -16.47526620  energy(sigma->0) =      -16.47631038


--------------------------------------------------------------------------------------------------------




 average (electrostatic) potential at core
  the test charge radii are     1.0103
  (the norm of the test charge is              1.0000)
       1 -43.6134       2 -43.6134
 
 
 
 E-fermi :   5.4693     XC(G=0): -12.9367     alpha+bet :-13.2097

 Fermi energy:         5.4692953188

 spin component 1

 k-point     1 :       0.0000    0.0000    0.0000
  band No.  band energies     occupation 
      1      -2.7423      1.00000
      2       0.8360      1.00000
      3       0.8360      1.00000
      4       3.2544      1.00000
      5       3.2544      1.00000
      6       3.2544      1.00000
      7       4.4001      1.00000
      8       4.4001      1.00000
      9       5.5568      0.16620
     10       5.5568      0.16619
     11       5.5568      0.16619
     12      15.2085      0.00000
     13      15.2085      0.00000
     14      15.2085      0.00000
     15      20.8191      0.00000
     16      20.8191      0.00000
     17      25.5397      0.00000
     18      30.2086      0.00000
     19      30.2086      0.00000
     20      30.2086      0.00000

 k-point     2 :       0.0769    0.0000    0.0000
  band No.  band energies     occupation 
      1      -2.6225      1.00000
      2       0.8862      1.00000
      3       0.8876      1.00000
      4       3.2537      1.00000
      5       3.2537      1.00000
      6       3.2865      1.00000
      7       4.3485      1.00000
      8       4.4205      1.00000
      9       5.4594      0.54171
     10       5.4594      0.54171
     11       5.5222      0.28441
     12      14.3514      0.00000
     13      15.4327      0.00000
     14      15.4327      0.00000
     15      20.8560      0.00000
     16      21.4524      0.00000
     17      25.9463      0.00000
     18      29.3949      0.00000
     19      30.0809      0.00000
     20      30.0809      0.00000

 k-point     3 :       0.1538   -0.0000    0.0000
  band No.  band energies     occupation 
      1      -2.2692      1.00000
      2       1.0291      1.00000
      3       1.0341      1.00000
      4       3.2558      1.00000
      5       3.2558      1.00000
      6       3.3813      1.00000
      7       4.1963      1.00000
      8       4.4800      1.00000
      9       5.1976      1.03318
     10       5.1976      1.03318
     11       5.4203      0.70040
     12      12.5849      0.00000
     13      16.0727      0.00000
     14      16.0727      0.00000
     15      20.9679      0.00000
     16      22.3892      0.00000
     17      27.3385      0.00000
     18      27.8953      0.00000
     19      29.4932      0.00000
     20      29.4932      0.00000

 k-point     4 :       0.2308    0.0000    0.0000
  band No.  band energies     occupation 
      1      -1.7026      1.00000
      2       1.2208      1.00000
      3       1.2725      1.00000
      4       3.2729      1.00000
      5       3.2729      1.00000
      6       3.5337      1.00000
      7       3.9512      1.00000
      8       4.5756      1.00000
      9       4.8411      1.00004
     10       4.8411      1.00004
     11       5.2577      1.03015
     12      10.6579     -0.00000
     13      17.0541      0.00000
     14      17.0541      0.00000
     15      21.1637      0.00000
     16      22.9689      0.00000
     17      26.4131      0.00000
     18      28.2424      0.00000
     19      28.2424      0.00000
     20      29.6776      0.00000

 k-point     5 :       0.3077   -0.0000    0.0000
  band No.  band energies     occupation 
      1      -0.9635      1.00000
      2       1.3923      1.00000
      3       1.5892      1.00000
      4       3.3209      1.00000
      5       3.3209      1.00000
      6       3.6264      1.00000
      7       3.7360      1.00000
      8       4.4596      1.00000
      9       4.4596      1.00000
     10       4.7133      1.00000
     11       5.0445      1.00525
     12       8.8366     -0.00000
     13      18.2982      0.00000
     14      18.2982      0.00000
     15      21.4566      0.00000
     16      23.3891      0.00000
     17      25.1066      0.00000
     18      26.5878      0.00000
     19      26.5878      0.00000
     20      28.3124      0.00000

 k-point     6 :       0.3846    0.0000    0.0000
  band No.  band energies     occupation 
      1      -0.1291      1.00000
      2       1.4362      1.00000
      3       1.9673      1.00000
      4       3.2412      1.00000
      5       3.4172      1.00000
      6       3.4172      1.00000
      7       3.9773      1.00000
      8       4.1045      1.00000
      9       4.1045      1.00000
     10       4.7942      1.00001
     11       4.9301      1.00046
     12       7.2658     -0.00000
     13      19.7417      0.00000
     14      19.7417      0.00000
     15      21.8649      0.00000
     16      23.8756      0.00000
     17      24.0095      0.00000
     18      24.8106      0.00000
     19      24.8106      0.00000
     20      26.7684      0.00000

 k-point     7 :       0.4615    0.0000    0.0000
  band No.  band energies     occupation 
      1       0.6612      1.00000
      2       1.2173      1.00000
      3       2.3855      1.00000
      4       2.8191      1.00000
      5       3.5761      1.00000
      6       3.5761      1.00000
      7       3.8053      1.00000
      8       3.8053      1.00000
      9       4.2444      1.00000
     10       4.5220      1.00000
     11       5.3285      0.96132
     12       6.0746     -0.00008
     13      21.3353      0.00000
     14      21.3353      0.00000
     15      22.4108      0.00000
     16      23.0396      0.00000
     17      23.0396      0.00000
     18      23.1186      0.00000
     19      24.5588      0.00000
     20      25.5131      0.00000

 k-point     8 :       0.0769    0.0769    0.0000
  band No.  band energies     occupation 
      1      -2.5039      1.00000
      2       0.9342      1.00000
      3       0.9401      1.00000
      4       3.1916      1.00000
      5       3.2489      1.00000
      6       3.3796      1.00000
      7       4.3399      1.00000
      8       4.4052      1.00000
      9       5.2868      1.01349
     10       5.3618      0.88988
     11       5.5715      0.12393
     12      14.3790      0.00000
     13      14.7412      0.00000
     14      15.6482      0.00000
     15      21.1795      0.00000
     16      21.8751      0.00000
     17      26.3047      0.00000
     18      28.6436      0.00000
     19      29.8181      0.00000
     20      30.0146      0.00000

 k-point     9 :       0.1538    0.0769    0.0000
  band No.  band energies     occupation 
      1      -2.1544      1.00000
      2       1.0710      1.00000
      3       1.0888      1.00000
      4       3.1440      1.00000
      5       3.2391      1.00000
      6       3.5226      1.00000
      7       4.2192      1.00000
      8       4.4546      1.00000
      9       4.9818      1.00152
     10       5.1024      1.01314
     11       5.5349      0.23821
     12      12.7339      0.00000
     13      15.1910      0.00000
     14      16.2666      0.00000
     15      21.3918      0.00000
     16      22.8921      0.00000
     17      27.0955      0.00000
     18      27.5782      0.00000
     19      29.1344      0.00000
     20      29.5636      0.00000

 k-point    10 :       0.2308    0.0769    0.0000
  band No.  band energies     occupation 
      1      -1.5953      1.00000
      2       1.2643      1.00000
      3       1.3172      1.00000
      4       3.1285      1.00000
      5       3.2325      1.00000
      6       3.7049      1.00000
      7       4.0113      1.00000
      8       4.5525      1.00000
      9       4.6140      1.00000
     10       4.7553      1.00000
     11       5.4104      0.73751
     12      10.8017     -0.00000
     13      16.0700      0.00000
     14      17.2218      0.00000
     15      21.6331      0.00000
     16      23.6073      0.00000
     17      25.4801      0.00000
     18      27.9113      0.00000
     19      28.3634      0.00000
     20      29.8241      0.00000

 k-point    11 :       0.3077    0.0769    0.0000
  band No.  band energies     occupation 
      1      -0.8691      1.00000
      2       1.4347      1.00000
      3       1.6198      1.00000
      4       3.1548      1.00000
      5       3.2157      1.00000
      6       3.7718      1.00000
      7       3.9242      1.00000
      8       4.2360      1.00000
      9       4.3980      1.00000
     10       4.6923      1.00000
     11       5.2199      1.03539
     12       8.9680     -0.00000
     13      17.1644      0.00000
     14      18.4416      0.00000
     15      21.9782      0.00000
     16      23.9453      0.00000
     17      24.1546      0.00000
     18      26.4744      0.00000
     19      26.6979      0.00000
     20      29.6491      0.00000

 k-point    12 :       0.3846    0.0769    0.0000
  band No.  band energies     occupation 
      1      -0.0551      1.00000
      2       1.4717      1.00000
      3       1.9793      1.00000
      4       3.0799      1.00000
      5       3.2356      1.00000
      6       3.6415      1.00000
      7       3.8894      1.00000
      8       4.0899      1.00000
      9       4.1740      1.00000
     10       4.9158      1.00032
     11       4.9831      1.00157
     12       7.3719     -0.00000
     13      18.3981      0.00000
     14      19.8651      0.00000
     15      22.4604      0.00000
     16      22.4904      0.00000
     17      24.7796      0.00000
     18      24.9115      0.00000
     19      25.1254      0.00000
     20      28.0740      0.00000

 k-point    13 :       0.4615    0.0769    0.0000
  band No.  band energies     occupation 
      1       0.7094      1.00000
      2       1.2497      1.00000
      3       2.3710      1.00000
      4       2.7599      1.00000
      5       3.3821      1.00000
      6       3.6006      1.00000
      7       3.7042      1.00000
      8       3.8609      1.00000
      9       4.4433      1.00000
     10       4.7184      1.00000
     11       5.3407      0.93846
     12       6.1363     -0.00001
     13      19.7166      0.00000
     14      21.0849      0.00000
     15      21.4445      0.00000
     16      23.1192      0.00000
     17      23.1400      0.00000
     18      23.9977      0.00000
     19      25.6148      0.00000
     20      26.7141      0.00000

 k-point    14 :       0.1538    0.1538    0.0000
  band No.  band energies     occupation 
      1      -1.8176      1.00000
      2       1.1807      1.00000
      3       1.2517      1.00000
      4       3.0202      1.00000
      5       3.2008      1.00000
      6       3.7370      1.00000
      7       4.2371      1.00000
      8       4.4226      1.00000
      9       4.6204      1.00000
     10       4.8552      1.00006
     11       5.6118      0.03578
     12      12.7259      0.00000
     13      13.8990      0.00000
[...]

 k-point    78 :       0.3846    0.3846    0.3077
  band No.  band energies     occupation 
      1       3.1707      1.00000
      2       3.5123      1.00000
      3       4.0401      1.00000
      4       4.1221      1.00000
      5       4.1956      1.00000
      6       4.4574      1.00000
      7       7.5529     -0.00000
      8       7.6260     -0.00000
      9       7.7137     -0.00000
     10       7.7436     -0.00000
     11      10.2985     -0.00000
     12      12.7016      0.00000
     13      14.5758      0.00000
     14      16.8233      0.00000
     15      17.7442      0.00000
     16      19.6988      0.00000
     17      20.8686      0.00000
     18      23.9624      0.00000
     19      35.1702      0.00000
     20      36.8945      0.00000

 k-point    79 :       0.4615    0.3846    0.3077
  band No.  band energies     occupation 
      1       3.3269      1.00000
      2       3.4079      1.00000
      3       4.0076      1.00000
      4       4.0416      1.00000
      5       4.3902      1.00000
      6       4.5180      1.00000
      7       7.5879     -0.00000
      8       7.6165     -0.00000
      9       7.7778     -0.00000
     10       7.7891     -0.00000
     11      11.0356     -0.00000
     12      11.9124      0.00000
     13      15.2783      0.00000
     14      16.4067      0.00000
     15      17.6213      0.00000
     16      18.7278      0.00000
     17      21.3470      0.00000
     18      22.5153      0.00000
     19      36.1013      0.00000
     20      36.8664      0.00000

 k-point    80 :       0.4615    0.4615    0.3077
  band No.  band energies     occupation 
      1       3.3599      1.00000
      2       3.3760      1.00000
      3       3.9528      1.00000
      4       3.9695      1.00000
      5       4.5819      1.00000
      6       4.6345      1.00000
      7       7.6482     -0.00000
      8       7.6597     -0.00000
      9       7.8077     -0.00000
     10       7.8111     -0.00000
     11      11.6803      0.00000
     12      12.1054      0.00000
     13      14.7985      0.00000
     14      15.3061      0.00000
     15      18.4727      0.00000
     16      19.2742      0.00000
     17      20.2778      0.00000
     18      21.0959      0.00000
     19      36.9764      0.00000
     20      37.3122      0.00000

 k-point    81 :       0.3846    0.3846    0.3846
  band No.  band energies     occupation 
      1       3.6061      1.00000
      2       3.6304      1.00000
      3       3.9852      1.00000
      4       3.9853      1.00000
      5       4.2260      1.00000
      6       4.2261      1.00000
      7       7.6961     -0.00000
      8       7.6963     -0.00000
      9       7.7350     -0.00000
     10       7.7351     -0.00000
     11      11.0681     -0.00000
     12      13.9325      0.00000
     13      13.9326      0.00000
     14      16.3118      0.00000
     15      18.1487      0.00000
     16      18.1487      0.00000
     17      19.4951      0.00000
     18      22.3397      0.00000
     19      37.6159      0.00000
     20      37.6159      0.00000

 k-point    82 :       0.4615    0.3846    0.3846
  band No.  band energies     occupation 
      1       3.6221      1.00000
      2       3.6779      1.00000
      3       3.9888      1.00000
      4       4.0672      1.00000
      5       4.1552      1.00000
      6       4.2936      1.00000
      7       7.7041     -0.00000
      8       7.7204     -0.00000
      9       7.7833     -0.00000
     10       7.7961     -0.00000
     11      11.9119      0.00000
     12      12.8914      0.00000
     13      15.2564      0.00000
     14      16.6643      0.00000
     15      16.6950      0.00000
     16      17.5285      0.00000
     17      19.7566      0.00000
     18      20.8997      0.00000
     19      38.4167      0.00000
     20      39.1312      0.00000

 k-point    83 :       0.4615    0.4615    0.3846
  band No.  band energies     occupation 
      1       3.7013      1.00000
      2       3.7613      1.00000
      3       3.9224      1.00000
      4       3.9833      1.00000
      5       4.2501      1.00000
      6       4.3056      1.00000
      7       7.7544     -0.00000
      8       7.7603     -0.00000
      9       7.8141     -0.00000
     10       7.8187     -0.00000
     11      12.7788      0.00000
     12      13.3926      0.00000
     13      14.9551      0.00000
     14      15.7176      0.00000
     15      17.0567      0.00000
     16      17.7167      0.00000
     17      18.7391      0.00000
     18      19.5066      0.00000
     19      39.7516      0.00000
     20      40.1243      0.00000

 k-point    84 :       0.4615    0.4615    0.4615
  band No.  band energies     occupation 
      1       3.8503      1.00000
      2       3.9580      1.00000
      3       3.9581      1.00000
      4       4.0771      1.00000
      5       4.0814      1.00000
      6       4.0815      1.00000
      7       7.8197     -0.00000
      8       7.8199     -0.00000
      9       7.8216     -0.00000
     10       7.8218     -0.00000
     11      13.8559      0.00000
     12      14.7639      0.00000
     13      14.7639      0.00000
     14      16.2087      0.00000
     15      16.2087      0.00000
     16      16.3196      0.00000
     17      17.8214      0.00000
     18      18.2332      0.00000
     19      42.5666      0.00000
     20      42.5753      0.00000


--------------------------------------------------------------------------------------------------------


 soft charge-density along one line, spin component           1
         0         1         2         3         4         5         6         7         8         9
 total charge-density along one line
 
 soft charge-density along one line, spin component           2
         0         1         2         3         4         5         6         7         8         9
 total charge-density along one line
 
 pseudopotential strength for first ion, spin component:           1
 -5.564  -0.000  -0.000  -0.000  -0.000  -6.096  -0.000  -0.000
 -0.000  -5.564   0.000   0.000   0.000  -0.000  -6.096   0.000
 -0.000   0.000  -5.775   0.000   0.000  -0.000   0.000  -6.300
 -0.000   0.000   0.000  -5.564  -0.000  -0.000   0.000   0.000
 -0.000   0.000   0.000  -0.000  -5.775  -0.000   0.000   0.000
 -6.096  -0.000  -0.000  -0.000  -0.000  -6.586  -0.000  -0.000
 -0.000  -6.096   0.000   0.000   0.000  -0.000  -6.586   0.000
 -0.000   0.000  -6.300   0.000   0.000  -0.000   0.000  -6.783
 -0.000   0.000   0.000  -6.096  -0.000  -0.000   0.000   0.000
 -0.000   0.000   0.000  -0.000  -6.300  -0.000   0.000   0.000
 -0.000   0.000   0.000   0.000  -0.000  -0.000   0.000   0.000
 -0.000   0.000   0.000   0.000  -0.000  -0.000   0.000   0.000
  0.000   0.000  -0.000  -0.000  -0.000   0.000   0.000  -0.000
 -0.000   0.000   0.000   0.000   0.000  -0.000   0.000   0.000
  0.000  -0.000  -0.000   0.000  -0.000   0.000  -0.000  -0.000
  0.000   0.000  -0.000  -0.000  -0.000   0.000   0.000  -0.000
 -0.000   0.000   0.000   0.000   0.000  -0.000   0.000   0.000
  0.000  -0.000  -0.000   0.000  -0.000   0.000  -0.000  -0.000
 pseudopotential strength for first ion, spin component:           2
 -4.136   0.000   0.000   0.000   0.000  -4.711   0.000   0.000
  0.000  -4.136  -0.000  -0.000  -0.000   0.000  -4.711  -0.000
  0.000  -0.000  -3.883  -0.000  -0.000   0.000  -0.000  -4.468
  0.000  -0.000  -0.000  -4.136   0.000   0.000  -0.000  -0.000
  0.000  -0.000  -0.000   0.000  -3.883   0.000  -0.000  -0.000
 -4.711   0.000   0.000   0.000   0.000  -5.244   0.000   0.000
  0.000  -4.711  -0.000  -0.000  -0.000   0.000  -5.244  -0.000
  0.000  -0.000  -4.468  -0.000  -0.000   0.000  -0.000  -5.008
  0.000  -0.000  -0.000  -4.711   0.000   0.000  -0.000  -0.000
  0.000  -0.000  -0.000   0.000  -4.467   0.000  -0.000  -0.000
  0.000  -0.000  -0.000  -0.000   0.000   0.000  -0.000  -0.000
  0.000  -0.000  -0.000  -0.000   0.000   0.000  -0.000  -0.000
  0.000   0.000  -0.000  -0.000  -0.000   0.000   0.000  -0.000
 -0.000   0.000   0.000   0.000  -0.000  -0.000   0.000   0.000
  0.000  -0.000  -0.000   0.000  -0.000   0.000  -0.000  -0.000
  0.000   0.000  -0.000  -0.000  -0.000   0.000   0.000  -0.000
 -0.000   0.000   0.000   0.000  -0.000  -0.000   0.000   0.000
  0.000  -0.000  -0.000   0.000  -0.000   0.000  -0.000  -0.000
 total augmentation occupancy for first ion, spin component:           1
  2.241   0.000  -0.000   0.000  -0.000  -1.246  -0.000   0.000  -0.000   0.000   0.000   0.000   0.000   0.000   0.000   0.000
  0.000   2.241   0.000   0.000  -0.000  -0.000  -1.246   0.000  -0.000   0.000  -0.000  -0.000   0.000   0.000   0.000   0.000
 -0.000   0.000   3.690   0.000   0.000   0.000   0.000  -2.408   0.000   0.000  -0.000   0.000   0.000   0.000   0.000   0.000
  0.000   0.000   0.000   2.241   0.000  -0.000  -0.000  -0.000  -1.246  -0.000  -0.000  -0.000   0.000   0.000   0.000   0.000
 -0.000  -0.000  -0.000   0.000   3.690   0.000   0.000  -0.000  -0.000  -2.408  -0.000  -0.000   0.000   0.000   0.000   0.000
 -1.246  -0.000   0.000  -0.000   0.000   1.644   0.000  -0.000   0.000  -0.000  -0.000  -0.000   0.000   0.000   0.000   0.000
 -0.000  -1.246   0.000  -0.000   0.000   0.000   1.644   0.000   0.000  -0.000   0.000  -0.000  -0.000   0.000   0.000   0.000
  0.000   0.000  -2.408  -0.000   0.000  -0.000   0.000   2.388   0.000   0.000  -0.000  -0.000   0.000   0.000   0.000   0.000
 -0.000  -0.000   0.000  -1.246  -0.000   0.000   0.000   0.000   1.644   0.000   0.000  -0.000   0.000   0.000  -0.000   0.000
  0.000   0.000  -0.000  -0.000  -2.408  -0.000  -0.000   0.000   0.000   2.388   0.000   0.000   0.000   0.000   0.000   0.000
  0.000   0.000  -0.000  -0.000  -0.000  -0.000   0.000   0.000   0.000  -0.000   2.434  -0.284   0.000   0.000   0.000   0.000
  0.000   0.000   0.000  -0.000   0.000   0.000  -0.000  -0.000  -0.000   0.000  -0.284   0.039   0.000   0.000   0.000   0.000
  0.000   0.000   0.000   0.000   0.000   0.000  -0.000   0.000   0.000   0.000   0.000   0.000   0.297   0.000   0.000  -0.026
  0.000   0.000   0.000   0.000   0.000   0.000   0.000   0.000   0.000   0.000   0.000   0.000   0.000   0.297   0.000  -0.000
  0.000   0.000   0.000   0.000   0.000   0.000   0.000   0.000  -0.000   0.000   0.000   0.000   0.000   0.000   0.297  -0.000
  0.000   0.000   0.000   0.000   0.000   0.000   0.000   0.000   0.000  -0.000   0.000   0.000  -0.026  -0.000  -0.000   0.003
  0.000   0.000   0.000  -0.000   0.000   0.000   0.000   0.000   0.000   0.000   0.000   0.000  -0.000  -0.026  -0.000   0.000
  0.000   0.000   0.000  -0.000   0.000   0.000   0.000   0.000  -0.000   0.000   0.000   0.000  -0.000  -0.000  -0.026   0.000
 total augmentation occupancy for first ion, spin component:           2
  1.855   0.000  -0.000   0.000  -0.000  -0.773  -0.000   0.000  -0.000   0.000  -0.000  -0.000   0.000   0.000   0.000   0.000
  0.000   1.855   0.000   0.000  -0.000  -0.000  -0.773  -0.000  -0.000   0.000   0.000   0.000   0.000   0.000   0.000   0.000
 -0.000   0.000   3.121   0.000   0.000   0.000   0.000  -1.397  -0.000  -0.000   0.000   0.000   0.000   0.000   0.000   0.000
  0.000   0.000   0.000   1.855   0.000  -0.000  -0.000  -0.000  -0.773  -0.000   0.000  -0.000   0.000   0.000   0.000   0.000
 -0.000  -0.000   0.000   0.000   3.121   0.000   0.000  -0.000  -0.000  -1.397  -0.000  -0.000   0.000   0.000   0.000   0.000
 -0.773  -0.000   0.000  -0.000   0.000   0.084   0.000  -0.000  -0.000  -0.000  -0.000   0.000   0.000   0.000   0.000   0.000
 -0.000  -0.773   0.000  -0.000   0.000   0.000   0.084  -0.000   0.000  -0.000  -0.000  -0.000   0.000   0.000   0.000   0.000
  0.000  -0.000  -1.397  -0.000  -0.000  -0.000  -0.000   0.388  -0.000   0.000   0.000   0.000   0.000   0.000   0.000   0.000
 -0.000  -0.000   0.000  -0.773  -0.000   0.000   0.000   0.000   0.084   0.000  -0.000  -0.000   0.000   0.000   0.000   0.000
  0.000   0.000  -0.000  -0.000  -1.397  -0.000  -0.000  -0.000   0.000   0.388   0.000  -0.000   0.000   0.000   0.000   0.000
 -0.000  -0.000   0.000  -0.000   0.000  -0.000  -0.000   0.000   0.000  -0.000  -0.329   0.099   0.000   0.000   0.000   0.000
 -0.000   0.000  -0.000   0.000   0.000   0.000  -0.000   0.000   0.000  -0.000   0.099  -0.017   0.000   0.000   0.000   0.000
  0.000   0.000   0.000   0.000   0.000   0.000   0.000   0.000   0.000   0.000   0.000   0.000  -0.037  -0.000  -0.000   0.006
  0.000   0.000   0.000   0.000   0.000   0.000   0.000   0.000   0.000   0.000   0.000   0.000  -0.000  -0.037  -0.000   0.000
  0.000   0.000   0.000   0.000   0.000   0.000   0.000   0.000   0.000   0.000   0.000   0.000  -0.000  -0.000  -0.037   0.000
 -0.000   0.000   0.000   0.000   0.000   0.000   0.000   0.000   0.000   0.000   0.000   0.000   0.006   0.000   0.000  -0.001
 -0.000   0.000   0.000   0.000   0.000   0.000   0.000   0.000   0.000   0.000   0.000   0.000   0.000   0.006   0.000  -0.000
  0.000   0.000   0.000   0.000   0.000   0.000   0.000   0.000   0.000   0.000   0.000   0.000   0.000   0.000   0.006  -0.000


------------------------ aborting loop because EDIFF is reached ----------------------------------------





 total charge

# of ion       s       p       d       tot
------------------------------------------
    1        0.490   0.546   6.238   7.274
    2        0.490   0.546   6.238   7.274
--------------------------------------------------
tot          0.979   1.092  12.476  14.547



 magnetization (x)

# of ion       s       p       d       tot
------------------------------------------
    1       -0.013  -0.057   2.242   2.172
    2       -0.013  -0.057   2.242   2.172
--------------------------------------------------
tot         -0.026  -0.113   4.483   4.343
 
    CHARGE:  cpu time    0.1570: real time    0.1581
    FORLOC:  cpu time    0.0000: real time    0.0008
    FORNL :  cpu time    0.3519: real time    0.3517
    STRESS:  cpu time    1.2148: real time    1.2156
    FORCOR:  cpu time    0.0330: real time    0.0337
    FORHAR:  cpu time    0.0030: real time    0.0029
    MIXING:  cpu time    0.0000: real time    0.0010
    OFIELD:  cpu time    0.0010: real time    0.0002

  FORCE on cell =-STRESS in cart. coord.  units (eV):
  Direction    XX          YY          ZZ          XY          YZ          ZX
  --------------------------------------------------------------------------------------
  Alpha Z   122.22700   122.22700   122.22700
  Ewald    -395.31096  -395.31096  -395.31096     0.00000     0.00000     0.00000
  Hartree    63.12489    63.12489    63.12489    -0.00000    -0.00000    -0.00000
  E(xc)     -79.45393   -79.45393   -79.45393     0.00000    -0.00000     0.00000
  Local     118.17038   118.17038   118.17038     0.00000    -0.00000    -0.00000
  n-local   -54.72902   -51.63603   -48.95540     2.49599    -0.88943     0.66014
  augment    77.41541    77.41541    77.41542     0.00000     0.00000     0.00000
  Kinetic   148.10990   145.20519   143.48444     2.79178    -0.52765     0.10181
  Fock        0.00000     0.00000     0.00000     0.00000     0.00000     0.00000
  -------------------------------------------------------------------------------------
  Total      -0.00086    -0.00086    -0.00086    -0.00000     0.00000    -0.00000
  in kB      -0.06081    -0.06081    -0.06081    -0.00000     0.00000    -0.00000
  external pressure =       -0.06 kB  Pullay stress =        0.00 kB


 VOLUME and BASIS-vectors are now :
 -----------------------------------------------------------------------------
  energy-cutoff  :      350.00
  volume of cell :       22.62
      direct lattice vectors                 reciprocal lattice vectors
     2.828041785 -0.000000000  0.000000000     0.353601565 -0.000000000 -0.000000000
     0.000000000  2.828041785  0.000000000     0.000000000  0.353601565 -0.000000000
     0.000000000  0.000000000  2.828041785    -0.000000000 -0.000000000  0.353601565

  length of vectors
     2.828041785  2.828041785  2.828041785     0.353601565  0.353601565  0.353601565


 FORCES acting on ions
    electron-ion (+dipol)            ewald-force                    non-local-force                 convergence-correction
 -----------------------------------------------------------------------------------------------
   -.144E-13 -.166E-13 -.163E-13   -.226E-14 0.110E-14 -.327E-14   -.287E-24 -.314E-27 0.103E-24   0.832E-14 0.131E-13 -.785E-14
   0.139E-12 -.549E-12 0.485E-13   0.248E-14 0.528E-15 0.166E-14   -.146E-24 0.355E-27 0.000E+00   0.321E-13 0.218E-13 -.195E-14
 -----------------------------------------------------------------------------------------------
   0.125E-12 -.566E-12 0.323E-13   0.212E-15 0.163E-14 -.161E-14   -.433E-24 0.402E-28 0.103E-24   0.405E-13 0.349E-13 -.980E-14
 
 
 POSITION                                       TOTAL-FORCE (eV/Angst)
 -----------------------------------------------------------------------------------
      0.00000     -0.00000     -0.00000        -0.000000     -0.000000      0.000000
      1.41402      1.41402      1.41402         0.000000      0.000000     -0.000000
 -----------------------------------------------------------------------------------
    total drift:                                0.000000     -0.000000      0.000000


--------------------------------------------------------------------------------------------------------



  FREE ENERGIE OF THE ION-ELECTRON SYSTEM (eV)
  ---------------------------------------------------
  free  energy   TOTEN  =       -16.49527457 eV

  energy  without entropy=      -16.49478302  energy(sigma->0) =      -16.49511072
 
 d Force = 0.0000000E+00[ 0.000E+00, 0.000E+00]  d Energy = 0.1663542E-01-0.166E-01
 d Force = 0.0000000E+00[ 0.000E+00, 0.000E+00]  d Ewald  =-0.1354234E+02 0.135E+02


--------------------------------------------------------------------------------------------------------


    POTLOK:  cpu time    1.5848: real time    1.5926


--------------------------------------------------------------------------------------------------------




--------------------------------------------------------------------------------------------------------


  
 reached required accuracy - stopping structural energy minimisation
 writing wavefunctions
     LOOP+:  cpu time   44.0233: real time   45.3208
    4ORBIT:  cpu time    0.0000: real time    0.0000



 total charge

# of ion       s       p       d       tot
------------------------------------------
    1        0.490   0.546   6.238   7.274
    2        0.490   0.546   6.238   7.274
--------------------------------------------------
tot          0.979   1.092  12.476  14.547



 magnetization (x)

# of ion       s       p       d       tot
------------------------------------------
    1       -0.013  -0.057   2.242   2.172
    2       -0.013  -0.057   2.242   2.172
--------------------------------------------------
tot         -0.026  -0.113   4.483   4.343
 

 total amount of memory used by VASP MPI-rank0    43082. kBytes
=======================================================================

   base      :      30000. kBytes
   nonl-proj :       4463. kBytes
   fftplans  :       1775. kBytes
   grid      :       1353. kBytes
   one-center:         62. kBytes
   wavefun   :       5429. kBytes
 
  
  
 General timing and accounting informations for this job:
 ========================================================
  
                  Total CPU time used (sec):      154.337
                            User time (sec):      152.068
                          System time (sec):        2.269
                         Elapsed time (sec):      162.103
  
                   Maximum memory used (kb):       73064.
                   Average memory used (kb):          N/A
  
                          Minor page faults:        11985
                          Major page faults:            1
                 Voluntary context switches:       196073
