   1   1   0   0
  0.1345737E+02  0.2669880E-09  0.2669879E-09  0.2669880E-09  0.5000000E-15
  1.000000000000000E-004
  CAR 
 unknown system                          
     40.42776595     -6.10188985  301     11.11761575      1.00000000
     -6.102  0.0000E+00  0.0000E+00
     -5.947  0.0000E+00  0.0000E+00
     -5.792  0.0000E+00  0.0000E+00
     -5.637  0.0000E+00  0.0000E+00
     -5.481  0.0000E+00  0.0000E+00
     -5.326  0.0000E+00  0.0000E+00
     -5.171  0.0000E+00  0.0000E+00
     -5.016  0.0000E+00  0.0000E+00
     -4.861  0.0000E+00  0.0000E+00
     -4.706  0.0000E+00  0.0000E+00
     -4.551  0.0000E+00  0.0000E+00
     -4.396  0.0000E+00  0.0000E+00
     -4.241  0.1347E-16  0.2089E-17
     -4.086  0.1002E-06  0.1554E-07
     -3.931  0.3976E-04  0.6183E-05
     -3.775  0.4832E-03  0.8112E-04
     -3.620  0.3008E-03  0.1278E-03
     -3.465  0.9746E-03  0.2789E-03
     -3.310  0.4763E-03  0.3528E-03
     -3.155  0.4237E-03  0.4185E-03
     -3.000  0.1612E-02  0.6685E-03
     -2.845  0.8900E-03  0.8066E-03
     -2.690  0.1238E-02  0.9986E-03
     -2.535  0.2810E-03  0.1042E-02
     -2.380  0.1957E-02  0.1346E-02
     -2.224  0.1320E-02  0.1550E-02
     -2.069  0.1078E-02  0.1718E-02
     -1.914  0.1567E-02  0.1961E-02
     -1.759  0.3384E-03  0.2013E-02
     -1.604  0.2580E-02  0.2413E-02
     -1.449  0.1354E-02  0.2623E-02
     -1.294  0.2936E-02  0.3079E-02
     -1.139  0.4766E-03  0.3153E-02
     -0.984  0.6256E-03  0.3250E-02
     -0.829  0.2326E-02  0.3611E-02
     -0.673  0.1445E-02  0.3835E-02
     -0.518  0.2904E-02  0.4285E-02
     -0.363  0.7995E-03  0.4409E-02
     -0.208  0.3759E-02  0.4992E-02
     -0.053  0.1311E-02  0.5195E-02
      0.102  0.1631E-02  0.5448E-02
      0.257  0.8619E-03  0.5582E-02
      0.412  0.1245E-02  0.5775E-02
      0.567  0.3508E-02  0.6319E-02
      0.722  0.2568E-02  0.6717E-02
      0.878  0.3850E-02  0.7315E-02
      1.033  0.3307E-03  0.7366E-02
      1.188  0.2344E-02  0.7730E-02
      1.343  0.2503E-02  0.8118E-02
      1.498  0.2222E-02  0.8462E-02
      1.653  0.1188E-02  0.8647E-02
      1.808  0.7049E-03  0.8756E-02
      1.963  0.6044E-02  0.9693E-02
      2.118  0.1678E-02  0.9954E-02
      2.273  0.4077E-02  0.1059E-01
      2.429  0.1316E-02  0.1079E-01
      2.584  0.2363E-02  0.1116E-01
      2.739  0.1613E-02  0.1141E-01
      2.894  0.3590E-02  0.1196E-01
      3.049  0.2536E-02  0.1236E-01
      3.204  0.9626E-03  0.1251E-01
      3.359  0.4326E-02  0.1318E-01
      3.514  0.1704E-02  0.1344E-01
      3.669  0.5559E-02  0.1430E-01
      3.824  0.7272E-03  0.1442E-01
      3.980  0.4773E-02  0.1516E-01
      4.135  0.3273E-02  0.1566E-01
      4.290  0.2036E-02  0.1598E-01
      4.445  0.1370E-02  0.1619E-01
      4.600  0.6323E-03  0.1629E-01
      4.755  0.5274E-02  0.1711E-01
      4.910  0.2553E-02  0.1750E-01
      5.065  0.6129E-02  0.1846E-01
      5.220  0.7057E-03  0.1857E-01
      5.375  0.3372E-02  0.1909E-01
      5.531  0.4438E-02  0.1978E-01
      5.686  0.3750E-02  0.2036E-01
      5.841  0.2371E-02  0.2073E-01
      5.996  0.3071E-02  0.2120E-01
      6.151  0.5044E-02  0.2198E-01
      6.306  0.1601E-02  0.2223E-01
      6.461  0.2089E-02  0.2256E-01
      6.616  0.1241E-02  0.2275E-01
      6.771  0.4457E-02  0.2344E-01
      6.926  0.4753E-02  0.2418E-01
      7.082  0.4882E-02  0.2493E-01
      7.237  0.2266E-02  0.2529E-01
      7.392  0.1750E-02  0.2556E-01
      7.547  0.4669E-02  0.2628E-01
      7.702  0.4400E-02  0.2696E-01
      7.857  0.4008E-02  0.2759E-01
      8.012  0.1852E-02  0.2787E-01
      8.167  0.4966E-02  0.2864E-01
      8.322  0.2983E-02  0.2911E-01
      8.477  0.1929E-02  0.2941E-01
      8.633  0.1174E-02  0.2959E-01
      8.788  0.2454E-02  0.2997E-01
      8.943  0.7205E-02  0.3109E-01
      9.098  0.5466E-02  0.3193E-01
      9.253  0.6342E-02  0.3292E-01
      9.408  0.2682E-02  0.3333E-01
      9.563  0.2176E-02  0.3367E-01
      9.718  0.3717E-02  0.3425E-01
      9.873  0.3751E-02  0.3483E-01
     10.028  0.2711E-02  0.3525E-01
     10.183  0.2474E-02  0.3563E-01
     10.339  0.4923E-02  0.3640E-01
     10.494  0.5058E-02  0.3718E-01
     10.649  0.3117E-02  0.3766E-01
     10.804  0.2997E-02  0.3813E-01
     10.959  0.6489E-02  0.3914E-01
     11.114  0.5478E-02  0.3999E-01
     11.269  0.3741E-02  0.4057E-01
     11.424  0.3165E-02  0.4106E-01
     11.579  0.1232E-02  0.4125E-01
     11.734  0.4945E-02  0.4201E-01
     11.890  0.4594E-02  0.4273E-01
     12.045  0.5978E-02  0.4365E-01
     12.200  0.3537E-02  0.4420E-01
     12.355  0.7515E-02  0.4537E-01
     12.510  0.1781E-02  0.4564E-01
     12.665  0.3496E-02  0.4619E-01
     12.820  0.3563E-02  0.4674E-01
     12.975  0.3755E-02  0.4732E-01
     13.130  0.4795E-02  0.4807E-01
     13.285  0.6720E-02  0.4911E-01
     13.441  0.3364E-02  0.4963E-01
     13.596  0.6304E-02  0.5061E-01
     13.751  0.3570E-02  0.5116E-01
     13.906  0.4984E-02  0.5193E-01
     14.061  0.3737E-02  0.5251E-01
     14.216  0.5339E-02  0.5334E-01
     14.371  0.8010E-02  0.5458E-01
     14.526  0.3678E-02  0.5515E-01
     14.681  0.3664E-02  0.5572E-01
     14.836  0.3679E-02  0.5629E-01
     14.992  0.8367E-02  0.5759E-01
     15.147  0.4607E-02  0.5831E-01
     15.302  0.4266E-02  0.5897E-01
     15.457  0.3102E-02  0.5945E-01
     15.612  0.6734E-02  0.6049E-01
     15.767  0.5869E-02  0.6140E-01
     15.922  0.6147E-02  0.6236E-01
     16.077  0.4404E-02  0.6304E-01
     16.232  0.5830E-02  0.6394E-01
     16.387  0.1704E-02  0.6421E-01
     16.543  0.2036E-02  0.6452E-01
     16.698  0.6794E-02  0.6558E-01
     16.853  0.3731E-02  0.6616E-01
     17.008  0.4727E-02  0.6689E-01
     17.163  0.7829E-02  0.6810E-01
     17.318  0.3430E-02  0.6864E-01
     17.473  0.5099E-02  0.6943E-01
     17.628  0.3101E-02  0.6991E-01
     17.783  0.5480E-02  0.7076E-01
     17.938  0.2569E-02  0.7116E-01
     18.094  0.4801E-02  0.7190E-01
     18.249  0.4966E-02  0.7267E-01
     18.404  0.6115E-02  0.7362E-01
     18.559  0.3535E-02  0.7417E-01
     18.714  0.3148E-02  0.7465E-01
     18.869  0.5501E-02  0.7551E-01
     19.024  0.5626E-02  0.7638E-01
     19.179  0.2997E-02  0.7685E-01
     19.334  0.7824E-02  0.7806E-01
     19.489  0.4681E-02  0.7879E-01
     19.645  0.5059E-02  0.7957E-01
     19.800  0.5392E-02  0.8041E-01
     19.955  0.5226E-02  0.8122E-01
     20.110  0.3545E-02  0.8177E-01
     20.265  0.4381E-02  0.8245E-01
     20.420  0.6921E-02  0.8352E-01
     20.575  0.5711E-02  0.8441E-01
     20.730  0.3500E-02  0.8495E-01
     20.885  0.7425E-02  0.8610E-01
     21.040  0.3740E-02  0.8668E-01
     21.196  0.3255E-02  0.8718E-01
     21.351  0.7154E-02  0.8829E-01
     21.506  0.2361E-02  0.8866E-01
     21.661  0.7029E-02  0.8975E-01
     21.816  0.9901E-02  0.9129E-01
     21.971  0.4993E-02  0.9206E-01
     22.126  0.3609E-02  0.9262E-01
     22.281  0.4640E-02  0.9334E-01
     22.436  0.9210E-02  0.9477E-01
     22.591  0.6313E-02  0.9575E-01
     22.746  0.7208E-02  0.9687E-01
     22.902  0.4947E-02  0.9763E-01
     23.057  0.3777E-02  0.9822E-01
     23.212  0.7723E-02  0.9942E-01
     23.367  0.5603E-02  0.1003E+00
     23.522  0.3295E-02  0.1008E+00
     23.677  0.4514E-02  0.1015E+00
     23.832  0.4132E-02  0.1021E+00
     23.987  0.6751E-02  0.1032E+00
     24.142  0.4294E-02  0.1039E+00
     24.297  0.4054E-02  0.1045E+00
     24.453  0.3987E-02  0.1051E+00
     24.608  0.1123E-01  0.1068E+00
     24.763  0.4930E-02  0.1076E+00
     24.918  0.7339E-02  0.1087E+00
     25.073  0.9402E-02  0.1102E+00
     25.228  0.6918E-02  0.1113E+00
     25.383  0.5582E-02  0.1121E+00
     25.538  0.1894E-02  0.1124E+00
     25.693  0.5560E-02  0.1133E+00
     25.848  0.5456E-02  0.1141E+00
     26.004  0.4139E-02  0.1148E+00
     26.159  0.8281E-02  0.1161E+00
     26.314  0.5816E-02  0.1170E+00
     26.469  0.4699E-02  0.1177E+00
     26.624  0.4138E-02  0.1183E+00
     26.779  0.7651E-02  0.1195E+00
     26.934  0.1148E-01  0.1213E+00
     27.089  0.7079E-02  0.1224E+00
     27.244  0.3436E-02  0.1229E+00
     27.399  0.6086E-02  0.1239E+00
     27.555  0.6067E-02  0.1248E+00
     27.710  0.7035E-02  0.1259E+00
     27.865  0.6452E-02  0.1269E+00
     28.020  0.7596E-02  0.1281E+00
     28.175  0.7866E-02  0.1293E+00
     28.330  0.3923E-02  0.1299E+00
     28.485  0.2612E-02  0.1303E+00
     28.640  0.5441E-02  0.1312E+00
     28.795  0.5012E-02  0.1319E+00
     28.950  0.9369E-02  0.1334E+00
     29.106  0.5810E-02  0.1343E+00
     29.261  0.5589E-02  0.1352E+00
     29.416  0.7829E-02  0.1364E+00
     29.571  0.4758E-02  0.1371E+00
     29.726  0.3638E-02  0.1377E+00
     29.881  0.1070E-01  0.1393E+00
     30.036  0.4482E-02  0.1400E+00
     30.191  0.2381E-02  0.1404E+00
     30.346  0.1998E-02  0.1407E+00
     30.501  0.8682E-03  0.1409E+00
     30.657  0.9758E-02  0.1424E+00
     30.812  0.4279E-02  0.1430E+00
     30.967  0.6353E-02  0.1440E+00
     31.122  0.2561E-02  0.1444E+00
     31.277  0.2947E-02  0.1449E+00
     31.432  0.1028E-01  0.1465E+00
     31.587  0.7108E-02  0.1476E+00
     31.742  0.6716E-02  0.1486E+00
     31.897  0.3097E-02  0.1491E+00
     32.052  0.2271E-02  0.1494E+00
     32.208  0.3487E-02  0.1500E+00
     32.363  0.2979E-02  0.1504E+00
     32.518  0.6468E-02  0.1514E+00
     32.673  0.1980E-02  0.1518E+00
     32.828  0.3375E-02  0.1523E+00
     32.983  0.3158E-02  0.1528E+00
     33.138  0.4914E-02  0.1535E+00
     33.293  0.4654E-02  0.1543E+00
     33.448  0.2167E-02  0.1546E+00
     33.603  0.5086E-03  0.1547E+00
     33.759  0.1443E-02  0.1549E+00
     33.914  0.5229E-02  0.1557E+00
     34.069  0.1116E-02  0.1559E+00
     34.224  0.1062E-02  0.1560E+00
     34.379  0.1704E-02  0.1563E+00
     34.534  0.2836E-03  0.1563E+00
     34.689  0.3160E-02  0.1568E+00
     34.844  0.3217E-02  0.1573E+00
     34.999  0.8964E-03  0.1575E+00
     35.154  0.1961E-02  0.1578E+00
     35.310  0.8497E-03  0.1579E+00
     35.465  0.2539E-02  0.1583E+00
     35.620  0.1589E-02  0.1586E+00
     35.775  0.7903E-03  0.1587E+00
     35.930  0.1440E-02  0.1589E+00
     36.085  0.3285E-05  0.1589E+00
     36.240  0.1664E-02  0.1592E+00
     36.395  0.6040E-03  0.1592E+00
     36.550  0.2285E-04  0.1593E+00
     36.705  0.3551E-03  0.1593E+00
     36.860  0.7904E-03  0.1594E+00
     37.016  0.5834E-03  0.1595E+00
     37.171  0.1359E-02  0.1597E+00
     37.326  0.2031E-03  0.1598E+00
     37.481  0.8340E-03  0.1599E+00
     37.636  0.1079E-05  0.1599E+00
     37.791  0.7938E-12  0.1599E+00
     37.946  0.2939E-04  0.1599E+00
     38.101  0.4281E-03  0.1600E+00
     38.256  0.1364E-04  0.1600E+00
     38.411  0.2160E-03  0.1600E+00
     38.567  0.6011E-06  0.1600E+00
     38.722  0.0000E+00  0.1600E+00
     38.877  0.0000E+00  0.1600E+00
     39.032  0.0000E+00  0.1600E+00
     39.187  0.0000E+00  0.1600E+00
     39.342  0.0000E+00  0.1600E+00
     39.497  0.0000E+00  0.1600E+00
     39.652  0.0000E+00  0.1600E+00
     39.807  0.0000E+00  0.1600E+00
     39.962  0.0000E+00  0.1600E+00
     40.118  0.0000E+00  0.1600E+00
     40.273  0.0000E+00  0.1600E+00
     40.428  0.0000E+00  0.1600E+00
