    1    1  100    1
  0.1345737E+02  0.2669880E-09  0.2669879E-09  0.2669880E-09  0.5000000E-15
  1.000000000000000E-004
  CAR 
 unknown system                          
      4    120      8
 
  0.0000000E+00  0.0000000E+00  0.0000000E+00  0.2962963E-03
    1       -3.986905   1.000000
    2       23.204370   0.000000
    3       23.204378   0.000000
    4       23.204388   0.000000
    5       23.370542   0.000000
    6       23.370551   0.000000
    7       23.370560   0.000000
    8       28.874980   0.000000
 
  0.6666667E-01  0.0000000E+00  0.0000000E+00  0.2370370E-02
    1       -3.850904   1.000000
    2       20.620894   0.000000
    3       22.255030   0.000000
    4       22.255043   0.000000
    5       24.493814   0.000000
    6       24.493830   0.000000
    7       24.781801   0.000000
    8       29.945164   0.000000
 
  0.1333333E+00  0.0000000E+00  0.0000000E+00  0.2370370E-02
    1       -3.443458   1.000000
    2       17.625508   0.000000
    3       21.438629   0.000000
    4       21.438642   0.000000
    5       25.085763   0.000000
    6       25.679177   0.000000
    7       25.679192   0.000000
    8       28.837368   0.000000
 
  0.2000000E+00 -0.1387779E-16  0.0000000E+00  0.2370370E-02
    1       -2.766278   1.000000
    2       14.654606   0.000000
    3       20.841743   0.000000
    4       20.841754   0.000000
    5       25.016435   0.000000
    6       25.855783   0.000000
    7       25.855793   0.000000
    8       28.858489   0.000000
 
  0.2666667E+00  0.0000000E+00  0.0000000E+00  0.2370370E-02
    1       -1.822186   1.000000
    2       11.823852   0.000000
    3       20.463882   0.000000
    4       20.463891   0.000000
    5       24.838655   0.000000
    6       24.838664   0.000000
    7       24.929281   0.000000
    8       30.315795   0.000000
 
  0.3333333E+00  0.0000000E+00  0.0000000E+00  0.2370370E-02
    1       -0.615198   1.000000
    2        9.181196   1.000000
    3       20.293884   0.000000
    4       20.293892   0.000000
    5       23.735045   0.000000
    6       23.735055   0.000000
    7       24.943142   0.000000
    8       29.071982   0.000000
 
  0.4000000E+00  0.2775558E-16  0.0000000E+00  0.2370370E-02
    1        0.848983   1.000000
    2        6.752290   1.000000
    3       20.298650   0.000000
    4       20.298656   0.000000
    5       22.839267   0.000000
    6       22.839278   0.000000
    7       25.079476   0.000000
    8       28.064566   0.000000
 
  0.4666667E+00  0.0000000E+00  0.0000000E+00  0.2370370E-02
    1        2.555812   1.000000
    2        4.561161   1.000000
    3       20.384811   0.000000
    4       20.384816   0.000000
    5       22.299907   0.000000
    6       22.299920   0.000000
    7       25.252772   0.000000
    8       27.442419   0.000000
 
  0.6666667E-01  0.6666667E-01  0.0000000E+00  0.1777778E-02
    1       -3.805592   1.000000
    2       21.160247   0.000000
    3       21.160248   0.000000
    4       22.393655   0.000000
    5       22.800559   0.000000
    6       25.646041   0.000000
    7       25.646042   0.000000
    8       28.763038   0.000000
 
  0.1333333E+00  0.6666667E-01  0.0000000E+00  0.7111111E-02
    1       -3.488674   1.000000
    2       18.686389   0.000000
    3       20.272428   0.000000
    4       21.914925   0.000000
    5       23.339760   0.000000
    6       26.390097   0.000000
    7       26.869589   0.000000
    8       27.199585   0.000000
 
  0.2000000E+00  0.6666667E-01  0.0000000E+00  0.7111111E-02
    1       -2.901490   1.000000
    2       15.725125   0.000000
    3       19.609196   0.000000
    4       21.301503   0.000000
    5       24.000882   0.000000
    6       26.101664   0.000000
    7       26.794646   0.000000
    8       27.493997   0.000000
 
  0.2666667E+00  0.6666667E-01  0.0000000E+00  0.7111111E-02
    1       -2.046481   1.000000
    2       12.852099   0.000000
    3       19.175060   0.000000
    4       20.816878   0.000000
    5       23.224743   0.000000
    6       26.065278   0.000000
    7       26.726766   0.000000
    8       27.885231   0.000000
 
  0.3333333E+00  0.6666667E-01  0.0000000E+00  0.7111111E-02
    1       -0.927247   1.000000
    2       10.148766   1.000000
    3       18.970135   0.000000
    4       20.423455   0.000000
    5       22.212084   0.000000
    6       25.605036   0.000000
    7       26.075848   0.000000
    8       29.550328   0.000000
 
  0.4000000E+00  0.6666667E-01  0.0000000E+00  0.7111111E-02
    1        0.451218   1.000000
    2        7.649543   1.000000
    3       18.991418   0.000000
    4       19.939838   0.000000
    5       21.647375   0.000000
    6       24.579774   0.000000
    7       26.133784   0.000000
    8       29.340029   0.000000
 
  0.4666667E+00  0.6666667E-01  0.0000000E+00  0.7111111E-02
    1        2.080086   1.000000
    2        5.376638   1.000000
    3       19.231452   0.000000
    4       19.316466   0.000000
    5       21.663073   0.000000
    6       23.753529   0.000000
    7       26.200611   0.000000
    8       28.732411   0.000000
 
 -0.4666667E+00  0.6666667E-01  0.0000000E+00  0.7111111E-02
    1        3.266827   1.000000
    2        4.028453   1.000000
    3       18.751768   0.000000
    4       19.673080   0.000000
    5       22.081780   0.000000
    6       23.172237   0.000000
    7       26.135881   0.000000
    8       28.639727   0.000000
 
 -0.4000000E+00  0.6666667E-01  0.0000000E+00  0.7111111E-02
    1        1.510420   1.000000
    2        6.107275   1.000000
    3       18.361184   0.000000
    4       20.274421   0.000000
    5       22.790979   0.000000
    6       22.885659   0.000000
    7       25.936047   0.000000
    8       29.097875   0.000000
 
 -0.3333333E+00  0.6666667E-01  0.0000000E+00  0.7111111E-02
    1       -0.036670   1.000000
    2        8.457841   1.000000
    3       18.183530   0.000000
    4       20.935891   0.000000
    5       22.987540   0.000000
    6       23.742470   0.000000
    7       25.755854   0.000000
    8       29.908291   0.000000
 
 -0.2666667E+00  0.6666667E-01  0.0000000E+00  0.7111111E-02
    1       -1.329416   1.000000
    2       11.026930   0.994841
    3       18.232701   0.000000
    4       21.521498   0.000000
    5       23.582779   0.000000
    6       24.892354   0.000000
    7       25.676958   0.000000
    8       29.635535   0.000000
 
 -0.2000000E+00  0.6666667E-01  0.0000000E+00  0.7111111E-02
    1       -2.361060   1.000000
    2       13.789548   0.000000
    3       18.513947   0.000000
    4       22.056063   0.000000
    5       24.500687   0.000000
    6       25.680579   0.000000
    7       26.132518   0.000000
    8       27.841996   0.000000
 
 -0.1333333E+00  0.6666667E-01  0.0000000E+00  0.7111111E-02
    1       -3.127139   1.000000
    2       16.697732   0.000000
    3       19.030863   0.000000
    4       22.674703   0.000000
    5       24.704315   0.000000
    6       25.639227   0.000000
    7       26.868419   0.000000
    8       27.303180   0.000000
 
 -0.6666667E-01  0.6666667E-01  0.0000000E+00  0.3555556E-02
    1       -3.624452   1.000000
    2       19.495756   0.000000
    3       19.922539   0.000000
    4       23.310398   0.000000
    5       23.721846   0.000000
    6       25.270881   0.000000
    7       26.117783   0.000000
    8       28.493397   0.000000
 
  0.1333333E+00  0.1333333E+00  0.0000000E+00  0.1777778E-02
    1       -3.262583   1.000000
    2       19.307755   0.000000
    3       19.307756   0.000000
    4       20.651324   0.000000
    5       21.729297   0.000000
    6       25.293575   0.000000
    7       28.158697   0.000000
    8       28.158697   0.000000
 
  0.2000000E+00  0.1333333E+00  0.0000000E+00  0.7111111E-02
    1       -2.766118   1.000000
    2       16.948231   0.000000
    3       18.567642   0.000000
    4       20.463593   0.000000
    5       21.673030   0.000000
    6       23.938644   0.000000
    7       28.897230   0.000000
    8       29.159832   0.000000
 
  0.2666667E+00  0.1333333E+00  0.0000000E+00  0.7111111E-02
    1       -2.001387   1.000000
    2       14.094213   0.000000
    3       18.058476   0.000000
    4       19.882199   0.000000
    5       21.223690   0.000000
    6       24.501275   0.000000
    7       28.800844   0.000000
    8       29.068686   0.000000
 
  0.3333333E+00  0.1333333E+00  0.0000000E+00  0.7111111E-02
    1       -0.971571   1.000000
    2       11.351673   0.000000
    3       17.781948   0.000000
    4       19.031787   0.000000
    5       20.540472   0.000000
    6       26.135121   0.000000
    7       27.757844   0.000000
    8       29.216786   0.000000
 
  0.4000000E+00  0.1333333E+00  0.0000000E+00  0.7111111E-02
    1        0.318845   1.000000
    2        8.793212   1.000000
    3       17.737789   0.000000
    4       18.009639   0.000000
    5       20.347193   0.000000
    6       26.709840   0.000000
    7       27.556457   0.000000
    8       29.875621   0.000000
 
  0.4666667E+00  0.1333333E+00  0.0000000E+00  0.7111111E-02
    1        1.863114   1.000000
    2        6.449186   1.000000
    3       17.077683   0.000000
    4       17.924208   0.000000
    5       20.508067   0.000000
    6       25.815441   0.000000
    7       27.999696   0.000000
    8       31.303848   0.000000
 
 -0.4666667E+00  0.1333333E+00  0.0000000E+00  0.7111111E-02
    1        3.618971   1.000000
    2        4.371674   1.000000
    3       16.338683   0.000000
    4       18.337383   0.000000
    5       20.949507   0.000000
    6       25.127152   0.000000
    7       27.888248   0.000000
    8       31.371106   0.000000
 
 -0.4000000E+00  0.1333333E+00  0.0000000E+00  0.7111111E-02
    1        2.432346   1.000000
    2        5.717662   1.000000
    3       15.824722   0.000000
    4       18.969754   0.000000
    5       21.646248   0.000000
    6       24.670051   0.000000
    7       27.609342   0.000000
    8       31.727928   0.000000
 
 -0.3333333E+00  0.1333333E+00  0.0000000E+00  0.7111111E-02
    1        0.805998   1.000000
    2        7.981763   1.000000
    3       15.548901   0.000000
    4       19.805978   0.000000
    5       22.581119   0.000000
    6       24.461875   0.000000
    7       27.337658   0.000000
    8       31.351090   0.000000
 
 -0.2666667E+00  0.1333333E+00  0.0000000E+00  0.7111111E-02
    1       -0.570141   1.000000
    2       10.463346   1.000000
    3       15.519852   0.000000
    4       20.813208   0.000000
    5       23.730716   0.000000
    6       24.519689   0.000000
    7       27.123431   0.000000
    8       29.092927   0.000000
 
 -0.2000000E+00  0.1333333E+00  0.0000000E+00  0.7111111E-02
    1       -1.687451   1.000000
    2       13.119240   0.000000
    3       15.756970   0.000000
    4       21.916547   0.000000
    5       24.829656   0.000000
    6       25.045020   0.000000
    7       26.898692   0.000000
    8       27.116586   0.000000
 
 -0.1333333E+00  0.1333333E+00  0.0000000E+00  0.3555556E-02
    1       -2.540983   1.000000
    2       15.632522   0.000000
    3       16.532086   0.000000
    4       22.900766   0.000000
    5       24.771412   0.000000
    6       26.282930   0.000000
    7       26.355725   0.000000
    8       26.446771   0.000000
 
  0.2000000E+00  0.2000000E+00  0.0000000E+00  0.1777778E-02
    1       -2.360780   1.000000
    2       17.749008   0.000000
    3       17.749009   0.000000
    4       18.990415   0.000000
    5       19.876870   0.000000
    6       22.184799   0.000000
    7       30.704184   0.000000
    8       30.704186   0.000000
 
  0.2666667E+00  0.2000000E+00  0.0000000E+00  0.7111111E-02
    1       -1.687135   1.000000
    2       15.491545   0.000000
    3       17.161613   0.000000
    4       18.495177   0.000000
    5       19.340048   0.000000
    6       21.905183   0.000000
    7       30.955534   0.000000
    8       31.473706   0.000000
 
  0.3333333E+00  0.2000000E+00  0.0000000E+00  0.7111111E-02
    1       -0.748095   1.000000
    2       12.769460   0.000000
    3       16.807982   0.000000
    4       17.132922   0.000000
    5       19.262591   0.000000
    6       23.297757   0.000000
    7       30.073101   0.000000
    8       31.647319   0.000000
 
  0.4000000E+00  0.2000000E+00  0.0000000E+00  0.7111111E-02
    1        0.452288   1.000000
    2       10.172760   1.000000
    3       15.857503   0.000000
    4       16.688564   0.000000
    5       19.195844   0.000000
    6       25.293327   0.000000
    7       29.051919   0.000000
    8       31.572145   0.000000
 
  0.4666667E+00  0.2000000E+00  0.0000000E+00  0.7111111E-02
    1        1.908157   1.000000
    2        7.769361   1.000000
    3       14.776070   0.000000
    4       16.802767   0.000000
    5       19.345438   0.000000
    6       27.417766   0.000000
    7       28.127709   0.000000
    8       31.416563   0.000000
 
 -0.4666667E+00  0.2000000E+00  0.0000000E+00  0.7111111E-02
    1        3.606083   1.000000
    2        5.592501   1.000000
    3       13.922463   0.000000
    4       17.149049   0.000000
    5       19.740747   0.000000
    6       27.380274   0.000000
    7       29.075850   0.000000
    8       31.655653   0.000000
 
 -0.4000000E+00  0.2000000E+00  0.0000000E+00  0.7111111E-02
    1        3.609041   1.000000
    2        5.584885   1.000000
    3       13.311890   0.000000
    4       17.724336   0.000000
    5       20.383487   0.000000
    6       26.843826   0.000000
    7       29.404159   0.000000
    8       32.889374   0.000000
 
 -0.3333333E+00  0.2000000E+00  0.0000000E+00  0.7111111E-02
    1        1.909201   1.000000
    2        7.749088   1.000000
    3       12.956595   0.000000
    4       18.522460   0.000000
    5       21.266259   0.000000
    6       26.535848   0.000000
    7       29.127349   0.000000
    8       31.157178   0.000000
 
 -0.2666667E+00  0.2000000E+00  0.0000000E+00  0.7111111E-02
    1        0.452456   1.000000
    2       10.105833   1.000000
    3       12.887341   0.000000
    4       19.530163   0.000000
    5       22.372373   0.000000
    6       26.466189   0.000000
    7       28.687994   0.000000
    8       28.787974   0.000000
 
 -0.2000000E+00  0.2000000E+00  0.0000000E+00  0.3555556E-02
    1       -0.748300   1.000000
    2       12.293263   0.000000
    3       13.438477   0.000000
    4       20.712535   0.000000
    5       23.665415   0.000000
    6       26.504101   0.000000
    7       26.773303   0.000000
    8       27.989528   0.000000
 
  0.2666667E+00  0.2666667E+00  0.0000000E+00  0.1777778E-02
    1       -1.105146   1.000000
    2       16.495538   0.000000
    3       16.495539   0.000000
    4       16.809826   0.000000
    5       17.603239   0.000000
    6       20.473879   0.000000
    7       33.098154   0.000000
    8       33.122635   0.000000
 
  0.3333333E+00  0.2666667E+00  0.0000000E+00  0.7111111E-02
    1       -0.257898   1.000000
    2       14.333151   0.000000
    3       15.236833   0.000000
    4       16.063544   0.000000
    5       18.039677   0.000000
    6       20.734912   0.000000
    7       32.450323   0.000000
    8       33.823787   0.000000
 
  0.4000000E+00  0.2666667E+00  0.0000000E+00  0.7111111E-02
    1        0.850704   1.000000
    2       11.763491   0.000000
    3       13.814043   0.000000
    4       15.866506   0.000000
    5       18.200353   0.000000
    6       22.403110   0.000000
    7       31.526825   0.000000
    8       33.840236   0.000000
 
  0.4666667E+00  0.2666667E+00  0.0000000E+00  0.7111111E-02
    1        2.215033   1.000000
    2        9.323765   1.000000
    3       12.617427   0.000000
    4       15.904340   0.000000
    5       18.344685   0.000000
    6       24.614998   0.000000
    7       30.613103   0.000000
    8       33.452714   0.000000
 
 -0.4666667E+00  0.2666667E+00  0.0000000E+00  0.7111111E-02
    1        3.825242   1.000000
    2        7.083886   1.000000
    3       11.664463   0.000000
    4       16.176322   0.000000
    5       18.686146   0.000000
    6       27.027108   0.000000
    7       29.831494   0.000000
    8       32.863650   0.000000
 
 -0.4000000E+00  0.2666667E+00  0.0000000E+00  0.7111111E-02
    1        5.021131   1.000000
    2        5.716390   1.000000
    3       10.969616   0.999986
    4       16.680893   0.000000
    5       19.264114   0.000000
    6       29.235171   0.000000
    7       29.392145   0.000000
    8       32.223430   0.000000
 
 -0.3333333E+00  0.2666667E+00  0.0000000E+00  0.7111111E-02
    1        3.267875   1.000000
    2        7.729730   1.000000
    3       10.568792   1.000000
    4       17.414839   0.000000
    5       20.081970   0.000000
    6       28.847065   0.000000
    7       30.796349   0.000000
    8       31.210046   0.000000
 
 -0.2666667E+00  0.2666667E+00  0.0000000E+00  0.3555556E-02
    1        1.733970   1.000000
    2        9.592366   1.000000
    3       10.824045   1.000000
    4       18.370997   0.000000
    5       21.128219   0.000000
    6       28.555148   0.000000
    7       28.885274   0.000000
    8       30.052171   0.000000
 
  0.3333333E+00  0.3333333E+00  0.0000000E+00  0.1777778E-02
    1        0.496654   1.000000
    2       13.468398   0.000000
    3       15.552989   0.000000
    4       15.552990   0.000000
    5       16.543350   0.000000
    6       19.458620   0.000000
    7       34.379649   0.000000
    8       35.287511   0.000000
 
  0.4000000E+00  0.3333333E+00  0.0000000E+00  0.7111111E-02
    1        1.511716   1.000000
    2       11.935103   0.000000
    3       13.537990   0.000000
    4       15.277644   0.000000
    5       17.173574   0.000000
    6       19.939227   0.000000
    7       33.981702   0.000000
    8       35.823764   0.000000
 
  0.4666667E+00  0.3333333E+00  0.0000000E+00  0.7111111E-02
    1        2.780905   1.000000
    2       10.612175   1.000000
    3       11.143422   0.232723
    4       15.237727   0.000000
    5       17.510714   0.000000
    6       21.797331   0.000000
    7       33.166435   0.000000
    8       35.588188   0.000000
 
 -0.4666667E+00  0.3333333E+00  0.0000000E+00  0.7111111E-02
    1        4.291671   1.000000
    2        8.792638   1.000000
    3        9.642067   1.000000
    4       15.432932   0.000000
    5       17.834595   0.000000
    6       24.190372   0.000000
    7       32.387428   0.000000
    8       34.884318   0.000000
 
 -0.4000000E+00  0.3333333E+00  0.0000000E+00  0.7111111E-02
    1        5.993618   1.000000
    2        6.742829   1.000000
    3        8.881315   1.000000
    4       15.862439   0.000000
    5       18.352894   0.000000
    6       26.796404   0.000000
    7       31.728188   0.000000
    8       33.882708   0.000000
 
 -0.3333333E+00  0.3333333E+00  0.0000000E+00  0.3555556E-02
    1        4.874028   1.000000
    2        7.559517   1.000000
    3        8.796597   1.000000
    4       16.524456   0.000000
    5       19.102604   0.000000
    6       29.416928   0.000000
    7       30.987665   0.000000
    8       31.834342   0.000000
 
  0.4000000E+00  0.4000000E+00  0.0000000E+00  0.1777778E-02
    1        2.430690   1.000000
    2       10.310312   1.000000
    3       14.923860   0.000000
    4       14.923861   0.000000
    5       15.830283   0.000000
    6       18.802973   0.000000
    7       35.698940   0.000000
    8       37.109551   0.000000
 
  0.4666667E+00  0.4000000E+00  0.0000000E+00  0.7111111E-02
    1        3.597644   1.000000
    2        8.926291   1.000000
    3       13.035686   0.000000
    4       14.805678   0.000000
    5       16.654175   0.000000
    6       19.461020   0.000000
    7       35.489884   0.000000
    8       37.373349   0.000000
 
 -0.4666667E+00  0.4000000E+00  0.0000000E+00  0.7111111E-02
    1        4.978201   1.000000
    2        7.826048   1.000000
    3       10.774478   1.000000
    4       14.923092   0.000000
    5       17.165303   0.000000
    6       21.490810   0.000000
    7       34.799711   0.000000
    8       36.741316   0.000000
 
 -0.4000000E+00  0.4000000E+00  0.0000000E+00  0.3555556E-02
    1        6.203044   1.000000
    2        7.365015   1.000000
    3        8.677897   1.000000
    4       15.275680   0.000000
    5       17.663828   0.000000
    6       24.046379   0.000000
    7       33.820390   0.000000
    8       35.130506   0.000000
 
  0.4666667E+00  0.4666667E+00  0.0000000E+00  0.1777778E-02
    1        4.633813   1.000000
    2        7.484444   1.000000
    3       14.609121   0.000000
    4       14.609122   0.000000
    5       15.472185   0.000000
    6       18.474544   0.000000
    7       36.652766   0.000000
    8       38.312782   0.000000
 
 -0.4666667E+00  0.4666667E+00  0.0000000E+00  0.3555556E-02
    1        5.524749   1.000000
    2        6.687459   1.000000
    3       12.869059   0.000000
    4       14.648298   0.000000
    5       16.480747   0.000000
    6       19.300819   0.000000
    7       36.336664   0.000000
    8       37.999965   0.000000
 
  0.2000000E+00  0.1333333E+00  0.6666667E-01  0.7111111E-02
    1       -3.081953   1.000000
    2       17.586825   0.000000
    3       18.209562   0.000000
    4       22.570219   0.000000
    5       22.619756   0.000000
    6       25.654403   0.000000
    7       27.349194   0.000000
    8       27.760522   0.000000
 
  0.2666667E+00  0.1333333E+00  0.6666667E-01  0.1422222E-01
    1       -2.405949   1.000000
    2       14.921939   0.000000
    3       17.391507   0.000000
    4       21.771106   0.000000
    5       23.080975   0.000000
    6       25.321646   0.000000
    7       27.536600   0.000000
    8       27.781945   0.000000
 
  0.3333333E+00  0.1333333E+00  0.6666667E-01  0.1422222E-01
    1       -1.463492   1.000000
    2       12.135039   0.000000
    3       17.016105   0.000000
    4       20.807433   0.000000
    5       22.583559   0.000000
    6       26.053962   0.000000
    7       26.943406   0.000000
    8       28.126337   0.000000
 
  0.4000000E+00  0.1333333E+00  0.6666667E-01  0.1422222E-01
    1       -0.258592   1.000000
    2        9.510316   1.000000
    3       16.887718   0.000000
    4       19.749518   0.000000
    5       22.302595   0.000000
    6       25.159298   0.000000
    7       27.359950   0.000000
    8       29.529601   0.000000
 
  0.4666667E+00  0.1333333E+00  0.6666667E-01  0.1422222E-01
    1        1.203074   1.000000
    2        7.091016   1.000000
    3       16.993437   0.000000
    4       18.784188   0.000000
    5       22.320547   0.000000
    6       24.207210   0.000000
    7       27.555652   0.000000
    8       30.905212   0.000000
 
 -0.4666667E+00  0.1333333E+00  0.6666667E-01  0.1422222E-01
    1        2.907528   1.000000
    2        4.905103   1.000000
    3       17.298236   0.000000
    4       18.035359   0.000000
    5       22.525142   0.000000
    6       23.528393   0.000000
    7       27.681168   0.000000
    8       30.578185   0.000000
 
  0.2666667E+00  0.2000000E+00  0.6666667E-01  0.7111111E-02
    1       -2.180995   1.000000
    2       15.952602   0.000000
    3       16.678914   0.000000
    4       20.347231   0.000000
    5       21.088384   0.000000
    6       23.098678   0.000000
    7       29.376260   0.000000
    8       30.070813   0.000000
 
  0.3333333E+00  0.2000000E+00  0.6666667E-01  0.1422222E-01
    1       -1.328988   1.000000
    2       13.439014   0.000000
    3       15.977474   0.000000
    4       18.989116   0.000000
    5       21.330191   0.000000
    6       23.946855   0.000000
    7       28.558094   0.000000
    8       30.536504   0.000000
 
  0.4000000E+00  0.2000000E+00  0.6666667E-01  0.1422222E-01
    1       -0.213725   1.000000
    2       10.794196   1.000000
    3       15.747060   0.000000
    4       17.677216   0.000000
    5       21.229649   0.000000
    6       25.692748   0.000000
    7       27.563162   0.000000
    8       30.689429   0.000000
 
  0.4666667E+00  0.2000000E+00  0.6666667E-01  0.1422222E-01
    1        1.159749   1.000000
    2        8.320141   1.000000
    3       15.745732   0.000000
    4       16.571244   0.000000
    5       21.287311   0.000000
    6       26.209163   0.000000
    7       28.023380   0.000000
    8       30.900666   0.000000
 
 -0.4666667E+00  0.2000000E+00  0.6666667E-01  0.1422222E-01
    1        2.782783   1.000000
    2        6.060998   1.000000
    3       15.503614   0.000000
    4       16.168897   0.000000
    5       21.569423   0.000000
    6       25.463220   0.000000
    7       29.333234   0.000000
    8       31.669367   0.000000
 
 -0.4000000E+00  0.2000000E+00  0.6666667E-01  0.1422222E-01
    1        3.971163   1.000000
    2        4.711964   1.000000
    3       14.867289   0.000000
    4       16.635654   0.000000
    5       22.076368   0.000000
    6       24.856734   0.000000
    7       29.558569   0.000000
    8       32.848387   0.000000
 
 -0.3333333E+00  0.2000000E+00  0.6666667E-01  0.1422222E-01
    1        2.215523   1.000000
    2        6.783733   1.000000
    3       14.432433   0.000000
    4       17.379233   0.000000
    5       22.780038   0.000000
    6       24.492509   0.000000
    7       29.266994   0.000000
    8       31.570144   0.000000
 
 -0.2666667E+00  0.2000000E+00  0.6666667E-01  0.1422222E-01
    1        0.673732   1.000000
    2        9.110426   1.000000
    3       14.243926   0.000000
    4       18.352877   0.000000
    5       23.550664   0.000000
    6       24.485572   0.000000
    7       28.369983   0.000000
    8       30.011581   0.000000
 
 -0.2000000E+00  0.2000000E+00  0.6666667E-01  0.1422222E-01
    1       -0.614511   1.000000
    2       11.618450   0.000000
    3       14.330301   0.000000
    4       19.529877   0.000000
    5       24.006935   0.000000
    6       25.050209   0.000000
    7       26.747272   0.000000
    8       29.382676   0.000000
 
 -0.1333333E+00  0.2000000E+00  0.6666667E-01  0.7111111E-02
    1       -1.642545   1.000000
    2       13.970152   0.000000
    3       14.995458   0.000000
    4       20.843317   0.000000
    5       23.941474   0.000000
    6       24.887706   0.000000
    7       26.676581   0.000000
    8       28.783615   0.000000
 
  0.3333333E+00  0.2666667E+00  0.6666667E-01  0.7111111E-02
    1       -0.926528   1.000000
    2       14.630304   0.000000
    3       15.405726   0.000000
    4       17.067104   0.000000
    5       19.786351   0.000000
    6       21.690288   0.000000
    7       30.760695   0.000000
    8       32.734108   0.000000
 
  0.4000000E+00  0.2666667E+00  0.6666667E-01  0.1422222E-01
    1        0.097594   1.000000
    2       12.272156   0.000000
    3       14.816375   0.000000
    4       15.637234   0.000000
    5       20.174006   0.000000
    6       22.933776   0.000000
    7       29.840756   0.000000
    8       33.190877   0.000000
 
  0.4666667E+00  0.2666667E+00  0.6666667E-01  0.1422222E-01
    1        1.380518   1.000000
    2        9.780134   1.000000
    3       14.240964   0.000000
    4       14.885422   0.000000
    5       20.276131   0.000000
    6       24.981524   0.000000
    7       28.876255   0.000000
    8       33.122588   0.000000
 
 -0.4666667E+00  0.2666667E+00  0.6666667E-01  0.1422222E-01
    1        2.915075   1.000000
    2        7.465307   1.000000
    3       13.261625   0.000000
    4       15.031757   0.000000
    5       20.525588   0.000000
    6       27.033348   0.000000
    7       28.269912   0.000000
    8       32.759315   0.000000
 
 -0.4000000E+00  0.2666667E+00  0.6666667E-01  0.1422222E-01
    1        4.665330   1.000000
    2        5.396112   1.000000
    3       12.487437   0.000000
    4       15.465765   0.000000
    5       20.992665   0.000000
    6       27.087248   0.000000
    7       29.807836   0.000000
    8       32.097301   0.000000
 
 -0.3333333E+00  0.2666667E+00  0.6666667E-01  0.1422222E-01
    1        3.483692   1.000000
    2        6.723043   1.000000
    3       11.965629   0.000000
    4       16.146607   0.000000
    5       21.685048   0.000000
    6       26.651474   0.000000
    7       30.610701   0.000000
    8       31.486776   0.000000
 
 -0.2666667E+00  0.2666667E+00  0.6666667E-01  0.1422222E-01
    1        1.865715   1.000000
    2        8.920176   1.000000
    3       11.733228   0.000000
    4       17.063571   0.000000
    5       22.589815   0.000000
    6       26.371732   0.000000
    7       28.605635   0.000000
    8       31.432322   0.000000
 
 -0.2000000E+00  0.2666667E+00  0.6666667E-01  0.7111111E-02
    1        0.496885   1.000000
    2       10.944985   0.999999
    3       12.140137   0.000000
    4       18.203081   0.000000
    5       23.660543   0.000000
    6       25.933230   0.000000
    7       26.847418   0.000000
    8       30.648975   0.000000
 
  0.4000000E+00  0.3333333E+00  0.6666667E-01  0.7111111E-02
    1        0.673782   1.000000
    2       13.594025   0.000000
    3       13.632381   0.000000
    4       14.549309   0.000000
    5       18.788966   0.000000
    6       20.750871   0.000000
    7       32.232936   0.000000
    8       35.111418   0.000000
 
  0.4666667E+00  0.3333333E+00  0.6666667E-01  0.1422222E-01
    1        1.863843   1.000000
    2       11.421118   0.000000
    3       12.287324   0.000000
    4       14.093466   0.000000
    5       19.351456   0.000000
    6       22.196741   0.000000
    7       31.380655   0.000000
    8       35.340405   0.000000
 
 -0.4666667E+00  0.3333333E+00  0.6666667E-01  0.1422222E-01
    1        3.304813   1.000000
    2        9.096623   1.000000
    3       11.163752   0.095956
    4       14.177550   0.000000
    5       19.631158   0.000000
    6       24.444195   0.000000
    7       30.526873   0.000000
    8       34.725227   0.000000
 