 vasp.6.2.0 18Jan21 (build Aug 12 2022 13:00:08) complex                        
  
 executed on             LinuxIFC date 2024.11.05  05:19:01
 running on    4 total cores
 distrk:  each k-point on    4 cores,    1 groups
 distr:  one band on NCORE=   1 cores,    4 groups


--------------------------------------------------------------------------------------------------------


 INCAR:
   ISTART = 0            (Read existing wavefunction, if there)
   ISPIN = 1            (Non-Spin polarised DFT)
   LREAL = .FALSE.       (Projection operators: automatic)
   LWAVE = .FALSE.        (Write WAVECAR or not)
   LCHARG = .FALSE.        (Write CHGCAR or not)
   ADDGRID = .TRUE.        (Increase grid, helps GGA convergence)
   LASPH = .TRUE.        (Give more accurate total energies and band structure calculations)
   PREC = Accurate      (Accurate strictly avoids any aliasing or wrap around errors)
   ENCUT = 700          (Cut-off energy for plane wave basis set, in eV)
   ISMEAR = 0            (Gaussian smearing, metals:1)
   SIGMA = 0.05         (Smearing value in eV, metals:0.2)
   NELM = 90           (Max electronic SCF steps)
   NELMIN = 6            (Min electronic SCF steps)
   EDIFF = 1E-06        (SCF energy convergence, in eV)
   NSW = 100          (Max ionic steps)
   IBRION = 2            (Algorithm: 0-MD, 1-Quasi-New, 2-CG)
   ISIF = 2            (Stress/relaxation: 2-Ions, 3-Shape/Ions/V, 4-Shape/Ions)
   EDIFFG = -2E-03        (Ionic convergence, eV/AA)
   ISYM = 2              (Symmetry: 0\=none, 2\=GGA, 3\=hybrids)

 POTCAR:    PAW_PBE Si 05Jan2001                  
 POTCAR:    PAW_PBE Si 05Jan2001                  
   VRHFIN =Si: s2p2                                                                                 
   LEXCH  = PE                                                                                      
   EATOM  =   103.0669 eV,    7.5752 Ry                                                             
                                                                                                    
   TITEL  = PAW_PBE Si 05Jan2001                                                                    
   LULTRA =        F    use ultrasoft PP ?                                                          
   IUNSCR =        1    unscreen: 0-lin 1-nonlin 2-no                                               
   RPACOR =    1.500    partial core radius                                                         
   POMASS =   28.085; ZVAL   =    4.000    mass and valenz                                          
   RCORE  =    1.900    outmost cutoff radius                                                       
   RWIGS  =    2.480; RWIGS  =    1.312    wigner-seitz radius (au A)                               
   ENMAX  =  245.345; ENMIN  =  184.009 eV                                                          
   ICORE  =        2    local potential                                                             
   LCOR   =        T    correct aug charges                                                         
   LPAW   =        T    paw PP                                                                      
   EAUG   =  322.069                                                                                
   DEXC   =    0.000                                                                                
   RMAX   =    1.950    core radius for proj-oper                                                   
   RAUG   =    1.300    factor for augmentation sphere                                              
   RDEP   =    1.993    radius for radial grids                                                     
   RDEPT  =    1.837    core radius for aug-charge                                                  
                                                                                                    
   Atomic configuration                                                                             
    6 entries                                                                                       
     n  l   j            E        occ.                                                              
     1  0  0.50     -1785.8828   2.0000                                                             
     2  0  0.50      -139.4969   2.0000                                                             
     2  1  1.50       -95.5546   6.0000                                                             
     3  0  0.50       -10.8127   2.0000                                                             
     3  1  0.50        -4.0811   2.0000                                                             
     3  2  1.50        -4.0817   0.0000                                                             
   Description                                                                                      
     l       E           TYP  RCUT    TYP  RCUT                                                     
     0    -10.8127223     23  1.900                                                                 
     0     -7.6451159     23  1.900                                                                 
     1     -4.0811372     23  1.900                                                                 
     1      2.4879257     23  1.900                                                                 
     2     -4.0817478      7  1.900                                                                 
  local pseudopotential read in
  partial core-charges read in
  partial kinetic energy density read in
  atomic valenz-charges read in
  non local Contribution for L=           0  read in
    real space projection operators read in
  non local Contribution for L=           0  read in
    real space projection operators read in
  non local Contribution for L=           1  read in
    real space projection operators read in
  non local Contribution for L=           1  read in
    real space projection operators read in
    PAW grid and wavefunctions read in
 
   number of l-projection  operators is LMAX  =           4
   number of lm-projection operators is LMMAX =           8
 
  PAW_PBE Si 05Jan2001                  :
 energy of atom  1       EATOM= -103.0669
 kinetic energy error for atom=    0.0003 (will be added to EATOM!!)
 
 
 POSCAR: Si1
  positions in direct lattice
  No initial velocities read in
 exchange correlation table for  LEXCH =        8
   RHO(1)=    0.500       N(1)  =     2000
   RHO(2)=  100.500       N(2)  =     4000
 


--------------------------------------------------------------------------------------------------------


 ion  position               nearest neighbor table
   1  0.000  0.000  0.000-
 
  LATTYP: Found a face centered cubic cell.
 ALAT       =     3.7757797310
  
  Lattice vectors:
  
 A1 = (   2.3121840750,   0.0000000000,   1.3349389800)
 A2 = (   0.7707280250,   2.1799478250,   1.3349389800)
 A3 = (   0.0000000000,   0.0000000000,   2.6698799300)


Analysis of symmetry for initial positions (statically):
=====================================================================
 Subroutine PRICEL returns:
 Original cell was already a primitive cell.
 

 Routine SETGRP: Setting up the symmetry group for a 
 face centered cubic supercell.


 Subroutine GETGRP returns: Found 48 space group operations
 (whereof 48 operations were pure point group operations)
 out of a pool of 48 trial point group operations.


The static configuration has the point symmetry O_h .


Analysis of symmetry for dynamics (positions and initial velocities):
=====================================================================
 Subroutine PRICEL returns:
 Original cell was already a primitive cell.
 

 Routine SETGRP: Setting up the symmetry group for a 
 face centered cubic supercell.


 Subroutine GETGRP returns: Found 48 space group operations
 (whereof 48 operations were pure point group operations)
 out of a pool of 48 trial point group operations.


The dynamic configuration has the point symmetry O_h .


 Subroutine INISYM returns: Found 48 space group operations
 (whereof 48 operations are pure point group operations),
 and found     1 'primitive' translations


----------------------------------------------------------------------------------------

                                     Primitive cell                                     

  volume of cell :      13.4574

  direct lattice vectors                    reciprocal lattice vectors
     2.312184075  0.000000000  1.334938980     0.432491518 -0.152908858  0.000000000
     0.770728025  2.179947825  1.334938980     0.000000000  0.458726575  0.000000000
     0.000000000  0.000000000  2.669879930    -0.216245599 -0.152908746  0.374548679

  length of vectors
     2.669879637  2.669879452  2.669879930     0.458726533  0.458726575  0.458726451

  position of ions in fractional coordinates (direct lattice)
     0.000000000  0.000000000  0.000000000

  ion indices of the primitive-cell ions
   primitive index   ion index
                 1           1

----------------------------------------------------------------------------------------

 
 
 KPOINTS: Automatic                               

Automatic generation of k-mesh.
 Grid dimensions read from file:
 generate k-points for:   15   15   15

 Generating k-lattice:

  Cartesian coordinates                     Fractional coordinates (reciprocal lattice)
     0.028832768 -0.010193924  0.000000000     0.066666667  0.000000000  0.000000000
     0.000000000  0.030581772  0.000000000     0.000000000  0.066666667  0.000000000
    -0.014416373 -0.010193916  0.024969912     0.000000000 -0.000000000  0.066666667

  Length of vectors
     0.030581769  0.030581772  0.030581763

  Shift w.r.t. Gamma in fractional coordinates (k-lattice)
     0.000000000  0.000000000  0.000000000

 
 Subroutine IBZKPT returns following result:
 ===========================================
 
 Found    120 irreducible k-points:
 
 Following reciprocal coordinates:
            Coordinates               Weight
  0.000000  0.000000  0.000000      1.000000
  0.066667  0.000000  0.000000      8.000000
  0.133333  0.000000  0.000000      8.000000
  0.200000 -0.000000  0.000000      8.000000
  0.266667  0.000000  0.000000      8.000000
  0.333333  0.000000  0.000000      8.000000
  0.400000  0.000000  0.000000      8.000000
  0.466667  0.000000  0.000000      8.000000
  0.066667  0.066667  0.000000      6.000000
  0.133333  0.066667  0.000000     24.000000
  0.200000  0.066667  0.000000     24.000000
  0.266667  0.066667  0.000000     24.000000
  0.333333  0.066667  0.000000     24.000000
  0.400000  0.066667  0.000000     24.000000
  0.466667  0.066667  0.000000     24.000000
 -0.466667  0.066667  0.000000     24.000000
 -0.400000  0.066667  0.000000     24.000000
 -0.333333  0.066667  0.000000     24.000000
 -0.266667  0.066667  0.000000     24.000000
 -0.200000  0.066667  0.000000     24.000000
 -0.133333  0.066667  0.000000     24.000000
 -0.066667  0.066667  0.000000     12.000000
  0.133333  0.133333  0.000000      6.000000
  0.200000  0.133333  0.000000     24.000000
  0.266667  0.133333  0.000000     24.000000
  0.333333  0.133333  0.000000     24.000000
  0.400000  0.133333  0.000000     24.000000
  0.466667  0.133333  0.000000     24.000000
 -0.466667  0.133333  0.000000     24.000000
 -0.400000  0.133333  0.000000     24.000000
 -0.333333  0.133333  0.000000     24.000000
 -0.266667  0.133333  0.000000     24.000000
 -0.200000  0.133333  0.000000     24.000000
 -0.133333  0.133333  0.000000     12.000000
  0.200000  0.200000  0.000000      6.000000
  0.266667  0.200000  0.000000     24.000000
  0.333333  0.200000  0.000000     24.000000
  0.400000  0.200000  0.000000     24.000000
  0.466667  0.200000  0.000000     24.000000
 -0.466667  0.200000  0.000000     24.000000
 -0.400000  0.200000  0.000000     24.000000
 -0.333333  0.200000  0.000000     24.000000
 -0.266667  0.200000  0.000000     24.000000
 -0.200000  0.200000  0.000000     12.000000
  0.266667  0.266667  0.000000      6.000000
  0.333333  0.266667  0.000000     24.000000
  0.400000  0.266667  0.000000     24.000000
  0.466667  0.266667  0.000000     24.000000
 -0.466667  0.266667  0.000000     24.000000
 -0.400000  0.266667  0.000000     24.000000
 -0.333333  0.266667  0.000000     24.000000
 -0.266667  0.266667  0.000000     12.000000
  0.333333  0.333333  0.000000      6.000000
  0.400000  0.333333  0.000000     24.000000
  0.466667  0.333333  0.000000     24.000000
 -0.466667  0.333333  0.000000     24.000000
 -0.400000  0.333333  0.000000     24.000000
 -0.333333  0.333333  0.000000     12.000000
  0.400000  0.400000  0.000000      6.000000
  0.466667  0.400000  0.000000     24.000000
 -0.466667  0.400000  0.000000     24.000000
 -0.400000  0.400000  0.000000     12.000000
  0.466667  0.466667  0.000000      6.000000
 -0.466667  0.466667  0.000000     12.000000
  0.200000  0.133333  0.066667     24.000000
  0.266667  0.133333  0.066667     48.000000
  0.333333  0.133333  0.066667     48.000000
  0.400000  0.133333  0.066667     48.000000
  0.466667  0.133333  0.066667     48.000000
 -0.466667  0.133333  0.066667     48.000000
  0.266667  0.200000  0.066667     24.000000
  0.333333  0.200000  0.066667     48.000000
  0.400000  0.200000  0.066667     48.000000
  0.466667  0.200000  0.066667     48.000000
 -0.466667  0.200000  0.066667     48.000000
 -0.400000  0.200000  0.066667     48.000000
 -0.333333  0.200000  0.066667     48.000000
 -0.266667  0.200000  0.066667     48.000000
 -0.200000  0.200000  0.066667     48.000000
 -0.133333  0.200000  0.066667     24.000000
  0.333333  0.266667  0.066667     24.000000
  0.400000  0.266667  0.066667     48.000000
  0.466667  0.266667  0.066667     48.000000
 -0.466667  0.266667  0.066667     48.000000
 -0.400000  0.266667  0.066667     48.000000
 -0.333333  0.266667  0.066667     48.000000
 -0.266667  0.266667  0.066667     48.000000
 -0.200000  0.266667  0.066667     24.000000
  0.400000  0.333333  0.066667     24.000000
  0.466667  0.333333  0.066667     48.000000
 -0.466667  0.333333  0.066667     48.000000
 -0.400000  0.333333  0.066667     48.000000
 -0.333333  0.333333  0.066667     48.000000
 -0.266667  0.333333  0.066667     24.000000
  0.466667  0.400000  0.066667     24.000000
 -0.466667  0.400000  0.066667     48.000000
 -0.400000  0.400000  0.066667     48.000000
 -0.333333  0.400000  0.066667     24.000000
 -0.466667  0.466667  0.066667     24.000000
 -0.400000  0.466667  0.066667     24.000000
  0.400000  0.266667  0.133333     24.000000
  0.466667  0.266667  0.133333     48.000000
 -0.466667  0.266667  0.133333     48.000000
 -0.400000  0.266667  0.133333     48.000000
  0.466667  0.333333  0.133333     24.000000
 -0.466667  0.333333  0.133333     48.000000
 -0.400000  0.333333  0.133333     48.000000
 -0.333333  0.333333  0.133333     48.000000
 -0.266667  0.333333  0.133333     48.000000
 -0.200000  0.333333  0.133333     24.000000
 -0.466667  0.400000  0.133333     24.000000
 -0.400000  0.400000  0.133333     48.000000
 -0.333333  0.400000  0.133333     48.000000
 -0.266667  0.400000  0.133333     24.000000
 -0.400000  0.466667  0.133333     24.000000
 -0.333333  0.466667  0.133333     24.000000
 -0.400000  0.400000  0.200000     24.000000
 -0.333333  0.400000  0.200000     48.000000
 -0.333333  0.466667  0.200000     24.000000
 -0.266667  0.466667  0.200000     24.000000
 
 Following cartesian coordinates:
            Coordinates               Weight
  0.000000  0.000000  0.000000      1.000000
  0.028400 -0.010041  0.000000      8.000000
  0.056801 -0.020082  0.000000      8.000000
  0.085201 -0.030123  0.000000      8.000000
  0.113601 -0.040164  0.000000      8.000000
  0.142001 -0.050205  0.000000      8.000000
  0.170402 -0.060246  0.000000      8.000000
  0.198802 -0.070287  0.000000      8.000000
  0.028400  0.020082  0.000000      6.000000
  0.056801  0.010041  0.000000     24.000000
  0.085201  0.000000  0.000000     24.000000
  0.113601 -0.010041  0.000000     24.000000
  0.142001 -0.020082  0.000000     24.000000
  0.170402 -0.030123  0.000000     24.000000
  0.198802 -0.040164  0.000000     24.000000
 -0.198802  0.100410  0.000000     24.000000
 -0.170402  0.090369  0.000000     24.000000
 -0.142001  0.080328  0.000000     24.000000
 -0.113601  0.070287  0.000000     24.000000
 -0.085201  0.060246  0.000000     24.000000
 -0.056801  0.050205  0.000000     24.000000
 -0.028400  0.040164  0.000000     12.000000
  0.056801  0.040164  0.000000      6.000000
  0.085201  0.030123  0.000000     24.000000
  0.113601  0.020082  0.000000     24.000000
  0.142001  0.010041  0.000000     24.000000
  0.170402  0.000000  0.000000     24.000000
  0.198802 -0.010041  0.000000     24.000000
 -0.198802  0.130533  0.000000     24.000000
 -0.170402  0.120492  0.000000     24.000000
 -0.142001  0.110451  0.000000     24.000000
 -0.113601  0.100410  0.000000     24.000000
 -0.085201  0.090369  0.000000     24.000000
 -0.056801  0.080328  0.000000     12.000000
  0.085201  0.060246  0.000000      6.000000
  0.113601  0.050205  0.000000     24.000000
  0.142001  0.040164  0.000000     24.000000
  0.170402  0.030123  0.000000     24.000000
  0.198802  0.020082  0.000000     24.000000
 -0.198802  0.160656  0.000000     24.000000
 -0.170402  0.150615  0.000000     24.000000
 -0.142001  0.140574  0.000000     24.000000
 -0.113601  0.130533  0.000000     24.000000
 -0.085201  0.120492  0.000000     12.000000
  0.113601  0.080328  0.000000      6.000000
  0.142001  0.070287  0.000000     24.000000
  0.170402  0.060246  0.000000     24.000000
  0.198802  0.050205  0.000000     24.000000
 -0.198802  0.190779  0.000000     24.000000
 -0.170402  0.180738  0.000000     24.000000
 -0.142001  0.170697  0.000000     24.000000
 -0.113601  0.160656  0.000000     12.000000
  0.142001  0.100410  0.000000      6.000000
  0.170402  0.090369  0.000000     24.000000
  0.198802  0.080328  0.000000     24.000000
 -0.198802  0.220902  0.000000     24.000000
 -0.170402  0.210861  0.000000     24.000000
 -0.142001  0.200820  0.000000     12.000000
  0.170402  0.120492  0.000000      6.000000
  0.198802  0.110451  0.000000     24.000000
 -0.198802  0.251025  0.000000     24.000000
 -0.170402  0.240984  0.000000     12.000000
  0.198802  0.140574  0.000000      6.000000
 -0.198802  0.281148  0.000000     12.000000
  0.071001  0.020082  0.024595     24.000000
  0.099401  0.010041  0.024595     48.000000
  0.127801  0.000000  0.024595     48.000000
  0.156202 -0.010041  0.024595     48.000000
  0.184602 -0.020082  0.024595     48.000000
 -0.213002  0.120492  0.024595     48.000000
  0.099401  0.040164  0.024595     24.000000
  0.127801  0.030123  0.024595     48.000000
  0.156202  0.020082  0.024595     48.000000
  0.184602  0.010041  0.024595     48.000000
 -0.213002  0.150615  0.024595     48.000000
 -0.184602  0.140574  0.024595     48.000000
 -0.156202  0.130533  0.024595     48.000000
 -0.127801  0.120492  0.024595     48.000000
 -0.099401  0.110451  0.024595     48.000000
 -0.071001  0.100410  0.024595     24.000000
  0.127801  0.060246  0.024595     24.000000
  0.156202  0.050205  0.024595     48.000000
  0.184602  0.040164  0.024595     48.000000
 -0.213002  0.180738  0.024595     48.000000
 -0.184602  0.170697  0.024595     48.000000
 -0.156202  0.160656  0.024595     48.000000
 -0.127801  0.150615  0.024595     48.000000
 -0.099401  0.140574  0.024595     24.000000
  0.156202  0.080328  0.024595     24.000000
  0.184602  0.070287  0.024595     48.000000
 -0.213002  0.210861  0.024595     48.000000
 -0.184602  0.200820  0.024595     48.000000
 -0.156202  0.190779  0.024595     48.000000
 -0.127801  0.180738  0.024595     24.000000
  0.184602  0.100410  0.024595     24.000000
 -0.213002  0.240984  0.024595     48.000000
 -0.184602  0.230943  0.024595     48.000000
 -0.156202  0.220902  0.024595     24.000000
 -0.213002  0.271107  0.024595     24.000000
 -0.184602  0.261066  0.024595     24.000000
  0.142001  0.040164  0.049191     24.000000
  0.170402  0.030123  0.049191     48.000000
 -0.227202  0.170697  0.049191     48.000000
 -0.198802  0.160656  0.049191     48.000000
  0.170402  0.060246  0.049191     24.000000
 -0.227202  0.200820  0.049191     48.000000
 -0.198802  0.190779  0.049191     48.000000
 -0.170402  0.180738  0.049191     48.000000
 -0.142001  0.170697  0.049191     48.000000
 -0.113601  0.160656  0.049191     24.000000
 -0.227202  0.230943  0.049191     24.000000
 -0.198802  0.220902  0.049191     48.000000
 -0.170402  0.210861  0.049191     48.000000
 -0.142001  0.200820  0.049191     24.000000
 -0.198802  0.251025  0.049191     24.000000
 -0.170402  0.240984  0.049191     24.000000
 -0.213002  0.210861  0.073786     24.000000
 -0.184602  0.200820  0.073786     48.000000
 -0.184602  0.230943  0.073786     24.000000
 -0.156201  0.220902  0.073786     24.000000
 


--------------------------------------------------------------------------------------------------------




 Dimension of arrays:
   k-points           NKPTS =    120   k-points in BZ     NKDIM =    120   number of bands    NBANDS=      8
   number of dos      NEDOS =    301   number of ions     NIONS =      1
   non local maximal  LDIM  =      4   non local SUM 2l+1 LMDIM =      8
   total plane-waves  NPLWV =  13824
   max r-space proj   IRMAX =      1   max aug-charges    IRDMAX= 274934
   dimension x,y,z NGX =    24 NGY =   24 NGZ =   24
   dimension x,y,z NGXF=    48 NGYF=   48 NGZF=   48
   support grid    NGXF=    96 NGYF=   96 NGZF=   96
   ions per type =               1
   NGX,Y,Z   is equivalent  to a cutoff of  14.94, 14.94, 14.94 a.u.
   NGXF,Y,Z  is equivalent  to a cutoff of  29.89, 29.89, 29.89 a.u.

 SYSTEM =  unknown system                          
 POSCAR =  Si1                                     

 Startparameter for this run:
   NWRITE =      2    write-flag & timer
   PREC   = accura    normal or accurate (medium, high low for compatibility)
   ISTART =      0    job   : 0-new  1-cont  2-samecut
   ICHARG =      2    charge: 1-file 2-atom 10-const
   ISPIN  =      1    spin polarized calculation?
   LNONCOLLINEAR =      F non collinear calculations
   LSORBIT =      F    spin-orbit coupling
   INIWAV =      1    electr: 0-lowe 1-rand  2-diag
   LASPH  =      T    aspherical Exc in radial PAW
   METAGGA=      F    non-selfconsistent MetaGGA calc.

 Electronic Relaxation 1
   ENCUT  =  700.0 eV  51.45 Ry    7.17 a.u.   5.76  5.76  5.76*2*pi/ulx,y,z
   ENINI  =  700.0     initial cutoff
   ENAUG  =  322.1 eV  augmentation charge cutoff
   NELM   =     90;   NELMIN=  6; NELMDL= -5     # of ELM steps 
   EDIFF  = 0.1E-05   stopping-criterion for ELM
   LREAL  =      F    real-space projection
   NLSPLINE    = F    spline interpolate recip. space projectors
   LCOMPAT=      F    compatible to vasp.4.4
   GGA_COMPAT  = T    GGA compatible to vasp.4.4-vasp.4.6
   LMAXPAW     = -100 max onsite density
   LMAXMIX     =    2 max onsite mixed and CHGCAR
   VOSKOWN=      0    Vosko Wilk Nusair interpolation
   ROPT   =    0.00000
 Ionic relaxation
   EDIFFG = -.2E-02   stopping-criterion for IOM
   NSW    =    100    number of steps for IOM
   NBLOCK =      1;   KBLOCK =    100    inner block; outer block 
   IBRION =      2    ionic relax: 0-MD 1-quasi-New 2-CG
   NFREE  =      1    steps in history (QN), initial steepest desc. (CG)
   ISIF   =      2    stress and relaxation
   IWAVPR =     11    prediction:  0-non 1-charg 2-wave 3-comb
   ISYM   =      2    0-nonsym 1-usesym 2-fastsym
   LCORR  =      T    Harris-Foulkes like correction to forces

   POTIM  = 0.5000    time-step for ionic-motion
   TEIN   =    0.0    initial temperature
   TEBEG  =    0.0;   TEEND  =   0.0 temperature during run
   SMASS  =  -3.00    Nose mass-parameter (am)
   estimated Nose-frequenzy (Omega)   =  0.10E-29 period in steps = 0.13E+47 mass=  -0.163E-27a.u.
   SCALEE = 1.0000    scale energy and forces
   NPACO  =    256;   APACO  = 16.0  distance and # of slots for P.C.
   PSTRESS=    0.0 pullay stress

  Mass of Ions in am
   POMASS =  28.09
  Ionic Valenz
   ZVAL   =   4.00
  Atomic Wigner-Seitz radii
   RWIGS  =  -1.00
  virtual crystal weights 
   VCA    =   1.00
   NELECT =       4.0000    total number of electrons
   NUPDOWN=      -1.0000    fix difference up-down

 DOS related values:
   EMIN   =  10.00;   EMAX   =-10.00  energy-range for DOS
   EFERMI =   0.00
   ISMEAR =     0;   SIGMA  =   0.05  broadening in eV -4-tet -1-fermi 0-gaus

 Electronic relaxation 2 (details)
   IALGO  =     38    algorithm
   LDIAG  =      T    sub-space diagonalisation (order eigenvalues)
   LSUBROT=      F    optimize rotation matrix (better conditioning)
   TURBO    =      0    0=normal 1=particle mesh
   IRESTART =      0    0=no restart 2=restart with 2 vectors
   NREBOOT  =      0    no. of reboots
   NMIN     =      0    reboot dimension
   EREF     =   0.00    reference energy to select bands
   IMIX   =      4    mixing-type and parameters
     AMIX     =   0.40;   BMIX     =  1.00
     AMIX_MAG =   1.60;   BMIX_MAG =  1.00
     AMIN     =   0.10
     WC   =   100.;   INIMIX=   1;  MIXPRE=   1;  MAXMIX= -45

 Intra band minimization:
   WEIMIN = 0.0010     energy-eigenvalue tresh-hold
   EBREAK =  0.31E-07  absolut break condition
   DEPER  =   0.30     relativ break condition  

   TIME   =   0.40     timestep for ELM

  volume/ion in A,a.u.               =      13.46        90.81
  Fermi-wavevector in a.u.,A,eV,Ry     =   1.092550  2.064621 16.240812  1.193666
  Thomas-Fermi vector in A             =   2.228818
 
 Write flags
   LWAVE        =      F    write WAVECAR
   LDOWNSAMPLE  =      F    k-point downsampling of WAVECAR
   LCHARG       =      F    write CHGCAR
   LVTOT        =      F    write LOCPOT, total local potential
   LVHAR        =      F    write LOCPOT, Hartree potential only
   LELF         =      F    write electronic localiz. function (ELF)
   LORBIT       =      0    0 simple, 1 ext, 2 COOP (PROOUT), +10 PAW based schemes


 Dipole corrections
   LMONO  =      F    monopole corrections only (constant potential shift)
   LDIPOL =      F    correct potential (dipole corrections)
   IDIPOL =      0    1-x, 2-y, 3-z, 4-all directions 
   EPSILON=  1.0000000 bulk dielectric constant

 Exchange correlation treatment:
   GGA     =    --    GGA type
   LEXCH   =     8    internal setting for exchange type
   VOSKOWN=      0    Vosko Wilk Nusair interpolation
   LHFCALC =     F    Hartree Fock is set to
   LHFONE  =     F    Hartree Fock one center treatment
   AEXX    =    0.0000 exact exchange contribution

 Linear response parameters
   LEPSILON=     F    determine dielectric tensor
   LRPA    =     F    only Hartree local field effects (RPA)
   LNABLA  =     F    use nabla operator in PAW spheres
   LVEL    =     F    velocity operator in full k-point grid
   LINTERFAST=   F  fast interpolation
   KINTER  =     0    interpolate to denser k-point grid
   CSHIFT  =0.1000    complex shift for real part using Kramers Kronig
   OMEGAMAX=  -1.0    maximum frequency
   DEG_THRESHOLD= 0.2000000E-02 threshold for treating states as degnerate
   RTIME   =   -0.100 relaxation time in fs
  (WPLASMAI=    0.000 imaginary part of plasma frequency in eV, 0.658/RTIME)
   DFIELD  = 0.0000000 0.0000000 0.0000000 field for delta impulse in time
 
 Orbital magnetization related:
   ORBITALMAG=     F  switch on orbital magnetization
   LCHIMAG   =     F  perturbation theory with respect to B field
   DQ        =  0.001000  dq finite difference perturbation B field
   LLRAUG    =     F  two centre corrections for induced B field



--------------------------------------------------------------------------------------------------------


 conjugate gradient relaxation of ions
 charge density and potential will be updated during run
 non-spin polarized calculation
 Variant of blocked Davidson
 Davidson routine will perform the subspace rotation
 perform sub-space diagonalisation
    after iterative eigenvector-optimisation
 modified Broyden-mixing scheme, WC =      100.0
 initial mixing is a Kerker type mixing with AMIX =  0.4000 and BMIX =      1.0000
 Hartree-type preconditioning will be used
 using additional bands            6
 reciprocal scheme for non local part
 use partial core corrections
 calculate Harris-corrections to forces 
   (improved forces if not selfconsistent)
 use gradient corrections 
 use of overlap-Matrix (Vanderbilt PP)
 Gauss-broadening in eV      SIGMA  =   0.05


--------------------------------------------------------------------------------------------------------


  energy-cutoff  :      700.00
  volume of cell :       13.46
      direct lattice vectors                 reciprocal lattice vectors
     2.312184075  0.000000000  1.334938980     0.432491518 -0.152908858  0.000000000
     0.770728025  2.179947825  1.334938980     0.000000000  0.458726575  0.000000000
     0.000000000  0.000000000  2.669879930    -0.216245599 -0.152908746  0.374548679

  length of vectors
     2.669879637  2.669879452  2.669879930     0.458726533  0.458726575  0.458726451


 
 k-points in units of 2pi/SCALE and weight: Automatic                               
   0.00000000  0.00000000  0.00000000       0.000
   0.02840028 -0.01004102  0.00000000       0.002
   0.05680055 -0.02008203  0.00000000       0.002
   0.08520083 -0.03012305  0.00000000       0.002
   0.11360111 -0.04016406  0.00000000       0.002
   0.14200138 -0.05020508  0.00000000       0.002
   0.17040166 -0.06024609  0.00000000       0.002
   0.19880193 -0.07028711  0.00000000       0.002
   0.02840028  0.02008203  0.00000000       0.002
   0.05680055  0.01004102  0.00000000       0.007
   0.08520083  0.00000000  0.00000000       0.007
   0.11360111 -0.01004102  0.00000000       0.007
   0.14200138 -0.02008203  0.00000000       0.007
   0.17040166 -0.03012305  0.00000000       0.007
   0.19880193 -0.04016406  0.00000000       0.007
  -0.19880193  0.10041015  0.00000000       0.007
  -0.17040166  0.09036914  0.00000000       0.007
  -0.14200138  0.08032812  0.00000000       0.007
  -0.11360111  0.07028711  0.00000000       0.007
  -0.08520083  0.06024609  0.00000000       0.007
  -0.05680055  0.05020508  0.00000000       0.007
  -0.02840028  0.04016406  0.00000000       0.004
   0.05680055  0.04016406  0.00000000       0.002
   0.08520083  0.03012305  0.00000000       0.007
   0.11360111  0.02008203  0.00000000       0.007
   0.14200138  0.01004102  0.00000000       0.007
   0.17040166  0.00000000  0.00000000       0.007
   0.19880193 -0.01004102  0.00000000       0.007
  -0.19880193  0.13053320  0.00000000       0.007
  -0.17040166  0.12049218  0.00000000       0.007
  -0.14200138  0.11045117  0.00000000       0.007
  -0.11360111  0.10041015  0.00000000       0.007
  -0.08520083  0.09036914  0.00000000       0.007
  -0.05680055  0.08032812  0.00000000       0.004
   0.08520083  0.06024609  0.00000000       0.002
   0.11360111  0.05020508  0.00000000       0.007
   0.14200138  0.04016406  0.00000000       0.007
   0.17040166  0.03012305  0.00000000       0.007
   0.19880193  0.02008203  0.00000000       0.007
  -0.19880193  0.16065624  0.00000000       0.007
  -0.17040166  0.15061523  0.00000000       0.007
  -0.14200138  0.14057421  0.00000000       0.007
  -0.11360111  0.13053320  0.00000000       0.007
  -0.08520083  0.12049218  0.00000000       0.004
   0.11360111  0.08032812  0.00000000       0.002
   0.14200138  0.07028711  0.00000000       0.007
   0.17040166  0.06024609  0.00000000       0.007
   0.19880193  0.05020508  0.00000000       0.007
  -0.19880193  0.19077929  0.00000000       0.007
  -0.17040166  0.18073827  0.00000000       0.007
  -0.14200138  0.17069726  0.00000000       0.007
  -0.11360111  0.16065624  0.00000000       0.004
   0.14200138  0.10041015  0.00000000       0.002
   0.17040166  0.09036914  0.00000000       0.007
   0.19880193  0.08032812  0.00000000       0.007
  -0.19880193  0.22090233  0.00000000       0.007
  -0.17040166  0.21086132  0.00000000       0.007
  -0.14200138  0.20082030  0.00000000       0.004
   0.17040166  0.12049218  0.00000000       0.002
   0.19880193  0.11045117  0.00000000       0.007
  -0.19880193  0.25102538  0.00000000       0.007
  -0.17040166  0.24098436  0.00000000       0.004
   0.19880193  0.14057421  0.00000000       0.002
  -0.19880193  0.28114842  0.00000000       0.004
   0.07100070  0.02008204  0.02459536       0.007
   0.09940098  0.01004102  0.02459536       0.014
   0.12780125  0.00000001  0.02459536       0.014
   0.15620153 -0.01004101  0.02459536       0.014
   0.18460181 -0.02008202  0.02459536       0.014
  -0.21300206  0.12049219  0.02459536       0.014
   0.09940098  0.04016407  0.02459536       0.007
   0.12780125  0.03012305  0.02459536       0.014
   0.15620153  0.02008204  0.02459536       0.014
   0.18460181  0.01004102  0.02459536       0.014
  -0.21300206  0.15061523  0.02459536       0.014
  -0.18460179  0.14057422  0.02459536       0.014
  -0.15620151  0.13053320  0.02459536       0.014
  -0.12780123  0.12049219  0.02459536       0.014
  -0.09940096  0.11045117  0.02459536       0.014
  -0.07100068  0.10041016  0.02459536       0.007
   0.12780125  0.06024610  0.02459536       0.007
   0.15620153  0.05020508  0.02459536       0.014
   0.18460181  0.04016407  0.02459536       0.014
  -0.21300206  0.18073828  0.02459536       0.014
  -0.18460179  0.17069726  0.02459536       0.014
  -0.15620151  0.16065625  0.02459536       0.014
  -0.12780123  0.15061523  0.02459536       0.014
  -0.09940096  0.14057422  0.02459536       0.007
   0.15620153  0.08032813  0.02459536       0.007
   0.18460181  0.07028711  0.02459536       0.014
  -0.21300206  0.21086132  0.02459536       0.014
  -0.18460179  0.20082031  0.02459536       0.014
  -0.15620151  0.19077929  0.02459536       0.014
  -0.12780123  0.18073828  0.02459536       0.007
   0.18460181  0.10041016  0.02459536       0.007
  -0.21300206  0.24098437  0.02459536       0.014
  -0.18460179  0.23094335  0.02459536       0.014
  -0.15620151  0.22090234  0.02459536       0.007
  -0.21300206  0.27110741  0.02459536       0.007
  -0.18460179  0.26106640  0.02459536       0.007
   0.14200140  0.04016407  0.04919073       0.007
   0.17040168  0.03012306  0.04919073       0.014
  -0.22720219  0.17069727  0.04919073       0.014
  -0.19880191  0.16065626  0.04919073       0.014
   0.17040168  0.06024611  0.04919073       0.007
  -0.22720219  0.20082032  0.04919073       0.014
  -0.19880191  0.19077930  0.04919073       0.014
  -0.17040164  0.18073829  0.04919073       0.014
  -0.14200136  0.17069727  0.04919073       0.014
  -0.11360108  0.16065626  0.04919073       0.007
  -0.22720219  0.23094336  0.04919073       0.007
  -0.19880191  0.22090235  0.04919073       0.014
  -0.17040164  0.21086133  0.04919073       0.014
  -0.14200136  0.20082032  0.04919073       0.007
  -0.19880191  0.25102539  0.04919073       0.007
  -0.17040164  0.24098438  0.04919073       0.007
  -0.21300204  0.21086134  0.07378609       0.007
  -0.18460176  0.20082032  0.07378609       0.014
  -0.18460176  0.23094337  0.07378609       0.007
  -0.15620149  0.22090235  0.07378609       0.007
 
 k-points in reciprocal lattice and weights: Automatic                               
   0.00000000  0.00000000  0.00000000       0.000
   0.06666667  0.00000000  0.00000000       0.002
   0.13333333  0.00000000  0.00000000       0.002
   0.20000000 -0.00000000  0.00000000       0.002
   0.26666667  0.00000000  0.00000000       0.002
   0.33333333  0.00000000  0.00000000       0.002
   0.40000000  0.00000000  0.00000000       0.002
   0.46666667  0.00000000  0.00000000       0.002
   0.06666667  0.06666667  0.00000000       0.002
   0.13333333  0.06666667  0.00000000       0.007
   0.20000000  0.06666667  0.00000000       0.007
   0.26666667  0.06666667  0.00000000       0.007
   0.33333333  0.06666667  0.00000000       0.007
   0.40000000  0.06666667  0.00000000       0.007
   0.46666667  0.06666667  0.00000000       0.007
  -0.46666667  0.06666667  0.00000000       0.007
  -0.40000000  0.06666667  0.00000000       0.007
  -0.33333333  0.06666667  0.00000000       0.007
  -0.26666667  0.06666667  0.00000000       0.007
  -0.20000000  0.06666667  0.00000000       0.007
  -0.13333333  0.06666667  0.00000000       0.007
  -0.06666667  0.06666667  0.00000000       0.004
   0.13333333  0.13333333  0.00000000       0.002
   0.20000000  0.13333333  0.00000000       0.007
   0.26666667  0.13333333  0.00000000       0.007
   0.33333333  0.13333333  0.00000000       0.007
   0.40000000  0.13333333  0.00000000       0.007
   0.46666667  0.13333333  0.00000000       0.007
  -0.46666667  0.13333333  0.00000000       0.007
  -0.40000000  0.13333333  0.00000000       0.007
  -0.33333333  0.13333333  0.00000000       0.007
  -0.26666667  0.13333333  0.00000000       0.007
  -0.20000000  0.13333333  0.00000000       0.007
  -0.13333333  0.13333333  0.00000000       0.004
   0.20000000  0.20000000  0.00000000       0.002
   0.26666667  0.20000000  0.00000000       0.007
   0.33333333  0.20000000  0.00000000       0.007
   0.40000000  0.20000000  0.00000000       0.007
   0.46666667  0.20000000  0.00000000       0.007
  -0.46666667  0.20000000  0.00000000       0.007
  -0.40000000  0.20000000  0.00000000       0.007
  -0.33333333  0.20000000  0.00000000       0.007
  -0.26666667  0.20000000  0.00000000       0.007
  -0.20000000  0.20000000  0.00000000       0.004
   0.26666667  0.26666667  0.00000000       0.002
   0.33333333  0.26666667  0.00000000       0.007
   0.40000000  0.26666667  0.00000000       0.007
   0.46666667  0.26666667  0.00000000       0.007
  -0.46666667  0.26666667  0.00000000       0.007
  -0.40000000  0.26666667  0.00000000       0.007
  -0.33333333  0.26666667  0.00000000       0.007
  -0.26666667  0.26666667  0.00000000       0.004
   0.33333333  0.33333333  0.00000000       0.002
   0.40000000  0.33333333  0.00000000       0.007
   0.46666667  0.33333333  0.00000000       0.007
  -0.46666667  0.33333333  0.00000000       0.007
  -0.40000000  0.33333333  0.00000000       0.007
  -0.33333333  0.33333333  0.00000000       0.004
   0.40000000  0.40000000  0.00000000       0.002
   0.46666667  0.40000000  0.00000000       0.007
  -0.46666667  0.40000000  0.00000000       0.007
  -0.40000000  0.40000000  0.00000000       0.004
   0.46666667  0.46666667  0.00000000       0.002
  -0.46666667  0.46666667  0.00000000       0.004
   0.20000000  0.13333333  0.06666667       0.007
   0.26666667  0.13333333  0.06666667       0.014
   0.33333333  0.13333333  0.06666667       0.014
   0.40000000  0.13333333  0.06666667       0.014
   0.46666667  0.13333333  0.06666667       0.014
  -0.46666667  0.13333333  0.06666667       0.014
   0.26666667  0.20000000  0.06666667       0.007
   0.33333333  0.20000000  0.06666667       0.014
   0.40000000  0.20000000  0.06666667       0.014
   0.46666667  0.20000000  0.06666667       0.014
  -0.46666667  0.20000000  0.06666667       0.014
  -0.40000000  0.20000000  0.06666667       0.014
  -0.33333333  0.20000000  0.06666667       0.014
  -0.26666667  0.20000000  0.06666667       0.014
  -0.20000000  0.20000000  0.06666667       0.014
  -0.13333333  0.20000000  0.06666667       0.007
   0.33333333  0.26666667  0.06666667       0.007
   0.40000000  0.26666667  0.06666667       0.014
   0.46666667  0.26666667  0.06666667       0.014
  -0.46666667  0.26666667  0.06666667       0.014
  -0.40000000  0.26666667  0.06666667       0.014
  -0.33333333  0.26666667  0.06666667       0.014
  -0.26666667  0.26666667  0.06666667       0.014
  -0.20000000  0.26666667  0.06666667       0.007
   0.40000000  0.33333333  0.06666667       0.007
   0.46666667  0.33333333  0.06666667       0.014
  -0.46666667  0.33333333  0.06666667       0.014
  -0.40000000  0.33333333  0.06666667       0.014
  -0.33333333  0.33333333  0.06666667       0.014
  -0.26666667  0.33333333  0.06666667       0.007
   0.46666667  0.40000000  0.06666667       0.007
  -0.46666667  0.40000000  0.06666667       0.014
  -0.40000000  0.40000000  0.06666667       0.014
  -0.33333333  0.40000000  0.06666667       0.007
  -0.46666667  0.46666667  0.06666667       0.007
  -0.40000000  0.46666667  0.06666667       0.007
   0.40000000  0.26666667  0.13333333       0.007
   0.46666667  0.26666667  0.13333333       0.014
  -0.46666667  0.26666667  0.13333333       0.014
  -0.40000000  0.26666667  0.13333333       0.014
   0.46666667  0.33333333  0.13333333       0.007
  -0.46666667  0.33333333  0.13333333       0.014
  -0.40000000  0.33333333  0.13333333       0.014
  -0.33333333  0.33333333  0.13333333       0.014
  -0.26666667  0.33333333  0.13333333       0.014
  -0.20000000  0.33333333  0.13333333       0.007
  -0.46666667  0.40000000  0.13333333       0.007
  -0.40000000  0.40000000  0.13333333       0.014
  -0.33333333  0.40000000  0.13333333       0.014
  -0.26666667  0.40000000  0.13333333       0.007
  -0.40000000  0.46666667  0.13333333       0.007
  -0.33333333  0.46666667  0.13333333       0.007
  -0.40000000  0.40000000  0.20000000       0.007
  -0.33333333  0.40000000  0.20000000       0.014
  -0.33333333  0.46666667  0.20000000       0.007
  -0.26666667  0.46666667  0.20000000       0.007
 
 position of ions in fractional coordinates (direct lattice) 
   0.00000000  0.00000000  0.00000000
 
 position of ions in cartesian coordinates  (Angst):
   0.00000000  0.00000000  0.00000000
 


--------------------------------------------------------------------------------------------------------


 k-point   1 :   0.0000 0.0000 0.0000  plane waves:     537
 k-point   2 :   0.0667 0.0000 0.0000  plane waves:     549
 k-point   3 :   0.1333 0.0000 0.0000  plane waves:     555
 k-point   4 :   0.2000-0.0000 0.0000  plane waves:     564
 k-point   5 :   0.2667 0.0000 0.0000  plane waves:     570
 k-point   6 :   0.3333 0.0000 0.0000  plane waves:     562
 k-point   7 :   0.4000 0.0000 0.0000  plane waves:     571
 k-point   8 :   0.4667 0.0000 0.0000  plane waves:     571
 k-point   9 :   0.0667 0.0667 0.0000  plane waves:     553
 k-point  10 :   0.1333 0.0667 0.0000  plane waves:     557
 k-point  11 :   0.2000 0.0667 0.0000  plane waves:     561
 k-point  12 :   0.2667 0.0667 0.0000  plane waves:     568
 k-point  13 :   0.3333 0.0667 0.0000  plane waves:     571
 k-point  14 :   0.4000 0.0667 0.0000  plane waves:     573
 k-point  15 :   0.4667 0.0667 0.0000  plane waves:     568
 k-point  16 :  -0.4667 0.0667 0.0000  plane waves:     574
 k-point  17 :  -0.4000 0.0667 0.0000  plane waves:     571
 k-point  18 :  -0.3333 0.0667 0.0000  plane waves:     575
 k-point  19 :  -0.2667 0.0667 0.0000  plane waves:     568
 k-point  20 :  -0.2000 0.0667 0.0000  plane waves:     568
 k-point  21 :  -0.1333 0.0667 0.0000  plane waves:     563
 k-point  22 :  -0.0667 0.0667 0.0000  plane waves:     559
 k-point  23 :   0.1333 0.1333 0.0000  plane waves:     564
 k-point  24 :   0.2000 0.1333 0.0000  plane waves:     563
 k-point  25 :   0.2667 0.1333 0.0000  plane waves:     569
 k-point  26 :   0.3333 0.1333 0.0000  plane waves:     565
 k-point  27 :   0.4000 0.1333 0.0000  plane waves:     575
 k-point  28 :   0.4667 0.1333 0.0000  plane waves:     567
 k-point  29 :  -0.4667 0.1333 0.0000  plane waves:     567
 k-point  30 :  -0.4000 0.1333 0.0000  plane waves:     569
 k-point  31 :  -0.3333 0.1333 0.0000  plane waves:     573
 k-point  32 :  -0.2667 0.1333 0.0000  plane waves:     567
 k-point  33 :  -0.2000 0.1333 0.0000  plane waves:     568
 k-point  34 :  -0.1333 0.1333 0.0000  plane waves:     560
 k-point  35 :   0.2000 0.2000 0.0000  plane waves:     568
 k-point  36 :   0.2667 0.2000 0.0000  plane waves:     572
 k-point  37 :   0.3333 0.2000 0.0000  plane waves:     564
 k-point  38 :   0.4000 0.2000 0.0000  plane waves:     572
 k-point  39 :   0.4667 0.2000 0.0000  plane waves:     567
 k-point  40 :  -0.4667 0.2000 0.0000  plane waves:     566
 k-point  41 :  -0.4000 0.2000 0.0000  plane waves:     562
 k-point  42 :  -0.3333 0.2000 0.0000  plane waves:     564
 k-point  43 :  -0.2667 0.2000 0.0000  plane waves:     565
 k-point  44 :  -0.2000 0.2000 0.0000  plane waves:     562
 k-point  45 :   0.2667 0.2667 0.0000  plane waves:     568
 k-point  46 :   0.3333 0.2667 0.0000  plane waves:     566
 k-point  47 :   0.4000 0.2667 0.0000  plane waves:     569
 k-point  48 :   0.4667 0.2667 0.0000  plane waves:     568
 k-point  49 :  -0.4667 0.2667 0.0000  plane waves:     560
 k-point  50 :  -0.4000 0.2667 0.0000  plane waves:     562
 k-point  51 :  -0.3333 0.2667 0.0000  plane waves:     566
 k-point  52 :  -0.2667 0.2667 0.0000  plane waves:     562
 k-point  53 :   0.3333 0.3333 0.0000  plane waves:     576
 k-point  54 :   0.4000 0.3333 0.0000  plane waves:     568
 k-point  55 :   0.4667 0.3333 0.0000  plane waves:     570
 k-point  56 :  -0.4667 0.3333 0.0000  plane waves:     566
 k-point  57 :  -0.4000 0.3333 0.0000  plane waves:     565
 k-point  58 :  -0.3333 0.3333 0.0000  plane waves:     572
 k-point  59 :   0.4000 0.4000 0.0000  plane waves:     568
 k-point  60 :   0.4667 0.4000 0.0000  plane waves:     567
 k-point  61 :  -0.4667 0.4000 0.0000  plane waves:     562
 k-point  62 :  -0.4000 0.4000 0.0000  plane waves:     564
 k-point  63 :   0.4667 0.4667 0.0000  plane waves:     572
 k-point  64 :  -0.4667 0.4667 0.0000  plane waves:     578
 k-point  65 :   0.2000 0.1333 0.0667  plane waves:     561
 k-point  66 :   0.2667 0.1333 0.0667  plane waves:     567
 k-point  67 :   0.3333 0.1333 0.0667  plane waves:     566
 k-point  68 :   0.4000 0.1333 0.0667  plane waves:     569
 k-point  69 :   0.4667 0.1333 0.0667  plane waves:     569
 k-point  70 :  -0.4667 0.1333 0.0667  plane waves:     571
 k-point  71 :   0.2667 0.2000 0.0667  plane waves:     568
 k-point  72 :   0.3333 0.2000 0.0667  plane waves:     564
 k-point  73 :   0.4000 0.2000 0.0667  plane waves:     567
 k-point  74 :   0.4667 0.2000 0.0667  plane waves:     571
 k-point  75 :  -0.4667 0.2000 0.0667  plane waves:     567
 k-point  76 :  -0.4000 0.2000 0.0667  plane waves:     562
 k-point  77 :  -0.3333 0.2000 0.0667  plane waves:     569
 k-point  78 :  -0.2667 0.2000 0.0667  plane waves:     568
 k-point  79 :  -0.2000 0.2000 0.0667  plane waves:     567
 k-point  80 :  -0.1333 0.2000 0.0667  plane waves:     562
 k-point  81 :   0.3333 0.2667 0.0667  plane waves:     569
 k-point  82 :   0.4000 0.2667 0.0667  plane waves:     564
 k-point  83 :   0.4667 0.2667 0.0667  plane waves:     564
 k-point  84 :  -0.4667 0.2667 0.0667  plane waves:     566
 k-point  85 :  -0.4000 0.2667 0.0667  plane waves:     563
 k-point  86 :  -0.3333 0.2667 0.0667  plane waves:     567
 k-point  87 :  -0.2667 0.2667 0.0667  plane waves:     563
 k-point  88 :  -0.2000 0.2667 0.0667  plane waves:     568
 k-point  89 :   0.4000 0.3333 0.0667  plane waves:     568
 k-point  90 :   0.4667 0.3333 0.0667  plane waves:     567
 k-point  91 :  -0.4667 0.3333 0.0667  plane waves:     567
 k-point  92 :  -0.4000 0.3333 0.0667  plane waves:     560
 k-point  93 :  -0.3333 0.3333 0.0667  plane waves:     561
 k-point  94 :  -0.2667 0.3333 0.0667  plane waves:     563
 k-point  95 :   0.4667 0.4000 0.0667  plane waves:     570
 k-point  96 :  -0.4667 0.4000 0.0667  plane waves:     569
 k-point  97 :  -0.4000 0.4000 0.0667  plane waves:     567
 k-point  98 :  -0.3333 0.4000 0.0667  plane waves:     566
 k-point  99 :  -0.4667 0.4667 0.0667  plane waves:     569
 k-point 100 :  -0.4000 0.4667 0.0667  plane waves:     568
 k-point 101 :   0.4000 0.2667 0.1333  plane waves:     572
 k-point 102 :   0.4667 0.2667 0.1333  plane waves:     567
 k-point 103 :  -0.4667 0.2667 0.1333  plane waves:     567
 k-point 104 :  -0.4000 0.2667 0.1333  plane waves:     561
 k-point 105 :   0.4667 0.3333 0.1333  plane waves:     567
 k-point 106 :  -0.4667 0.3333 0.1333  plane waves:     568
 k-point 107 :  -0.4000 0.3333 0.1333  plane waves:     562
 k-point 108 :  -0.3333 0.3333 0.1333  plane waves:     562
 k-point 109 :  -0.2667 0.3333 0.1333  plane waves:     563
 k-point 110 :  -0.2000 0.3333 0.1333  plane waves:     562
 k-point 111 :  -0.4667 0.4000 0.1333  plane waves:     571
 k-point 112 :  -0.4000 0.4000 0.1333  plane waves:     563
 k-point 113 :  -0.3333 0.4000 0.1333  plane waves:     562
 k-point 114 :  -0.2667 0.4000 0.1333  plane waves:     563
 k-point 115 :  -0.4000 0.4667 0.1333  plane waves:     571
 k-point 116 :  -0.3333 0.4667 0.1333  plane waves:     564
 k-point 117 :  -0.4000 0.4000 0.2000  plane waves:     565
 k-point 118 :  -0.3333 0.4000 0.2000  plane waves:     560
 k-point 119 :  -0.3333 0.4667 0.2000  plane waves:     561
 k-point 120 :  -0.2667 0.4667 0.2000  plane waves:     568

 maximum and minimum number of plane-waves per node :       578      537

 maximum number of plane-waves:       578
 maximum index in each direction: 
   IXMAX=    6   IYMAX=    5   IZMAX=    5
   IXMIN=   -6   IYMIN=   -6   IZMIN=   -5


 serial   3D FFT for wavefunctions
 parallel 3D FFT for charge:
    minimum data exchange during FFTs selected (reduces bandwidth)


 total amount of memory used by VASP MPI-rank0    42826. kBytes
=======================================================================

   base      :      30000. kBytes
   nonl-proj :       4463. kBytes
   fftplans  :       4177. kBytes
   grid      :       1926. kBytes
   one-center:          3. kBytes
   wavefun   :       2257. kBytes
 
     INWAV:  cpu time    0.0000: real time    0.0009
 Broyden mixing: mesh for mixing (old mesh)
   NGX = 11   NGY = 11   NGZ = 11
  (NGX  = 48   NGY  = 48   NGZ  = 48)
  gives a total of   1331 points

 initial charge density was supplied:
 charge density of overlapping atoms calculated
 number of electron       4.0000000 magnetization 
 keeping initial charge density in first step


--------------------------------------------------------------------------------------------------------


 Maximum index for augmentation-charges        66679 (set IRDMAX)


--------------------------------------------------------------------------------------------------------


 First call to EWALD:  gamma=   0.745
 Maximum number of real-space cells 3x 3x 3
 Maximum number of reciprocal cells 3x 3x 3

    FEWALD:  cpu time    0.0030: real time    0.0036


--------------------------------------- Iteration      1(   1)  ---------------------------------------


    POTLOK:  cpu time    0.0310: real time    0.0344
    SETDIJ:  cpu time    0.1910: real time    0.1910
     EDDAV:  cpu time    0.9759: real time    0.9768
       DOS:  cpu time    0.0010: real time    0.0022
    --------------------------------------------
      LOOP:  cpu time    1.1998: real time    1.2047

 eigenvalue-minimisations  :  2000
 total energy-change (2. order) :-0.1371581E+01  (-0.2233447E+03)
 number of electron       4.0000000 magnetization 
 augmentation part        4.0000000 magnetization 

 Free energy of the ion-electron system (eV)
  ---------------------------------------------------
  alpha Z        PSCENC =         2.50146407
  Ewald energy   TEWEN  =      -139.88321106
  -Hartree energ DENC   =        -0.45892987
  -exchange      EXHF   =         0.00000000
  -V(xc)+E(xc)   XCENC  =        -8.60966895
  PAW double counting   =        88.12379961      -70.53051779
  entropy T*S    EENTRO =        -0.00066268
  eigenvalues    EBANDS =        24.41952183
  atomic energy  EATOM  =       103.06662367
  Solvation  Ediel_sol  =         0.00000000
  ---------------------------------------------------
  free energy    TOTEN  =        -1.37158117 eV

  energy without entropy =       -1.37091849  energy(sigma->0) =       -1.37124983


--------------------------------------------------------------------------------------------------------




--------------------------------------- Iteration      1(   2)  ---------------------------------------


     EDDAV:  cpu time    1.3338: real time    1.3449
       DOS:  cpu time    0.0010: real time    0.0030
    --------------------------------------------
      LOOP:  cpu time    1.3348: real time    1.3479

 eigenvalue-minimisations  :  2896
 total energy-change (2. order) :-0.3497839E+01  (-0.3389668E+01)
 number of electron       4.0000000 magnetization 
 augmentation part        4.0000000 magnetization 

 Free energy of the ion-electron system (eV)
  ---------------------------------------------------
  alpha Z        PSCENC =         2.50146407
  Ewald energy   TEWEN  =      -139.88321106
  -Hartree energ DENC   =        -0.45892987
  -exchange      EXHF   =         0.00000000
  -V(xc)+E(xc)   XCENC  =        -8.60966895
  PAW double counting   =        88.12379961      -70.53051779
  entropy T*S    EENTRO =        -0.00074775
  eigenvalues    EBANDS =        20.92176776
  atomic energy  EATOM  =       103.06662367
  Solvation  Ediel_sol  =         0.00000000
  ---------------------------------------------------
  free energy    TOTEN  =        -4.86942032 eV

  energy without entropy =       -4.86867257  energy(sigma->0) =       -4.86904644


--------------------------------------------------------------------------------------------------------




--------------------------------------- Iteration      1(   3)  ---------------------------------------


     EDDAV:  cpu time    1.0308: real time    1.0415
       DOS:  cpu time    0.0020: real time    0.0019
    --------------------------------------------
      LOOP:  cpu time    1.0318: real time    1.0434

 eigenvalue-minimisations  :  2144
 total energy-change (2. order) :-0.1907637E-01  (-0.1894656E-01)
 number of electron       4.0000000 magnetization 
 augmentation part        4.0000000 magnetization 

 Free energy of the ion-electron system (eV)
  ---------------------------------------------------
  alpha Z        PSCENC =         2.50146407
  Ewald energy   TEWEN  =      -139.88321106
  -Hartree energ DENC   =        -0.45892987
  -exchange      EXHF   =         0.00000000
  -V(xc)+E(xc)   XCENC  =        -8.60966895
  PAW double counting   =        88.12379961      -70.53051779
  entropy T*S    EENTRO =        -0.00045963
  eigenvalues    EBANDS =        20.90240327
  atomic energy  EATOM  =       103.06662367
  Solvation  Ediel_sol  =         0.00000000
  ---------------------------------------------------
  free energy    TOTEN  =        -4.88849668 eV

  energy without entropy =       -4.88803705  energy(sigma->0) =       -4.88826687


--------------------------------------------------------------------------------------------------------




--------------------------------------- Iteration      1(   4)  ---------------------------------------


     EDDAV:  cpu time    1.5098: real time    1.5220
       DOS:  cpu time    0.0010: real time    0.0021
    --------------------------------------------
      LOOP:  cpu time    1.5108: real time    1.5241

 eigenvalue-minimisations  :  3288
 total energy-change (2. order) :-0.1925669E-04  (-0.1925758E-04)
 number of electron       4.0000000 magnetization 
 augmentation part        4.0000000 magnetization 

 Free energy of the ion-electron system (eV)
  ---------------------------------------------------
  alpha Z        PSCENC =         2.50146407
  Ewald energy   TEWEN  =      -139.88321106
  -Hartree energ DENC   =        -0.45892987
  -exchange      EXHF   =         0.00000000
  -V(xc)+E(xc)   XCENC  =        -8.60966895
  PAW double counting   =        88.12379961      -70.53051779
  entropy T*S    EENTRO =        -0.00045946
  eigenvalues    EBANDS =        20.90238384
  atomic energy  EATOM  =       103.06662367
  Solvation  Ediel_sol  =         0.00000000
  ---------------------------------------------------
  free energy    TOTEN  =        -4.88851594 eV

  energy without entropy =       -4.88805648  energy(sigma->0) =       -4.88828621


--------------------------------------------------------------------------------------------------------




--------------------------------------- Iteration      1(   5)  ---------------------------------------


     EDDAV:  cpu time    1.0558: real time    1.0675
       DOS:  cpu time    0.0010: real time    0.0020
    CHARGE:  cpu time    0.0880: real time    0.0882
    MIXING:  cpu time    0.0020: real time    0.0014
    --------------------------------------------
      LOOP:  cpu time    1.1468: real time    1.1591

 eigenvalue-minimisations  :  2208
 total energy-change (2. order) :-0.1106837E-07  (-0.9879108E-08)
 number of electron       4.0000000 magnetization 
 augmentation part       -0.2376456 magnetization 

 Broyden mixing:
  rms(total) = 0.30551E+00    rms(broyden)= 0.30551E+00
  rms(prec ) = 0.44567E+00
  weight for this iteration     100.00

 Free energy of the ion-electron system (eV)
  ---------------------------------------------------
  alpha Z        PSCENC =         2.50146407
  Ewald energy   TEWEN  =      -139.88321106
  -Hartree energ DENC   =        -0.45892987
  -exchange      EXHF   =         0.00000000
  -V(xc)+E(xc)   XCENC  =        -8.60966895
  PAW double counting   =        88.12379961      -70.53051779
  entropy T*S    EENTRO =        -0.00045946
  eigenvalues    EBANDS =        20.90238383
  atomic energy  EATOM  =       103.06662367
  Solvation  Ediel_sol  =         0.00000000
  ---------------------------------------------------
  free energy    TOTEN  =        -4.88851595 eV

  energy without entropy =       -4.88805650  energy(sigma->0) =       -4.88828622


--------------------------------------------------------------------------------------------------------




--------------------------------------- Iteration      1(   6)  ---------------------------------------


    POTLOK:  cpu time    0.0320: real time    0.0423
    SETDIJ:  cpu time    0.1760: real time    0.1769
     EDDAV:  cpu time    1.0878: real time    1.0885
       DOS:  cpu time    0.0020: real time    0.0019
    CHARGE:  cpu time    0.0830: real time    0.0831
    MIXING:  cpu time    0.0010: real time    0.0015
    --------------------------------------------
      LOOP:  cpu time    1.3818: real time    1.3942

 eigenvalue-minimisations  :  2288
 total energy-change (2. order) : 0.1483071E-01  (-0.3866291E-03)
 number of electron       4.0000000 magnetization 
 augmentation part       -0.2398336 magnetization 

 Broyden mixing:
  rms(total) = 0.16898E+00    rms(broyden)= 0.16898E+00
  rms(prec ) = 0.25763E+00
  weight for this iteration     100.00

 eigenvalues of (default mixing * dielectric matrix)
  average eigenvalue GAMMA=   2.2277
  2.2277

 Free energy of the ion-electron system (eV)
  ---------------------------------------------------
  alpha Z        PSCENC =         2.50146407
  Ewald energy   TEWEN  =      -139.88321106
  -Hartree energ DENC   =        -0.40097646
  -exchange      EXHF   =         0.00000000
  -V(xc)+E(xc)   XCENC  =        -8.58368491
  PAW double counting   =       182.40450587     -164.81459114
  entropy T*S    EENTRO =        -0.00049513
  eigenvalues    EBANDS =        20.83667985
  atomic energy  EATOM  =       103.06662367
  Solvation  Ediel_sol  =         0.00000000
  ---------------------------------------------------
  free energy    TOTEN  =        -4.87368524 eV

  energy without entropy =       -4.87319011  energy(sigma->0) =       -4.87343767


--------------------------------------------------------------------------------------------------------




--------------------------------------- Iteration      1(   7)  ---------------------------------------


    POTLOK:  cpu time    0.0320: real time    0.0486
    SETDIJ:  cpu time    0.1770: real time    0.1773
     EDDAV:  cpu time    1.1278: real time    1.1291
       DOS:  cpu time    0.0010: real time    0.0022
    CHARGE:  cpu time    0.0830: real time    0.0825
    MIXING:  cpu time    0.0010: real time    0.0015
    --------------------------------------------
      LOOP:  cpu time    1.4218: real time    1.4411

 eigenvalue-minimisations  :  2376
 total energy-change (2. order) : 0.8635602E-02  (-0.7944562E-03)
 number of electron       4.0000000 magnetization 
 augmentation part       -0.2430419 magnetization 

 Broyden mixing:
  rms(total) = 0.14439E-01    rms(broyden)= 0.14439E-01
  rms(prec ) = 0.19130E-01
  weight for this iteration     100.00

 eigenvalues of (default mixing * dielectric matrix)
  average eigenvalue GAMMA=   2.3849
  2.3849  2.3849

 Free energy of the ion-electron system (eV)
  ---------------------------------------------------
  alpha Z        PSCENC =         2.50146407
  Ewald energy   TEWEN  =      -139.88321106
  -Hartree energ DENC   =        -0.34946156
  -exchange      EXHF   =         0.00000000
  -V(xc)+E(xc)   XCENC  =        -8.54109820
  PAW double counting   =       368.51761011     -350.93657836
  entropy T*S    EENTRO =        -0.00054172
  eigenvalues    EBANDS =        20.76014341
  atomic energy  EATOM  =       103.06662367
  Solvation  Ediel_sol  =         0.00000000
  ---------------------------------------------------
  free energy    TOTEN  =        -4.86504964 eV

  energy without entropy =       -4.86450792  energy(sigma->0) =       -4.86477878


--------------------------------------------------------------------------------------------------------




--------------------------------------- Iteration      1(   8)  ---------------------------------------


    POTLOK:  cpu time    0.0320: real time    0.0420
    SETDIJ:  cpu time    0.1760: real time    0.1768
     EDDAV:  cpu time    1.3898: real time    1.3912
       DOS:  cpu time    0.0020: real time    0.0020
    CHARGE:  cpu time    0.0870: real time    0.0882
    MIXING:  cpu time    0.0020: real time    0.0021
    --------------------------------------------
      LOOP:  cpu time    1.6897: real time    1.7022

 eigenvalue-minimisations  :  2920
 total energy-change (2. order) : 0.4552669E-04  (-0.2720765E-05)
 number of electron       4.0000000 magnetization 
 augmentation part       -0.2431404 magnetization 

 Broyden mixing:
  rms(total) = 0.14013E-02    rms(broyden)= 0.14013E-02
  rms(prec ) = 0.23622E-02
  weight for this iteration     100.00

 eigenvalues of (default mixing * dielectric matrix)
  average eigenvalue GAMMA=   2.0172
  1.0164  2.4195  2.6157

 Free energy of the ion-electron system (eV)
  ---------------------------------------------------
  alpha Z        PSCENC =         2.50146407
  Ewald energy   TEWEN  =      -139.88321106
  -Hartree energ DENC   =        -0.35221103
  -exchange      EXHF   =         0.00000000
  -V(xc)+E(xc)   XCENC  =        -8.53666983
  PAW double counting   =       351.70672808     -334.13242897
  entropy T*S    EENTRO =        -0.00054207
  eigenvalues    EBANDS =        20.76524303
  atomic energy  EATOM  =       103.06662367
  Solvation  Ediel_sol  =         0.00000000
  ---------------------------------------------------
  free energy    TOTEN  =        -4.86500411 eV

  energy without entropy =       -4.86446205  energy(sigma->0) =       -4.86473308


--------------------------------------------------------------------------------------------------------




--------------------------------------- Iteration      1(   9)  ---------------------------------------


    POTLOK:  cpu time    0.0330: real time    0.0426
    SETDIJ:  cpu time    0.1770: real time    0.1771
     EDDAV:  cpu time    1.1958: real time    1.1966
       DOS:  cpu time    0.0010: real time    0.0020
    --------------------------------------------
      LOOP:  cpu time    1.4068: real time    1.4184

 eigenvalue-minimisations  :  2496
 total energy-change (2. order) :-0.9410792E-07  (-0.4451004E-07)
 number of electron       4.0000000 magnetization 
 augmentation part       -0.2431404 magnetization 

 Free energy of the ion-electron system (eV)
  ---------------------------------------------------
  alpha Z        PSCENC =         2.50146407
  Ewald energy   TEWEN  =      -139.88321106
  -Hartree energ DENC   =        -0.35245296
  -exchange      EXHF   =         0.00000000
  -V(xc)+E(xc)   XCENC  =        -8.53599368
  PAW double counting   =       349.98834072     -332.41475121
  entropy T*S    EENTRO =        -0.00054228
  eigenvalues    EBANDS =        20.76551853
  atomic energy  EATOM  =       103.06662367
  Solvation  Ediel_sol  =         0.00000000
  ---------------------------------------------------
  free energy    TOTEN  =        -4.86500420 eV

  energy without entropy =       -4.86446193  energy(sigma->0) =       -4.86473307


--------------------------------------------------------------------------------------------------------




 average (electrostatic) potential at core
  the test charge radii are     0.9892
  (the norm of the test charge is              1.0000)
       1 -78.9220
 
 
 
 E-fermi :  11.1176     XC(G=0): -11.4913     alpha+bet :-17.8226

 Fermi energy:        11.1176157472

 k-point     1 :       0.0000    0.0000    0.0000
  band No.  band energies     occupation 
      1      -3.9869      2.00000
      2      23.2044      0.00000
      3      23.2044      0.00000
      4      23.2044      0.00000
      5      23.3705      0.00000
      6      23.3706      0.00000
      7      23.3706      0.00000
      8      28.8750      0.00000

 k-point     2 :       0.0667    0.0000    0.0000
  band No.  band energies     occupation 
      1      -3.8509      2.00000
      2      20.6209      0.00000
      3      22.2550      0.00000
      4      22.2550      0.00000
      5      24.4938      0.00000
      6      24.4938      0.00000
      7      24.7818      0.00000
      8      29.9452      0.00000

 k-point     3 :       0.1333    0.0000    0.0000
  band No.  band energies     occupation 
      1      -3.4435      2.00000
      2      17.6255      0.00000
      3      21.4386      0.00000
      4      21.4386      0.00000
      5      25.0858      0.00000
      6      25.6792      0.00000
      7      25.6792      0.00000
      8      28.8374      0.00000

 k-point     4 :       0.2000   -0.0000    0.0000
  band No.  band energies     occupation 
      1      -2.7663      2.00000
      2      14.6546      0.00000
      3      20.8417      0.00000
      4      20.8418      0.00000
      5      25.0164      0.00000
      6      25.8558      0.00000
      7      25.8558      0.00000
      8      28.8585      0.00000

 k-point     5 :       0.2667    0.0000    0.0000
  band No.  band energies     occupation 
      1      -1.8222      2.00000
      2      11.8239      0.00000
      3      20.4639      0.00000
      4      20.4639      0.00000
      5      24.8387      0.00000
      6      24.8387      0.00000
      7      24.9293      0.00000
      8      30.3158      0.00000

 k-point     6 :       0.3333    0.0000    0.0000
  band No.  band energies     occupation 
      1      -0.6152      2.00000
      2       9.1812      2.00000
      3      20.2939      0.00000
      4      20.2939      0.00000
      5      23.7350      0.00000
      6      23.7351      0.00000
      7      24.9431      0.00000
      8      29.0720      0.00000

 k-point     7 :       0.4000    0.0000    0.0000
  band No.  band energies     occupation 
      1       0.8490      2.00000
      2       6.7523      2.00000
      3      20.2986      0.00000
      4      20.2987      0.00000
      5      22.8393      0.00000
      6      22.8393      0.00000
      7      25.0795      0.00000
      8      28.0646      0.00000

 k-point     8 :       0.4667    0.0000    0.0000
  band No.  band energies     occupation 
      1       2.5558      2.00000
      2       4.5612      2.00000
      3      20.3848      0.00000
      4      20.3848      0.00000
      5      22.2999      0.00000
      6      22.2999      0.00000
      7      25.2528      0.00000
      8      27.4424      0.00000

 k-point     9 :       0.0667    0.0667    0.0000
  band No.  band energies     occupation 
      1      -3.8056      2.00000
      2      21.1602      0.00000
      3      21.1602      0.00000
      4      22.3937      0.00000
      5      22.8006      0.00000
      6      25.6460      0.00000
      7      25.6460      0.00000
      8      28.7630      0.00000

 k-point    10 :       0.1333    0.0667    0.0000
  band No.  band energies     occupation 
      1      -3.4887      2.00000
      2      18.6864      0.00000
      3      20.2724      0.00000
      4      21.9149      0.00000
      5      23.3398      0.00000
      6      26.3901      0.00000
      7      26.8696      0.00000
      8      27.1996      0.00000

 k-point    11 :       0.2000    0.0667    0.0000
  band No.  band energies     occupation 
      1      -2.9015      2.00000
      2      15.7251      0.00000
      3      19.6092      0.00000
      4      21.3015      0.00000
      5      24.0009      0.00000
      6      26.1017      0.00000
      7      26.7946      0.00000
      8      27.4940      0.00000

 k-point    12 :       0.2667    0.0667    0.0000
  band No.  band energies     occupation 
      1      -2.0465      2.00000
      2      12.8521      0.00000
      3      19.1751      0.00000
      4      20.8169      0.00000
      5      23.2247      0.00000
      6      26.0653      0.00000
      7      26.7268      0.00000
      8      27.8852      0.00000

 k-point    13 :       0.3333    0.0667    0.0000
  band No.  band energies     occupation 
      1      -0.9272      2.00000
      2      10.1488      2.00000
      3      18.9701      0.00000
      4      20.4235      0.00000
      5      22.2121      0.00000
      6      25.6050      0.00000
      7      26.0758      0.00000
      8      29.5503      0.00000

 k-point    14 :       0.4000    0.0667    0.0000
  band No.  band energies     occupation 
      1       0.4512      2.00000
      2       7.6495      2.00000
      3      18.9914      0.00000
      4      19.9398      0.00000
      5      21.6474      0.00000
      6      24.5798      0.00000
      7      26.1338      0.00000
      8      29.3400      0.00000

 k-point    15 :       0.4667    0.0667    0.0000
  band No.  band energies     occupation 
      1       2.0801      2.00000
      2       5.3766      2.00000
      3      19.2315      0.00000
      4      19.3165      0.00000
      5      21.6631      0.00000
      6      23.7535      0.00000
      7      26.2006      0.00000
      8      28.7324      0.00000

 k-point    16 :      -0.4667    0.0667    0.0000
  band No.  band energies     occupation 
      1       3.2668      2.00000
      2       4.0285      2.00000
      3      18.7518      0.00000
      4      19.6731      0.00000
      5      22.0818      0.00000
      6      23.1722      0.00000
      7      26.1359      0.00000
      8      28.6397      0.00000

 k-point    17 :      -0.4000    0.0667    0.0000
  band No.  band energies     occupation 
      1       1.5104      2.00000
      2       6.1073      2.00000
      3      18.3612      0.00000
      4      20.2744      0.00000
      5      22.7910      0.00000
      6      22.8857      0.00000
      7      25.9360      0.00000
      8      29.0979      0.00000

 k-point    18 :      -0.3333    0.0667    0.0000
  band No.  band energies     occupation 
      1      -0.0367      2.00000
      2       8.4578      2.00000
      3      18.1835      0.00000
      4      20.9359      0.00000
      5      22.9875      0.00000
      6      23.7425      0.00000
      7      25.7559      0.00000
      8      29.9083      0.00000

 k-point    19 :      -0.2667    0.0667    0.0000
  band No.  band energies     occupation 
      1      -1.3294      2.00000
      2      11.0269      1.98968
      3      18.2327      0.00000
      4      21.5215      0.00000
      5      23.5828      0.00000
      6      24.8924      0.00000
      7      25.6770      0.00000
      8      29.6355      0.00000

 k-point    20 :      -0.2000    0.0667    0.0000
  band No.  band energies     occupation 
      1      -2.3611      2.00000
      2      13.7895      0.00000
      3      18.5139      0.00000
      4      22.0561      0.00000
      5      24.5007      0.00000
      6      25.6806      0.00000
      7      26.1325      0.00000
      8      27.8420      0.00000

 k-point    21 :      -0.1333    0.0667    0.0000
  band No.  band energies     occupation 
      1      -3.1271      2.00000
      2      16.6977      0.00000
      3      19.0309      0.00000
      4      22.6747      0.00000
      5      24.7043      0.00000
      6      25.6392      0.00000
      7      26.8684      0.00000
      8      27.3032      0.00000

 k-point    22 :      -0.0667    0.0667    0.0000
  band No.  band energies     occupation 
      1      -3.6245      2.00000
      2      19.4958      0.00000
      3      19.9225      0.00000
      4      23.3104      0.00000
      5      23.7218      0.00000
      6      25.2709      0.00000
      7      26.1178      0.00000
      8      28.4934      0.00000

 k-point    23 :       0.1333    0.1333    0.0000
  band No.  band energies     occupation 
      1      -3.2626      2.00000
      2      19.3078      0.00000
      3      19.3078      0.00000
      4      20.6513      0.00000
      5      21.7293      0.00000
      6      25.2936      0.00000
      7      28.1587      0.00000
      8      28.1587      0.00000

 k-point    24 :       0.2000    0.1333    0.0000
  band No.  band energies     occupation 
      1      -2.7661      2.00000
      2      16.9482      0.00000
      3      18.5676      0.00000
      4      20.4636      0.00000
      5      21.6730      0.00000
      6      23.9386      0.00000
      7      28.8972      0.00000
      8      29.1598      0.00000

 k-point    25 :       0.2667    0.1333    0.0000
  band No.  band energies     occupation 
      1      -2.0014      2.00000
      2      14.0942      0.00000
      3      18.0585      0.00000
      4      19.8822      0.00000
      5      21.2237      0.00000
      6      24.5013      0.00000
      7      28.8008      0.00000
      8      29.0687      0.00000

 k-point    26 :       0.3333    0.1333    0.0000
  band No.  band energies     occupation 
      1      -0.9716      2.00000
      2      11.3517      0.00000
      3      17.7819      0.00000
      4      19.0318      0.00000
      5      20.5405      0.00000
      6      26.1351      0.00000
      7      27.7578      0.00000
      8      29.2168      0.00000

 k-point    27 :       0.4000    0.1333    0.0000
  band No.  band energies     occupation 
      1       0.3188      2.00000
      2       8.7932      2.00000
      3      17.7378      0.00000
      4      18.0096      0.00000
      5      20.3472      0.00000
      6      26.7098      0.00000
      7      27.5565      0.00000
      8      29.8756      0.00000

 k-point    28 :       0.4667    0.1333    0.0000
  band No.  band energies     occupation 
      1       1.8631      2.00000
      2       6.4492      2.00000
      3      17.0777      0.00000
      4      17.9242      0.00000
      5      20.5081      0.00000
      6      25.8154      0.00000
      7      27.9997      0.00000
      8      31.3038      0.00000

 k-point    29 :      -0.4667    0.1333    0.0000
  band No.  band energies     occupation 
      1       3.6190      2.00000
      2       4.3717      2.00000
      3      16.3387      0.00000
      4      18.3374      0.00000
      5      20.9495      0.00000
      6      25.1272      0.00000
      7      27.8882      0.00000
      8      31.3711      0.00000

 k-point    30 :      -0.4000    0.1333    0.0000
  band No.  band energies     occupation 
      1       2.4323      2.00000
      2       5.7177      2.00000
      3      15.8247      0.00000
      4      18.9698      0.00000
      5      21.6462      0.00000
      6      24.6701      0.00000
      7      27.6093      0.00000
      8      31.7279      0.00000

 k-point    31 :      -0.3333    0.1333    0.0000
  band No.  band energies     occupation 
      1       0.8060      2.00000
      2       7.9818      2.00000
      3      15.5489      0.00000
      4      19.8060      0.00000
      5      22.5811      0.00000
      6      24.4619      0.00000
      7      27.3377      0.00000
      8      31.3511      0.00000

 k-point    32 :      -0.2667    0.1333    0.0000
  band No.  band energies     occupation 
      1      -0.5701      2.00000
      2      10.4633      2.00000
      3      15.5199      0.00000
      4      20.8132      0.00000
      5      23.7307      0.00000
      6      24.5197      0.00000
      7      27.1234      0.00000
      8      29.0929      0.00000

 k-point    33 :      -0.2000    0.1333    0.0000
  band No.  band energies     occupation 
      1      -1.6875      2.00000
      2      13.1192      0.00000
      3      15.7570      0.00000
      4      21.9165      0.00000
      5      24.8297      0.00000
      6      25.0450      0.00000
      7      26.8987      0.00000
      8      27.1166      0.00000

 k-point    34 :      -0.1333    0.1333    0.0000
  band No.  band energies     occupation 
      1      -2.5410      2.00000
      2      15.6325      0.00000
      3      16.5321      0.00000
      4      22.9008      0.00000
      5      24.7714      0.00000
      6      26.2829      0.00000
      7      26.3557      0.00000
      8      26.4468      0.00000

 k-point    35 :       0.2000    0.2000    0.0000
  band No.  band energies     occupation 
      1      -2.3608      2.00000
      2      17.7490      0.00000
      3      17.7490      0.00000
      4      18.9904      0.00000
      5      19.8769      0.00000
      6      22.1848      0.00000
      7      30.7042      0.00000
      8      30.7042      0.00000

 k-point    36 :       0.2667    0.2000    0.0000
  band No.  band energies     occupation 
      1      -1.6871      2.00000
      2      15.4915      0.00000
      3      17.1616      0.00000
      4      18.4952      0.00000
      5      19.3400      0.00000
      6      21.9052      0.00000
      7      30.9555      0.00000
      8      31.4737      0.00000

 k-point    37 :       0.3333    0.2000    0.0000
  band No.  band energies     occupation 
      1      -0.7481      2.00000
      2      12.7695      0.00000
      3      16.8080      0.00000
      4      17.1329      0.00000
      5      19.2626      0.00000
      6      23.2978      0.00000
      7      30.0731      0.00000
      8      31.6473      0.00000

 k-point    38 :       0.4000    0.2000    0.0000
  band No.  band energies     occupation 
      1       0.4523      2.00000
      2      10.1728      2.00000
      3      15.8575      0.00000
      4      16.6886      0.00000
      5      19.1958      0.00000
      6      25.2933      0.00000
      7      29.0519      0.00000
      8      31.5721      0.00000

 k-point    39 :       0.4667    0.2000    0.0000
  band No.  band energies     occupation 
      1       1.9082      2.00000
      2       7.7694      2.00000
      3      14.7761      0.00000
      4      16.8028      0.00000
      5      19.3454      0.00000
      6      27.4178      0.00000
      7      28.1277      0.00000
      8      31.4166      0.00000

 k-point    40 :      -0.4667    0.2000    0.0000
  band No.  band energies     occupation 
      1       3.6061      2.00000
      2       5.5925      2.00000
      3      13.9225      0.00000
      4      17.1490      0.00000
      5      19.7407      0.00000
      6      27.3803      0.00000
      7      29.0759      0.00000
      8      31.6557      0.00000

 k-point    41 :      -0.4000    0.2000    0.0000
  band No.  band energies     occupation 
      1       3.6090      2.00000
      2       5.5849      2.00000
      3      13.3119      0.00000
      4      17.7243      0.00000
      5      20.3835      0.00000
      6      26.8438      0.00000
      7      29.4042      0.00000
      8      32.8894      0.00000

[...]
      7      28.2699      0.00000
      8      32.7593      0.00000

 k-point    85 :      -0.4000    0.2667    0.0667
  band No.  band energies     occupation 
      1       4.6653      2.00000
      2       5.3961      2.00000
      3      12.4874      0.00000
      4      15.4658      0.00000
      5      20.9927      0.00000
      6      27.0872      0.00000
      7      29.8078      0.00000
      8      32.0973      0.00000

 k-point    86 :      -0.3333    0.2667    0.0667
  band No.  band energies     occupation 
      1       3.4837      2.00000
      2       6.7230      2.00000
      3      11.9656      0.00000
      4      16.1466      0.00000
      5      21.6850      0.00000
      6      26.6515      0.00000
      7      30.6107      0.00000
      8      31.4868      0.00000

 k-point    87 :      -0.2667    0.2667    0.0667
  band No.  band energies     occupation 
      1       1.8657      2.00000
      2       8.9202      2.00000
      3      11.7332      0.00000
      4      17.0636      0.00000
      5      22.5898      0.00000
      6      26.3717      0.00000
      7      28.6056      0.00000
      8      31.4323      0.00000

 k-point    88 :      -0.2000    0.2667    0.0667
  band No.  band energies     occupation 
      1       0.4969      2.00000
      2      10.9450      2.00000
      3      12.1401      0.00000
      4      18.2031      0.00000
      5      23.6605      0.00000
      6      25.9332      0.00000
      7      26.8474      0.00000
      8      30.6490      0.00000

 k-point    89 :       0.4000    0.3333    0.0667
  band No.  band energies     occupation 
      1       0.6738      2.00000
      2      13.5940      0.00000
      3      13.6324      0.00000
      4      14.5493      0.00000
      5      18.7890      0.00000
      6      20.7509      0.00000
      7      32.2329      0.00000
      8      35.1114      0.00000

 k-point    90 :       0.4667    0.3333    0.0667
  band No.  band energies     occupation 
      1       1.8638      2.00000
      2      11.4211      0.00000
      3      12.2873      0.00000
      4      14.0935      0.00000
      5      19.3515      0.00000
      6      22.1967      0.00000
      7      31.3807      0.00000
      8      35.3404      0.00000

 k-point    91 :      -0.4667    0.3333    0.0667
  band No.  band energies     occupation 
      1       3.3048      2.00000
      2       9.0966      2.00000
      3      11.1638      0.19191
      4      14.1775      0.00000
      5      19.6312      0.00000
      6      24.4442      0.00000
      7      30.5269      0.00000
      8      34.7252      0.00000

 k-point    92 :      -0.4000    0.3333    0.0667
  band No.  band energies     occupation 
      1       4.9796      2.00000
      2       6.9511      2.00000
      3      10.2971      2.00000
      4      14.5335      0.00000
      5      20.0539      0.00000
      6      26.9115      0.00000
      7      29.8401      0.00000
      8      33.3491      0.00000

 k-point    93 :      -0.3333    0.3333    0.0667
  band No.  band energies     occupation 
      1       4.9998      2.00000
      2       6.8789      2.00000
      3       9.7247      2.00000
      4      15.1388      0.00000
      5      20.6902      0.00000
      6      28.8071      0.00000
      7      29.8693      0.00000
      8      31.2966      0.00000

 k-point    94 :      -0.2667    0.3333    0.0667
  band No.  band energies     occupation 
      1       3.3116      2.00000
      2       8.5765      2.00000
      3       9.8141      2.00000
      4      15.9853      0.00000
      5      21.5447      0.00000
      6      28.5411      0.00000
      7      28.8992      0.00000
      8      32.0653      0.00000

 k-point    95 :       0.4667    0.4000    0.0667
  band No.  band energies     occupation 
      1       2.6059      2.00000
      2      10.4755      2.00000
      3      12.9647      0.00000
      4      13.8631      0.00000
      5      18.1179      0.00000
      6      20.1279      0.00000
      7      33.8463      0.00000
      8      37.1295      0.00000

 k-point    96 :      -0.4667    0.4000    0.0667
  band No.  band energies     occupation 
      1       3.9453      2.00000
      2       9.2600      2.00000
      3      10.9465      2.00000
      4      13.5928      0.00000
      5      18.8543      0.00000
      6      21.7461      0.00000
      7      33.1180      0.00000
      8      36.1932      0.00000

 k-point    97 :      -0.4000    0.4000    0.0667
  band No.  band energies     occupation 
      1       5.4932      2.00000
      2       8.2950      2.00000
      3       8.8223      2.00000
      4      13.8473      0.00000
      5      19.3052      0.00000
      6      24.1643      0.00000
      7      32.3906      0.00000
      8      34.2171      0.00000

 k-point    98 :      -0.3333    0.4000    0.0667
  band No.  band energies     occupation 
      1       6.7442      2.00000
      2       6.8814      2.00000
      3       8.1241      2.00000
      4      14.3693      0.00000
      5      19.8946      0.00000
      6      26.8154      0.00000
      7      31.6782      0.00000
      8      31.8654      0.00000

 k-point    99 :      -0.4667    0.4667    0.0667
  band No.  band energies     occupation 
      1       4.8061      2.00000
      2       7.6562      2.00000
      3      12.6302      0.00000
      4      13.5356      0.00000
      5      17.7810      0.00000
      6      19.8140      0.00000
      7      35.4284      0.00000
      8      37.0035      0.00000

 k-point   100 :      -0.4000    0.4667    0.0667
  band No.  band energies     occupation 
      1       5.8639      2.00000
      2       7.0351      2.00000
      3      10.7738      2.00000
      4      13.4278      0.00000
      5      18.6879      0.00000
      6      21.5944      0.00000
      7      34.7117      0.00000
      8      35.1136      0.00000

 k-point   101 :       0.4000    0.2667    0.1333
  band No.  band energies     occupation 
      1      -0.3916      2.00000
      2      12.6302      0.00000
      3      13.7162      0.00000
      4      17.5337      0.00000
      5      22.7289      0.00000
      6      23.9444      0.00000
      7      27.5753      0.00000
      8      31.7752      0.00000

 k-point   102 :       0.4667    0.2667    0.1333
  band No.  band energies     occupation 
      1       0.8068      2.00000
      2      10.4405      2.00000
      3      13.1878      0.00000
      4      16.2232      0.00000
      5      23.1011      0.00000
      6      25.2598      0.00000
      7      26.7852      0.00000
      8      32.3592      0.00000

 k-point   103 :      -0.4667    0.2667    0.1333
  band No.  band energies     occupation 
      1       2.2602      2.00000
      2       8.0887      2.00000
      3      13.2551      0.00000
      4      15.1362      0.00000
      5      23.2401      0.00000
      6      25.2080      0.00000
      7      28.1085      0.00000
      8      32.4641      0.00000

 k-point   104 :      -0.4000    0.2667    0.1333
  band No.  band energies     occupation 
      1       3.9559      2.00000
      2       5.9283      2.00000
      3      13.5727      0.00000
      4      14.3177      0.00000
      5      23.4530      0.00000
      6      24.6402      0.00000
      7      30.2527      0.00000
      8      31.9221      0.00000

 k-point   105 :       0.4667    0.3333    0.1333
  band No.  band energies     occupation 
      1       1.2043      2.00000
      2      11.6213      0.00000
      3      12.7159      0.00000
      4      14.1967      0.00000
      5      21.7679      0.00000
      6      23.1690      0.00000
      7      28.9122      0.00000
      8      34.5908      0.00000

 k-point   106 :      -0.4667    0.3333    0.1333
  band No.  band energies     occupation 
      1       2.5662      2.00000
      2       9.5936      2.00000
      3      12.3110      0.00000
      4      13.0305      0.00000
      5      22.3554      0.00000
      6      24.8717      0.00000
      7      28.0169      0.00000
      8      34.6203      0.00000

 k-point   107 :      -0.4000    0.3333    0.1333
  band No.  band energies     occupation 
      1       4.1738      2.00000
      2       7.4049      2.00000
      3      11.9449      0.00000
      4      12.6823      0.00000
      5      22.7129      0.00000
      6      26.4823      0.00000
      7      27.9656      0.00000
      8      33.0337      0.00000

 k-point   108 :      -0.3333    0.3333    0.1333
  band No.  band energies     occupation 
      1       5.3630      2.00000
      2       6.0572      2.00000
      3      11.2881      0.00000
      4      13.1684      0.00000
      5      23.2255      0.00000
      6      26.2235      0.00000
      7      29.7739      0.00000
      8      31.0821      0.00000

 k-point   109 :      -0.2667    0.3333    0.1333
  band No.  band energies     occupation 
      1       3.6147      2.00000
      2       8.0695      2.00000
      3      10.8931      2.00000
      4      13.9415      0.00000
      5      23.9027      0.00000
      6      25.8094      0.00000
      7      28.1906      0.00000
      8      32.5976      0.00000

 k-point   110 :      -0.2000    0.3333    0.1333
  band No.  band energies     occupation 
      1       2.0852      2.00000
      2       9.9315      2.00000
      3      11.1417      0.49529
      4      14.9648      0.00000
      5      24.6225      0.00000
      6      25.0435      0.00000
      7      26.6060      0.00000
      8      33.8228      0.00000

 k-point   111 :      -0.4667    0.4000    0.1333
  band No.  band energies     occupation 
      1       3.1307      2.00000
      2      10.9474      2.00000
      3      10.9476      2.00000
      4      12.1558      0.00000
      5      21.1148      0.00000
      6      22.6185      0.00000
      7      30.5604      0.00000
      8      35.7885      0.00000

 k-point   112 :      -0.4000    0.4000    0.1333
  band No.  band energies     occupation 
      1       4.6386      2.00000
      2       9.0708      2.00000
      3       9.9568      2.00000
      4      11.9082      0.00000
      5      21.8893      0.00000
      6      24.5170      0.00000
      7      29.7453      0.00000
      8      33.7363      0.00000

 k-point   113 :      -0.3333    0.4000    0.1333
  band No.  band energies     occupation 
      1       6.3380      2.00000
      2       7.0648      2.00000
      3       9.2133      2.00000
      4      12.3044      0.00000
      5      22.4227      0.00000
      6      26.9212      0.00000
      7      29.0878      0.00000
      8      31.3371      0.00000

 k-point   114 :      -0.2667    0.4000    0.1333
  band No.  band energies     occupation 
      1       5.2136      2.00000
      2       7.8989      2.00000
      3       9.1300      2.00000
      4      12.9940      0.00000
      5      23.1030      0.00000
      6      27.9727      0.00000
      7      28.3494      0.00000
      8      30.6170      0.00000

 k-point   115 :      -0.4000    0.4667    0.1333
  band No.  band energies     occupation 
      1       5.3223      2.00000
      2       8.1674      2.00000
      3      10.6101      2.00000
      4      11.7917      0.00000
      5      20.7856      0.00000
      6      22.3346      0.00000
      7      32.4202      0.00000
      8      34.3362      0.00000

 k-point   116 :      -0.3333    0.4667    0.1333
  band No.  band energies     occupation 
      1       6.5423      2.00000
      2       7.7126      2.00000
      3       8.9407      2.00000
      4      11.7323      0.00000
      5      21.7318      0.00000
      6      24.3892      0.00000
      7      31.4204      0.00000
      8      32.0827      0.00000

 k-point   117 :      -0.4000    0.4000    0.2000
  band No.  band energies     occupation 
      1       4.0020      2.00000
      2       9.2550      2.00000
      3      10.4451      2.00000
      4      11.8777      0.00000
      5      24.4182      0.00000
      6      25.1117      0.00000
      7      27.2953      0.00000
      8      33.2259      0.00000

 k-point   118 :      -0.3333    0.4000    0.2000
  band No.  band energies     occupation 
      1       5.6713      2.00000
      2       7.5583      2.00000
      3      10.3335      2.00000
      4      11.0458      1.95790
      5      24.9621      0.00000
      6      25.9783      0.00000
      7      27.8464      0.00000
      8      30.8754      0.00000

 k-point   119 :      -0.3333    0.4667    0.2000
  band No.  band energies     occupation 
      1       6.1794      2.00000
      2       8.9166      2.00000
      3       8.9840      2.00000
      4      10.2109      2.00000
      5      24.1001      0.00000
      6      25.0687      0.00000
      7      28.9204      0.00000
      8      31.3028      0.00000

 k-point   120 :      -0.2667    0.4667    0.2000
  band No.  band energies     occupation 
      1       7.3652      2.00000
      2       7.5600      2.00000
      3       8.7628      2.00000
      4      10.2772      2.00000
      5      24.9828      0.00000
      6      26.9603      0.00000
      7      27.6747      0.00000
      8      29.6509      0.00000


--------------------------------------------------------------------------------------------------------


 soft charge-density along one line, spin component           1
         0         1         2         3         4         5         6         7         8         9
 total charge-density along one line
 
 pseudopotential strength for first ion, spin component:           1
 17.856  24.910   0.000   0.000   0.000   0.000   0.000   0.000
 24.910  34.754   0.000   0.000   0.000   0.000   0.000   0.000
  0.000   0.000   4.081   0.000   0.000   7.601   0.000   0.000
  0.000   0.000   0.000   4.081   0.000   0.000   7.601   0.000
  0.000   0.000   0.000   0.000   4.081   0.000   0.000   7.601
  0.000   0.000   7.601   0.000   0.000  14.169   0.000   0.000
  0.000   0.000   0.000   7.601   0.000   0.000  14.169   0.000
  0.000   0.000   0.000   0.000   7.601   0.000   0.000  14.169
 total augmentation occupancy for first ion, spin component:           1
  5.438  -2.375   0.000   0.000   0.000   0.000   0.000   0.000
 -2.375   1.486   0.000   0.000   0.000   0.000   0.000   0.000
  0.000   0.000   2.552  -0.000  -0.000  -0.628   0.000   0.000
  0.000   0.000  -0.000   2.552  -0.000   0.000  -0.628   0.000
  0.000   0.000  -0.000  -0.000   2.552   0.000   0.000  -0.628
  0.000   0.000  -0.628   0.000   0.000   0.170  -0.000  -0.000
  0.000   0.000   0.000  -0.628   0.000  -0.000   0.170  -0.000
  0.000   0.000   0.000   0.000  -0.628  -0.000  -0.000   0.170


------------------------ aborting loop because EDIFF is reached ----------------------------------------


    CHARGE:  cpu time    0.0820: real time    0.0827
    FORLOC:  cpu time    0.0010: real time    0.0014
    FORNL :  cpu time    0.1420: real time    0.1422
    STRESS:  cpu time    0.9898: real time    0.9901
    FORCOR:  cpu time    0.0310: real time    0.0307
    FORHAR:  cpu time    0.0050: real time    0.0060
    MIXING:  cpu time    0.0000: real time    0.0012
    OFIELD:  cpu time    0.0010: real time    0.0002

  FORCE on cell =-STRESS in cart. coord.  units (eV):
  Direction    XX          YY          ZZ          XY          YZ          ZX
  --------------------------------------------------------------------------------------
  Alpha Z     2.50146     2.50146     2.50146
  Ewald     -46.62774   -46.62774   -46.62774     0.00000     0.00001     0.00001
  Hartree     0.11747     0.11747     0.11747     0.00000     0.00000     0.00000
  E(xc)     -12.93315   -12.93315   -12.93315     0.00000    -0.00000    -0.00000
  Local      -4.33925    -4.33925    -4.33925     0.00000     0.00000     0.00000
  n-local    35.69877    38.55552    40.71413    -0.06118     0.08752    -0.19930
  augment    -6.18853    -6.18853    -6.18853    -0.00000    -0.00000    -0.00000
  Kinetic    54.49443    28.15327     6.44907    -4.44958     2.20664    -0.30360
  Fock        0.00000     0.00000     0.00000     0.00000     0.00000     0.00000
  -------------------------------------------------------------------------------------
  Total       0.55199     0.55199     0.55199     0.00000    -0.00000    -0.00000
  in kB      65.71812    65.71811    65.71811     0.00000    -0.00002    -0.00003
  external pressure =       65.72 kB  Pullay stress =        0.00 kB


 VOLUME and BASIS-vectors are now :
 -----------------------------------------------------------------------------
  energy-cutoff  :      700.00
  volume of cell :       13.46
      direct lattice vectors                 reciprocal lattice vectors
     2.312184075  0.000000000  1.334938980     0.432491518 -0.152908858  0.000000000
     0.770728025  2.179947825  1.334938980     0.000000000  0.458726575  0.000000000
     0.000000000  0.000000000  2.669879930    -0.216245599 -0.152908746  0.374548679

  length of vectors
     2.669879637  2.669879452  2.669879930     0.458726533  0.458726575  0.458726451


 FORCES acting on ions
    electron-ion (+dipol)            ewald-force                    non-local-force                 convergence-correction
 -----------------------------------------------------------------------------------------------
   -.696E-15 -.326E-15 0.314E-15   -.112E-15 -.961E-16 0.955E-17   -.455E-23 0.000E+00 0.331E-23   -.507E-17 -.103E-16 -.163E-18
 -----------------------------------------------------------------------------------------------
   -.696E-15 -.326E-15 0.314E-15   -.112E-15 -.961E-16 0.955E-17   -.455E-23 0.000E+00 0.331E-23   -.507E-17 -.103E-16 -.163E-18
 
 
 POSITION                                       TOTAL-FORCE (eV/Angst)
 -----------------------------------------------------------------------------------
      0.00000      0.00000      0.00000        -0.000000      0.000000     -0.000000
 -----------------------------------------------------------------------------------
    total drift:                               -0.000000     -0.000000      0.000000


--------------------------------------------------------------------------------------------------------



  FREE ENERGIE OF THE ION-ELECTRON SYSTEM (eV)
  ---------------------------------------------------
  free  energy   TOTEN  =        -4.86500420 eV

  energy  without entropy=       -4.86446193  energy(sigma->0) =       -4.86473307
 


--------------------------------------------------------------------------------------------------------


    POTLOK:  cpu time    0.2100: real time    0.2164


--------------------------------------------------------------------------------------------------------




--------------------------------------------------------------------------------------------------------


  
 reached required accuracy - stopping structural energy minimisation
     LOOP+:  cpu time   13.8009: real time   14.0308
    4ORBIT:  cpu time    0.0000: real time    0.0000

 total amount of memory used by VASP MPI-rank0    42826. kBytes
=======================================================================

   base      :      30000. kBytes
   nonl-proj :       4463. kBytes
   fftplans  :       4177. kBytes
   grid      :       1926. kBytes
   one-center:          3. kBytes
   wavefun   :       2257. kBytes
 
  
  
 General timing and accounting informations for this job:
 ========================================================
  
                  Total CPU time used (sec):       14.742
                            User time (sec):       14.444
                          System time (sec):        0.298
                         Elapsed time (sec):       15.723
  
                   Maximum memory used (kb):       88652.
                   Average memory used (kb):          N/A
  
                          Minor page faults:        16717
                          Major page faults:            1
                 Voluntary context switches:        14725
