unknown system                          
           1
     2.312184    0.000000    1.334939
     0.770728    2.179948    1.334939
     0.000000    0.000000    2.669880
   Si
     1
Direct configuration=     1
   0.00000000  0.00000000  0.00000000
