Automatically generated mesh
      10
Reciprocal lattice
    0.12500000000000    0.12500000000000    0.12500000000000             2
   -0.12500000000000    0.12500000000000    0.12500000000000             6
    0.37500000000000    0.12500000000000    0.12500000000000             6
   -0.12500000000000    0.37500000000000    0.12500000000000            12
   -0.37500000000000    0.12500000000000    0.12500000000000             6
    0.37500000000000    0.37500000000000    0.12500000000000             6
   -0.37500000000000    0.37500000000000    0.12500000000000            12
   -0.12500000000000    0.37500000000000    0.37500000000000             6
    0.37500000000000    0.37500000000000    0.37500000000000             2
   -0.37500000000000    0.37500000000000    0.37500000000000             6
