   1   1   0   0
  0.1449624E+02  0.2660474E-09  0.2660474E-09  0.2660474E-09  0.5000000E-15
  1.000000000000000E-004
  CAR 
 unknown system                          
     36.10625997     -6.22633336  301      9.93921274      1.00000000
     -6.226  0.0000E+00  0.0000E+00
     -6.085  0.0000E+00  0.0000E+00
     -5.944  0.0000E+00  0.0000E+00
     -5.803  0.0000E+00  0.0000E+00
     -5.662  0.0000E+00  0.0000E+00
     -5.521  0.0000E+00  0.0000E+00
     -5.380  0.0000E+00  0.0000E+00
     -5.239  0.0000E+00  0.0000E+00
     -5.097  0.0000E+00  0.0000E+00
     -4.956  0.0000E+00  0.0000E+00
     -4.815  0.0000E+00  0.0000E+00
     -4.674  0.0000E+00  0.0000E+00
     -4.533  0.3479E-14  0.4909E-15
     -4.392  0.5905E-06  0.8333E-07
     -4.251  0.9809E-04  0.1392E-04
     -4.110  0.6112E-04  0.2255E-04
     -3.969  0.1209E-02  0.1932E-03
     -3.827  0.1304E-03  0.2116E-03
     -3.686  0.5231E-03  0.2854E-03
     -3.545  0.1189E-02  0.4532E-03
     -3.404  0.1368E-02  0.6462E-03
     -3.263  0.9865E-03  0.7854E-03
     -3.122  0.3115E-03  0.8294E-03
     -2.981  0.2391E-02  0.1167E-02
     -2.840  0.1952E-03  0.1194E-02
     -2.699  0.7939E-03  0.1306E-02
     -2.558  0.1263E-02  0.1485E-02
     -2.416  0.3852E-02  0.2028E-02
     -2.275  0.3664E-03  0.2080E-02
     -2.134  0.2814E-03  0.2120E-02
     -1.993  0.3271E-02  0.2581E-02
     -1.852  0.6082E-03  0.2667E-02
     -1.711  0.2438E-02  0.3011E-02
     -1.570  0.3873E-03  0.3066E-02
     -1.429  0.2229E-02  0.3380E-02
     -1.288  0.1038E-02  0.3527E-02
     -1.146  0.1527E-02  0.3742E-02
     -1.005  0.5737E-02  0.4552E-02
     -0.864  0.1927E-02  0.4823E-02
     -0.723  0.1216E-07  0.4823E-02
     -0.582  0.3626E-03  0.4875E-02
     -0.441  0.4719E-02  0.5540E-02
     -0.300  0.4199E-03  0.5600E-02
     -0.159  0.8883E-03  0.5725E-02
     -0.018  0.3401E-02  0.6205E-02
      0.124  0.1724E-02  0.6448E-02
      0.265  0.2914E-02  0.6860E-02
      0.406  0.6519E-03  0.6952E-02
      0.547  0.7209E-02  0.7969E-02
      0.688  0.7200E-03  0.8070E-02
      0.829  0.1907E-02  0.8340E-02
      0.970  0.3281E-02  0.8803E-02
      1.111  0.1841E-02  0.9062E-02
      1.252  0.2308E-02  0.9388E-02
      1.394  0.4977E-03  0.9458E-02
      1.535  0.4804E-02  0.1014E-01
      1.676  0.2597E-03  0.1017E-01
      1.817  0.6407E-03  0.1026E-01
      1.958  0.5859E-02  0.1109E-01
      2.099  0.3105E-02  0.1153E-01
      2.240  0.2391E-02  0.1187E-01
      2.381  0.8519E-03  0.1199E-01
      2.522  0.9453E-02  0.1332E-01
      2.664  0.1919E-02  0.1359E-01
      2.805  0.3256E-02  0.1405E-01
      2.946  0.1963E-02  0.1433E-01
      3.087  0.5917E-03  0.1441E-01
      3.228  0.1162E-02  0.1457E-01
      3.369  0.2076E-02  0.1487E-01
      3.510  0.4422E-02  0.1549E-01
      3.651  0.2503E-02  0.1584E-01
      3.792  0.3180E-02  0.1629E-01
      3.933  0.4412E-02  0.1692E-01
      4.075  0.1779E-02  0.1717E-01
      4.216  0.7849E-02  0.1827E-01
      4.357  0.1368E-02  0.1847E-01
      4.498  0.2659E-04  0.1847E-01
      4.639  0.4859E-02  0.1916E-01
      4.780  0.6533E-02  0.2008E-01
      4.921  0.2029E-02  0.2036E-01
      5.062  0.4032E-02  0.2093E-01
      5.203  0.4149E-02  0.2152E-01
      5.345  0.9297E-03  0.2165E-01
      5.486  0.4332E-02  0.2226E-01
      5.627  0.2485E-02  0.2261E-01
      5.768  0.1179E-02  0.2278E-01
      5.909  0.2250E-02  0.2310E-01
      6.050  0.2998E-02  0.2352E-01
      6.191  0.6886E-02  0.2449E-01
      6.332  0.2509E-02  0.2485E-01
      6.473  0.5351E-02  0.2560E-01
      6.615  0.4075E-02  0.2618E-01
      6.756  0.3637E-02  0.2669E-01
      6.897  0.6893E-02  0.2766E-01
      7.038  0.2443E-02  0.2801E-01
      7.179  0.2298E-02  0.2833E-01
      7.320  0.4371E-02  0.2895E-01
      7.461  0.3617E-02  0.2946E-01
      7.602  0.3119E-02  0.2990E-01
      7.743  0.5272E-02  0.3064E-01
      7.885  0.4234E-02  0.3124E-01
      8.026  0.4855E-02  0.3192E-01
      8.167  0.8673E-03  0.3205E-01
      8.308  0.4245E-02  0.3265E-01
      8.449  0.3553E-02  0.3315E-01
      8.590  0.3959E-02  0.3371E-01
      8.731  0.6325E-02  0.3460E-01
      8.872  0.3574E-02  0.3510E-01
      9.013  0.4202E-02  0.3569E-01
      9.155  0.5796E-02  0.3651E-01
      9.296  0.2485E-02  0.3686E-01
      9.437  0.4638E-02  0.3752E-01
      9.578  0.1048E-02  0.3767E-01
      9.719  0.8058E-02  0.3880E-01
      9.860  0.3905E-02  0.3935E-01
     10.001  0.7430E-02  0.4040E-01
     10.142  0.7832E-02  0.4151E-01
     10.283  0.5163E-02  0.4224E-01
     10.424  0.2113E-02  0.4253E-01
     10.566  0.3854E-02  0.4308E-01
     10.707  0.3457E-02  0.4357E-01
     10.848  0.4538E-02  0.4421E-01
     10.989  0.3385E-02  0.4468E-01
     11.130  0.7307E-02  0.4571E-01
     11.271  0.5097E-03  0.4579E-01
     11.412  0.2796E-02  0.4618E-01
     11.553  0.3504E-02  0.4668E-01
     11.694  0.3182E-02  0.4712E-01
     11.836  0.6158E-02  0.4799E-01
     11.977  0.3819E-02  0.4853E-01
     12.118  0.5248E-02  0.4927E-01
     12.259  0.3916E-02  0.4983E-01
     12.400  0.5715E-02  0.5063E-01
     12.541  0.9288E-02  0.5194E-01
     12.682  0.6309E-02  0.5283E-01
     12.823  0.2643E-02  0.5321E-01
     12.964  0.1970E-04  0.5321E-01
     13.106  0.1683E-02  0.5345E-01
     13.247  0.5888E-02  0.5428E-01
     13.388  0.6203E-02  0.5515E-01
     13.529  0.4507E-02  0.5579E-01
     13.670  0.7001E-02  0.5678E-01
     13.811  0.4104E-02  0.5735E-01
     13.952  0.8631E-02  0.5857E-01
     14.093  0.4835E-02  0.5926E-01
     14.234  0.2183E-02  0.5956E-01
     14.376  0.2917E-02  0.5997E-01
     14.517  0.8316E-02  0.6115E-01
     14.658  0.6973E-02  0.6213E-01
     14.799  0.1114E-03  0.6215E-01
     14.940  0.2767E-02  0.6254E-01
     15.081  0.2357E-02  0.6287E-01
     15.222  0.4657E-02  0.6353E-01
     15.363  0.7739E-02  0.6462E-01
     15.504  0.4629E-02  0.6527E-01
     15.646  0.8611E-02  0.6649E-01
     15.787  0.7730E-02  0.6758E-01
     15.928  0.6982E-02  0.6856E-01
     16.069  0.5832E-02  0.6939E-01
     16.210  0.6807E-02  0.7035E-01
     16.351  0.1326E-02  0.7053E-01
     16.492  0.4876E-02  0.7122E-01
     16.633  0.1716E-02  0.7147E-01
     16.774  0.8168E-02  0.7262E-01
     16.915  0.6855E-02  0.7359E-01
     17.057  0.4599E-02  0.7423E-01
     17.198  0.7924E-02  0.7535E-01
     17.339  0.8577E-02  0.7656E-01
     17.480  0.6192E-02  0.7744E-01
     17.621  0.2005E-02  0.7772E-01
     17.762  0.1048E-02  0.7787E-01
     17.903  0.7380E-02  0.7891E-01
     18.044  0.8150E-02  0.8006E-01
     18.185  0.1170E-01  0.8171E-01
     18.327  0.8047E-03  0.8182E-01
     18.468  0.1060E-01  0.8332E-01
     18.609  0.2088E-02  0.8361E-01
     18.750  0.6034E-04  0.8362E-01
     18.891  0.2935E-02  0.8404E-01
     19.032  0.1794E-02  0.8429E-01
     19.173  0.6808E-03  0.8438E-01
     19.314  0.3515E-02  0.8488E-01
     19.455  0.2289E-02  0.8520E-01
     19.597  0.3347E-02  0.8568E-01
     19.738  0.6747E-02  0.8663E-01
     19.879  0.1070E-01  0.8814E-01
     20.020  0.9130E-02  0.8943E-01
     20.161  0.8498E-02  0.9063E-01
     20.302  0.9912E-02  0.9202E-01
     20.443  0.3759E-02  0.9255E-01
     20.584  0.6805E-02  0.9351E-01
     20.725  0.5865E-03  0.9360E-01
     20.867  0.5657E-02  0.9440E-01
     21.008  0.1870E-02  0.9466E-01
     21.149  0.1520E-02  0.9487E-01
     21.290  0.1052E-01  0.9636E-01
     21.431  0.1531E-01  0.9852E-01
     21.572  0.3370E-02  0.9899E-01
     21.713  0.6006E-02  0.9984E-01
     21.854  0.5154E-02  0.1006E+00
     21.995  0.3166E-02  0.1010E+00
     22.137  0.1629E-01  0.1033E+00
     22.278  0.5473E-02  0.1041E+00
     22.419  0.3428E-02  0.1046E+00
     22.560  0.4652E-02  0.1052E+00
     22.701  0.5716E-02  0.1060E+00
     22.842  0.4756E-02  0.1067E+00
     22.983  0.9110E-02  0.1080E+00
     23.124  0.8431E-02  0.1092E+00
     23.265  0.3578E-02  0.1097E+00
     23.406  0.7198E-02  0.1107E+00
     23.548  0.8614E-02  0.1119E+00
     23.689  0.2347E-02  0.1122E+00
     23.830  0.9972E-02  0.1137E+00
     23.971  0.9633E-02  0.1150E+00
     24.112  0.3462E-02  0.1155E+00
     24.253  0.1800E-03  0.1155E+00
     24.394  0.7835E-02  0.1166E+00
     24.535  0.4275E-02  0.1172E+00
     24.676  0.1048E-01  0.1187E+00
     24.818  0.9216E-03  0.1188E+00
     24.959  0.5415E-02  0.1196E+00
     25.100  0.1217E-01  0.1213E+00
     25.241  0.4768E-02  0.1220E+00
     25.382  0.4436E-02  0.1226E+00
     25.523  0.3992E-02  0.1232E+00
     25.664  0.1569E-02  0.1234E+00
     25.805  0.1812E-02  0.1237E+00
     25.946  0.5180E-02  0.1244E+00
     26.088  0.1334E-01  0.1263E+00
     26.229  0.9686E-02  0.1276E+00
     26.370  0.8939E-02  0.1289E+00
     26.511  0.3330E-02  0.1294E+00
     26.652  0.6410E-02  0.1303E+00
     26.793  0.4018E-02  0.1308E+00
     26.934  0.9117E-02  0.1321E+00
     27.075  0.7765E-02  0.1332E+00
     27.216  0.5463E-02  0.1340E+00
     27.358  0.6515E-02  0.1349E+00
     27.499  0.7502E-02  0.1360E+00
     27.640  0.6951E-02  0.1370E+00
     27.781  0.9525E-02  0.1383E+00
     27.922  0.3660E-02  0.1388E+00
     28.063  0.3759E-02  0.1394E+00
     28.204  0.2336E-02  0.1397E+00
     28.345  0.7060E-02  0.1407E+00
     28.486  0.3792E-02  0.1412E+00
     28.628  0.2650E-02  0.1416E+00
     28.769  0.5670E-02  0.1424E+00
     28.910  0.3508E-02  0.1429E+00
     29.051  0.1332E-01  0.1448E+00
     29.192  0.1640E-01  0.1471E+00
     29.333  0.9511E-02  0.1484E+00
     29.474  0.1487E-02  0.1486E+00
     29.615  0.6730E-02  0.1496E+00
     29.756  0.4411E-02  0.1502E+00
     29.897  0.1076E-01  0.1517E+00
     30.039  0.4054E-02  0.1523E+00
     30.180  0.5128E-02  0.1530E+00
     30.321  0.4277E-02  0.1536E+00
     30.462  0.3840E-02  0.1542E+00
     30.603  0.7066E-02  0.1552E+00
     30.744  0.7029E-02  0.1561E+00
     30.885  0.5502E-02  0.1569E+00
     31.026  0.2125E-02  0.1572E+00
     31.167  0.3029E-02  0.1576E+00
     31.309  0.3374E-02  0.1581E+00
     31.450  0.1780E-02  0.1584E+00
     31.591  0.5929E-07  0.1584E+00
     31.732  0.5747E-07  0.1584E+00
     31.873  0.1854E-02  0.1586E+00
     32.014  0.4916E-02  0.1593E+00
     32.155  0.1696E-02  0.1596E+00
     32.296  0.5332E-04  0.1596E+00
     32.437  0.1406E-10  0.1596E+00
     32.579  0.2984E-14  0.1596E+00
     32.720  0.1768E-05  0.1596E+00
     32.861  0.7391E-03  0.1597E+00
     33.002  0.1110E-03  0.1597E+00
     33.143  0.1330E-09  0.1597E+00
     33.284  0.0000E+00  0.1597E+00
     33.425  0.0000E+00  0.1597E+00
     33.566  0.1149E-11  0.1597E+00
     33.707  0.1791E-04  0.1597E+00
     33.849  0.6091E-03  0.1598E+00
     33.990  0.2972E-03  0.1598E+00
     34.131  0.4161E-03  0.1599E+00
     34.272  0.7847E-03  0.1600E+00
     34.413  0.4724E-05  0.1600E+00
     34.554  0.2783E-13  0.1600E+00
     34.695  0.0000E+00  0.1600E+00
     34.836  0.0000E+00  0.1600E+00
     34.977  0.0000E+00  0.1600E+00
     35.118  0.0000E+00  0.1600E+00
     35.260  0.0000E+00  0.1600E+00
     35.401  0.0000E+00  0.1600E+00
     35.542  0.0000E+00  0.1600E+00
     35.683  0.0000E+00  0.1600E+00
     35.824  0.0000E+00  0.1600E+00
     35.965  0.0000E+00  0.1600E+00
     36.106  0.0000E+00  0.1600E+00
