    1    1  100    1
  0.1449624E+02  0.2660474E-09  0.2660474E-09  0.2660474E-09  0.5000000E-15
  1.000000000000000E-004
  CAR 
 unknown system                          
      4     56      8
 
  0.0000000E+00  0.0000000E+00  0.0000000E+00  0.7513148E-03
    1       -4.302125   1.000000
    2       21.388072   0.000000
    3       21.388072   0.000000
    4       21.388072   0.000000
    5       22.515312   0.000000
    6       22.515312   0.000000
    7       22.515312   0.000000
    8       26.217257   0.000000
 
  0.9090909E-01  0.0000000E+00  0.0000000E+00  0.9015778E-02
    1       -4.048501   1.000000
    2       18.862366   0.000000
    3       19.736913   0.000000
    4       21.035241   0.000000
    5       21.742272   0.000000
    6       23.399880   0.000000
    7       24.591784   0.000000
    8       25.065611   0.000000
 
  0.1818182E+00  0.0000000E+00  0.0000000E+00  0.9015778E-02
    1       -3.289463   1.000000
    2       15.087022   0.000000
    3       18.051429   0.000000
    4       20.173803   0.000000
    5       20.307170   0.000000
    6       22.365976   0.000000
    7       25.834819   0.000000
    8       26.166115   0.000000
 
  0.2727273E+00  0.0000000E+00  0.0000000E+00  0.9015778E-02
    1       -2.030619   1.000000
    2       11.285831   0.000000
    3       16.776956   0.000000
    4       19.013394   0.000000
    5       19.235490   0.000000
    6       21.174786   0.000000
    7       26.982175   0.000000
    8       27.285642   0.000000
 
  0.3636364E+00  0.0000000E+00  0.0000000E+00  0.9015778E-02
    1       -0.281769   1.000000
    2        7.772239   1.000000
    3       15.926912   0.000000
    4       18.096717   0.000000
    5       18.514597   0.000000
    6       20.328965   0.000000
    7       28.300889   0.000000
    8       28.976902   0.000000
 
  0.4545455E+00  0.0000000E+00  0.0000000E+00  0.9015778E-02
    1        1.938014   1.000000
    2        4.656194   1.000000
    3       15.502075   0.000000
    4       17.626978   0.000000
    5       18.133505   0.000000
    6       19.892150   0.000000
    7       29.835508   0.000000
    8       30.558576   0.000000
 
  0.9090909E-01  0.9090909E-01 -0.6938894E-17  0.1803156E-01
    1       -3.542159   1.000000
    2       16.866990   0.000000
    3       17.403858   0.000000
    4       19.413213   0.000000
    5       22.103335   0.000000
    6       23.488519   0.000000
    7       24.652369   0.000000
    8       25.864401   0.000000
 
  0.1818182E+00  0.9090909E-01  0.6938894E-17  0.3606311E-01
    1       -2.533199   1.000000
    2       13.313647   0.000000
    3       15.648924   0.000000
    4       18.094960   0.000000
    5       21.429413   0.000000
    6       22.937546   0.000000
    7       25.231112   0.000000
    8       27.681758   0.000000
 
  0.2727273E+00  0.9090909E-01  0.2081668E-16  0.3606311E-01
    1       -1.029169   1.000000
    2        9.657382   1.000000
    3       14.530166   0.000000
    4       17.064606   0.000000
    5       20.519204   0.000000
    6       22.442680   0.000000
    7       26.119057   0.000000
    8       29.535627   0.000000
 
  0.3636364E+00  0.9090909E-01 -0.3469447E-16  0.3606311E-01
    1        0.957362   1.000000
    2        6.339004   1.000000
    3       13.856991   0.000000
    4       16.421676   0.000000
    5       19.900589   0.000000
    6       22.013448   0.000000
    7       27.633886   0.000000
    8       30.617465   0.000000
 
  0.4545455E+00  0.9090909E-01  0.2081668E-16  0.1803156E-01
    1        3.231970   1.000000
    2        3.615889   1.000000
    3       13.631955   0.000000
    4       16.204350   0.000000
    5       19.687657   0.000000
    6       21.851068   0.000000
    7       29.319065   0.000000
    8       29.656731   0.000000
 
  0.1818182E+00  0.1818182E+00  0.1387779E-16  0.1803156E-01
    1       -1.278934   1.000000
    2       11.784885   0.000000
    3       12.147928   0.000000
    4       16.879751   0.000000
    5       22.035406   0.000000
    6       22.945754   0.000000
    7       26.864432   0.000000
    8       27.981664   0.000000
 
  0.2727273E+00  0.1818182E+00 -0.1387779E-16  0.3606311E-01
    1        0.463670   1.000000
    2        8.475265   1.000000
    3       11.051282   0.000000
    4       16.039848   0.000000
    5       21.681351   0.000000
    6       23.744399   0.000000
    7       27.064880   0.000000
    8       29.769845   0.000000
 
  0.3636364E+00  0.1818182E+00 -0.2775558E-16  0.3606311E-01
    1        2.675886   1.000000
    2        5.379268   1.000000
    3       10.580993   0.000000
    4       15.609449   0.000000
    5       21.316058   0.000000
    6       24.613946   0.000000
    7       27.422066   0.000000
    8       29.256492   0.000000
 
  0.2727273E+00  0.2727273E+00  0.0000000E+00  0.1803156E-01
    1        2.435082   1.000000
    2        7.625864   1.000000
    3        7.920476   1.000000
    4       15.410600   0.000000
    5       22.955079   0.000000
    6       23.853378   0.000000
    7       27.732890   0.000000
    8       30.064696   0.000000
 
  0.3636364E+00  0.2727273E+00  0.2775558E-16  0.1803156E-01
    1        4.700556   1.000000
    2        5.055360   1.000000
    3        7.546822   1.000000
    4       15.196663   0.000000
    5       23.095657   0.000000
    6       25.100737   0.000000
    7       26.125228   0.000000
    8       30.912215   0.000000
 
  0.9090909E-01  0.9090909E-01  0.9090909E-01  0.6010518E-02
    1       -2.784987   1.000000
    2       15.008645   0.000000
    3       15.869266   0.000000
    4       15.869266   0.000000
    5       24.040459   0.000000
    6       24.040459   0.000000
    7       26.048638   0.000000
    8       26.048638   0.000000
 
  0.1818182E+00  0.9090909E-01  0.9090909E-01  0.1803156E-01
    1       -1.529201   1.000000
    2       11.731786   0.000000
    3       14.013078   0.000000
    4       14.565429   0.000000
    5       23.849473   0.000000
    6       24.309870   0.000000
    7       27.205033   0.000000
    8       27.374190   0.000000
 
  0.2727273E+00  0.9090909E-01  0.9090909E-01  0.1803156E-01
    1        0.215612   1.000000
    2        8.246895   1.000000
    3       13.091963   0.000000
    4       13.660751   0.000000
    5       23.443613   0.000000
    6       23.736840   0.000000
    7       28.712856   0.000000
    8       29.128980   0.000000
 
  0.3636364E+00  0.9090909E-01  0.9090909E-01  0.1803156E-01
    1        2.430723   1.000000
    2        5.140424   1.000000
    3       12.637047   0.000000
    4       13.201175   0.000000
    5       23.166201   0.000000
    6       23.388682   0.000000
    7       30.144023   0.000000
    8       30.781485   0.000000
 
 -0.9090909E-01  0.9090909E-01  0.9090909E-01  0.4507889E-02
    1       -3.795160   1.000000
    2       18.348870   0.000000
    3       18.348870   0.000000
    4       19.663519   0.000000
    5       22.542144   0.000000
    6       23.010927   0.000000
    7       24.351703   0.000000
    8       24.351703   0.000000
 
  0.1818182E+00  0.1818182E+00  0.9090909E-01  0.1803156E-01
    1       -0.032404   1.000000
    2       10.413370   0.000000
    3       10.787757   0.000000
    4       13.194776   0.000000
    5       24.915739   0.000000
    6       25.807938   0.000000
    7       27.924165   0.000000
    8       28.777904   0.000000
 
  0.2727273E+00  0.1818182E+00  0.9090909E-01  0.3606311E-01
    1        1.944886   1.000000
    2        7.293776   1.000000
    3        9.910404   0.792420
    4       12.505330   0.000000
    5       25.013806   0.000000
    6       26.371870   0.000000
    7       28.998614   0.000000
    8       30.461227   0.000000
 
  0.3636364E+00  0.1818182E+00  0.9090909E-01  0.1803156E-01
    1        4.216576   1.000000
    2        4.580203   1.000000
    3        9.671793   1.000000
    4       12.275321   0.000000
    5       24.925542   0.000000
    6       26.567651   0.000000
    7       29.891820   0.000000
    8       30.673653   0.000000
 
 -0.1818182E+00  0.1818182E+00  0.9090909E-01  0.1803156E-01
    1       -3.036984   1.000000
    2       15.213973   0.000000
    3       16.668947   0.000000
    4       18.866776   0.000000
    5       21.267399   0.000000
    6       22.094855   0.000000
    7       24.608736   0.000000
    8       26.811182   0.000000
 
  0.2727273E+00  0.2727273E+00  0.9090909E-01  0.1803156E-01
    1        4.137788   1.000000
    2        6.680406   1.000000
    3        6.980434   1.000000
    4       12.043135   0.000000
    5       26.252363   0.000000
    6       27.515752   0.000000
    7       29.170692   0.000000
    8       31.305235   0.000000
 
 -0.2727273E+00  0.2727273E+00  0.9090909E-01  0.1803156E-01
    1       -1.779661   1.000000
    2       11.495705   0.000000
    3       15.360931   0.000000
    4       17.895281   0.000000
    5       20.876722   0.000000
    6       21.323864   0.000000
    7       24.412688   0.000000
    8       29.996278   0.000000
 
 -0.1818182E+00  0.2727273E+00  0.9090909E-01  0.1803156E-01
    1       -2.030410   1.000000
    2       13.521945   0.000000
    3       13.817641   0.000000
    4       18.377618   0.000000
    5       20.117172   0.000000
    6       21.728274   0.000000
    7       26.264710   0.000000
    8       27.208168   0.000000
 
 -0.3636364E+00  0.3636364E+00  0.9090909E-01  0.1803156E-01
    1       -0.032941   1.000000
    2        8.003780   1.000000
    3       14.479299   0.000000
    4       17.081589   0.000000
    5       20.001165   0.000000
    6       21.415734   0.000000
    7       25.013591   0.000000
    8       30.316669   0.000000
 
 -0.2727273E+00  0.3636364E+00  0.9090909E-01  0.3606311E-01
    1       -0.530056   1.000000
    2       10.097299   0.000004
    3       12.544811   0.000000
    4       17.816149   0.000000
    5       20.165871   0.000000
    6       21.276744   0.000000
    7       26.001737   0.000000
    8       29.156420   0.000000
 
 -0.4545455E+00  0.4545455E+00  0.9090909E-01  0.1803156E-01
    1        2.184169   1.000000
    2        4.896136   1.000000
    3       14.036606   0.000000
    4       16.651333   0.000000
    5       19.553518   0.000000
    6       21.323535   0.000000
    7       26.541286   0.000000
    8       28.633765   0.000000
 
 -0.3636364E+00  0.4545455E+00  0.9090909E-01  0.3606311E-01
    1        1.451395   1.000000
    2        6.810231   1.000000
    3       11.853267   0.000000
    4       17.258780   0.000000
    5       19.834794   0.000000
    6       22.246568   0.000000
    7       25.496637   0.000000
    8       28.268238   0.000000
 
 -0.2727273E+00  0.4545455E+00  0.9090909E-01  0.1803156E-01
    1        1.205674   1.000000
    2        9.027956   1.000000
    3        9.304831   1.000000
    4       18.089514   0.000000
    5       20.304893   0.000000
    6       20.772020   0.000000
    7       26.651486   0.000000
    8       29.077379   0.000000
 
 -0.4545455E+00 -0.4545455E+00  0.9090909E-01  0.1803156E-01
    1        3.726962   1.000000
    2        4.091767   1.000000
    3       11.622520   0.000000
    4       17.057263   0.000000
    5       19.650677   0.000000
    6       23.034662   0.000000
    7       25.307059   0.000000
    8       27.263361   0.000000
 
 -0.3636364E+00 -0.4545455E+00  0.9090909E-01  0.3606311E-01
    1        3.408287   1.000000
    2        6.090525   1.000000
    3        8.702423   1.000000
    4       17.930632   0.000000
    5       20.187079   0.000000
    6       22.071094   0.000000
    7       24.376416   0.000000
    8       29.812767   0.000000
 
 -0.3636364E+00 -0.3636364E+00  0.9090909E-01  0.6010518E-02
    1        5.537299   1.000000
    2        6.000374   1.000000
    3        6.000374   1.000000
    4       18.008034   0.000000
    5       21.676698   0.000000
    6       22.111466   0.000000
    7       22.111466   0.000000
    8       32.820995   0.000000
 
  0.1818182E+00  0.1818182E+00  0.1818182E+00  0.6010518E-02
    1        1.699687   1.000000
    2        9.345732   1.000000
    3        9.858292   0.988954
    4        9.858292   0.988954
    5       27.562397   0.000000
    6       27.562397   0.000000
    7       29.527773   0.000000
    8       29.527773   0.000000
 
  0.2727273E+00  0.1818182E+00  0.1818182E+00  0.1803156E-01
    1        3.898476   1.000000
    2        6.578972   1.000000
    3        9.069667   1.000000
    4        9.389253   1.000000
    5       28.171923   0.000000
    6       28.469361   0.000000
    7       30.792672   0.000000
    8       31.090896   0.000000
 
 -0.1818182E+00  0.1818182E+00  0.1818182E+00  0.4507889E-02
    1       -2.281494   1.000000
    2       14.963671   0.000000
    3       14.963671   0.000000
    4       16.843823   0.000000
    5       18.559898   0.000000
    6       24.492856   0.000000
    7       26.065560   0.000000
    8       26.065561   0.000000
 
  0.2727273E+00  0.2727273E+00  0.1818182E+00  0.6010518E-02
    1        6.000516   1.000000
    2        6.507029   1.000000
    3        6.507029   1.000000
    4        9.006632   1.000000
    5       29.308014   0.000000
    6       30.521098   0.000000
    7       30.521098   0.000000
    8       32.100998   0.000000
 
 -0.2727273E+00  0.2727273E+00  0.1818182E+00  0.1803156E-01
    1       -1.028699   1.000000
    2       12.070953   0.000000
    3       13.633759   0.000000
    4       16.091446   0.000000
    5       18.051376   0.000000
    6       23.917756   0.000000
    7       26.034444   0.000000
    8       28.785411   0.000000
 
 -0.3636364E+00  0.3636364E+00  0.1818182E+00  0.1803156E-01
    1        0.711445   1.000000
    2        8.687469   1.000000
    3       12.737425   0.000000
    4       15.306806   0.000000
    5       19.218999   0.000000
    6       23.103860   0.000000
    7       24.984840   0.000000
    8       27.813208   0.000000
 
 -0.2727273E+00  0.3636364E+00  0.1818182E+00  0.1803156E-01
    1        0.464091   1.000000
    2       10.814788   0.000000
    3       11.034958   0.000000
    4       16.146129   0.000000
    5       17.223048   0.000000
    6       23.695403   0.000000
    7       26.012594   0.000000
    8       28.466243   0.000000
 
 -0.4545455E+00  0.4545455E+00  0.1818182E+00  0.1803156E-01
    1        2.919780   1.000000
    2        5.611960   1.000000
    3       12.287581   0.000000
    4       14.861262   0.000000
    5       20.777678   0.000000
    6       22.674561   0.000000
    7       23.522931   0.000000
    8       26.894075   0.000000
 
 -0.3636364E+00  0.4545455E+00  0.1818182E+00  0.3606311E-01
    1        2.434597   1.000000
    2        7.736551   1.000000
    3       10.235479   0.000000
    4       15.875794   0.000000
    5       18.395230   0.000000
    6       22.690256   0.000000
    7       23.954961   0.000000
    8       29.035441   0.000000
 
 -0.4545455E+00 -0.4545455E+00  0.1818182E+00  0.1803156E-01
    1        4.707829   1.000000
    2        5.038809   1.000000
    3       10.000905   0.040500
    4       15.679763   0.000000
    5       19.876476   0.000000
    6       21.196657   0.000000
    7       23.385508   0.000000
    8       29.008663   0.000000
 
 -0.3636364E+00 -0.4545455E+00  0.1818182E+00  0.1803156E-01
    1        4.616722   1.000000
    2        7.142743   1.000000
    3        7.396453   1.000000
    4       17.212937   0.000000
    5       18.420501   0.000000
    6       20.468186   0.000000
    7       23.336007   0.000000
    8       31.876940   0.000000
 
 -0.2727273E+00  0.2727273E+00  0.2727273E+00  0.4507889E-02
    1        0.216288   1.000000
    2       12.291163   0.000000
    3       12.291164   0.000000
    4       14.343320   0.000000
    5       15.509790   0.000000
    6       25.651544   0.000000
    7       26.927413   0.000000
    8       28.260743   0.000000
 
 -0.3636364E+00  0.3636364E+00  0.2727273E+00  0.1803156E-01
    1        1.944582   1.000000
    2        9.756467   1.000000
    3       11.387869   0.000000
    4       13.846568   0.000000
    5       15.674030   0.000000
    6       22.739634   0.000000
    7       26.674613   0.000000
    8       29.057463   0.000000
 
 -0.4545455E+00  0.4545455E+00  0.2727273E+00  0.1803156E-01
    1        4.135408   1.000000
    2        6.786653   1.000000
    3       10.934744   0.000000
    4       13.435638   0.000000
    5       17.456320   0.000000
    6       20.029451   0.000000
    7       26.277955   0.000000
    8       29.171920   0.000000
 
 -0.3636364E+00  0.4545455E+00  0.2727273E+00  0.1803156E-01
    1        3.895587   1.000000
    2        8.960616   1.000000
    3        9.157764   1.000000
    4       14.431366   0.000000
    5       15.256257   0.000000
    6       19.771679   0.000000
    7       27.015227   0.000000
    8       31.282904   0.000000
 
 -0.4545455E+00 -0.4545455E+00  0.2727273E+00  0.1803156E-01
    1        6.150702   1.000000
    2        6.439698   1.000000
    3        8.832463   1.000000
    4       14.504499   0.000000
    5       16.767542   0.000000
    6       17.461363   0.000000
    7       26.897426   0.000000
    8       31.894713   0.000000
 
 -0.3636364E+00  0.3636364E+00  0.3636364E+00  0.4507889E-02
    1        3.653330   1.000000
    2       10.480773   0.000000
    3       10.480773   0.000000
    4       12.538737   0.000000
    5       13.461773   0.000000
    6       19.542057   0.000000
    7       30.207319   0.000000
    8       31.081444   0.000000
 
 -0.4545455E+00  0.4545455E+00  0.3636364E+00  0.1803156E-01
    1        5.809077   1.000000
    2        8.351369   1.000000
    3       10.026062   0.007016
    4       12.417110   0.000000
    5       14.218892   0.000000
    6       16.667831   0.000000
    7       30.206383   0.000000
    8       32.000789   0.000000
 
 -0.4545455E+00 -0.4545455E+00  0.3636364E+00  0.6010518E-02
    1        7.907301   1.000000
    2        8.214859   1.000000
    3        8.214859   1.000000
    4       13.273484   0.000000
    5       14.267125   0.000000
    6       14.267125   0.000000
    7       30.737845   0.000000
    8       34.182051   0.000000
 
 -0.4545455E+00  0.4545455E+00  0.4545455E+00  0.4507889E-02
    1        7.866891   1.000000
    2        9.570660   1.000000
    3        9.570660   1.000000
    4       11.540220   0.000000
    5       12.435318   0.000000
    6       13.807001   0.000000
    7       33.774962   0.000000
    8       33.994387   0.000000
