 vasp.6.2.0 18Jan21 (build Aug 12 2022 13:00:08) complex                        
  
 executed on             LinuxIFC date 2024.11.05  05:51:47
 running on    4 total cores
 distrk:  each k-point on    4 cores,    1 groups
 distr:  one band on NCORE=   1 cores,    4 groups


--------------------------------------------------------------------------------------------------------


 INCAR:
   ISTART = 0            (Read existing wavefunction, if there)
   ISPIN = 1            (Non-Spin polarised DFT)
   LREAL = .FALSE.       (Projection operators: automatic)
   LWAVE = .FALSE.        (Write WAVECAR or not)
   LCHARG = .FALSE.        (Write CHGCAR or not)
   ADDGRID = .TRUE.        (Increase grid, helps GGA convergence)
   LASPH = .TRUE.        (Give more accurate total energies and band structure calculations)
   PREC = Accurate      (Accurate strictly avoids any aliasing or wrap around errors)
   ENCUT = 400          (Cut-off energy for plane wave basis set, in eV)
   ISMEAR = 0            (Gaussian smearing, metals:1)
   SIGMA = 0.05         (Smearing value in eV, metals:0.2)
   NELM = 90           (Max electronic SCF steps)
   NELMIN = 6            (Min electronic SCF steps)
   EDIFF = 1E-06        (SCF energy convergence, in eV)
   NSW = 100          (Max ionic steps)
   IBRION = 2            (Algorithm: 0-MD, 1-Quasi-New, 2-CG)
   ISIF = 3            (Stress/relaxation: 2-Ions, 3-Shape/Ions/V, 4-Shape/Ions)
   EDIFFG = -2E-03        (Ionic convergence, eV/AA)
   ISYM = 2              (Symmetry: 0\=none, 2\=GGA, 3\=hybrids)

 POTCAR:    PAW_PBE Si 05Jan2001                  
 POTCAR:    PAW_PBE Si 05Jan2001                  
   VRHFIN =Si: s2p2                                                                                 
   LEXCH  = PE                                                                                      
   EATOM  =   103.0669 eV,    7.5752 Ry                                                             
                                                                                                    
   TITEL  = PAW_PBE Si 05Jan2001                                                                    
   LULTRA =        F    use ultrasoft PP ?                                                          
   IUNSCR =        1    unscreen: 0-lin 1-nonlin 2-no                                               
   RPACOR =    1.500    partial core radius                                                         
   POMASS =   28.085; ZVAL   =    4.000    mass and valenz                                          
   RCORE  =    1.900    outmost cutoff radius                                                       
   RWIGS  =    2.480; RWIGS  =    1.312    wigner-seitz radius (au A)                               
   ENMAX  =  245.345; ENMIN  =  184.009 eV                                                          
   ICORE  =        2    local potential                                                             
   LCOR   =        T    correct aug charges                                                         
   LPAW   =        T    paw PP                                                                      
   EAUG   =  322.069                                                                                
   DEXC   =    0.000                                                                                
   RMAX   =    1.950    core radius for proj-oper                                                   
   RAUG   =    1.300    factor for augmentation sphere                                              
   RDEP   =    1.993    radius for radial grids                                                     
   RDEPT  =    1.837    core radius for aug-charge                                                  
                                                                                                    
   Atomic configuration                                                                             
    6 entries                                                                                       
     n  l   j            E        occ.                                                              
     1  0  0.50     -1785.8828   2.0000                                                             
     2  0  0.50      -139.4969   2.0000                                                             
     2  1  1.50       -95.5546   6.0000                                                             
     3  0  0.50       -10.8127   2.0000                                                             
     3  1  0.50        -4.0811   2.0000                                                             
     3  2  1.50        -4.0817   0.0000                                                             
   Description                                                                                      
     l       E           TYP  RCUT    TYP  RCUT                                                     
     0    -10.8127223     23  1.900                                                                 
     0     -7.6451159     23  1.900                                                                 
     1     -4.0811372     23  1.900                                                                 
     1      2.4879257     23  1.900                                                                 
     2     -4.0817478      7  1.900                                                                 
  local pseudopotential read in
  partial core-charges read in
  partial kinetic energy density read in
  atomic valenz-charges read in
  non local Contribution for L=           0  read in
    real space projection operators read in
  non local Contribution for L=           0  read in
    real space projection operators read in
  non local Contribution for L=           1  read in
    real space projection operators read in
  non local Contribution for L=           1  read in
    real space projection operators read in
    PAW grid and wavefunctions read in
 
   number of l-projection  operators is LMAX  =           4
   number of lm-projection operators is LMMAX =           8
 
  PAW_PBE Si 05Jan2001                  :
 energy of atom  1       EATOM= -103.0669
 kinetic energy error for atom=    0.0012 (will be added to EATOM!!)
 
 
 POSCAR: Si1
  positions in direct lattice
  velocities in cartesian coordinates
 exchange correlation table for  LEXCH =        8
   RHO(1)=    0.500       N(1)  =     2000
   RHO(2)=  100.500       N(2)  =     4000
 


--------------------------------------------------------------------------------------------------------


 ion  position               nearest neighbor table
   1  0.000  0.000  0.000-
 
  LATTYP: Found a body centered cubic cell.
 ALAT       =     3.0720510289
  
  Lattice vectors:
  
 A1 = (   1.5360255144,   1.5360255144,   1.5360255144)
 A2 = (   1.5360255144,  -1.5360255144,  -1.5360255144)
 A3 = (  -1.5360255144,   1.5360255144,  -1.5360255144)


Analysis of symmetry for initial positions (statically):
=====================================================================
 Subroutine PRICEL returns:
 Original cell was already a primitive cell.
 

 Routine SETGRP: Setting up the symmetry group for a 
 body centered cubic supercell.


 Subroutine GETGRP returns: Found 48 space group operations
 (whereof 48 operations were pure point group operations)
 out of a pool of 48 trial point group operations.


The static configuration has the point symmetry O_h .


Analysis of symmetry for dynamics (positions and initial velocities):
=====================================================================
 Subroutine PRICEL returns:
 Original cell was already a primitive cell.
 

 Routine SETGRP: Setting up the symmetry group for a 
 body centered cubic supercell.


 Subroutine GETGRP returns: Found 48 space group operations
 (whereof 48 operations were pure point group operations)
 out of a pool of 48 trial point group operations.


The dynamic configuration has the point symmetry O_h .


 Subroutine INISYM returns: Found 48 space group operations
 (whereof 48 operations are pure point group operations),
 and found     1 'primitive' translations


----------------------------------------------------------------------------------------

                                     Primitive cell                                     

  volume of cell :      14.4962

  direct lattice vectors                    reciprocal lattice vectors
     1.536025514  1.536025514  1.536025514     0.325515426  0.325515426  0.000000000
     1.536025514 -1.536025514 -1.536025514     0.325515426  0.000000000 -0.325515426
    -1.536025514  1.536025514 -1.536025514     0.000000000  0.325515426 -0.325515426

  length of vectors
     2.660474233  2.660474233  2.660474233     0.460348331  0.460348331  0.460348331

  position of ions in fractional coordinates (direct lattice)
     0.000000000  0.000000000  0.000000000

  ion indices of the primitive-cell ions
   primitive index   ion index
                 1           1

----------------------------------------------------------------------------------------

 
 
 KPOINTS: Automatic                               

Automatic generation of k-mesh.
 Grid dimensions read from file:
 generate k-points for:   11   11   11

 Generating k-lattice:

  Cartesian coordinates                     Fractional coordinates (reciprocal lattice)
     0.029592311  0.029592311  0.000000000     0.090909091  0.000000000  0.000000000
     0.029592311  0.000000000 -0.029592311     0.000000000  0.090909091  0.000000000
     0.000000000  0.029592311 -0.029592311     0.000000000  0.000000000  0.090909091

  Length of vectors
     0.041849848  0.041849848  0.041849848

  Shift w.r.t. Gamma in fractional coordinates (k-lattice)
     0.000000000  0.000000000  0.000000000

 
 Subroutine IBZKPT returns following result:
 ===========================================
 
 Found     56 irreducible k-points:
 
 Following reciprocal coordinates:
            Coordinates               Weight
  0.000000  0.000000  0.000000      1.000000
  0.090909  0.000000  0.000000     12.000000
  0.181818  0.000000  0.000000     12.000000
  0.272727  0.000000  0.000000     12.000000
  0.363636  0.000000  0.000000     12.000000
  0.454545  0.000000  0.000000     12.000000
  0.090909  0.090909 -0.000000     24.000000
  0.181818  0.090909  0.000000     48.000000
  0.272727  0.090909  0.000000     48.000000
  0.363636  0.090909 -0.000000     48.000000
  0.454545  0.090909  0.000000     24.000000
  0.181818  0.181818  0.000000     24.000000
  0.272727  0.181818 -0.000000     48.000000
  0.363636  0.181818 -0.000000     48.000000
  0.272727  0.272727  0.000000     24.000000
  0.363636  0.272727  0.000000     24.000000
  0.090909  0.090909  0.090909      8.000000
  0.181818  0.090909  0.090909     24.000000
  0.272727  0.090909  0.090909     24.000000
  0.363636  0.090909  0.090909     24.000000
 -0.090909  0.090909  0.090909      6.000000
  0.181818  0.181818  0.090909     24.000000
  0.272727  0.181818  0.090909     48.000000
  0.363636  0.181818  0.090909     24.000000
 -0.181818  0.181818  0.090909     24.000000
  0.272727  0.272727  0.090909     24.000000
 -0.272727  0.272727  0.090909     24.000000
 -0.181818  0.272727  0.090909     24.000000
 -0.363636  0.363636  0.090909     24.000000
 -0.272727  0.363636  0.090909     48.000000
 -0.454545  0.454545  0.090909     24.000000
 -0.363636  0.454545  0.090909     48.000000
 -0.272727  0.454545  0.090909     24.000000
 -0.454545 -0.454545  0.090909     24.000000
 -0.363636 -0.454545  0.090909     48.000000
 -0.363636 -0.363636  0.090909      8.000000
  0.181818  0.181818  0.181818      8.000000
  0.272727  0.181818  0.181818     24.000000
 -0.181818  0.181818  0.181818      6.000000
  0.272727  0.272727  0.181818      8.000000
 -0.272727  0.272727  0.181818     24.000000
 -0.363636  0.363636  0.181818     24.000000
 -0.272727  0.363636  0.181818     24.000000
 -0.454545  0.454545  0.181818     24.000000
 -0.363636  0.454545  0.181818     48.000000
 -0.454545 -0.454545  0.181818     24.000000
 -0.363636 -0.454545  0.181818     24.000000
 -0.272727  0.272727  0.272727      6.000000
 -0.363636  0.363636  0.272727     24.000000
 -0.454545  0.454545  0.272727     24.000000
 -0.363636  0.454545  0.272727     24.000000
 -0.454545 -0.454545  0.272727     24.000000
 -0.363636  0.363636  0.363636      6.000000
 -0.454545  0.454545  0.363636     24.000000
 -0.454545 -0.454545  0.363636      8.000000
 -0.454545  0.454545  0.454545      6.000000
 
 Following cartesian coordinates:
            Coordinates               Weight
  0.000000  0.000000  0.000000      1.000000
  0.030036  0.030036  0.000000     12.000000
  0.060072  0.060072  0.000000     12.000000
  0.090109  0.090109  0.000000     12.000000
  0.120145  0.120145  0.000000     12.000000
  0.150181  0.150181  0.000000     12.000000
  0.060072  0.030036 -0.030036     24.000000
  0.090109  0.060072 -0.030036     48.000000
  0.120145  0.090109 -0.030036     48.000000
  0.150181  0.120145 -0.030036     48.000000
  0.180217  0.150181 -0.030036     24.000000
  0.120145  0.060072 -0.060072     24.000000
  0.150181  0.090109 -0.060072     48.000000
  0.180217  0.120145 -0.060072     48.000000
  0.180217  0.090109 -0.090109     24.000000
  0.210253  0.120145 -0.090109     24.000000
  0.060072  0.060072 -0.060072      8.000000
  0.090109  0.090109 -0.060072     24.000000
  0.120145  0.120145 -0.060072     24.000000
  0.150181  0.150181 -0.060072     24.000000
  0.000000  0.000000 -0.060072      6.000000
  0.120145  0.090109 -0.090109     24.000000
  0.150181  0.120145 -0.090109     48.000000
  0.180217  0.150181 -0.090109     24.000000
  0.000000 -0.030036 -0.090109     24.000000
  0.180217  0.120145 -0.120145     24.000000
  0.000000 -0.060072 -0.120145     24.000000
  0.030036 -0.030036 -0.120145     24.000000
  0.000000 -0.090109 -0.150181     24.000000
  0.030036 -0.060072 -0.150181     48.000000
  0.000000 -0.120145 -0.180217     24.000000
  0.030036 -0.090109 -0.180217     48.000000
  0.060072 -0.060072 -0.180217     24.000000
 -0.300362 -0.120145  0.120145     24.000000
 -0.270326 -0.090109  0.120145     48.000000
 -0.240290 -0.090109  0.090109      8.000000
  0.120145  0.120145 -0.120145      8.000000
  0.150181  0.150181 -0.120145     24.000000
  0.000000  0.000000 -0.120145      6.000000
  0.180217  0.150181 -0.150181      8.000000
  0.000000 -0.030036 -0.150181     24.000000
  0.000000 -0.060072 -0.180217     24.000000
  0.030036 -0.030036 -0.180217     24.000000
  0.000000 -0.090109 -0.210253     24.000000
  0.030036 -0.060072 -0.210253     48.000000
 -0.300362 -0.090109  0.090109     24.000000
 -0.270326 -0.060072  0.090109     24.000000
  0.000000  0.000000 -0.180217      6.000000
  0.000000 -0.030036 -0.210253     24.000000
  0.000000 -0.060072 -0.240290     24.000000
  0.030036 -0.030036 -0.240290     24.000000
 -0.300362 -0.060072  0.060072     24.000000
  0.000000  0.000000 -0.240290      6.000000
  0.000000 -0.030036 -0.270326     24.000000
 -0.300362 -0.030036  0.030036      8.000000
  0.000000  0.000000 -0.300362      6.000000
 


--------------------------------------------------------------------------------------------------------




 Dimension of arrays:
   k-points           NKPTS =     56   k-points in BZ     NKDIM =     56   number of bands    NBANDS=      8
   number of dos      NEDOS =    301   number of ions     NIONS =      1
   non local maximal  LDIM  =      4   non local SUM 2l+1 LMDIM =      8
   total plane-waves  NPLWV =   5832
   max r-space proj   IRMAX =      1   max aug-charges    IRDMAX= 107797
   dimension x,y,z NGX =    18 NGY =   18 NGZ =   18
   dimension x,y,z NGXF=    36 NGYF=   36 NGZF=   36
   support grid    NGXF=    72 NGYF=   72 NGZF=   72
   ions per type =               1
   NGX,Y,Z   is equivalent  to a cutoff of  11.25, 11.25, 11.25 a.u.
   NGXF,Y,Z  is equivalent  to a cutoff of  22.50, 22.50, 22.50 a.u.

 SYSTEM =  unknown system                          
 POSCAR =  Si1                                     

 Startparameter for this run:
   NWRITE =      2    write-flag & timer
   PREC   = accura    normal or accurate (medium, high low for compatibility)
   ISTART =      0    job   : 0-new  1-cont  2-samecut
   ICHARG =      2    charge: 1-file 2-atom 10-const
   ISPIN  =      1    spin polarized calculation?
   LNONCOLLINEAR =      F non collinear calculations
   LSORBIT =      F    spin-orbit coupling
   INIWAV =      1    electr: 0-lowe 1-rand  2-diag
   LASPH  =      T    aspherical Exc in radial PAW
   METAGGA=      F    non-selfconsistent MetaGGA calc.

 Electronic Relaxation 1
   ENCUT  =  400.0 eV  29.40 Ry    5.42 a.u.   4.34  4.34  4.34*2*pi/ulx,y,z
   ENINI  =  400.0     initial cutoff
   ENAUG  =  322.1 eV  augmentation charge cutoff
   NELM   =     90;   NELMIN=  6; NELMDL= -5     # of ELM steps 
   EDIFF  = 0.1E-05   stopping-criterion for ELM
   LREAL  =      F    real-space projection
   NLSPLINE    = F    spline interpolate recip. space projectors
   LCOMPAT=      F    compatible to vasp.4.4
   GGA_COMPAT  = T    GGA compatible to vasp.4.4-vasp.4.6
   LMAXPAW     = -100 max onsite density
   LMAXMIX     =    2 max onsite mixed and CHGCAR
   VOSKOWN=      0    Vosko Wilk Nusair interpolation
   ROPT   =    0.00000
 Ionic relaxation
   EDIFFG = -.2E-02   stopping-criterion for IOM
   NSW    =    100    number of steps for IOM
   NBLOCK =      1;   KBLOCK =    100    inner block; outer block 
   IBRION =      2    ionic relax: 0-MD 1-quasi-New 2-CG
   NFREE  =      1    steps in history (QN), initial steepest desc. (CG)
   ISIF   =      3    stress and relaxation
   IWAVPR =     11    prediction:  0-non 1-charg 2-wave 3-comb
   ISYM   =      2    0-nonsym 1-usesym 2-fastsym
   LCORR  =      T    Harris-Foulkes like correction to forces

   POTIM  = 0.5000    time-step for ionic-motion
   TEIN   =    0.0    initial temperature
   TEBEG  =    0.0;   TEEND  =   0.0 temperature during run
   SMASS  =  -3.00    Nose mass-parameter (am)
   estimated Nose-frequenzy (Omega)   =  0.10E-29 period in steps = 0.13E+47 mass=  -0.162E-27a.u.
   SCALEE = 1.0000    scale energy and forces
   NPACO  =    256;   APACO  = 16.0  distance and # of slots for P.C.
   PSTRESS=    0.0 pullay stress

  Mass of Ions in am
   POMASS =  28.09
  Ionic Valenz
   ZVAL   =   4.00
  Atomic Wigner-Seitz radii
   RWIGS  =  -1.00
  virtual crystal weights 
   VCA    =   1.00
   NELECT =       4.0000    total number of electrons
   NUPDOWN=      -1.0000    fix difference up-down

 DOS related values:
   EMIN   =  10.00;   EMAX   =-10.00  energy-range for DOS
   EFERMI =   0.00
   ISMEAR =     0;   SIGMA  =   0.05  broadening in eV -4-tet -1-fermi 0-gaus

 Electronic relaxation 2 (details)
   IALGO  =     38    algorithm
   LDIAG  =      T    sub-space diagonalisation (order eigenvalues)
   LSUBROT=      F    optimize rotation matrix (better conditioning)
   TURBO    =      0    0=normal 1=particle mesh
   IRESTART =      0    0=no restart 2=restart with 2 vectors
   NREBOOT  =      0    no. of reboots
   NMIN     =      0    reboot dimension
   EREF     =   0.00    reference energy to select bands
   IMIX   =      4    mixing-type and parameters
     AMIX     =   0.40;   BMIX     =  1.00
     AMIX_MAG =   1.60;   BMIX_MAG =  1.00
     AMIN     =   0.10
     WC   =   100.;   INIMIX=   1;  MIXPRE=   1;  MAXMIX= -45

 Intra band minimization:
   WEIMIN = 0.0010     energy-eigenvalue tresh-hold
   EBREAK =  0.31E-07  absolut break condition
   DEPER  =   0.30     relativ break condition  

   TIME   =   0.40     timestep for ELM

  volume/ion in A,a.u.               =      14.50        97.83
  Fermi-wavevector in a.u.,A,eV,Ry     =   1.065802  2.014073 15.455310  1.135933
  Thomas-Fermi vector in A             =   2.201365
 
 Write flags
   LWAVE        =      F    write WAVECAR
   LDOWNSAMPLE  =      F    k-point downsampling of WAVECAR
   LCHARG       =      F    write CHGCAR
   LVTOT        =      F    write LOCPOT, total local potential
   LVHAR        =      F    write LOCPOT, Hartree potential only
   LELF         =      F    write electronic localiz. function (ELF)
   LORBIT       =      0    0 simple, 1 ext, 2 COOP (PROOUT), +10 PAW based schemes


 Dipole corrections
   LMONO  =      F    monopole corrections only (constant potential shift)
   LDIPOL =      F    correct potential (dipole corrections)
   IDIPOL =      0    1-x, 2-y, 3-z, 4-all directions 
   EPSILON=  1.0000000 bulk dielectric constant

 Exchange correlation treatment:
   GGA     =    --    GGA type
   LEXCH   =     8    internal setting for exchange type
   VOSKOWN=      0    Vosko Wilk Nusair interpolation
   LHFCALC =     F    Hartree Fock is set to
   LHFONE  =     F    Hartree Fock one center treatment
   AEXX    =    0.0000 exact exchange contribution

 Linear response parameters
   LEPSILON=     F    determine dielectric tensor
   LRPA    =     F    only Hartree local field effects (RPA)
   LNABLA  =     F    use nabla operator in PAW spheres
   LVEL    =     F    velocity operator in full k-point grid
   LINTERFAST=   F  fast interpolation
   KINTER  =     0    interpolate to denser k-point grid
   CSHIFT  =0.1000    complex shift for real part using Kramers Kronig
   OMEGAMAX=  -1.0    maximum frequency
   DEG_THRESHOLD= 0.2000000E-02 threshold for treating states as degnerate
   RTIME   =   -0.100 relaxation time in fs
  (WPLASMAI=    0.000 imaginary part of plasma frequency in eV, 0.658/RTIME)
   DFIELD  = 0.0000000 0.0000000 0.0000000 field for delta impulse in time
 
 Orbital magnetization related:
   ORBITALMAG=     F  switch on orbital magnetization
   LCHIMAG   =     F  perturbation theory with respect to B field
   DQ        =  0.001000  dq finite difference perturbation B field
   LLRAUG    =     F  two centre corrections for induced B field



--------------------------------------------------------------------------------------------------------


 conjugate gradient relaxation of ions
 charge density and potential will be updated during run
 non-spin polarized calculation
 Variant of blocked Davidson
 Davidson routine will perform the subspace rotation
 perform sub-space diagonalisation
    after iterative eigenvector-optimisation
 modified Broyden-mixing scheme, WC =      100.0
 initial mixing is a Kerker type mixing with AMIX =  0.4000 and BMIX =      1.0000
 Hartree-type preconditioning will be used
 using additional bands            6
 reciprocal scheme for non local part
 use partial core corrections
 calculate Harris-corrections to forces 
   (improved forces if not selfconsistent)
 use gradient corrections 
 use of overlap-Matrix (Vanderbilt PP)
 Gauss-broadening in eV      SIGMA  =   0.05


--------------------------------------------------------------------------------------------------------


  energy-cutoff  :      400.00
  volume of cell :       14.50
      direct lattice vectors                 reciprocal lattice vectors
     1.536025514  1.536025514  1.536025514     0.325515426  0.325515426  0.000000000
     1.536025514 -1.536025514 -1.536025514     0.325515426  0.000000000 -0.325515426
    -1.536025514  1.536025514 -1.536025514     0.000000000  0.325515426 -0.325515426

  length of vectors
     2.660474233  2.660474233  2.660474233     0.460348331  0.460348331  0.460348331


 
 k-points in units of 2pi/SCALE and weight: Automatic                               
   0.00000000  0.00000000  0.00000000       0.001
   0.03003620  0.03003620  0.00000000       0.009
   0.06007239  0.06007239  0.00000000       0.009
   0.09010859  0.09010859  0.00000000       0.009
   0.12014478  0.12014478  0.00000000       0.009
   0.15018098  0.15018098  0.00000000       0.009
   0.06007239  0.03003620 -0.03003620       0.018
   0.09010859  0.06007239 -0.03003620       0.036
   0.12014478  0.09010859 -0.03003620       0.036
   0.15018098  0.12014478 -0.03003620       0.036
   0.18021718  0.15018098 -0.03003620       0.018
   0.12014478  0.06007239 -0.06007239       0.018
   0.15018098  0.09010859 -0.06007239       0.036
   0.18021718  0.12014478 -0.06007239       0.036
   0.18021718  0.09010859 -0.09010859       0.018
   0.21025337  0.12014478 -0.09010859       0.018
   0.06007239  0.06007239 -0.06007239       0.006
   0.09010859  0.09010859 -0.06007239       0.018
   0.12014478  0.12014478 -0.06007239       0.018
   0.15018098  0.15018098 -0.06007239       0.018
   0.00000000  0.00000000 -0.06007239       0.005
   0.12014478  0.09010859 -0.09010859       0.018
   0.15018098  0.12014478 -0.09010859       0.036
   0.18021718  0.15018098 -0.09010859       0.018
   0.00000000 -0.03003620 -0.09010859       0.018
   0.18021718  0.12014478 -0.12014478       0.018
   0.00000000 -0.06007239 -0.12014478       0.018
   0.03003620 -0.03003620 -0.12014478       0.018
   0.00000000 -0.09010859 -0.15018098       0.018
   0.03003620 -0.06007239 -0.15018098       0.036
   0.00000000 -0.12014478 -0.18021718       0.018
   0.03003620 -0.09010859 -0.18021718       0.036
   0.06007239 -0.06007239 -0.18021718       0.018
  -0.30036196 -0.12014478  0.12014478       0.018
  -0.27032577 -0.09010859  0.12014478       0.036
  -0.24028957 -0.09010859  0.09010859       0.006
   0.12014478  0.12014478 -0.12014478       0.006
   0.15018098  0.15018098 -0.12014478       0.018
   0.00000000  0.00000000 -0.12014478       0.005
   0.18021718  0.15018098 -0.15018098       0.006
   0.00000000 -0.03003620 -0.15018098       0.018
   0.00000000 -0.06007239 -0.18021718       0.018
   0.03003620 -0.03003620 -0.18021718       0.018
   0.00000000 -0.09010859 -0.21025337       0.018
   0.03003620 -0.06007239 -0.21025337       0.036
  -0.30036196 -0.09010859  0.09010859       0.018
  -0.27032577 -0.06007239  0.09010859       0.018
   0.00000000  0.00000000 -0.18021718       0.005
   0.00000000 -0.03003620 -0.21025337       0.018
   0.00000000 -0.06007239 -0.24028957       0.018
   0.03003620 -0.03003620 -0.24028957       0.018
  -0.30036196 -0.06007239  0.06007239       0.018
   0.00000000  0.00000000 -0.24028957       0.005
   0.00000000 -0.03003620 -0.27032577       0.018
  -0.30036196 -0.03003620  0.03003620       0.006
   0.00000000  0.00000000 -0.30036196       0.005
 
 k-points in reciprocal lattice and weights: Automatic                               
   0.00000000  0.00000000  0.00000000       0.001
   0.09090909  0.00000000  0.00000000       0.009
   0.18181818  0.00000000  0.00000000       0.009
   0.27272727  0.00000000  0.00000000       0.009
   0.36363636  0.00000000  0.00000000       0.009
   0.45454545  0.00000000  0.00000000       0.009
   0.09090909  0.09090909 -0.00000000       0.018
   0.18181818  0.09090909  0.00000000       0.036
   0.27272727  0.09090909  0.00000000       0.036
   0.36363636  0.09090909 -0.00000000       0.036
   0.45454545  0.09090909  0.00000000       0.018
   0.18181818  0.18181818  0.00000000       0.018
   0.27272727  0.18181818 -0.00000000       0.036
   0.36363636  0.18181818 -0.00000000       0.036
   0.27272727  0.27272727  0.00000000       0.018
   0.36363636  0.27272727  0.00000000       0.018
   0.09090909  0.09090909  0.09090909       0.006
   0.18181818  0.09090909  0.09090909       0.018
   0.27272727  0.09090909  0.09090909       0.018
   0.36363636  0.09090909  0.09090909       0.018
  -0.09090909  0.09090909  0.09090909       0.005
   0.18181818  0.18181818  0.09090909       0.018
   0.27272727  0.18181818  0.09090909       0.036
   0.36363636  0.18181818  0.09090909       0.018
  -0.18181818  0.18181818  0.09090909       0.018
   0.27272727  0.27272727  0.09090909       0.018
  -0.27272727  0.27272727  0.09090909       0.018
  -0.18181818  0.27272727  0.09090909       0.018
  -0.36363636  0.36363636  0.09090909       0.018
  -0.27272727  0.36363636  0.09090909       0.036
  -0.45454545  0.45454545  0.09090909       0.018
  -0.36363636  0.45454545  0.09090909       0.036
  -0.27272727  0.45454545  0.09090909       0.018
  -0.45454545 -0.45454545  0.09090909       0.018
  -0.36363636 -0.45454545  0.09090909       0.036
  -0.36363636 -0.36363636  0.09090909       0.006
   0.18181818  0.18181818  0.18181818       0.006
   0.27272727  0.18181818  0.18181818       0.018
  -0.18181818  0.18181818  0.18181818       0.005
   0.27272727  0.27272727  0.18181818       0.006
  -0.27272727  0.27272727  0.18181818       0.018
  -0.36363636  0.36363636  0.18181818       0.018
  -0.27272727  0.36363636  0.18181818       0.018
  -0.45454545  0.45454545  0.18181818       0.018
  -0.36363636  0.45454545  0.18181818       0.036
  -0.45454545 -0.45454545  0.18181818       0.018
  -0.36363636 -0.45454545  0.18181818       0.018
  -0.27272727  0.27272727  0.27272727       0.005
  -0.36363636  0.36363636  0.27272727       0.018
  -0.45454545  0.45454545  0.27272727       0.018
  -0.36363636  0.45454545  0.27272727       0.018
  -0.45454545 -0.45454545  0.27272727       0.018
  -0.36363636  0.36363636  0.36363636       0.005
  -0.45454545  0.45454545  0.36363636       0.018
  -0.45454545 -0.45454545  0.36363636       0.006
  -0.45454545  0.45454545  0.45454545       0.005
 
 position of ions in fractional coordinates (direct lattice) 
   0.00000000  0.00000000  0.00000000
 
 position of ions in cartesian coordinates  (Angst):
   0.00000000  0.00000000  0.00000000
 


--------------------------------------------------------------------------------------------------------


 k-point   1 :   0.0000 0.0000 0.0000  plane waves:     249
 k-point   2 :   0.0909 0.0000 0.0000  plane waves:     251
 k-point   3 :   0.1818 0.0000 0.0000  plane waves:     267
 k-point   4 :   0.2727 0.0000 0.0000  plane waves:     265
 k-point   5 :   0.3636 0.0000 0.0000  plane waves:     261
 k-point   6 :   0.4545 0.0000 0.0000  plane waves:     267
 k-point   7 :   0.0909 0.0909-0.0000  plane waves:     262
 k-point   8 :   0.1818 0.0909 0.0000  plane waves:     266
 k-point   9 :   0.2727 0.0909 0.0000  plane waves:     263
 k-point  10 :   0.3636 0.0909-0.0000  plane waves:     268
 k-point  11 :   0.4545 0.0909 0.0000  plane waves:     268
 k-point  12 :   0.1818 0.1818 0.0000  plane waves:     264
 k-point  13 :   0.2727 0.1818-0.0000  plane waves:     267
 k-point  14 :   0.3636 0.1818-0.0000  plane waves:     265
 k-point  15 :   0.2727 0.2727 0.0000  plane waves:     266
 k-point  16 :   0.3636 0.2727 0.0000  plane waves:     264
 k-point  17 :   0.0909 0.0909 0.0909  plane waves:     264
 k-point  18 :   0.1818 0.0909 0.0909  plane waves:     263
 k-point  19 :   0.2727 0.0909 0.0909  plane waves:     263
 k-point  20 :   0.3636 0.0909 0.0909  plane waves:     263
 k-point  21 :  -0.0909 0.0909 0.0909  plane waves:     265
 k-point  22 :   0.1818 0.1818 0.0909  plane waves:     267
 k-point  23 :   0.2727 0.1818 0.0909  plane waves:     262
 k-point  24 :   0.3636 0.1818 0.0909  plane waves:     267
 k-point  25 :  -0.1818 0.1818 0.0909  plane waves:     264
 k-point  26 :   0.2727 0.2727 0.0909  plane waves:     262
 k-point  27 :  -0.2727 0.2727 0.0909  plane waves:     265
 k-point  28 :  -0.1818 0.2727 0.0909  plane waves:     263
 k-point  29 :  -0.3636 0.3636 0.0909  plane waves:     265
 k-point  30 :  -0.2727 0.3636 0.0909  plane waves:     265
 k-point  31 :  -0.4545 0.4545 0.0909  plane waves:     263
 k-point  32 :  -0.3636 0.4545 0.0909  plane waves:     264
 k-point  33 :  -0.2727 0.4545 0.0909  plane waves:     266
 k-point  34 :  -0.4545-0.4545 0.0909  plane waves:     266
 k-point  35 :  -0.3636-0.4545 0.0909  plane waves:     266
 k-point  36 :  -0.3636-0.3636 0.0909  plane waves:     267
 k-point  37 :   0.1818 0.1818 0.1818  plane waves:     270
 k-point  38 :   0.2727 0.1818 0.1818  plane waves:     263
 k-point  39 :  -0.1818 0.1818 0.1818  plane waves:     257
 k-point  40 :   0.2727 0.2727 0.1818  plane waves:     270
 k-point  41 :  -0.2727 0.2727 0.1818  plane waves:     258
 k-point  42 :  -0.3636 0.3636 0.1818  plane waves:     263
 k-point  43 :  -0.2727 0.3636 0.1818  plane waves:     262
 k-point  44 :  -0.4545 0.4545 0.1818  plane waves:     261
 k-point  45 :  -0.3636 0.4545 0.1818  plane waves:     262
 k-point  46 :  -0.4545-0.4545 0.1818  plane waves:     261
 k-point  47 :  -0.3636-0.4545 0.1818  plane waves:     257
 k-point  48 :  -0.2727 0.2727 0.2727  plane waves:     257
 k-point  49 :  -0.3636 0.3636 0.2727  plane waves:     256
 k-point  50 :  -0.4545 0.4545 0.2727  plane waves:     258
 k-point  51 :  -0.3636 0.4545 0.2727  plane waves:     256
 k-point  52 :  -0.4545-0.4545 0.2727  plane waves:     256
 k-point  53 :  -0.3636 0.3636 0.3636  plane waves:     261
 k-point  54 :  -0.4545 0.4545 0.3636  plane waves:     254
 k-point  55 :  -0.4545-0.4545 0.3636  plane waves:     251
 k-point  56 :  -0.4545 0.4545 0.4545  plane waves:     257

 maximum and minimum number of plane-waves per node :       270      249

 maximum number of plane-waves:       270
 maximum index in each direction: 
   IXMAX=    4   IYMAX=    4   IZMAX=    4
   IXMIN=   -4   IYMIN=   -4   IZMIN=   -4


 serial   3D FFT for wavefunctions
 parallel 3D FFT for charge:
    minimum data exchange during FFTs selected (reduces bandwidth)


 total amount of memory used by VASP MPI-rank0    34077. kBytes
=======================================================================

   base      :      30000. kBytes
   nonl-proj :        979. kBytes
   fftplans  :       1775. kBytes
   grid      :        819. kBytes
   one-center:          3. kBytes
   wavefun   :        501. kBytes
 
     INWAV:  cpu time    0.0000: real time    0.0005
 Broyden mixing: mesh for mixing (old mesh)
   NGX =  9   NGY =  9   NGZ =  9
  (NGX  = 36   NGY  = 36   NGZ  = 36)
  gives a total of    729 points

 initial charge density was supplied:
 charge density of overlapping atoms calculated
 number of electron       4.0000000 magnetization 
 keeping initial charge density in first step


--------------------------------------------------------------------------------------------------------


 Maximum index for augmentation-charges        26139 (set IRDMAX)


--------------------------------------------------------------------------------------------------------


 First call to EWALD:  gamma=   0.727
 Maximum number of real-space cells 3x 3x 3
 Maximum number of reciprocal cells 3x 3x 3

    FEWALD:  cpu time    0.0030: real time    0.0034


--------------------------------------- Iteration      1(   1)  ---------------------------------------


    POTLOK:  cpu time    0.0140: real time    0.0174
    SETDIJ:  cpu time    0.1660: real time    0.1667
     EDDAV:  cpu time    0.2820: real time    0.2822
       DOS:  cpu time    0.0010: real time    0.0013
    --------------------------------------------
      LOOP:  cpu time    0.4629: real time    0.4679

 eigenvalue-minimisations  :   968
 total energy-change (2. order) :-0.3069880E+01  (-0.1475716E+03)
 number of electron       4.0000000 magnetization 
 augmentation part        4.0000000 magnetization 

 Free energy of the ion-electron system (eV)
  ---------------------------------------------------
  alpha Z        PSCENC =         2.32219788
  Ewald energy   TEWEN  =      -136.46697043
  -Hartree energ DENC   =        -0.57152506
  -exchange      EXHF   =         0.00000000
  -V(xc)+E(xc)   XCENC  =        -8.81306897
  PAW double counting   =        88.12379961      -70.53051779
  entropy T*S    EENTRO =        -0.00132712
  eigenvalues    EBANDS =        19.80178572
  atomic energy  EATOM  =       103.06574623
  Solvation  Ediel_sol  =         0.00000000
  ---------------------------------------------------
  free energy    TOTEN  =        -3.06987992 eV

  energy without entropy =       -3.06855281  energy(sigma->0) =       -3.06921637


--------------------------------------------------------------------------------------------------------




--------------------------------------- Iteration      1(   2)  ---------------------------------------


     EDDAV:  cpu time    0.3959: real time    0.4038
       DOS:  cpu time    0.0000: real time    0.0012
    --------------------------------------------
      LOOP:  cpu time    0.3969: real time    0.4050

 eigenvalue-minimisations  :  1384
 total energy-change (2. order) :-0.1822106E+01  (-0.1801067E+01)
 number of electron       4.0000000 magnetization 
 augmentation part        4.0000000 magnetization 

 Free energy of the ion-electron system (eV)
  ---------------------------------------------------
  alpha Z        PSCENC =         2.32219788
  Ewald energy   TEWEN  =      -136.46697043
  -Hartree energ DENC   =        -0.57152506
  -exchange      EXHF   =         0.00000000
  -V(xc)+E(xc)   XCENC  =        -8.81306897
  PAW double counting   =        88.12379961      -70.53051779
  entropy T*S    EENTRO =        -0.00080498
  eigenvalues    EBANDS =        17.97915802
  atomic energy  EATOM  =       103.06574623
  Solvation  Ediel_sol  =         0.00000000
  ---------------------------------------------------
  free energy    TOTEN  =        -4.89198549 eV

  energy without entropy =       -4.89118050  energy(sigma->0) =       -4.89158300


--------------------------------------------------------------------------------------------------------




--------------------------------------- Iteration      1(   3)  ---------------------------------------


     EDDAV:  cpu time    0.2790: real time    0.2838
       DOS:  cpu time    0.0000: real time    0.0012
    --------------------------------------------
      LOOP:  cpu time    0.2790: real time    0.2850

 eigenvalue-minimisations  :   960
 total energy-change (2. order) :-0.9596549E-02  (-0.9596167E-02)
 number of electron       4.0000000 magnetization 
 augmentation part        4.0000000 magnetization 

 Free energy of the ion-electron system (eV)
  ---------------------------------------------------
  alpha Z        PSCENC =         2.32219788
  Ewald energy   TEWEN  =      -136.46697043
  -Hartree energ DENC   =        -0.57152506
  -exchange      EXHF   =         0.00000000
  -V(xc)+E(xc)   XCENC  =        -8.81306897
  PAW double counting   =        88.12379961      -70.53051779
  entropy T*S    EENTRO =        -0.00082443
  eigenvalues    EBANDS =        17.96958093
  atomic energy  EATOM  =       103.06574623
  Solvation  Ediel_sol  =         0.00000000
  ---------------------------------------------------
  free energy    TOTEN  =        -4.90158204 eV

  energy without entropy =       -4.90075760  energy(sigma->0) =       -4.90116982


--------------------------------------------------------------------------------------------------------




--------------------------------------- Iteration      1(   4)  ---------------------------------------


     EDDAV:  cpu time    0.4259: real time    0.4420
       DOS:  cpu time    0.0010: real time    0.0013
    --------------------------------------------
      LOOP:  cpu time    0.4269: real time    0.4433

 eigenvalue-minimisations  :  1504
 total energy-change (2. order) :-0.8383143E-05  (-0.8382169E-05)
 number of electron       4.0000000 magnetization 
 augmentation part        4.0000000 magnetization 

 Free energy of the ion-electron system (eV)
  ---------------------------------------------------
  alpha Z        PSCENC =         2.32219788
  Ewald energy   TEWEN  =      -136.46697043
  -Hartree energ DENC   =        -0.57152506
  -exchange      EXHF   =         0.00000000
  -V(xc)+E(xc)   XCENC  =        -8.81306897
  PAW double counting   =        88.12379961      -70.53051779
  entropy T*S    EENTRO =        -0.00082446
  eigenvalues    EBANDS =        17.96957256
  atomic energy  EATOM  =       103.06574623
  Solvation  Ediel_sol  =         0.00000000
  ---------------------------------------------------
  free energy    TOTEN  =        -4.90159042 eV

  energy without entropy =       -4.90076596  energy(sigma->0) =       -4.90117819


--------------------------------------------------------------------------------------------------------




--------------------------------------- Iteration      1(   5)  ---------------------------------------


     EDDAV:  cpu time    0.2790: real time    0.2854
       DOS:  cpu time    0.0000: real time    0.0012
    CHARGE:  cpu time    0.0250: real time    0.0248
    MIXING:  cpu time    0.0010: real time    0.0009
    --------------------------------------------
      LOOP:  cpu time    0.3040: real time    0.3124

 eigenvalue-minimisations  :   968
 total energy-change (2. order) :-0.1051603E-09  (-0.9160575E-09)
 number of electron       4.0000000 magnetization 
 augmentation part       -0.2409004 magnetization 

 Broyden mixing:
  rms(total) = 0.26117E+00    rms(broyden)= 0.26117E+00
  rms(prec ) = 0.39364E+00
  weight for this iteration     100.00

 Free energy of the ion-electron system (eV)
  ---------------------------------------------------
  alpha Z        PSCENC =         2.32219788
  Ewald energy   TEWEN  =      -136.46697043
  -Hartree energ DENC   =        -0.57152506
  -exchange      EXHF   =         0.00000000
  -V(xc)+E(xc)   XCENC  =        -8.81306897
  PAW double counting   =        88.12379961      -70.53051779
  entropy T*S    EENTRO =        -0.00082446
  eigenvalues    EBANDS =        17.96957256
  atomic energy  EATOM  =       103.06574623
  Solvation  Ediel_sol  =         0.00000000
  ---------------------------------------------------
  free energy    TOTEN  =        -4.90159042 eV

  energy without entropy =       -4.90076596  energy(sigma->0) =       -4.90117819


--------------------------------------------------------------------------------------------------------




--------------------------------------- Iteration      1(   6)  ---------------------------------------


    POTLOK:  cpu time    0.0150: real time    0.0220
    SETDIJ:  cpu time    0.1650: real time    0.1653
     EDDAV:  cpu time    0.2780: real time    0.2794
       DOS:  cpu time    0.0020: real time    0.0014
    CHARGE:  cpu time    0.0230: real time    0.0230
    MIXING:  cpu time    0.0010: real time    0.0010
    --------------------------------------------
      LOOP:  cpu time    0.4839: real time    0.4919

 eigenvalue-minimisations  :   976
 total energy-change (2. order) : 0.1131315E-01  (-0.3875611E-03)
 number of electron       4.0000000 magnetization 
 augmentation part       -0.2428896 magnetization 

 Broyden mixing:
  rms(total) = 0.14424E+00    rms(broyden)= 0.14424E+00
  rms(prec ) = 0.22760E+00
  weight for this iteration     100.00

 eigenvalues of (default mixing * dielectric matrix)
  average eigenvalue GAMMA=   2.2215
  2.2215

 Free energy of the ion-electron system (eV)
  ---------------------------------------------------
  alpha Z        PSCENC =         2.32219788
  Ewald energy   TEWEN  =      -136.46697043
  -Hartree energ DENC   =        -0.49425064
  -exchange      EXHF   =         0.00000000
  -V(xc)+E(xc)   XCENC  =        -8.79374294
  PAW double counting   =       166.20611612     -148.61446335
  entropy T*S    EENTRO =        -0.00084343
  eigenvalues    EBANDS =        17.88593330
  atomic energy  EATOM  =       103.06574623
  Solvation  Ediel_sol  =         0.00000000
  ---------------------------------------------------
  free energy    TOTEN  =        -4.89027727 eV

  energy without entropy =       -4.88943384  energy(sigma->0) =       -4.88985555


--------------------------------------------------------------------------------------------------------




--------------------------------------- Iteration      1(   7)  ---------------------------------------


    POTLOK:  cpu time    0.0140: real time    0.0303
    SETDIJ:  cpu time    0.1650: real time    0.1648
     EDDAV:  cpu time    0.2790: real time    0.2795
       DOS:  cpu time    0.0020: real time    0.0013
    CHARGE:  cpu time    0.0220: real time    0.0230
    MIXING:  cpu time    0.0010: real time    0.0009
    --------------------------------------------
      LOOP:  cpu time    0.4839: real time    0.4999

 eigenvalue-minimisations  :   976
 total energy-change (2. order) : 0.6405142E-02  (-0.7741672E-03)
 number of electron       4.0000000 magnetization 
 augmentation part       -0.2457719 magnetization 

 Broyden mixing:
  rms(total) = 0.13349E-01    rms(broyden)= 0.13349E-01
  rms(prec ) = 0.17643E-01
  weight for this iteration     100.00

 eigenvalues of (default mixing * dielectric matrix)
  average eigenvalue GAMMA=   2.4275
  2.4275  2.4275

 Free energy of the ion-electron system (eV)
  ---------------------------------------------------
  alpha Z        PSCENC =         2.32219788
  Ewald energy   TEWEN  =      -136.46697043
  -Hartree energ DENC   =        -0.41027024
  -exchange      EXHF   =         0.00000000
  -V(xc)+E(xc)   XCENC  =        -8.76155044
  PAW double counting   =       313.89937523     -296.31400008
  entropy T*S    EENTRO =        -0.00087737
  eigenvalues    EBANDS =        17.78247710
  atomic energy  EATOM  =       103.06574623
  Solvation  Ediel_sol  =         0.00000000
  ---------------------------------------------------
  free energy    TOTEN  =        -4.88387213 eV

  energy without entropy =       -4.88299476  energy(sigma->0) =       -4.88343344


--------------------------------------------------------------------------------------------------------




--------------------------------------- Iteration      1(   8)  ---------------------------------------


    POTLOK:  cpu time    0.0150: real time    0.0223
    SETDIJ:  cpu time    0.1650: real time    0.1647
     EDDAV:  cpu time    0.3599: real time    0.3610
       DOS:  cpu time    0.0010: real time    0.0013
    CHARGE:  cpu time    0.0250: real time    0.0253
    MIXING:  cpu time    0.0010: real time    0.0010
    --------------------------------------------
      LOOP:  cpu time    0.5669: real time    0.5755

 eigenvalue-minimisations  :  1280
 total energy-change (2. order) : 0.1932493E-04  (-0.3562958E-05)
 number of electron       4.0000000 magnetization 
 augmentation part       -0.2458596 magnetization 

 Broyden mixing:
  rms(total) = 0.13496E-02    rms(broyden)= 0.13496E-02
  rms(prec ) = 0.20912E-02
  weight for this iteration     100.00

 eigenvalues of (default mixing * dielectric matrix)
  average eigenvalue GAMMA=   2.0211
  0.9843  2.4051  2.6739

 Free energy of the ion-electron system (eV)
  ---------------------------------------------------
  alpha Z        PSCENC =         2.32219788
  Ewald energy   TEWEN  =      -136.46697043
  -Hartree energ DENC   =        -0.41096794
  -exchange      EXHF   =         0.00000000
  -V(xc)+E(xc)   XCENC  =        -8.75753634
  PAW double counting   =       299.86927122     -282.29035537
  entropy T*S    EENTRO =        -0.00087869
  eigenvalues    EBANDS =        17.78564064
  atomic energy  EATOM  =       103.06574623
  Solvation  Ediel_sol  =         0.00000000
  ---------------------------------------------------
  free energy    TOTEN  =        -4.88385280 eV

  energy without entropy =       -4.88297412  energy(sigma->0) =       -4.88341346


--------------------------------------------------------------------------------------------------------




--------------------------------------- Iteration      1(   9)  ---------------------------------------


    POTLOK:  cpu time    0.0160: real time    0.0307
    SETDIJ:  cpu time    0.1630: real time    0.1646
     EDDAV:  cpu time    0.3160: real time    0.3154
       DOS:  cpu time    0.0010: real time    0.0013
    --------------------------------------------
      LOOP:  cpu time    0.4949: real time    0.5119

 eigenvalue-minimisations  :  1096
 total energy-change (2. order) :-0.6459761E-06  (-0.4390470E-07)
 number of electron       4.0000000 magnetization 
 augmentation part       -0.2458596 magnetization 

 Free energy of the ion-electron system (eV)
  ---------------------------------------------------
  alpha Z        PSCENC =         2.32219788
  Ewald energy   TEWEN  =      -136.46697043
  -Hartree energ DENC   =        -0.41093447
  -exchange      EXHF   =         0.00000000
  -V(xc)+E(xc)   XCENC  =        -8.75703231
  PAW double counting   =       298.29461545     -280.71627256
  entropy T*S    EENTRO =        -0.00087901
  eigenvalues    EBANDS =        17.78567578
  atomic energy  EATOM  =       103.06574623
  Solvation  Ediel_sol  =         0.00000000
  ---------------------------------------------------
  free energy    TOTEN  =        -4.88385345 eV

  energy without entropy =       -4.88297444  energy(sigma->0) =       -4.88341394


--------------------------------------------------------------------------------------------------------




 average (electrostatic) potential at core
  the test charge radii are     0.9892
  (the norm of the test charge is              1.0000)
       1 -79.9248
 
 
 
 E-fermi :  10.0069     XC(G=0): -11.1898     alpha+bet :-16.5453

 Fermi energy:        10.0068963107

 k-point     1 :       0.0000    0.0000    0.0000
  band No.  band energies     occupation 
      1      -4.2816      2.00000
      2      21.5232      0.00000
      3      21.5232      0.00000
      4      21.5232      0.00000
      5      22.6058      0.00000
      6      22.6058      0.00000
      7      22.6058      0.00000
      8      26.3191      0.00000

 k-point     2 :       0.0909    0.0000    0.0000
  band No.  band energies     occupation 
      1      -4.0271      2.00000
      2      18.9688      0.00000
      3      19.8495      0.00000
      4      21.1651      0.00000
      5      21.8292      0.00000
      6      23.5121      0.00000
      7      24.7061      0.00000
      8      25.1635      0.00000

 k-point     3 :       0.1818    0.0000    0.0000
  band No.  band energies     occupation 
      1      -3.2654      2.00000
      2      15.1757      0.00000
      3      18.1573      0.00000
      4      20.2930      0.00000
      5      20.3883      0.00000
      6      22.4731      0.00000
      7      25.9432      0.00000
      8      26.2754      0.00000

 k-point     4 :       0.2727    0.0000    0.0000
  band No.  band energies     occupation 
      1      -2.0021      2.00000
      2      11.3598      0.00000
      3      16.8790      0.00000
      4      19.0895      0.00000
      5      19.3461      0.00000
      6      21.2798      0.00000
      7      27.0973      0.00000
      8      27.4013      0.00000

 k-point     5 :       0.3636    0.0000    0.0000
  band No.  band energies     occupation 
      1      -0.2470      2.00000
      2       7.8336      2.00000
      3      16.0266      0.00000
      4      18.1694      0.00000
      5      18.6200      0.00000
      6      20.4324      0.00000
      7      28.4206      0.00000
      8      29.1005      0.00000

 k-point     6 :       0.4545    0.0000    0.0000
  band No.  band energies     occupation 
      1       1.9814      2.00000
      2       4.7058      2.00000
      3      15.6007      0.00000
      4      17.6980      0.00000
      5      18.2364      0.00000
      6      19.9947      0.00000
      7      29.9570      0.00000
      8      30.6908      0.00000

 k-point     7 :       0.0909    0.0909   -0.0000
  band No.  band energies     occupation 
      1      -3.5189      2.00000
      2      16.9696      0.00000
      3      17.4946      0.00000
      4      19.5186      0.00000
      5      22.2118      0.00000
      6      23.5965      0.00000
      7      24.7604      0.00000
      8      25.9771      0.00000

 k-point     8 :       0.1818    0.0909    0.0000
  band No.  band energies     occupation 
      1      -2.5064      2.00000
      2      13.3960      0.00000
      3      15.7384      0.00000
      4      18.1914      0.00000
      5      21.5347      0.00000
      6      23.0469      0.00000
      7      25.3405      0.00000
      8      27.7990      0.00000

 k-point     9 :       0.2727    0.0909    0.0000
  band No.  band energies     occupation 
      1      -0.9971      2.00000
      2       9.7256      2.00000
      3      14.6166      0.00000
      4      17.1556      0.00000
      5      20.6193      0.00000
      6      22.5534      0.00000
      7      26.2312      0.00000
      8      29.6594      0.00000

 k-point    10 :       0.3636    0.0909   -0.0000
  band No.  band energies     occupation 
      1       0.9967      2.00000
      2       6.3952      2.00000
      3      13.9414      0.00000
      4      16.5098      0.00000
      5      19.9980      0.00000
      6      22.1228      0.00000
      7      27.7519      0.00000
      8      30.7459      0.00000

 k-point    11 :       0.4545    0.0909    0.0000
  band No.  band energies     occupation 
      1       3.2891      2.00000
      2       3.6527      2.00000
      3      13.7156      0.00000
      4      16.2916      0.00000
      5      19.7843      0.00000
      6      21.9598      0.00000
      7      29.4369      0.00000
      8      29.7888      0.00000

 k-point    12 :       0.1818    0.1818    0.0000
  band No.  band energies     occupation 
      1      -1.2477      2.00000
      2      11.8698      0.00000
      3      12.2148      0.00000
      4      16.9720      0.00000
      5      22.1500      0.00000
      6      23.0454      0.00000
      7      26.9881      0.00000
      8      28.0981      0.00000

 k-point    13 :       0.2727    0.1818   -0.0000
  band No.  band energies     occupation 
      1       0.5011      2.00000
      2       8.5398      2.00000
      3      11.1228      0.00000
      4      16.1288      0.00000
      5      21.7890      0.00000
      6      23.8545      0.00000
      7      27.1832      0.00000
      8      29.8970      0.00000

 k-point    14 :       0.3636    0.1818   -0.0000
  band No.  band energies     occupation 
      1       2.7219      2.00000
      2       5.4317      2.00000
      3      10.6514      0.00000
      4      15.6968      0.00000
      5      21.4208      0.00000
      6      24.7318      0.00000
      7      27.5366      0.00000
      8      29.3841      0.00000

 k-point    15 :       0.2727    0.2727    0.0000
  band No.  band energies     occupation 
      1       2.4798      2.00000
      2       7.6961      2.00000
      3       7.9719      2.00000
      4      15.4975      0.00000
      5      23.0756      0.00000
      6      23.9547      0.00000
      7      27.8509      0.00000
      8      30.1984      0.00000

 k-point    16 :       0.3636    0.2727    0.0000
  band No.  band energies     occupation 
      1       4.7644      2.00000
      2       5.0970      2.00000
      3       7.6053      2.00000
      4      15.2828      0.00000
      5      23.2122      0.00000
      6      25.2159      0.00000
      7      26.2333      0.00000
      8      31.0476      0.00000

 k-point    17 :       0.0909    0.0909    0.0909
  band No.  band energies     occupation 
      1      -2.7591      2.00000
      2      15.1108      0.00000
      3      15.9502      0.00000
      4      15.9502      0.00000
      5      24.1654      0.00000
      6      24.1654      0.00000
      7      26.1510      0.00000
      8      26.1510      0.00000

 k-point    18 :       0.1818    0.0909    0.0909
  band No.  band energies     occupation 
      1      -1.4989      2.00000
      2      11.8093      0.00000
      3      14.1012      0.00000
      4      14.6400      0.00000
      5      23.9687      0.00000
      6      24.4302      0.00000
      7      27.3178      0.00000
      8      27.4858      0.00000

 k-point    19 :       0.2727    0.0909    0.0909
  band No.  band energies     occupation 
      1       0.2522      2.00000
      2       8.3103      2.00000
      3      13.1795      0.00000
      4      13.7313      0.00000
      5      23.5569      0.00000
      6      23.8534      0.00000
      7      28.8314      0.00000
      8      29.2525      0.00000

 k-point    20 :       0.3636    0.0909    0.0909
  band No.  band energies     occupation 
      1       2.4759      2.00000
      2       5.1919      2.00000
      3      12.7237      0.00000
      4      13.2698      0.00000
      5      23.2766      0.00000
      6      23.5040      0.00000
      7      30.2659      0.00000
      8      30.9146      0.00000

 k-point    21 :      -0.0909    0.0909    0.0909
  band No.  band energies     occupation 
      1      -3.7728      2.00000
      2      18.4491      0.00000
      3      18.4491      0.00000
      4      19.7900      0.00000
      5      22.6288      0.00000
      6      23.1032      0.00000
      7      24.4703      0.00000
      8      24.4703      0.00000

 k-point    22 :       0.1818    0.1818    0.0909
  band No.  band energies     occupation 
      1       0.0032      2.00000
      2      10.4953      0.00000
      3      10.8489      0.00000
      4      13.2711      0.00000
      5      25.0423      0.00000
      6      25.9280      0.00000
      7      28.0436      0.00000
      8      28.8939      0.00000

 k-point    23 :       0.2727    0.1818    0.0909
  band No.  band energies     occupation 
      1       1.9877      2.00000
      2       7.3543      2.00000
      3       9.9783      1.58176
      4      12.5799      0.00000
      5      25.1363      0.00000
      6      26.4950      0.00000
      7      29.1192      0.00000
      8      30.5897      0.00000

 k-point    24 :       0.3636    0.1818    0.0909
  band No.  band energies     occupation 
      1       4.2780      2.00000
      2       4.6201      2.00000
      3       9.7394      2.00000
      4      12.3492      0.00000
      5      25.0460      0.00000
      6      26.6923      0.00000
      7      30.0126      0.00000
      8      30.8074      0.00000

 k-point    25 :      -0.1818    0.1818    0.0909
  band No.  band energies     occupation 
      1      -3.0120      2.00000
      2      15.3029      0.00000
      3      16.7619      0.00000
      4      18.9827      0.00000
      5      21.3574      0.00000
      6      22.1892      0.00000
      7      24.7247      0.00000
      8      26.9327      0.00000

 k-point    26 :       0.2727    0.2727    0.0909
  band No.  band energies     occupation 
      1       4.1898      2.00000
      2       6.7465      2.00000
      3       7.0283      2.00000
      4      12.1169      0.00000
      5      26.3860      0.00000
      6      27.6324      0.00000
      7      29.2922      0.00000
      8      31.4433      0.00000

 k-point    27 :      -0.2727    0.2727    0.0909
  band No.  band energies     occupation 
      1      -1.7502      2.00000
      2      11.5705      0.00000
      3      15.4493      0.00000
      4      17.9992      0.00000
      5      20.9678      0.00000
      6      21.4269      0.00000
      7      24.5233      0.00000
      8      30.1218      0.00000

 k-point    28 :      -0.1818    0.2727    0.0909
  band No.  band energies     occupation 
      1      -2.0019      2.00000
      2      13.6102      0.00000
      3      13.8933      0.00000
      4      18.4936      0.00000
      5      20.2011      0.00000
      6      21.8243      0.00000
      7      26.3886      0.00000
      8      27.3247      0.00000

 k-point    29 :      -0.3636    0.3636    0.0909
  band No.  band energies     occupation 
      1       0.0027      2.00000
      2       8.0660      2.00000
      3      14.5647      0.00000
      4      17.1796      0.00000
      5      20.0897      0.00000
      6      21.5251      0.00000
      7      25.1234      0.00000
      8      30.4446      0.00000

 k-point    30 :      -0.2727    0.3636    0.0909
  band No.  band energies     occupation 
      1      -0.4962      2.00000
      2      10.1674      0.00001
      3      12.6216      0.00000
      4      17.9231      0.00000
      5      20.2570      0.00000
      6      21.3737      0.00000
      7      26.1193      0.00000
      8      29.2824      0.00000

 k-point    31 :      -0.4545    0.4545    0.0909
  band No.  band energies     occupation 
      1       2.2284      2.00000
      2       4.9467      2.00000
      3      14.1205      0.00000
      4      16.7469      0.00000
      5      19.6407      0.00000
      6      21.4338      0.00000
      7      26.6551      0.00000
      8      28.7581      0.00000

 k-point    32 :      -0.3636    0.4545    0.0909
  band No.  band energies     occupation 
      1       1.4924      2.00000
      2       6.8682      2.00000
      3      11.9280      0.00000
      4      17.3602      0.00000
      5      19.9258      0.00000
      6      22.3525      0.00000
      7      25.6084      0.00000
      8      28.3928      0.00000

 k-point    33 :      -0.2727    0.4545    0.0909
  band No.  band energies     occupation 
      1       1.2457      2.00000
      2       9.1025      2.00000
      3       9.3618      2.00000
      4      18.2001      0.00000
      5      20.3919      0.00000
      6      20.8704      0.00000
      7      26.7669      0.00000
      8      29.2083      0.00000

 k-point    34 :      -0.4545   -0.4545    0.0909
  band No.  band energies     occupation 
      1       3.7859      2.00000
      2       4.1303      2.00000
      3      11.6966      0.00000
      4      17.1572      0.00000
      5      19.7412      0.00000
      6      23.1482      0.00000
      7      25.4114      0.00000
      8      27.3873      0.00000

 k-point    35 :      -0.3636   -0.4545    0.0909
  band No.  band energies     occupation 
      1       3.4569      2.00000
      2       6.1459      2.00000
      3       8.7654      2.00000
      4      18.0376      0.00000
      5      20.2784      0.00000
      6      22.1745      0.00000
      7      24.4832      0.00000
      8      29.9443      0.00000

 k-point    36 :      -0.3636   -0.3636    0.0909
  band No.  band energies     occupation 
      1       5.6119      2.00000
      2       6.0454      2.00000
      3       6.0454      2.00000
      4      18.1135      0.00000
      5      21.7910      0.00000
      6      22.2050      0.00000
      7      22.2050      0.00000
      8      32.9616      0.00000

 k-point    37 :       0.1818    0.1818    0.1818
  band No.  band energies     occupation 
      1       1.7416      2.00000
      2       9.4315      2.00000
      3       9.9158      1.99003
      4       9.9158      1.99003
      5      27.6983      0.00000
      6      27.6983      0.00000
      7      29.6449      0.00000
      8      29.6449      0.00000

 k-point    38 :       0.2727    0.1818    0.1818
  band No.  band energies     occupation 
      1       3.9492      2.00000
      2       6.6369      2.00000
      3       9.1418      2.00000
      4       9.4450      2.00000
      5      28.3081      0.00000
      6      28.6004      0.00000
      7      30.9160      0.00000
      8      31.2244      0.00000

 k-point    39 :      -0.1818    0.1818    0.1818
  band No.  band energies     occupation 
      1      -2.2538      2.00000
      2      15.0489      0.00000
      3      15.0489      0.00000
      4      16.9614      0.00000
      5      18.6321      0.00000
      6      24.5904      0.00000
      7      26.1893      0.00000
      8      26.1893      0.00000

 k-point    40 :       0.2727    0.2727    0.1818
  band No.  band energies     occupation 
      1       6.0797      2.00000
      2       6.5532      2.00000
      3       6.5532      2.00000
      4       9.0686      2.00000
      5      29.4518      0.00000
      6      30.6489      0.00000
      7      30.6489      0.00000
      8      32.2471      0.00000

 k-point    41 :      -0.2727    0.2727    0.1818
  band No.  band energies     occupation 
      1      -0.9966      2.00000
      2      12.1477      0.00000
      3      13.7141      0.00000
      4      16.1943      0.00000
      5      18.1328      0.00000
      6      24.0200      0.00000
      7      26.1549      0.00000
      8      28.9104      0.00000

 k-point    42 :      -0.3636    0.3636    0.1818
  band No.  band energies     occupation 
      1       0.7497      2.00000
      2       8.7522      2.00000
      3      12.8148      0.00000
      4      15.3990      0.00000
      5      19.3140      0.00000
      6      23.2046      0.00000
      7      25.0981      0.00000
      8      27.9375      0.00000

 k-point    43 :      -0.2727    0.3636    0.1818
  band No.  band energies     occupation 
      1       0.5014      2.00000
      2      10.8934      0.00000
      3      11.1003      0.00000
      4      16.2545      0.00000
      5      17.2963      0.00000
      6      23.8001      0.00000
      7      26.1263      0.00000
      8      28.5955      0.00000

 k-point    44 :      -0.4545    0.4545    0.1818
  band No.  band energies     occupation 
      1       2.9665      2.00000
      2       5.6651      2.00000
      3      12.3635      0.00000
      4      14.9503      0.00000
      5      20.8844      0.00000
      6      22.7742      0.00000
      7      23.6249      0.00000
      8      27.0174      0.00000

 k-point    45 :      -0.3636    0.4545    0.1818
  band No.  band energies     occupation 
      1       2.4790      2.00000
      2       7.7981      2.00000
      3      10.3041      0.00000
      4      15.9720      0.00000
      5      18.4855      0.00000
      6      22.7923      0.00000
      7      24.0613      0.00000
      8      29.1648      0.00000

 k-point    46 :      -0.4545   -0.4545    0.1818
  band No.  band energies     occupation 
      1       4.7702      2.00000
      2       5.0807      2.00000
      3      10.0689      0.07940
      4      15.7731      0.00000
      5      19.9818      0.00000
      6      21.2866      0.00000
      7      23.4898      0.00000
      8      29.1375      0.00000

 k-point    47 :      -0.3636   -0.4545    0.1818
  band No.  band energies     occupation 
      1       4.6699      2.00000
      2       7.2094      2.00000
      3       7.4469      2.00000
      4      17.3274      0.00000
      5      18.5004      0.00000
      6      20.5604      0.00000
      7      23.4408      0.00000
      8      32.0142      0.00000

 k-point    48 :      -0.2727    0.2727    0.2727
  band No.  band energies     occupation 
      1       0.2527      2.00000
      2      12.3667      0.00000
      3      12.3667      0.00000
      4      14.4531      0.00000
      5      15.5712      0.00000
      6      25.7657      0.00000
      7      27.0339      0.00000
      8      28.3895      0.00000

 k-point    49 :      -0.3636    0.3636    0.2727
  band No.  band energies     occupation 
      1       1.9871      2.00000
      2       9.8250      2.00000
      3      11.4603      0.00000
      4      13.9389      0.00000
      5      15.7505      0.00000
      6      22.8443      0.00000
      7      26.7868      0.00000
      8      29.1877      0.00000

 k-point    50 :      -0.4545    0.4545    0.2727
  band No.  band energies     occupation 
      1       4.1862      2.00000
      2       6.8442      2.00000
      3      11.0057      0.00000
      4      13.5205      0.00000
      5      17.5478      0.00000
      6      20.1226      0.00000
      7      26.3897      0.00000
      8      29.3023      0.00000

 k-point    51 :      -0.3636    0.4545    0.2727
  band No.  band energies     occupation 
      1       3.9451      2.00000
      2       9.0327      2.00000
      3       9.2165      2.00000
      4      14.5348      0.00000
      5      15.3228      0.00000
      6      19.8657      0.00000
      7      27.1308      0.00000
      8      31.4183      0.00000

 k-point    52 :      -0.4545   -0.4545    0.2727
  band No.  band energies     occupation 
      1       6.2182      2.00000
      2       6.4870      2.00000
      3       8.8960      2.00000
      4      14.5976      0.00000
      5      16.8599      0.00000
      6      17.5378      0.00000
      7      27.0131      0.00000
      8      32.0309      0.00000

 k-point    53 :      -0.3636    0.3636    0.3636
  band No.  band energies     occupation 
      1       3.7018      2.00000
      2      10.5502      0.00000
      3      10.5502      0.00000
      4      12.6431      0.00000
      5      13.5160      0.00000
      6      19.6362      0.00000
      7      30.3264      0.00000
      8      31.2162      0.00000

 k-point    54 :      -0.4545    0.4545    0.3636
  band No.  band energies     occupation 
      1       5.8656      2.00000
      2       8.4147      2.00000
      3      10.0940      0.01371
      4      12.5043      0.00000
      5      14.2931      0.00000
      6      16.7501      0.00000
      7      30.3308      0.00000
      8      32.1374      0.00000

 k-point    55 :      -0.4545   -0.4545    0.3636
  band No.  band energies     occupation 
      1       7.9853      2.00000
      2       8.2704      2.00000
      3       8.2704      2.00000
      4      13.3851      0.00000
      5      14.3303      0.00000
      6      14.3303      0.00000
      7      30.8655      0.00000
      8      34.3217      0.00000

 k-point    56 :      -0.4545    0.4545    0.4545
  band No.  band energies     occupation 
      1       7.9305      2.00000
      2       9.6372      2.00000
      3       9.6372      2.00000
      4      11.6475      0.00000
      5      12.4859      0.00000
      6      13.8753      0.00000
      7      33.9380      0.00000
      8      34.1333      0.00000


--------------------------------------------------------------------------------------------------------


 soft charge-density along one line, spin component           1
         0         1         2         3         4         5         6         7         8         9
 total charge-density along one line
 
 pseudopotential strength for first ion, spin component:           1
 17.972  25.073   0.000  -0.000   0.000   0.000  -0.000   0.000
 25.073  34.982   0.000  -0.000   0.000   0.000  -0.000   0.000
  0.000   0.000   4.098  -0.000   0.000   7.633  -0.000   0.000
 -0.000  -0.000  -0.000   4.098  -0.000  -0.000   7.633  -0.000
  0.000   0.000   0.000  -0.000   4.098   0.000  -0.000   7.633
  0.000   0.000   7.633  -0.000   0.000  14.231  -0.000   0.000
 -0.000  -0.000  -0.000   7.633  -0.000  -0.000  14.231  -0.000
  0.000   0.000   0.000  -0.000   7.633   0.000  -0.000  14.231
 total augmentation occupancy for first ion, spin component:           1
  4.832  -1.965   0.000   0.000   0.000   0.000   0.000   0.000
 -1.965   1.225   0.000   0.000   0.000   0.000   0.000   0.000
  0.000   0.000   2.300   0.000   0.000  -0.536  -0.000   0.000
  0.000   0.000   0.000   2.300   0.000  -0.000  -0.536   0.000
  0.000   0.000   0.000   0.000   2.300   0.000   0.000  -0.536
  0.000   0.000  -0.536  -0.000   0.000   0.139   0.000  -0.000
  0.000   0.000  -0.000  -0.536   0.000   0.000   0.139   0.000
  0.000   0.000   0.000   0.000  -0.536  -0.000   0.000   0.139


------------------------ aborting loop because EDIFF is reached ----------------------------------------


    CHARGE:  cpu time    0.0220: real time    0.0231
    FORLOC:  cpu time    0.0000: real time    0.0006
    FORNL :  cpu time    0.0530: real time    0.0534
    STRESS:  cpu time    0.2850: real time    0.2848
    FORCOR:  cpu time    0.0130: real time    0.0140
    FORHAR:  cpu time    0.0030: real time    0.0028
    MIXING:  cpu time    0.0000: real time    0.0007
    OFIELD:  cpu time    0.0000: real time    0.0002

  FORCE on cell =-STRESS in cart. coord.  units (eV):
  Direction    XX          YY          ZZ          XY          YZ          ZX
  --------------------------------------------------------------------------------------
  Alpha Z     2.32220     2.32220     2.32220
  Ewald     -45.48899   -45.48899   -45.48899     0.00000     0.00000    -0.00000
  Hartree     0.13697     0.13697     0.13697    -0.00000     0.00000     0.00000
  E(xc)     -12.69443   -12.69443   -12.69443     0.00000    -0.00000    -0.00000
  Local      -5.00694    -5.00694    -5.00694    -0.00000     0.00000     0.00000
  n-local    38.67829    38.39197    38.26693    -1.18059    -1.08609     0.48098
  augment    -6.26368    -6.26368    -6.26368     0.00000    -0.00000    -0.00000
  Kinetic    24.64145    34.68398    26.46231    12.69184    12.01354    -5.37455
  Fock        0.00000     0.00000     0.00000     0.00000     0.00000     0.00000
  -------------------------------------------------------------------------------------
  Total       0.04678     0.04678     0.04678     0.00000     0.00000     0.00000
  in kB       5.17019     5.17019     5.17019     0.00000     0.00000     0.00000
  external pressure =        5.17 kB  Pullay stress =        0.00 kB


 VOLUME and BASIS-vectors are now :
 -----------------------------------------------------------------------------
  energy-cutoff  :      400.00
  volume of cell :       14.50
      direct lattice vectors                 reciprocal lattice vectors
     1.536025514  1.536025514  1.536025514     0.325515426  0.325515426  0.000000000
     1.536025514 -1.536025514 -1.536025514     0.325515426  0.000000000 -0.325515426
    -1.536025514  1.536025514 -1.536025514     0.000000000  0.325515426 -0.325515426

  length of vectors
     2.660474233  2.660474233  2.660474233     0.460348331  0.460348331  0.460348331


 FORCES acting on ions
    electron-ion (+dipol)            ewald-force                    non-local-force                 convergence-correction
 -----------------------------------------------------------------------------------------------
   -.600E-16 -.484E-15 -.771E-15   -.300E-15 0.867E-16 0.182E-15   0.000E+00 0.000E+00 0.000E+00   0.416E-16 0.323E-16 -.895E-17
 -----------------------------------------------------------------------------------------------
   -.600E-16 -.484E-15 -.771E-15   -.300E-15 0.867E-16 0.182E-15   0.000E+00 0.000E+00 0.000E+00   0.416E-16 0.323E-16 -.895E-17
 
 
 POSITION                                       TOTAL-FORCE (eV/Angst)
 -----------------------------------------------------------------------------------
      0.00000      0.00000      0.00000        -0.000000     -0.000000     -0.000000
 -----------------------------------------------------------------------------------
    total drift:                               -0.000000     -0.000000     -0.000000


--------------------------------------------------------------------------------------------------------



  FREE ENERGIE OF THE ION-ELECTRON SYSTEM (eV)
  ---------------------------------------------------
  free  energy   TOTEN  =        -4.88385345 eV

  energy  without entropy=       -4.88297444  energy(sigma->0) =       -4.88341394
 


--------------------------------------------------------------------------------------------------------


    POTLOK:  cpu time    0.1800: real time    0.1856


--------------------------------------------------------------------------------------------------------




--------------------------------------------------------------------------------------------------------


    WAVPRE:  cpu time    0.0040: real time    0.0197
    FEWALD:  cpu time    0.0010: real time    0.0003
    GENKIN:  cpu time    0.0120: real time    0.0129
    ORTHCH:  cpu time    0.0070: real time    0.0076
     LOOP+:  cpu time    4.6723: real time    4.8388


--------------------------------------- Iteration      2(   1)  ---------------------------------------


    POTLOK:  cpu time    0.0140: real time    0.0170
    SETDIJ:  cpu time    0.1640: real time    0.1648
     EDDAV:  cpu time    0.2660: real time    0.2665
       DOS:  cpu time    0.0010: real time    0.0013
    CHARGE:  cpu time    0.0230: real time    0.0230
    MIXING:  cpu time    0.0010: real time    0.0008
    --------------------------------------------
      LOOP:  cpu time    0.4689: real time    0.4737

 eigenvalue-minimisations  :   928
 total energy-change (2. order) :-0.1883649E-03  (-0.4776422E-03)
 number of electron       4.0000000 magnetization 
 augmentation part       -0.2462895 magnetization 

 Broyden mixing:
  rms(total) = 0.65207E-02    rms(broyden)= 0.65206E-02
  rms(prec ) = 0.19570E-01
  weight for this iteration     100.00

 Free energy of the ion-electron system (eV)
  ---------------------------------------------------
  alpha Z        PSCENC =         2.30654675
  Ewald energy   TEWEN  =      -136.15969275
  -Hartree energ DENC   =        -0.40998465
  -exchange      EXHF   =         0.00000000
  -V(xc)+E(xc)   XCENC  =        -8.77455903
  PAW double counting   =       298.39372944     -280.81502641
  entropy T*S    EENTRO =        -0.00089958
  eigenvalues    EBANDS =        17.51009883
  atomic energy  EATOM  =       103.06574623
  Solvation  Ediel_sol  =         0.00000000
  ---------------------------------------------------
  free energy    TOTEN  =        -4.88404117 eV

  energy without entropy =       -4.88314159  energy(sigma->0) =       -4.88359138


--------------------------------------------------------------------------------------------------------




--------------------------------------- Iteration      2(   2)  ---------------------------------------


    POTLOK:  cpu time    0.0150: real time    0.0221
    SETDIJ:  cpu time    0.1650: real time    0.1649
     EDDAV:  cpu time    0.2980: real time    0.2987
       DOS:  cpu time    0.0010: real time    0.0013
    CHARGE:  cpu time    0.0230: real time    0.0229
    MIXING:  cpu time    0.0010: real time    0.0008
    --------------------------------------------
      LOOP:  cpu time    0.5029: real time    0.5108

 eigenvalue-minimisations  :  1040
 total energy-change (2. order) : 0.5086304E-04  (-0.2809340E-05)
 number of electron       4.0000000 magnetization 
 augmentation part       -0.2462180 magnetization 

 Broyden mixing:
  rms(total) = 0.37505E-02    rms(broyden)= 0.37505E-02
  rms(prec ) = 0.11587E-01
  weight for this iteration     100.00

 eigenvalues of (default mixing * dielectric matrix)
  average eigenvalue GAMMA=   2.3140
  2.3140

 Free energy of the ion-electron system (eV)
  ---------------------------------------------------
  alpha Z        PSCENC =         2.30654675
  Ewald energy   TEWEN  =      -136.15969275
  -Hartree energ DENC   =        -0.41451000
  -exchange      EXHF   =         0.00000000
  -V(xc)+E(xc)   XCENC  =        -8.77533967
  PAW double counting   =       295.86333262     -278.28430525
  entropy T*S    EENTRO =        -0.00089778
  eigenvalues    EBANDS =        17.51512954
  atomic energy  EATOM  =       103.06574623
  Solvation  Ediel_sol  =         0.00000000
  ---------------------------------------------------
  free energy    TOTEN  =        -4.88399031 eV

  energy without entropy =       -4.88309253  energy(sigma->0) =       -4.88354142


--------------------------------------------------------------------------------------------------------




--------------------------------------- Iteration      2(   3)  ---------------------------------------


    POTLOK:  cpu time    0.0150: real time    0.0303
    SETDIJ:  cpu time    0.1680: real time    0.1679
     EDDAV:  cpu time    0.2830: real time    0.2838
       DOS:  cpu time    0.0010: real time    0.0015
    CHARGE:  cpu time    0.0230: real time    0.0231
    MIXING:  cpu time    0.0010: real time    0.0009
    --------------------------------------------
      LOOP:  cpu time    0.4909: real time    0.5075

 eigenvalue-minimisations  :   976
 total energy-change (2. order) : 0.3125037E-04  (-0.3240405E-05)
 number of electron       4.0000000 magnetization 
 augmentation part       -0.2460220 magnetization 

 Broyden mixing:
  rms(total) = 0.11722E-02    rms(broyden)= 0.11722E-02
  rms(prec ) = 0.11823E-02
  weight for this iteration     100.00

 eigenvalues of (default mixing * dielectric matrix)
  average eigenvalue GAMMA=   1.3223
  2.2057  0.4389

 Free energy of the ion-electron system (eV)
  ---------------------------------------------------
[...]
      1      -3.7952      2.00000
      2      18.3489      0.00000
      3      18.3489      0.00000
      4      19.6635      0.00000
      5      22.5421      0.00000
      6      23.0109      0.00000
      7      24.3517      0.00000
      8      24.3517      0.00000

 k-point    22 :       0.1818    0.1818    0.0909
  band No.  band energies     occupation 
      1      -0.0324      2.00000
      2      10.4134      0.00000
      3      10.7878      0.00000
      4      13.1948      0.00000
      5      24.9157      0.00000
      6      25.8079      0.00000
      7      27.9242      0.00000
      8      28.7779      0.00000

 k-point    23 :       0.2727    0.1818    0.0909
  band No.  band energies     occupation 
      1       1.9449      2.00000
      2       7.2938      2.00000
      3       9.9104      1.58484
      4      12.5053      0.00000
      5      25.0138      0.00000
      6      26.3719      0.00000
      7      28.9986      0.00000
      8      30.4612      0.00000

 k-point    24 :       0.3636    0.1818    0.0909
  band No.  band energies     occupation 
      1       4.2166      2.00000
      2       4.5802      2.00000
      3       9.6718      2.00000
      4      12.2753      0.00000
      5      24.9255      0.00000
      6      26.5677      0.00000
      7      29.8918      0.00000
      8      30.6737      0.00000

 k-point    25 :      -0.1818    0.1818    0.0909
  band No.  band energies     occupation 
      1      -3.0370      2.00000
      2      15.2140      0.00000
      3      16.6689      0.00000
      4      18.8668      0.00000
      5      21.2674      0.00000
      6      22.0949      0.00000
      7      24.6087      0.00000
      8      26.8112      0.00000

 k-point    26 :       0.2727    0.2727    0.0909
  band No.  band energies     occupation 
      1       4.1378      2.00000
      2       6.6804      2.00000
      3       6.9804      2.00000
      4      12.0431      0.00000
      5      26.2524      0.00000
      6      27.5158      0.00000
      7      29.1707      0.00000
      8      31.3052      0.00000

 k-point    27 :      -0.2727    0.2727    0.0909
  band No.  band energies     occupation 
      1      -1.7797      2.00000
      2      11.4957      0.00000
      3      15.3609      0.00000
      4      17.8953      0.00000
      5      20.8767      0.00000
      6      21.3239      0.00000
      7      24.4127      0.00000
      8      29.9963      0.00000

 k-point    28 :      -0.1818    0.2727    0.0909
  band No.  band energies     occupation 
      1      -2.0304      2.00000
      2      13.5219      0.00000
      3      13.8176      0.00000
      4      18.3776      0.00000
      5      20.1172      0.00000
      6      21.7283      0.00000
      7      26.2647      0.00000
      8      27.2082      0.00000

 k-point    29 :      -0.3636    0.3636    0.0909
  band No.  band energies     occupation 
      1      -0.0329      2.00000
      2       8.0038      2.00000
      3      14.4793      0.00000
      4      17.0816      0.00000
      5      20.0012      0.00000
      6      21.4157      0.00000
      7      25.0136      0.00000
      8      30.3167      0.00000

 k-point    30 :      -0.2727    0.3636    0.0909
  band No.  band energies     occupation 
      1      -0.5301      2.00000
      2      10.0973      0.00001
      3      12.5448      0.00000
      4      17.8161      0.00000
      5      20.1659      0.00000
      6      21.2767      0.00000
      7      26.0017      0.00000
      8      29.1564      0.00000

 k-point    31 :      -0.4545    0.4545    0.0909
  band No.  band energies     occupation 
      1       2.1842      2.00000
      2       4.8961      2.00000
      3      14.0366      0.00000
      4      16.6513      0.00000
      5      19.5535      0.00000
      6      21.3235      0.00000
      7      26.5413      0.00000
      8      28.6338      0.00000

 k-point    32 :      -0.3636    0.4545    0.0909
  band No.  band energies     occupation 
      1       1.4514      2.00000
      2       6.8102      2.00000
      3      11.8533      0.00000
      4      17.2588      0.00000
      5      19.8348      0.00000
      6      22.2466      0.00000
      7      25.4966      0.00000
      8      28.2682      0.00000

 k-point    33 :      -0.2727    0.4545    0.0909
  band No.  band energies     occupation 
      1       1.2057      2.00000
      2       9.0280      2.00000
      3       9.3048      2.00000
      4      18.0895      0.00000
      5      20.3049      0.00000
      6      20.7720      0.00000
      7      26.6515      0.00000
      8      29.0774      0.00000

 k-point    34 :      -0.4545   -0.4545    0.0909
  band No.  band energies     occupation 
      1       3.7270      2.00000
      2       4.0918      2.00000
      3      11.6225      0.00000
      4      17.0573      0.00000
      5      19.6507      0.00000
      6      23.0347      0.00000
      7      25.3071      0.00000
      8      27.2634      0.00000

 k-point    35 :      -0.3636   -0.4545    0.0909
  band No.  band energies     occupation 
      1       3.4083      2.00000
      2       6.0905      2.00000
      3       8.7024      2.00000
      4      17.9306      0.00000
      5      20.1871      0.00000
      6      22.0711      0.00000
      7      24.3764      0.00000
      8      29.8128      0.00000

 k-point    36 :      -0.3636   -0.3636    0.0909
  band No.  band energies     occupation 
      1       5.5373      2.00000
      2       6.0004      2.00000
      3       6.0004      2.00000
      4      18.0080      0.00000
      5      21.6767      0.00000
      6      22.1115      0.00000
      7      22.1115      0.00000
      8      32.8210      0.00000

 k-point    37 :       0.1818    0.1818    0.1818
  band No.  band energies     occupation 
      1       1.6997      2.00000
      2       9.3457      2.00000
      3       9.8583      1.97791
      4       9.8583      1.97791
      5      27.5624      0.00000
      6      27.5624      0.00000
      7      29.5278      0.00000
      8      29.5278      0.00000

 k-point    38 :       0.2727    0.1818    0.1818
  band No.  band energies     occupation 
      1       3.8985      2.00000
      2       6.5790      2.00000
      3       9.0697      2.00000
      4       9.3893      2.00000
      5      28.1719      0.00000
      6      28.4694      0.00000
      7      30.7927      0.00000
      8      31.0909      0.00000

 k-point    39 :      -0.1818    0.1818    0.1818
  band No.  band energies     occupation 
      1      -2.2815      2.00000
      2      14.9637      0.00000
      3      14.9637      0.00000
      4      16.8438      0.00000
      5      18.5599      0.00000
      6      24.4929      0.00000
      7      26.0656      0.00000
      8      26.0656      0.00000

 k-point    40 :       0.2727    0.2727    0.1818
  band No.  band energies     occupation 
      1       6.0005      2.00000
      2       6.5070      2.00000
      3       6.5070      2.00000
      4       9.0066      2.00000
      5      29.3080      0.00000
      6      30.5211      0.00000
      7      30.5211      0.00000
      8      32.1010      0.00000

 k-point    41 :      -0.2727    0.2727    0.1818
  band No.  band energies     occupation 
      1      -1.0287      2.00000
      2      12.0710      0.00000
      3      13.6338      0.00000
      4      16.0914      0.00000
      5      18.0514      0.00000
      6      23.9178      0.00000
      7      26.0344      0.00000
      8      28.7854      0.00000

 k-point    42 :      -0.3636    0.3636    0.1818
  band No.  band energies     occupation 
      1       0.7114      2.00000
      2       8.6875      2.00000
      3      12.7374      0.00000
      4      15.3068      0.00000
      5      19.2190      0.00000
      6      23.1039      0.00000
      7      24.9848      0.00000
      8      27.8132      0.00000

 k-point    43 :      -0.2727    0.3636    0.1818
  band No.  band energies     occupation 
      1       0.4641      2.00000
      2      10.8148      0.00000
      3      11.0350      0.00000
      4      16.1461      0.00000
      5      17.2230      0.00000
      6      23.6954      0.00000
      7      26.0126      0.00000
      8      28.4662      0.00000

 k-point    44 :      -0.4545    0.4545    0.1818
  band No.  band energies     occupation 
      1       2.9198      2.00000
      2       5.6120      2.00000
      3      12.2876      0.00000
      4      14.8613      0.00000
      5      20.7777      0.00000
      6      22.6746      0.00000
      7      23.5229      0.00000
      8      26.8941      0.00000

 k-point    45 :      -0.3636    0.4545    0.1818
  band No.  band energies     occupation 
      1       2.4346      2.00000
      2       7.7366      2.00000
      3      10.2355      0.00000
      4      15.8758      0.00000
      5      18.3952      0.00000
      6      22.6903      0.00000
      7      23.9550      0.00000
      8      29.0354      0.00000

 k-point    46 :      -0.4545   -0.4545    0.1818
  band No.  band energies     occupation 
      1       4.7078      2.00000
      2       5.0388      2.00000
      3      10.0009      0.08100
      4      15.6798      0.00000
      5      19.8765      0.00000
      6      21.1967      0.00000
      7      23.3855      0.00000
      8      29.0087      0.00000

 k-point    47 :      -0.3636   -0.4545    0.1818
  band No.  band energies     occupation 
      1       4.6167      2.00000
      2       7.1427      2.00000
      3       7.3965      2.00000
      4      17.2129      0.00000
      5      18.4205      0.00000
      6      20.4682      0.00000
      7      23.3360      0.00000
      8      31.8769      0.00000

 k-point    48 :      -0.2727    0.2727    0.2727
  band No.  band energies     occupation 
      1       0.2163      2.00000
      2      12.2912      0.00000
      3      12.2912      0.00000
      4      14.3433      0.00000
      5      15.5098      0.00000
      6      25.6515      0.00000
      7      26.9274      0.00000
      8      28.2607      0.00000

 k-point    49 :      -0.3636    0.3636    0.2727
  band No.  band energies     occupation 
      1       1.9446      2.00000
      2       9.7565      2.00000
      3      11.3879      0.00000
      4      13.8466      0.00000
      5      15.6740      0.00000
      6      22.7396      0.00000
      7      26.6746      0.00000
      8      29.0575      0.00000

 k-point    50 :      -0.4545    0.4545    0.2727
  band No.  band energies     occupation 
      1       4.1354      2.00000
      2       6.7867      2.00000
      3      10.9347      0.00000
      4      13.4356      0.00000
      5      17.4563      0.00000
      6      20.0295      0.00000
      7      26.2780      0.00000
      8      29.1719      0.00000

 k-point    51 :      -0.3636    0.4545    0.2727
  band No.  band energies     occupation 
      1       3.8956      2.00000
      2       8.9606      2.00000
      3       9.1578      2.00000
      4      14.4314      0.00000
      5      15.2563      0.00000
      6      19.7717      0.00000
      7      27.0152      0.00000
      8      31.2829      0.00000

 k-point    52 :      -0.4545   -0.4545    0.2727
  band No.  band energies     occupation 
      1       6.1507      2.00000
      2       6.4397      2.00000
      3       8.8325      2.00000
      4      14.5045      0.00000
      5      16.7675      0.00000
      6      17.4614      0.00000
      7      26.8974      0.00000
      8      31.8947      0.00000

 k-point    53 :      -0.3636    0.3636    0.3636
  band No.  band energies     occupation 
      1       3.6533      2.00000
      2      10.4808      0.00000
      3      10.4808      0.00000
      4      12.5387      0.00000
      5      13.4618      0.00000
      6      19.5421      0.00000
      7      30.2073      0.00000
      8      31.0814      0.00000

 k-point    54 :      -0.4545    0.4545    0.3636
  band No.  band energies     occupation 
      1       5.8091      2.00000
      2       8.3514      2.00000
      3      10.0261      0.01403
      4      12.4171      0.00000
      5      14.2189      0.00000
      6      16.6678      0.00000
      7      30.2064      0.00000
      8      32.0008      0.00000

 k-point    55 :      -0.4545   -0.4545    0.3636
  band No.  band energies     occupation 
      1       7.9073      2.00000
      2       8.2149      2.00000
      3       8.2149      2.00000
      4      13.2735      0.00000
      5      14.2671      0.00000
      6      14.2671      0.00000
      7      30.7378      0.00000
      8      34.1821      0.00000

 k-point    56 :      -0.4545    0.4545    0.4545
  band No.  band energies     occupation 
      1       7.8669      2.00000
      2       9.5707      2.00000
      3       9.5707      2.00000
      4      11.5402      0.00000
      5      12.4353      0.00000
      6      13.8070      0.00000
      7      33.7750      0.00000
      8      33.9944      0.00000


--------------------------------------------------------------------------------------------------------


 soft charge-density along one line, spin component           1
         0         1         2         3         4         5         6         7         8         9
 total charge-density along one line
 
 pseudopotential strength for first ion, spin component:           1
 17.980  25.083   0.000  -0.000   0.000   0.000  -0.000   0.000
 25.083  34.997   0.000  -0.000   0.000   0.000  -0.000   0.000
  0.000   0.000   4.099  -0.000   0.000   7.635  -0.000   0.000
 -0.000  -0.000  -0.000   4.099  -0.000  -0.000   7.635  -0.000
  0.000   0.000   0.000  -0.000   4.099   0.000  -0.000   7.635
  0.000   0.000   7.635  -0.000   0.000  14.234  -0.000   0.000
 -0.000  -0.000  -0.000   7.635  -0.000  -0.000  14.234  -0.000
  0.000   0.000   0.000  -0.000   7.635   0.000  -0.000  14.234
 total augmentation occupancy for first ion, spin component:           1
  4.787  -1.940   0.000   0.000   0.000   0.000   0.000   0.000
 -1.940   1.212   0.000   0.000   0.000   0.000   0.000   0.000
  0.000   0.000   2.283  -0.000  -0.000  -0.531   0.000  -0.000
  0.000   0.000  -0.000   2.283  -0.000   0.000  -0.531   0.000
  0.000   0.000  -0.000  -0.000   2.283  -0.000  -0.000  -0.531
  0.000   0.000  -0.531  -0.000  -0.000   0.137  -0.000   0.000
  0.000   0.000   0.000  -0.531   0.000  -0.000   0.137   0.000
  0.000   0.000   0.000  -0.000  -0.531   0.000   0.000   0.137


------------------------ aborting loop because EDIFF is reached ----------------------------------------


    CHARGE:  cpu time    0.0220: real time    0.0231
    FORLOC:  cpu time    0.0000: real time    0.0006
    FORNL :  cpu time    0.0530: real time    0.0534
    STRESS:  cpu time    0.2830: real time    0.2840
    FORCOR:  cpu time    0.0140: real time    0.0138
    FORHAR:  cpu time    0.0030: real time    0.0027
    MIXING:  cpu time    0.0000: real time    0.0007
    OFIELD:  cpu time    0.0010: real time    0.0002

  FORCE on cell =-STRESS in cart. coord.  units (eV):
  Direction    XX          YY          ZZ          XY          YZ          ZX
  --------------------------------------------------------------------------------------
  Alpha Z     2.31026     2.31026     2.31026
  Ewald     -45.41093   -45.41093   -45.41093    -0.00000    -0.00000     0.00000
  Hartree     0.13954     0.13954     0.13954    -0.00000     0.00000     0.00000
  E(xc)     -12.67768   -12.67768   -12.67768    -0.00000     0.00000     0.00000
  Local      -5.04858    -5.04858    -5.04858    -0.00000     0.00000     0.00000
  n-local    38.65961    38.38387    38.25282    -1.15941    -1.06781     0.47052
  augment    -6.26709    -6.26709    -6.26709     0.00000    -0.00000    -0.00000
  Kinetic    24.58515    34.58323    26.39832    12.64280    11.96801    -5.35650
  Fock        0.00000     0.00000     0.00000     0.00000     0.00000     0.00000
  -------------------------------------------------------------------------------------
  Total      -0.00015    -0.00015    -0.00015    -0.00000     0.00000    -0.00000
  in kB      -0.01672    -0.01672    -0.01672    -0.00000     0.00000    -0.00000
  external pressure =       -0.02 kB  Pullay stress =        0.00 kB


 VOLUME and BASIS-vectors are now :
 -----------------------------------------------------------------------------
  energy-cutoff  :      400.00
  volume of cell :       14.57
      direct lattice vectors                 reciprocal lattice vectors
     1.538665789  1.538665789  1.538665789     0.324956858  0.324956858  0.000000000
     1.538665789 -1.538665789 -1.538665789     0.324956858  0.000000000 -0.324956858
    -1.538665789  1.538665789 -1.538665789     0.000000000  0.324956858 -0.324956858

  length of vectors
     2.665047322  2.665047322  2.665047322     0.459558396  0.459558396  0.459558396


 FORCES acting on ions
    electron-ion (+dipol)            ewald-force                    non-local-force                 convergence-correction
 -----------------------------------------------------------------------------------------------
   0.454E-15 0.113E-15 -.854E-15   0.156E-15 -.248E-15 -.336E-16   0.646E-26 0.194E-25 0.646E-26   -.447E-16 0.905E-17 -.105E-16
 -----------------------------------------------------------------------------------------------
   0.454E-15 0.113E-15 -.854E-15   0.156E-15 -.248E-15 -.336E-16   0.646E-26 0.194E-25 0.646E-26   -.447E-16 0.905E-17 -.105E-16
 
 
 POSITION                                       TOTAL-FORCE (eV/Angst)
 -----------------------------------------------------------------------------------
     -0.00000     -0.00000     -0.00000        -0.000000      0.000000     -0.000000
 -----------------------------------------------------------------------------------
    total drift:                                0.000000     -0.000000     -0.000000


--------------------------------------------------------------------------------------------------------



  FREE ENERGIE OF THE ION-ELECTRON SYSTEM (eV)
  ---------------------------------------------------
  free  energy   TOTEN  =        -4.88397088 eV

  energy  without entropy=       -4.88308032  energy(sigma->0) =       -4.88352560
 
 d Force = 0.0000000E+00[ 0.000E+00, 0.000E+00]  d Energy = 0.1239269E-04-0.124E-04
 d Force = 0.0000000E+00[ 0.000E+00, 0.000E+00]  d Ewald  = 0.7310713E-01-0.731E-01


--------------------------------------------------------------------------------------------------------


    POTLOK:  cpu time    0.1810: real time    0.1874


--------------------------------------------------------------------------------------------------------




--------------------------------------------------------------------------------------------------------


  
 reached required accuracy - stopping structural energy minimisation
     LOOP+:  cpu time    3.3075: real time    3.4484
    4ORBIT:  cpu time    0.0000: real time    0.0000

 total amount of memory used by VASP MPI-rank0    34077. kBytes
=======================================================================

   base      :      30000. kBytes
   nonl-proj :        979. kBytes
   fftplans  :       1775. kBytes
   grid      :        819. kBytes
   one-center:          3. kBytes
   wavefun   :        501. kBytes
 
  
  
 General timing and accounting informations for this job:
 ========================================================
  
                  Total CPU time used (sec):       11.918
                            User time (sec):       11.622
                          System time (sec):        0.296
                         Elapsed time (sec):       12.871
  
                   Maximum memory used (kb):       63460.
                   Average memory used (kb):          N/A
  
                          Minor page faults:         9984
                          Major page faults:            1
                 Voluntary context switches:        14311
