 running on    4 total cores
 distrk:  each k-point on    4 cores,    1 groups
 distr:  one band on    1 cores,    4 groups
 vasp.6.2.0 18Jan21 (build Aug 12 2022 13:00:08) complex                        
  
 POSCAR found type information on POSCAR Si
 POSCAR found :  1 types and       1 ions
 scaLAPACK will be used
 LDA part: xc-table for Pade appr. of Perdew
 POSCAR, INCAR and KPOINTS ok, starting setup
 FFT: planning ...
 WAVECAR not read
 entering main loop
       N       E                     dE             d eps       ncg     rms          rms(c)
DAV:   1    -0.306987992487E+01   -0.30699E+01   -0.14757E+03   968   0.293E+02
DAV:   2    -0.489198548604E+01   -0.18221E+01   -0.18011E+01  1384   0.258E+01
DAV:   3    -0.490158203534E+01   -0.95965E-02   -0.95962E-02   960   0.179E+00
DAV:   4    -0.490159041849E+01   -0.83831E-05   -0.83822E-05  1504   0.590E-02
DAV:   5    -0.490159041859E+01   -0.10516E-09   -0.91606E-09   968   0.372E-04    0.261E+00
DAV:   6    -0.489027727168E+01    0.11313E-01   -0.38756E-03   976   0.274E-01    0.144E+00
DAV:   7    -0.488387212979E+01    0.64051E-02   -0.77417E-03   976   0.386E-01    0.133E-01
DAV:   8    -0.488385280486E+01    0.19325E-04   -0.35630E-05  1280   0.450E-02    0.135E-02
DAV:   9    -0.488385345084E+01   -0.64598E-06   -0.43905E-07  1096   0.380E-03
   1 F= -.48838535E+01 E0= -.48834139E+01  d E =-.488385E+01
 curvature:   0.00 expect dE= 0.000E+00 dE for cont linesearch  0.000E+00
 trial: gam= 0.00000 g(F)=  0.160E-65 g(S)=  0.317E-03 ort = 0.000E+00 (trialstep = 0.100E+01)
 search vector abs. value=  0.317E-03
 bond charge predicted
       N       E                     dE             d eps       ncg     rms          rms(c)
DAV:   1    -0.488404116973E+01   -0.18836E-03   -0.47764E-03   928   0.282E-01    0.652E-02
DAV:   2    -0.488399030669E+01    0.50863E-04   -0.28093E-05  1040   0.422E-02    0.375E-02
DAV:   3    -0.488395905632E+01    0.31250E-04   -0.32404E-05   976   0.244E-02    0.117E-02
DAV:   4    -0.488395896840E+01    0.87915E-07   -0.60261E-08   720   0.223E-03    0.997E-03
DAV:   5    -0.488395843589E+01    0.53252E-06   -0.14666E-08   488   0.903E-04    0.158E-03
DAV:   6    -0.488395848610E+01   -0.50210E-07   -0.57050E-10   472   0.208E-04
   2 F= -.48839585E+01 E0= -.48835108E+01  d E =-.105035E-03
 trial-energy change:   -0.000105  1 .order   -0.000109   -0.000317    0.000099
 step:   0.7617(harm=  0.7617)  dis= 0.00000  next Energy=    -4.883974 (dE=-0.121E-03)
 bond charge predicted
       N       E                     dE             d eps       ncg     rms          rms(c)
DAV:   1    -0.488397497338E+01   -0.16537E-04   -0.27162E-04   928   0.673E-02    0.154E-02
DAV:   2    -0.488397218650E+01    0.27869E-05   -0.15946E-06  1024   0.100E-02    0.884E-03
DAV:   3    -0.488397076896E+01    0.14175E-05   -0.18473E-06   944   0.583E-03    0.282E-03
DAV:   4    -0.488397078292E+01   -0.13961E-07   -0.35068E-09   472   0.551E-04    0.239E-03
DAV:   5    -0.488397088992E+01   -0.10700E-06   -0.96793E-10   472   0.240E-04    0.318E-04
DAV:   6    -0.488397087879E+01    0.11130E-07   -0.35810E-11   472   0.518E-05
   3 F= -.48839709E+01 E0= -.48835256E+01  d E =-.117428E-03
 curvature:  -0.38 expect dE=-0.127E-08 dE for cont linesearch -0.127E-08
 trial: gam= 0.00000 g(F)=  0.773E-66 g(S)=  0.335E-08 ort =-0.103E-05 (trialstep = 0.952E+00)
 search vector abs. value=  0.345E-08
 reached required accuracy - stopping structural energy minimisation
