<?xml version="1.0" encoding="ISO-8859-1"?>
<modeling>
 <generator>
  <i name="program" type="string">vasp </i>
  <i name="version" type="string">6.2.0  </i>
  <i name="subversion" type="string">18Jan21 (build Aug 12 2022 13:00:08) complex                          parallel </i>
  <i name="platform" type="string">LinuxIFC </i>
  <i name="date" type="string">2024 11 05 </i>
  <i name="time" type="string">05:51:47 </i>
 </generator>
 <incar>
  <i type="int" name="ISTART">     0</i>
  <i type="string" name="PREC">Accurate      (Accurate strictly avoids</i>
  <i type="logical" name="ADDGRID"> T  </i>
  <i type="int" name="ISPIN">     1</i>
  <i type="int" name="NELM">    90</i>
  <i type="int" name="NELMIN">     6</i>
  <i type="int" name="IBRION">     2</i>
  <i name="EDIFF">      0.00000100</i>
  <i name="EDIFFG">     -0.00200000</i>
  <i type="int" name="NSW">   100</i>
  <i type="int" name="ISIF">     3</i>
  <i type="int" name="ISYM">     2</i>
  <i name="ENCUT">    400.00000000</i>
  <i type="logical" name="LREAL"> F  </i>
  <i type="int" name="ISMEAR">     0</i>
  <i name="SIGMA">      0.05000000</i>
  <i type="logical" name="LWAVE"> F  </i>
  <i type="logical" name="LCHARG"> F  </i>
  <i type="logical" name="LASPH"> T  </i>
 </incar>
 <primitive_cell>
  <structure name="primitive_cell" >
   <crystal>
    <varray name="basis" >
     <v>       1.53602551       1.53602551       1.53602551 </v>
     <v>       1.53602551      -1.53602551      -1.53602551 </v>
     <v>      -1.53602551       1.53602551      -1.53602551 </v>
    </varray>
    <i name="volume">     14.49623699 </i>
    <varray name="rec_basis" >
     <v>       0.32551543       0.32551543       0.00000000 </v>
     <v>       0.32551543       0.00000000      -0.32551543 </v>
     <v>       0.00000000       0.32551543      -0.32551543 </v>
    </varray>
   </crystal>
   <varray name="positions" >
    <v>       0.00000000       0.00000000       0.00000000 </v>
   </varray>
  </structure>
  <varray name="primitive_index" >
   <v type="int" >        1 </v>
  </varray>
 </primitive_cell>
 <kpoints>
  <generation param="Monkhorst-Pack">
   <v type="int" name="divisions">      11       11       11 </v>
   <v name="usershift">      0.00000000       0.00000000       0.00000000 </v>
   <v name="genvec1">      0.09090909       0.00000000       0.00000000 </v>
   <v name="genvec2">      0.00000000       0.09090909       0.00000000 </v>
   <v name="genvec3">      0.00000000       0.00000000       0.09090909 </v>
   <v name="shift">      0.00000000       0.00000000       0.00000000 </v>
  </generation>
  <varray name="kpointlist" >
   <v>       0.00000000       0.00000000       0.00000000 </v>
   <v>       0.09090909       0.00000000       0.00000000 </v>
   <v>       0.18181818       0.00000000       0.00000000 </v>
   <v>       0.27272727       0.00000000       0.00000000 </v>
   <v>       0.36363636       0.00000000       0.00000000 </v>
   <v>       0.45454545       0.00000000       0.00000000 </v>
   <v>       0.09090909       0.09090909      -0.00000000 </v>
   <v>       0.18181818       0.09090909       0.00000000 </v>
   <v>       0.27272727       0.09090909       0.00000000 </v>
   <v>       0.36363636       0.09090909      -0.00000000 </v>
   <v>       0.45454545       0.09090909       0.00000000 </v>
   <v>       0.18181818       0.18181818       0.00000000 </v>
   <v>       0.27272727       0.18181818      -0.00000000 </v>
   <v>       0.36363636       0.18181818      -0.00000000 </v>
   <v>       0.27272727       0.27272727       0.00000000 </v>
   <v>       0.36363636       0.27272727       0.00000000 </v>
   <v>       0.09090909       0.09090909       0.09090909 </v>
   <v>       0.18181818       0.09090909       0.09090909 </v>
   <v>       0.27272727       0.09090909       0.09090909 </v>
   <v>       0.36363636       0.09090909       0.09090909 </v>
   <v>      -0.09090909       0.09090909       0.09090909 </v>
   <v>       0.18181818       0.18181818       0.09090909 </v>
   <v>       0.27272727       0.18181818       0.09090909 </v>
   <v>       0.36363636       0.18181818       0.09090909 </v>
   <v>      -0.18181818       0.18181818       0.09090909 </v>
   <v>       0.27272727       0.27272727       0.09090909 </v>
   <v>      -0.27272727       0.27272727       0.09090909 </v>
   <v>      -0.18181818       0.27272727       0.09090909 </v>
   <v>      -0.36363636       0.36363636       0.09090909 </v>
   <v>      -0.27272727       0.36363636       0.09090909 </v>
   <v>      -0.45454545       0.45454545       0.09090909 </v>
   <v>      -0.36363636       0.45454545       0.09090909 </v>
   <v>      -0.27272727       0.45454545       0.09090909 </v>
   <v>      -0.45454545      -0.45454545       0.09090909 </v>
   <v>      -0.36363636      -0.45454545       0.09090909 </v>
   <v>      -0.36363636      -0.36363636       0.09090909 </v>
   <v>       0.18181818       0.18181818       0.18181818 </v>
   <v>       0.27272727       0.18181818       0.18181818 </v>
   <v>      -0.18181818       0.18181818       0.18181818 </v>
   <v>       0.27272727       0.27272727       0.18181818 </v>
   <v>      -0.27272727       0.27272727       0.18181818 </v>
   <v>      -0.36363636       0.36363636       0.18181818 </v>
   <v>      -0.27272727       0.36363636       0.18181818 </v>
   <v>      -0.45454545       0.45454545       0.18181818 </v>
   <v>      -0.36363636       0.45454545       0.18181818 </v>
   <v>      -0.45454545      -0.45454545       0.18181818 </v>
   <v>      -0.36363636      -0.45454545       0.18181818 </v>
   <v>      -0.27272727       0.27272727       0.27272727 </v>
   <v>      -0.36363636       0.36363636       0.27272727 </v>
   <v>      -0.45454545       0.45454545       0.27272727 </v>
   <v>      -0.36363636       0.45454545       0.27272727 </v>
   <v>      -0.45454545      -0.45454545       0.27272727 </v>
   <v>      -0.36363636       0.36363636       0.36363636 </v>
   <v>      -0.45454545       0.45454545       0.36363636 </v>
   <v>      -0.45454545      -0.45454545       0.36363636 </v>
   <v>      -0.45454545       0.45454545       0.45454545 </v>
  </varray>
  <varray name="weights" >
   <v>       0.00075131 </v>
   <v>       0.00901578 </v>
   <v>       0.00901578 </v>
   <v>       0.00901578 </v>
   <v>       0.00901578 </v>
   <v>       0.00901578 </v>
   <v>       0.01803156 </v>
   <v>       0.03606311 </v>
   <v>       0.03606311 </v>
   <v>       0.03606311 </v>
   <v>       0.01803156 </v>
   <v>       0.01803156 </v>
   <v>       0.03606311 </v>
   <v>       0.03606311 </v>
   <v>       0.01803156 </v>
   <v>       0.01803156 </v>
   <v>       0.00601052 </v>
   <v>       0.01803156 </v>
   <v>       0.01803156 </v>
   <v>       0.01803156 </v>
   <v>       0.00450789 </v>
   <v>       0.01803156 </v>
   <v>       0.03606311 </v>
   <v>       0.01803156 </v>
   <v>       0.01803156 </v>
   <v>       0.01803156 </v>
   <v>       0.01803156 </v>
   <v>       0.01803156 </v>
   <v>       0.01803156 </v>
   <v>       0.03606311 </v>
   <v>       0.01803156 </v>
   <v>       0.03606311 </v>
   <v>       0.01803156 </v>
   <v>       0.01803156 </v>
   <v>       0.03606311 </v>
   <v>       0.00601052 </v>
   <v>       0.00601052 </v>
   <v>       0.01803156 </v>
   <v>       0.00450789 </v>
   <v>       0.00601052 </v>
   <v>       0.01803156 </v>
   <v>       0.01803156 </v>
   <v>       0.01803156 </v>
   <v>       0.01803156 </v>
   <v>       0.03606311 </v>
   <v>       0.01803156 </v>
   <v>       0.01803156 </v>
   <v>       0.00450789 </v>
   <v>       0.01803156 </v>
   <v>       0.01803156 </v>
   <v>       0.01803156 </v>
   <v>       0.01803156 </v>
   <v>       0.00450789 </v>
   <v>       0.01803156 </v>
   <v>       0.00601052 </v>
   <v>       0.00450789 </v>
  </varray>
 </kpoints>
 <parameters>
  <separator name="general" >
   <i type="string" name="SYSTEM">unknown system</i>
   <i type="logical" name="LCOMPAT"> F  </i>
  </separator>
  <separator name="electronic" >
   <i type="string" name="PREC">accura</i>
   <i name="ENMAX">    400.00000000</i>
   <i name="ENAUG">    322.06900000</i>
   <i name="EDIFF">      0.00000100</i>
   <i type="int" name="IALGO">    38</i>
   <i type="int" name="IWAVPR">    11</i>
   <i type="int" name="NBANDS">     8</i>
   <i type="int" name="NBANDSLOW">    -1</i>
   <i type="int" name="NBANDSHIGH">    -1</i>
   <i name="NELECT">      4.00000000</i>
   <i type="int" name="TURBO">     0</i>
   <i type="int" name="IRESTART">     0</i>
   <i type="int" name="NREBOOT">     0</i>
   <i type="int" name="NMIN">     0</i>
   <i name="EREF">      0.00000000</i>
   <separator name="electronic smearing" >
    <i type="int" name="ISMEAR">     0</i>
    <i name="SIGMA">      0.05000000</i>
    <i name="KSPACING">      0.50000000</i>
    <i type="logical" name="KGAMMA"> T  </i>
    <i type="logical" name="KBLOWUP"> T  </i>
   </separator>
   <separator name="electronic projectors" >
    <i type="logical" name="LREAL"> F  </i>
    <v name="ROPT">      0.00000000</v>
    <i type="int" name="LMAXPAW">  -100</i>
    <i type="int" name="LMAXMIX">     2</i>
    <i type="logical" name="NLSPLINE"> F  </i>
   </separator>
   <separator name="electronic startup" >
    <i type="int" name="ISTART">     0</i>
    <i type="int" name="ICHARG">     2</i>
    <i type="int" name="INIWAV">     1</i>
   </separator>
   <separator name="electronic spin" >
    <i type="int" name="ISPIN">     1</i>
    <i type="logical" name="LNONCOLLINEAR"> F  </i>
    <v name="MAGMOM">      1.00000000</v>
    <i name="NUPDOWN">     -1.00000000</i>
    <i type="logical" name="LSORBIT"> F  </i>
    <v name="SAXIS">      0.00000000      0.00000000      1.00000000</v>
    <i type="logical" name="LSPIRAL"> F  </i>
    <v name="QSPIRAL">      0.00000000      0.00000000      0.00000000</v>
    <i type="logical" name="LZEROZ"> F  </i>
   </separator>
   <separator name="electronic exchange-correlation" >
    <i type="logical" name="LASPH"> T  </i>
    <i type="logical" name="LMETAGGA"> F  </i>
   </separator>
   <separator name="electronic convergence" >
    <i type="int" name="NELM">    90</i>
    <i type="int" name="NELMDL">    -5</i>
    <i type="int" name="NELMIN">     6</i>
    <i name="ENINI">    400.00000000</i>
    <separator name="electronic convergence detail" >
     <i type="logical" name="LDIAG"> T  </i>
     <i type="logical" name="LSUBROT"> F  </i>
     <i name="WEIMIN">      0.00100000</i>
     <i name="EBREAK">      0.00000003</i>
     <i name="DEPER">      0.30000000</i>
     <i type="int" name="NRMM">     4</i>
     <i name="TIME">      0.40000000</i>
    </separator>
   </separator>
   <separator name="electronic mixer" >
    <i name="AMIX">      0.40000000</i>
    <i name="BMIX">      1.00000000</i>
    <i name="AMIN">      0.10000000</i>
    <i name="AMIX_MAG">      1.60000000</i>
    <i name="BMIX_MAG">      1.00000000</i>
    <separator name="electronic mixer details" >
     <i type="int" name="IMIX">     4</i>
     <i type="logical" name="MIXFIRST"> F  </i>
     <i type="int" name="MAXMIX">   -45</i>
     <i name="WC">    100.00000000</i>
     <i type="int" name="INIMIX">     1</i>
     <i type="int" name="MIXPRE">     1</i>
     <i type="int" name="MREMOVE">     5</i>
    </separator>
   </separator>
   <separator name="electronic dipolcorrection" >
    <i type="logical" name="LDIPOL"> F  </i>
    <i type="logical" name="LMONO"> F  </i>
    <i type="int" name="IDIPOL">     0</i>
    <i name="EPSILON">      1.00000000</i>
    <v name="DIPOL">   -100.00000000   -100.00000000   -100.00000000</v>
    <i name="EFIELD">      0.00000000</i>
   </separator>
  </separator>
  <separator name="grids" >
   <i type="int" name="NGX">    18</i>
   <i type="int" name="NGY">    18</i>
   <i type="int" name="NGZ">    18</i>
   <i type="int" name="NGXF">    36</i>
   <i type="int" name="NGYF">    36</i>
   <i type="int" name="NGZF">    36</i>
   <i type="logical" name="ADDGRID"> T  </i>
  </separator>
  <separator name="ionic" >
   <i type="int" name="NSW">   100</i>
   <i type="int" name="IBRION">     2</i>
   <i type="int" name="MDALGO">     0</i>
   <i type="int" name="ISIF">     3</i>
   <i name="PSTRESS">      0.00000000</i>
   <i name="EDIFFG">     -0.00200000</i>
   <i type="int" name="NFREE">     1</i>
   <i name="POTIM">      0.50000000</i>
   <i name="SMASS">     -3.00000000</i>
   <i name="SCALEE">      1.00000000</i>
  </separator>
  <separator name="ionic md" >
   <i name="TEBEG">      0.00010000</i>
   <i name="TEEND">      0.00010000</i>
   <i type="int" name="NBLOCK">     1</i>
   <i type="int" name="KBLOCK">   100</i>
   <i type="int" name="NPACO">   256</i>
   <i name="APACO">     16.00000000</i>
  </separator>
  <separator name="symmetry" >
   <i type="int" name="ISYM">     2</i>
   <i name="SYMPREC">      0.00001000</i>
  </separator>
  <separator name="dos" >
   <i type="int" name="LORBIT">     0</i>
   <v name="RWIGS">     -1.00000000</v>
   <i type="int" name="NEDOS">   301</i>
   <i name="EMIN">     10.00000000</i>
   <i name="EMAX">    -10.00000000</i>
   <i name="EFERMI">      0.00000000</i>
  </separator>
  <separator name="writing" >
   <i type="int" name="NWRITE">     2</i>
   <i type="logical" name="LWAVE"> F  </i>
   <i type="logical" name="LDOWNSAMPLE"> F  </i>
   <i type="logical" name="LCHARG"> F  </i>
   <i type="logical" name="LPARD"> F  </i>
   <i type="logical" name="LVTOT"> F  </i>
   <i type="logical" name="LVHAR"> F  </i>
   <i type="logical" name="LELF"> F  </i>
   <i type="logical" name="LOPTICS"> F  </i>
   <v name="STM">      0.00000000      0.00000000      0.00000000      0.00000000      0.00000000      0.00000000      0.00000000</v>
  </separator>
  <separator name="performance" >
   <i type="int" name="NPAR">     4</i>
   <i type="int" name="NSIM">     4</i>
   <i type="int" name="NBLK">    -1</i>
   <i type="logical" name="LPLANE"> T  </i>
   <i type="logical" name="LSCALAPACK"> T  </i>
   <i type="logical" name="LSCAAWARE"> F  </i>
   <i type="logical" name="LSCALU"> F  </i>
   <i type="logical" name="LASYNC"> F  </i>
   <i type="logical" name="LORBITALREAL"> F  </i>
  </separator>
  <separator name="miscellaneous" >
   <i type="int" name="IDIOT">     3</i>
   <i type="int" name="PHON_NSTRUCT">    -1</i>
   <i type="logical" name="LMUSIC"> F  </i>
   <v name="POMASS">     28.08500000</v>
   <v name="DARWINR">      0.00000000</v>
   <v name="DARWINV">      1.00000000</v>
   <i type="logical" name="LCORR"> T  </i>
  </separator>
  <i type="logical" name="GGA_COMPAT"> T  </i>
  <i type="logical" name="LBERRY"> F  </i>
  <i type="int" name="ICORELEVEL">     0</i>
  <i type="logical" name="LDAU"> F  </i>
  <i type="int" name="I_CONSTRAINED_M">     0</i>
  <separator name="electronic exchange-correlation" >
   <i type="string" name="GGA">--</i>
   <i type="int" name="VOSKOWN">     0</i>
   <i type="logical" name="LHFCALC"> F  </i>
   <i type="string" name="PRECFOCK"></i>
   <i type="logical" name="LSYMGRAD"> F  </i>
   <i type="logical" name="LHFONE"> F  </i>
   <i type="logical" name="LRHFCALC"> F  </i>
   <i type="logical" name="LTHOMAS"> F  </i>
   <i type="logical" name="LMODELHF"> F  </i>
   <i type="logical" name="LFOCKACE"> F  </i>
   <i name="ENCUT4O">     -1.00000000</i>
   <i type="int" name="EXXOEP">     0</i>
   <i type="int" name="FOURORBIT">     0</i>
   <i name="AEXX">      0.00000000</i>
   <i name="HFALPHA">      0.00000000</i>
   <i name="MCALPHA">      0.00000000</i>
   <i name="ALDAX">      1.00000000</i>
   <i name="AGGAX">      1.00000000</i>
   <i name="ALDAC">      1.00000000</i>
   <i name="AGGAC">      1.00000000</i>
   <i type="int" name="NKREDX">     1</i>
   <i type="int" name="NKREDY">     1</i>
   <i type="int" name="NKREDZ">     1</i>
   <i type="logical" name="SHIFTRED"> F  </i>
   <i type="logical" name="ODDONLY"> F  </i>
   <i type="logical" name="EVENONLY"> F  </i>
   <i type="int" name="LMAXFOCK">     0</i>
   <i type="int" name="NMAXFOCKAE">     0</i>
   <i type="logical" name="LFOCKAEDFT"> F  </i>
   <i name="HFSCREEN">      0.00000000</i>
   <i name="HFSCREENC">      0.00000000</i>
   <i type="int" name="NBANDSGWLOW">     0</i>
  </separator>
  <separator name="vdW DFT" >
   <i type="logical" name="LUSE_VDW"> F  </i>
   <i name="Zab_VDW">     -0.84910000</i>
   <i name="PARAM1">      0.12340000</i>
   <i name="PARAM2">      1.00000000</i>
   <i name="PARAM3">      0.00000000</i>
  </separator>
  <separator name="model GW" >
   <i type="int" name="MODEL_GW">     0</i>
   <i name="MODEL_EPS0">      8.69774219</i>
   <i name="MODEL_ALPHA">      1.00000000</i>
  </separator>
  <separator name="linear response parameters" >
   <i type="logical" name="LEPSILON"> F  </i>
   <i type="logical" name="LRPA"> F  </i>
   <i type="logical" name="LNABLA"> F  </i>
   <i type="logical" name="LVEL"> F  </i>
   <i type="int" name="KINTER">     0</i>
   <i name="CSHIFT">      0.10000000</i>
   <i name="OMEGAMAX">     -1.00000000</i>
   <i name="DEG_THRESHOLD">      0.00200000</i>
   <i name="RTIME">     -0.10000000</i>
   <i name="WPLASMAI">      0.00000000</i>
   <v name="DFIELD">      0.00000000      0.00000000      0.00000000</v>
   <v name="WPLASMA">      0.00000000      0.00000000      0.00000000      0.00000000      0.00000000      0.00000000      0.00000000      0.00000000      0.00000000</v>
  </separator>
  <separator name="orbital magnetization" >
   <i type="logical" name="NUCIND"> F  </i>
   <v name="MAGPOS">      0.00000000      0.00000000      0.00000000</v>
   <i type="logical" name="LNICSALL"> T  </i>
   <i type="logical" name="ORBITALMAG"> F  </i>
   <i type="logical" name="LMAGBLOCH"> F  </i>
   <i type="logical" name="LCHIMAG"> F  </i>
   <i type="logical" name="LGAUGE"> T  </i>
   <i type="int" name="MAGATOM">     0</i>
   <v name="MAGDIPOL">      0.00000000      0.00000000      0.00000000</v>
   <v name="AVECCONST">      0.00000000      0.00000000      0.00000000</v>
  </separator>
  <separator name="response functions" >
   <i type="logical" name="LFINITE_TEMPERATURE"> F  </i>
   <i type="logical" name="LADDER"> F  </i>
   <i type="logical" name="LRPAFORCE"> F  </i>
   <i type="logical" name="LFXC"> F  </i>
   <i type="logical" name="LHARTREE"> T  </i>
   <i type="int" name="IBSE">     0</i>
   <v type="int" name="KPOINT">    -1     0     0     0</v>
   <i type="logical" name="LTCTC"> F  </i>
   <i type="logical" name="LTCTE"> F  </i>
   <i type="logical" name="LTETE"> F  </i>
   <i type="logical" name="LTRIPLET"> F  </i>
   <i type="logical" name="LFXCEPS"> F  </i>
   <i type="logical" name="LFXHEG"> F  </i>
   <i type="int" name="NATURALO">     2</i>
   <i type="logical" name="LHOLEGF"> F  </i>
   <i type="logical" name="L2ORDER"> F  </i>
   <i type="logical" name="LDMP1"> F  </i>
   <i type="logical" name="LMP2LT"> F  </i>
   <i type="logical" name="LSMP2LT"> F  </i>
   <i type="logical" name="LGWLF"> F  </i>
   <i name="ENCUTGW">     -2.00000000</i>
   <i name="ENCUTGWSOFT">     -2.00000000</i>
   <i name="ENCUTLF">     -1.00000000</i>
   <i type="logical" name="LESF_SPLINES"> F  </i>
   <i type="int" name="LMAXMP2">    -1</i>
   <i name="SCISSOR">      0.00000000</i>
   <i type="int" name="NOMEGA">     0</i>
   <i type="int" name="NOMEGAR">     0</i>
   <i type="int" name="NBANDSGW">    -1</i>
   <i type="int" name="NBANDSO">    -1</i>
   <i type="int" name="NBANDSV">    -1</i>
   <i type="int" name="NELM">    90</i>
   <i type="int" name="NELMHF">     1</i>
   <i type="int" name="DIM">     3</i>
   <i type="int" name="IESPILON">     4</i>
   <i type="int" name="ANTIRES">     0</i>
   <i name="OMEGAMAX">    -30.00000000</i>
   <i name="OMEGAMIN">    -30.00000000</i>
   <i name="OMEGATL">   -200.00000000</i>
   <i type="int" name="OMEGAGRID">     0</i>
   <i name="CSHIFT">     -0.10000000</i>
   <i type="logical" name="LSELFENERGY"> F  </i>
   <i type="logical" name="LSPECTRAL"> F  </i>
   <i type="logical" name="LSPECTRALGW"> F  </i>
   <i type="logical" name="LSINGLES"> F  </i>
   <i type="logical" name="LFERMIGW"> F  </i>
   <i type="logical" name="ODDONLYGW"> F  </i>
   <i type="logical" name="EVENONLYGW"> F  </i>
   <i type="int" name="NKREDLFX">     1</i>
   <i type="int" name="NKREDLFY">     1</i>
   <i type="int" name="NKREDLFZ">     1</i>
   <i type="int" name="MAXMEM">  2800</i>
   <i type="int" name="TELESCOPE">     0</i>
   <i type="int" name="NTAUPAR">    -1</i>
   <i type="int" name="NOMEGAPAR">    -1</i>
   <i name="DAMP_NEWTON">      0.80000001</i>
   <i name="LAMBDA">      1.00000000</i>
  </separator>
  <separator name="External order field" >
   <i name="OFIELD_KAPPA">      0.00000000</i>
   <v name="OFIELD_K">      0.00000000      0.00000000      0.00000000</v>
   <i name="OFIELD_Q6_NEAR">      0.00000000</i>
   <i name="OFIELD_Q6_FAR">      0.00000000</i>
   <i name="OFIELD_A">      0.00000000</i>
  </separator>
 </parameters>
 <atominfo>
  <atoms>       1 </atoms>
  <types>       1 </types>
  <array name="atoms" >
   <dimension dim="1">ion</dimension>
   <field type="string">element</field>
   <field type="int">atomtype</field>
   <set>
    <rc><c>Si</c><c>   1</c></rc>
   </set>
  </array>
  <array name="atomtypes" >
   <dimension dim="1">type</dimension>
   <field type="int">atomspertype</field>
   <field type="string">element</field>
   <field>mass</field>
   <field>valence</field>
   <field type="string">pseudopotential</field>
   <set>
    <rc><c>   1</c><c>Si</c><c>     28.08500000</c><c>      4.00000000</c><c>  PAW_PBE Si 05Jan2001                  </c></rc>
   </set>
  </array>
 </atominfo>
 <structure name="initialpos" >
  <crystal>
   <varray name="basis" >
    <v>       1.53602551       1.53602551       1.53602551 </v>
    <v>       1.53602551      -1.53602551      -1.53602551 </v>
    <v>      -1.53602551       1.53602551      -1.53602551 </v>
   </varray>
   <i name="volume">     14.49623699 </i>
   <varray name="rec_basis" >
    <v>       0.32551543       0.32551543       0.00000000 </v>
    <v>       0.32551543       0.00000000      -0.32551543 </v>
    <v>       0.00000000       0.32551543      -0.32551543 </v>
   </varray>
  </crystal>
  <varray name="positions" >
   <v>       0.00000000       0.00000000       0.00000000 </v>
  </varray>
 </structure>
 <calculation>
  <scstep>
   <time name="dav">    0.28    0.28</time>
   <time name="total">    0.46    0.47</time>
   <energy>
    <i name="alphaZ">      2.32219788 </i>
    <i name="ewald">   -136.46697043 </i>
    <i name="hartreedc">     -0.57152506 </i>
    <i name="XCdc">     -8.81306897 </i>
    <i name="pawpsdc">     88.12379961 </i>
    <i name="pawaedc">    -70.53051779 </i>
    <i name="eentropy">     -0.00132712 </i>
    <i name="bandstr">     19.80178572 </i>
    <i name="atom">    103.06574623 </i>
    <i name="e_fr_energy">     -3.06987992 </i>
    <i name="e_wo_entrp">     -3.06855281 </i>
    <i name="e_0_energy">     -3.06921637 </i>
   </energy>
  </scstep>
  <scstep>
   <time name="dav">    0.40    0.40</time>
   <time name="total">    0.40    0.41</time>
   <energy>
    <i name="e_fr_energy">     -4.89198549 </i>
    <i name="e_wo_entrp">     -4.89118050 </i>
    <i name="e_0_energy">     -4.89158300 </i>
   </energy>
  </scstep>
  <scstep>
   <time name="dav">    0.28    0.28</time>
   <time name="total">    0.28    0.29</time>
   <energy>
    <i name="e_fr_energy">     -4.90158204 </i>
    <i name="e_wo_entrp">     -4.90075760 </i>
    <i name="e_0_energy">     -4.90116982 </i>
   </energy>
  </scstep>
  <scstep>
   <time name="dav">    0.43    0.44</time>
   <time name="total">    0.43    0.44</time>
   <energy>
    <i name="e_fr_energy">     -4.90159042 </i>
    <i name="e_wo_entrp">     -4.90076596 </i>
    <i name="e_0_energy">     -4.90117819 </i>
   </energy>
  </scstep>
  <scstep>
   <time name="dav">    0.28    0.29</time>
   <time name="total">    0.30    0.31</time>
   <energy>
    <i name="e_fr_energy">     -4.90159042 </i>
    <i name="e_wo_entrp">     -4.90076596 </i>
    <i name="e_0_energy">     -4.90117819 </i>
   </energy>
  </scstep>
  <scstep>
   <time name="dav">    0.28    0.28</time>
   <time name="total">    0.48    0.49</time>
   <energy>
    <i name="e_fr_energy">     -4.89027727 </i>
    <i name="e_wo_entrp">     -4.88943384 </i>
    <i name="e_0_energy">     -4.88985555 </i>
   </energy>
  </scstep>
  <scstep>
   <time name="dav">    0.28    0.28</time>
   <time name="total">    0.48    0.50</time>
   <energy>
    <i name="e_fr_energy">     -4.88387213 </i>
    <i name="e_wo_entrp">     -4.88299476 </i>
    <i name="e_0_energy">     -4.88343344 </i>
   </energy>
  </scstep>
  <scstep>
   <time name="dav">    0.36    0.36</time>
   <time name="total">    0.57    0.58</time>
   <energy>
    <i name="e_fr_energy">     -4.88385280 </i>
    <i name="e_wo_entrp">     -4.88297412 </i>
    <i name="e_0_energy">     -4.88341346 </i>
   </energy>
  </scstep>
  <scstep>
   <time name="dav">    0.32    0.32</time>
   <time name="total">    0.49    0.51</time>
   <energy>
    <i name="alphaZ">      2.32219788 </i>
    <i name="ewald">   -136.46697043 </i>
    <i name="hartreedc">     -0.41093447 </i>
    <i name="XCdc">     -8.75703231 </i>
    <i name="pawpsdc">    298.29461545 </i>
    <i name="pawaedc">   -280.71627256 </i>
    <i name="eentropy">     -0.00087901 </i>
    <i name="bandstr">     17.78567578 </i>
    <i name="atom">    103.06574623 </i>
    <i name="e_fr_energy">     -4.88385345 </i>
    <i name="e_wo_entrp">     -4.88297444 </i>
    <i name="e_0_energy">     -4.88341394 </i>
   </energy>
  </scstep>
  <structure>
   <crystal>
    <varray name="basis" >
     <v>       1.53602551       1.53602551       1.53602551 </v>
     <v>       1.53602551      -1.53602551      -1.53602551 </v>
     <v>      -1.53602551       1.53602551      -1.53602551 </v>
    </varray>
    <i name="volume">     14.49623699 </i>
    <varray name="rec_basis" >
     <v>       0.32551543       0.32551543       0.00000000 </v>
     <v>       0.32551543       0.00000000      -0.32551543 </v>
     <v>       0.00000000       0.32551543      -0.32551543 </v>
    </varray>
   </crystal>
   <varray name="positions" >
    <v>       0.00000000       0.00000000       0.00000000 </v>
   </varray>
  </structure>
  <varray name="forces" >
   <v>      -0.00000000      -0.00000000      -0.00000000 </v>
  </varray>
  <varray name="stress" >
   <v>       5.17019074      -0.00000000       0.00000000 </v>
   <v>       0.00000000       5.17019074       0.00000000 </v>
   <v>      -0.00000000       0.00000000       5.17019074 </v>
  </varray>
  <energy>
   <i name="e_fr_energy">     -4.88385345 </i>
   <i name="e_wo_entrp">     -4.88297444 </i>
   <i name="e_0_energy">     -4.88341394 </i>
  </energy>
  <time name="totalsc">    4.67    4.84</time>
 </calculation>
 <calculation>
  <scstep>
   <time name="dav">    0.27    0.27</time>
   <time name="total">    0.47    0.47</time>
   <energy>
    <i name="alphaZ">      2.30654675 </i>
    <i name="ewald">   -136.15969275 </i>
    <i name="hartreedc">     -0.40998465 </i>
    <i name="XCdc">     -8.77455903 </i>
    <i name="pawpsdc">    298.39372944 </i>
    <i name="pawaedc">   -280.81502641 </i>
    <i name="eentropy">     -0.00089958 </i>
    <i name="bandstr">     17.51009883 </i>
    <i name="atom">    103.06574623 </i>
    <i name="e_fr_energy">     -4.88404117 </i>
    <i name="e_wo_entrp">     -4.88314159 </i>
    <i name="e_0_energy">     -4.88359138 </i>
   </energy>
  </scstep>
  <scstep>
   <time name="dav">    0.30    0.30</time>
   <time name="total">    0.50    0.51</time>
   <energy>
    <i name="e_fr_energy">     -4.88399031 </i>
    <i name="e_wo_entrp">     -4.88309253 </i>
    <i name="e_0_energy">     -4.88354142 </i>
   </energy>
  </scstep>
  <scstep>
   <time name="dav">    0.28    0.28</time>
   <time name="total">    0.49    0.51</time>
   <energy>
    <i name="e_fr_energy">     -4.88395906 </i>
    <i name="e_wo_entrp">     -4.88306376 </i>
    <i name="e_0_energy">     -4.88351141 </i>
   </energy>
  </scstep>
  <scstep>
   <time name="dav">    0.23    0.23</time>
   <time name="total">    0.44    0.44</time>
   <energy>
    <i name="e_fr_energy">     -4.88395897 </i>
    <i name="e_wo_entrp">     -4.88306364 </i>
    <i name="e_0_energy">     -4.88351131 </i>
   </energy>
  </scstep>
  <scstep>
   <time name="dav">    0.17    0.17</time>
   <time name="total">    0.38    0.39</time>
   <energy>
    <i name="e_fr_energy">     -4.88395844 </i>
    <i name="e_wo_entrp">     -4.88306305 </i>
    <i name="e_0_energy">     -4.88351074 </i>
   </energy>
  </scstep>
  <scstep>
   <time name="dav">    0.17    0.17</time>
   <time name="total">    0.35    0.37</time>
   <energy>
    <i name="alphaZ">      2.30654675 </i>
    <i name="ewald">   -136.15969275 </i>
    <i name="hartreedc">     -0.42103987 </i>
    <i name="XCdc">     -8.77681279 </i>
    <i name="pawpsdc">    293.82028673 </i>
    <i name="pawaedc">   -276.24006331 </i>
    <i name="eentropy">     -0.00089538 </i>
    <i name="bandstr">     17.52196591 </i>
    <i name="atom">    103.06574623 </i>
    <i name="e_fr_energy">     -4.88395849 </i>
    <i name="e_wo_entrp">     -4.88306310 </i>
    <i name="e_0_energy">     -4.88351079 </i>
   </energy>
  </scstep>
  <structure>
   <crystal>
    <varray name="basis" >
     <v>       1.53949193       1.53949193       1.53949193 </v>
     <v>       1.53949193      -1.53949193      -1.53949193 </v>
     <v>      -1.53949193       1.53949193      -1.53949193 </v>
    </varray>
    <i name="volume">     14.59460156 </i>
    <varray name="rec_basis" >
     <v>       0.32478248       0.32478248       0.00000000 </v>
     <v>       0.32478248       0.00000000      -0.32478248 </v>
     <v>       0.00000000       0.32478248      -0.32478248 </v>
    </varray>
   </crystal>
   <varray name="positions" >
    <v>      -0.00000000       0.00000000       0.00000000 </v>
   </varray>
  </structure>
  <varray name="forces" >
   <v>       0.00000000      -0.00000000       0.00000000 </v>
  </varray>
  <varray name="stress" >
   <v>      -1.60685266       0.00000000       0.00000000 </v>
   <v>      -0.00000000      -1.60685266      -0.00000000 </v>
   <v>       0.00000000      -0.00000000      -1.60685266 </v>
  </varray>
  <energy>
   <i name="e_fr_energy">     -4.88395849 </i>
   <i name="e_wo_entrp">     -4.88306310 </i>
   <i name="e_0_energy">     -4.88351079 </i>
  </energy>
  <time name="totalsc">    3.40    3.54</time>
 </calculation>
 <calculation>
  <scstep>
   <time name="dav">    0.27    0.27</time>
   <time name="total">    0.47    0.48</time>
   <energy>
    <i name="alphaZ">      2.31026405 </i>
    <i name="ewald">   -136.23279988 </i>
    <i name="hartreedc">     -0.42126605 </i>
    <i name="XCdc">     -8.77267523 </i>
    <i name="pawpsdc">    293.80535810 </i>
    <i name="pawaedc">   -276.22513515 </i>
    <i name="eentropy">     -0.00088965 </i>
    <i name="bandstr">     17.58742261 </i>
    <i name="atom">    103.06574623 </i>
    <i name="e_fr_energy">     -4.88397497 </i>
    <i name="e_wo_entrp">     -4.88308532 </i>
    <i name="e_0_energy">     -4.88353015 </i>
   </energy>
  </scstep>
  <scstep>
   <time name="dav">    0.30    0.30</time>
   <time name="total">    0.50    0.51</time>
   <energy>
    <i name="e_fr_energy">     -4.88397219 </i>
    <i name="e_wo_entrp">     -4.88308215 </i>
    <i name="e_0_energy">     -4.88352717 </i>
   </energy>
  </scstep>
  <scstep>
   <time name="dav">    0.27    0.27</time>
   <time name="total">    0.48    0.50</time>
   <energy>
    <i name="e_fr_energy">     -4.88397077 </i>
    <i name="e_wo_entrp">     -4.88308019 </i>
    <i name="e_0_energy">     -4.88352548 </i>
   </energy>
  </scstep>
  <scstep>
   <time name="dav">    0.17    0.17</time>
   <time name="total">    0.37    0.38</time>
   <energy>
    <i name="e_fr_energy">     -4.88397078 </i>
    <i name="e_wo_entrp">     -4.88308021 </i>
    <i name="e_0_energy">     -4.88352550 </i>
   </energy>
  </scstep>
  <scstep>
   <time name="dav">    0.17    0.17</time>
   <time name="total">    0.38    0.38</time>
   <energy>
    <i name="e_fr_energy">     -4.88397089 </i>
    <i name="e_wo_entrp">     -4.88308033 </i>
    <i name="e_0_energy">     -4.88352561 </i>
   </energy>
  </scstep>
  <scstep>
   <time name="dav">    0.17    0.17</time>
   <time name="total">    0.35    0.37</time>
   <energy>
    <i name="alphaZ">      2.31026405 </i>
    <i name="ewald">   -136.23279988 </i>
    <i name="hartreedc">     -0.41860562 </i>
    <i name="XCdc">     -8.77213609 </i>
    <i name="pawpsdc">    294.85556501 </i>
    <i name="pawaedc">   -277.27569439 </i>
    <i name="eentropy">     -0.00089056 </i>
    <i name="bandstr">     17.58458037 </i>
    <i name="atom">    103.06574623 </i>
    <i name="e_fr_energy">     -4.88397088 </i>
    <i name="e_wo_entrp">     -4.88308032 </i>
    <i name="e_0_energy">     -4.88352560 </i>
   </energy>
  </scstep>
  <structure>
   <crystal>
    <varray name="basis" >
     <v>       1.53866579       1.53866579       1.53866579 </v>
     <v>       1.53866579      -1.53866579      -1.53866579 </v>
     <v>      -1.53866579       1.53866579      -1.53866579 </v>
    </varray>
    <i name="volume">     14.57111830 </i>
    <varray name="rec_basis" >
     <v>       0.32495686       0.32495686       0.00000000 </v>
     <v>       0.32495686       0.00000000      -0.32495686 </v>
     <v>       0.00000000       0.32495686      -0.32495686 </v>
    </varray>
   </crystal>
   <varray name="positions" >
    <v>      -0.00000000       0.00000000       0.00000000 </v>
   </varray>
  </structure>
  <varray name="forces" >
   <v>      -0.00000000       0.00000000      -0.00000000 </v>
  </varray>
  <varray name="stress" >
   <v>      -0.01671810      -0.00000000      -0.00000000 </v>
   <v>      -0.00000000      -0.01671810       0.00000000 </v>
   <v>       0.00000000       0.00000000      -0.01671810 </v>
  </varray>
  <energy>
   <i name="e_fr_energy">     -4.88397088 </i>
   <i name="e_wo_entrp">     -4.88308032 </i>
   <i name="e_0_energy">     -4.88352560 </i>
  </energy>
  <time name="totalsc">    3.31    3.45</time>
  <eigenvalues>
   <array>
    <dimension dim="1">band</dimension>
    <dimension dim="2">kpoint</dimension>
    <dimension dim="3">spin</dimension>
    <field>eigene</field>
    <field>occ</field>
    <set>
     <set comment="spin 1">
      <set comment="kpoint 1">
       <r>   -4.3021    1.0000 </r>
       <r>   21.3881    0.0000 </r>
       <r>   21.3881    0.0000 </r>
       <r>   21.3881    0.0000 </r>
       <r>   22.5153    0.0000 </r>
       <r>   22.5153    0.0000 </r>
       <r>   22.5153    0.0000 </r>
       <r>   26.2173    0.0000 </r>
      </set>
      <set comment="kpoint 2">
       <r>   -4.0485    1.0000 </r>
       <r>   18.8624    0.0000 </r>
       <r>   19.7369    0.0000 </r>
       <r>   21.0352    0.0000 </r>
       <r>   21.7423    0.0000 </r>
       <r>   23.3999    0.0000 </r>
       <r>   24.5918    0.0000 </r>
       <r>   25.0656    0.0000 </r>
      </set>
      <set comment="kpoint 3">
       <r>   -3.2895    1.0000 </r>
       <r>   15.0870    0.0000 </r>
       <r>   18.0514    0.0000 </r>
       <r>   20.1738    0.0000 </r>
       <r>   20.3072    0.0000 </r>
       <r>   22.3660    0.0000 </r>
       <r>   25.8348    0.0000 </r>
       <r>   26.1661    0.0000 </r>
      </set>
      <set comment="kpoint 4">
       <r>   -2.0306    1.0000 </r>
       <r>   11.2858    0.0000 </r>
       <r>   16.7770    0.0000 </r>
       <r>   19.0134    0.0000 </r>
       <r>   19.2355    0.0000 </r>
       <r>   21.1748    0.0000 </r>
       <r>   26.9822    0.0000 </r>
       <r>   27.2856    0.0000 </r>
      </set>
      <set comment="kpoint 5">
       <r>   -0.2818    1.0000 </r>
       <r>    7.7722    1.0000 </r>
       <r>   15.9269    0.0000 </r>
       <r>   18.0967    0.0000 </r>
       <r>   18.5146    0.0000 </r>
       <r>   20.3290    0.0000 </r>
       <r>   28.3009    0.0000 </r>
       <r>   28.9769    0.0000 </r>
      </set>
      <set comment="kpoint 6">
       <r>    1.9380    1.0000 </r>
       <r>    4.6562    1.0000 </r>
       <r>   15.5021    0.0000 </r>
       <r>   17.6270    0.0000 </r>
       <r>   18.1335    0.0000 </r>
       <r>   19.8921    0.0000 </r>
       <r>   29.8355    0.0000 </r>
       <r>   30.5586    0.0000 </r>
      </set>
      <set comment="kpoint 7">
       <r>   -3.5422    1.0000 </r>
       <r>   16.8670    0.0000 </r>
       <r>   17.4039    0.0000 </r>
       <r>   19.4132    0.0000 </r>
       <r>   22.1033    0.0000 </r>
       <r>   23.4885    0.0000 </r>
       <r>   24.6524    0.0000 </r>
       <r>   25.8644    0.0000 </r>
      </set>
      <set comment="kpoint 8">
       <r>   -2.5332    1.0000 </r>
       <r>   13.3136    0.0000 </r>
       <r>   15.6489    0.0000 </r>
       <r>   18.0950    0.0000 </r>
       <r>   21.4294    0.0000 </r>
       <r>   22.9375    0.0000 </r>
       <r>   25.2311    0.0000 </r>
       <r>   27.6818    0.0000 </r>
      </set>
      <set comment="kpoint 9">
       <r>   -1.0292    1.0000 </r>
       <r>    9.6574    1.0000 </r>
       <r>   14.5302    0.0000 </r>
       <r>   17.0646    0.0000 </r>
       <r>   20.5192    0.0000 </r>
       <r>   22.4427    0.0000 </r>
       <r>   26.1191    0.0000 </r>
       <r>   29.5356    0.0000 </r>
      </set>
      <set comment="kpoint 10">
       <r>    0.9574    1.0000 </r>
       <r>    6.3390    1.0000 </r>
       <r>   13.8570    0.0000 </r>
       <r>   16.4217    0.0000 </r>
       <r>   19.9006    0.0000 </r>
       <r>   22.0134    0.0000 </r>
       <r>   27.6339    0.0000 </r>
       <r>   30.6175    0.0000 </r>
      </set>
      <set comment="kpoint 11">
       <r>    3.2320    1.0000 </r>
       <r>    3.6159    1.0000 </r>
       <r>   13.6320    0.0000 </r>
       <r>   16.2044    0.0000 </r>
       <r>   19.6877    0.0000 </r>
       <r>   21.8511    0.0000 </r>
       <r>   29.3191    0.0000 </r>
       <r>   29.6567    0.0000 </r>
      </set>
      <set comment="kpoint 12">
       <r>   -1.2789    1.0000 </r>
       <r>   11.7849    0.0000 </r>
       <r>   12.1479    0.0000 </r>
       <r>   16.8798    0.0000 </r>
       <r>   22.0354    0.0000 </r>
       <r>   22.9458    0.0000 </r>
       <r>   26.8644    0.0000 </r>
       <r>   27.9817    0.0000 </r>
      </set>
      <set comment="kpoint 13">
       <r>    0.4637    1.0000 </r>
       <r>    8.4753    1.0000 </r>
       <r>   11.0513    0.0000 </r>
       <r>   16.0398    0.0000 </r>
       <r>   21.6814    0.0000 </r>
       <r>   23.7444    0.0000 </r>
       <r>   27.0649    0.0000 </r>
       <r>   29.7698    0.0000 </r>
      </set>
      <set comment="kpoint 14">
       <r>    2.6759    1.0000 </r>
       <r>    5.3793    1.0000 </r>
       <r>   10.5810    0.0000 </r>
       <r>   15.6094    0.0000 </r>
       <r>   21.3161    0.0000 </r>
       <r>   24.6139    0.0000 </r>
       <r>   27.4221    0.0000 </r>
       <r>   29.2565    0.0000 </r>
      </set>
      <set comment="kpoint 15">
       <r>    2.4351    1.0000 </r>
       <r>    7.6259    1.0000 </r>
       <r>    7.9205    1.0000 </r>
       <r>   15.4106    0.0000 </r>
       <r>   22.9551    0.0000 </r>
       <r>   23.8534    0.0000 </r>
       <r>   27.7329    0.0000 </r>
       <r>   30.0647    0.0000 </r>
      </set>
      <set comment="kpoint 16">
       <r>    4.7006    1.0000 </r>
       <r>    5.0554    1.0000 </r>
       <r>    7.5468    1.0000 </r>
       <r>   15.1967    0.0000 </r>
       <r>   23.0957    0.0000 </r>
       <r>   25.1007    0.0000 </r>
       <r>   26.1252    0.0000 </r>
       <r>   30.9122    0.0000 </r>
      </set>
      <set comment="kpoint 17">
       <r>   -2.7850    1.0000 </r>
       <r>   15.0086    0.0000 </r>
       <r>   15.8693    0.0000 </r>
       <r>   15.8693    0.0000 </r>
       <r>   24.0405    0.0000 </r>
       <r>   24.0405    0.0000 </r>
       <r>   26.0486    0.0000 </r>
       <r>   26.0486    0.0000 </r>
      </set>
      <set comment="kpoint 18">
       <r>   -1.5292    1.0000 </r>
       <r>   11.7318    0.0000 </r>
       <r>   14.0131    0.0000 </r>
       <r>   14.5654    0.0000 </r>
       <r>   23.8495    0.0000 </r>
       <r>   24.3099    0.0000 </r>
       <r>   27.2050    0.0000 </r>
       <r>   27.3742    0.0000 </r>
      </set>
      <set comment="kpoint 19">
       <r>    0.2156    1.0000 </r>
       <r>    8.2469    1.0000 </r>
       <r>   13.0920    0.0000 </r>
       <r>   13.6608    0.0000 </r>
       <r>   23.4436    0.0000 </r>
       <r>   23.7368    0.0000 </r>
       <r>   28.7129    0.0000 </r>
       <r>   29.1290    0.0000 </r>
      </set>
      <set comment="kpoint 20">
       <r>    2.4307    1.0000 </r>
       <r>    5.1404    1.0000 </r>
       <r>   12.6370    0.0000 </r>
       <r>   13.2012    0.0000 </r>
       <r>   23.1662    0.0000 </r>
       <r>   23.3887    0.0000 </r>
       <r>   30.1440    0.0000 </r>
       <r>   30.7815    0.0000 </r>
      </set>
      <set comment="kpoint 21">
       <r>   -3.7952    1.0000 </r>
       <r>   18.3489    0.0000 </r>
       <r>   18.3489    0.0000 </r>
       <r>   19.6635    0.0000 </r>
       <r>   22.5421    0.0000 </r>
       <r>   23.0109    0.0000 </r>
       <r>   24.3517    0.0000 </r>
       <r>   24.3517    0.0000 </r>
      </set>
      <set comment="kpoint 22">
       <r>   -0.0324    1.0000 </r>
       <r>   10.4134    0.0000 </r>
       <r>   10.7878    0.0000 </r>
       <r>   13.1948    0.0000 </r>
       <r>   24.9157    0.0000 </r>
       <r>   25.8079    0.0000 </r>
       <r>   27.9242    0.0000 </r>
       <r>   28.7779    0.0000 </r>
      </set>
      <set comment="kpoint 23">
       <r>    1.9449    1.0000 </r>
       <r>    7.2938    1.0000 </r>
       <r>    9.9104    0.7924 </r>
       <r>   12.5053    0.0000 </r>
       <r>   25.0138    0.0000 </r>
       <r>   26.3719    0.0000 </r>
       <r>   28.9986    0.0000 </r>
       <r>   30.4612    0.0000 </r>
      </set>
      <set comment="kpoint 24">
       <r>    4.2166    1.0000 </r>
       <r>    4.5802    1.0000 </r>
       <r>    9.6718    1.0000 </r>
       <r>   12.2753    0.0000 </r>
       <r>   24.9255    0.0000 </r>
       <r>   26.5677    0.0000 </r>
       <r>   29.8918    0.0000 </r>
       <r>   30.6737    0.0000 </r>
      </set>
      <set comment="kpoint 25">
       <r>   -3.0370    1.0000 </r>
       <r>   15.2140    0.0000 </r>
       <r>   16.6689    0.0000 </r>
       <r>   18.8668    0.0000 </r>
       <r>   21.2674    0.0000 </r>
       <r>   22.0949    0.0000 </r>
       <r>   24.6087    0.0000 </r>
       <r>   26.8112    0.0000 </r>
      </set>
      <set comment="kpoint 26">
       <r>    4.1378    1.0000 </r>
       <r>    6.6804    1.0000 </r>
       <r>    6.9804    1.0000 </r>
       <r>   12.0431    0.0000 </r>
       <r>   26.2524    0.0000 </r>
       <r>   27.5158    0.0000 </r>
       <r>   29.1707    0.0000 </r>
       <r>   31.3052    0.0000 </r>
      </set>
      <set comment="kpoint 27">
       <r>   -1.7797    1.0000 </r>
       <r>   11.4957    0.0000 </r>
       <r>   15.3609    0.0000 </r>
       <r>   17.8953    0.0000 </r>
       <r>   20.8767    0.0000 </r>
       <r>   21.3239    0.0000 </r>
       <r>   24.4127    0.0000 </r>
       <r>   29.9963    0.0000 </r>
      </set>
      <set comment="kpoint 28">
       <r>   -2.0304    1.0000 </r>
       <r>   13.5219    0.0000 </r>
       <r>   13.8176    0.0000 </r>
       <r>   18.3776    0.0000 </r>
       <r>   20.1172    0.0000 </r>
       <r>   21.7283    0.0000 </r>
       <r>   26.2647    0.0000 </r>
       <r>   27.2082    0.0000 </r>
      </set>
      <set comment="kpoint 29">
       <r>   -0.0329    1.0000 </r>
       <r>    8.0038    1.0000 </r>
       <r>   14.4793    0.0000 </r>
       <r>   17.0816    0.0000 </r>
       <r>   20.0012    0.0000 </r>
       <r>   21.4157    0.0000 </r>
       <r>   25.0136    0.0000 </r>
       <r>   30.3167    0.0000 </r>
      </set>
      <set comment="kpoint 30">
       <r>   -0.5301    1.0000 </r>
       <r>   10.0973    0.0000 </r>
       <r>   12.5448    0.0000 </r>
       <r>   17.8161    0.0000 </r>
       <r>   20.1659    0.0000 </r>
       <r>   21.2767    0.0000 </r>
       <r>   26.0017    0.0000 </r>
       <r>   29.1564    0.0000 </r>
      </set>
      <set comment="kpoint 31">
       <r>    2.1842    1.0000 </r>
       <r>    4.8961    1.0000 </r>
       <r>   14.0366    0.0000 </r>
       <r>   16.6513    0.0000 </r>
       <r>   19.5535    0.0000 </r>
       <r>   21.3235    0.0000 </r>
       <r>   26.5413    0.0000 </r>
       <r>   28.6338    0.0000 </r>
      </set>
      <set comment="kpoint 32">
       <r>    1.4514    1.0000 </r>
       <r>    6.8102    1.0000 </r>
       <r>   11.8533    0.0000 </r>
       <r>   17.2588    0.0000 </r>
       <r>   19.8348    0.0000 </r>
       <r>   22.2466    0.0000 </r>
       <r>   25.4966    0.0000 </r>
       <r>   28.2682    0.0000 </r>
      </set>
      <set comment="kpoint 33">
       <r>    1.2057    1.0000 </r>
       <r>    9.0280    1.0000 </r>
       <r>    9.3048    1.0000 </r>
       <r>   18.0895    0.0000 </r>
       <r>   20.3049    0.0000 </r>
       <r>   20.7720    0.0000 </r>
       <r>   26.6515    0.0000 </r>
       <r>   29.0774    0.0000 </r>
      </set>
      <set comment="kpoint 34">
       <r>    3.7270    1.0000 </r>
       <r>    4.0918    1.0000 </r>
       <r>   11.6225    0.0000 </r>
       <r>   17.0573    0.0000 </r>
       <r>   19.6507    0.0000 </r>
       <r>   23.0347    0.0000 </r>
       <r>   25.3071    0.0000 </r>
       <r>   27.2634    0.0000 </r>
      </set>
      <set comment="kpoint 35">
       <r>    3.4083    1.0000 </r>
       <r>    6.0905    1.0000 </r>
       <r>    8.7024    1.0000 </r>
       <r>   17.9306    0.0000 </r>
       <r>   20.1871    0.0000 </r>
       <r>   22.0711    0.0000 </r>
       <r>   24.3764    0.0000 </r>
       <r>   29.8128    0.0000 </r>
      </set>
      <set comment="kpoint 36">
       <r>    5.5373    1.0000 </r>
       <r>    6.0004    1.0000 </r>
       <r>    6.0004    1.0000 </r>
       <r>   18.0080    0.0000 </r>
       <r>   21.6767    0.0000 </r>
       <r>   22.1115    0.0000 </r>
       <r>   22.1115    0.0000 </r>
       <r>   32.8210    0.0000 </r>
      </set>
      <set comment="kpoint 37">
       <r>    1.6997    1.0000 </r>
       <r>    9.3457    1.0000 </r>
       <r>    9.8583    0.9890 </r>
       <r>    9.8583    0.9890 </r>
       <r>   27.5624    0.0000 </r>
       <r>   27.5624    0.0000 </r>
       <r>   29.5278    0.0000 </r>
       <r>   29.5278    0.0000 </r>
      </set>
      <set comment="kpoint 38">
       <r>    3.8985    1.0000 </r>
       <r>    6.5790    1.0000 </r>
       <r>    9.0697    1.0000 </r>
       <r>    9.3893    1.0000 </r>
       <r>   28.1719    0.0000 </r>
       <r>   28.4694    0.0000 </r>
       <r>   30.7927    0.0000 </r>
       <r>   31.0909    0.0000 </r>
      </set>
      <set comment="kpoint 39">
       <r>   -2.2815    1.0000 </r>
       <r>   14.9637    0.0000 </r>
       <r>   14.9637    0.0000 </r>
       <r>   16.8438    0.0000 </r>
       <r>   18.5599    0.0000 </r>
       <r>   24.4929    0.0000 </r>
       <r>   26.0656    0.0000 </r>
       <r>   26.0656    0.0000 </r>
      </set>
      <set comment="kpoint 40">
       <r>    6.0005    1.0000 </r>
       <r>    6.5070    1.0000 </r>
       <r>    6.5070    1.0000 </r>
       <r>    9.0066    1.0000 </r>
       <r>   29.3080    0.0000 </r>
       <r>   30.5211    0.0000 </r>
       <r>   30.5211    0.0000 </r>
       <r>   32.1010    0.0000 </r>
      </set>
      <set comment="kpoint 41">
       <r>   -1.0287    1.0000 </r>
       <r>   12.0710    0.0000 </r>
       <r>   13.6338    0.0000 </r>
       <r>   16.0914    0.0000 </r>
       <r>   18.0514    0.0000 </r>
       <r>   23.9178    0.0000 </r>
       <r>   26.0344    0.0000 </r>
       <r>   28.7854    0.0000 </r>
      </set>
      <set comment="kpoint 42">
       <r>    0.7114    1.0000 </r>
       <r>    8.6875    1.0000 </r>
       <r>   12.7374    0.0000 </r>
       <r>   15.3068    0.0000 </r>
       <r>   19.2190    0.0000 </r>
       <r>   23.1039    0.0000 </r>
       <r>   24.9848    0.0000 </r>
       <r>   27.8132    0.0000 </r>
      </set>
      <set comment="kpoint 43">
       <r>    0.4641    1.0000 </r>
       <r>   10.8148    0.0000 </r>
       <r>   11.0350    0.0000 </r>
       <r>   16.1461    0.0000 </r>
       <r>   17.2230    0.0000 </r>
       <r>   23.6954    0.0000 </r>
       <r>   26.0126    0.0000 </r>
       <r>   28.4662    0.0000 </r>
      </set>
      <set comment="kpoint 44">
       <r>    2.9198    1.0000 </r>
       <r>    5.6120    1.0000 </r>
       <r>   12.2876    0.0000 </r>
       <r>   14.8613    0.0000 </r>
       <r>   20.7777    0.0000 </r>
       <r>   22.6746    0.0000 </r>
       <r>   23.5229    0.0000 </r>
       <r>   26.8941    0.0000 </r>
      </set>
      <set comment="kpoint 45">
       <r>    2.4346    1.0000 </r>
       <r>    7.7366    1.0000 </r>
       <r>   10.2355    0.0000 </r>
       <r>   15.8758    0.0000 </r>
       <r>   18.3952    0.0000 </r>
       <r>   22.6903    0.0000 </r>
       <r>   23.9550    0.0000 </r>
       <r>   29.0354    0.0000 </r>
      </set>
      <set comment="kpoint 46">
       <r>    4.7078    1.0000 </r>
       <r>    5.0388    1.0000 </r>
       <r>   10.0009    0.0405 </r>
       <r>   15.6798    0.0000 </r>
       <r>   19.8765    0.0000 </r>
       <r>   21.1967    0.0000 </r>
       <r>   23.3855    0.0000 </r>
       <r>   29.0087    0.0000 </r>
      </set>
      <set comment="kpoint 47">
       <r>    4.6167    1.0000 </r>
       <r>    7.1427    1.0000 </r>
       <r>    7.3965    1.0000 </r>
       <r>   17.2129    0.0000 </r>
       <r>   18.4205    0.0000 </r>
       <r>   20.4682    0.0000 </r>
       <r>   23.3360    0.0000 </r>
       <r>   31.8769    0.0000 </r>
      </set>
      <set comment="kpoint 48">
       <r>    0.2163    1.0000 </r>
       <r>   12.2912    0.0000 </r>
       <r>   12.2912    0.0000 </r>
       <r>   14.3433    0.0000 </r>
       <r>   15.5098    0.0000 </r>
       <r>   25.6515    0.0000 </r>
       <r>   26.9274    0.0000 </r>
       <r>   28.2607    0.0000 </r>
      </set>
      <set comment="kpoint 49">
       <r>    1.9446    1.0000 </r>
       <r>    9.7565    1.0000 </r>
       <r>   11.3879    0.0000 </r>
       <r>   13.8466    0.0000 </r>
       <r>   15.6740    0.0000 </r>
       <r>   22.7396    0.0000 </r>
       <r>   26.6746    0.0000 </r>
       <r>   29.0575    0.0000 </r>
      </set>
      <set comment="kpoint 50">
       <r>    4.1354    1.0000 </r>
       <r>    6.7867    1.0000 </r>
       <r>   10.9347    0.0000 </r>
       <r>   13.4356    0.0000 </r>
       <r>   17.4563    0.0000 </r>
       <r>   20.0295    0.0000 </r>
       <r>   26.2780    0.0000 </r>
       <r>   29.1719    0.0000 </r>
      </set>
      <set comment="kpoint 51">
       <r>    3.8956    1.0000 </r>
       <r>    8.9606    1.0000 </r>
       <r>    9.1578    1.0000 </r>
       <r>   14.4314    0.0000 </r>
       <r>   15.2563    0.0000 </r>
       <r>   19.7717    0.0000 </r>
       <r>   27.0152    0.0000 </r>
       <r>   31.2829    0.0000 </r>
      </set>
      <set comment="kpoint 52">
       <r>    6.1507    1.0000 </r>
       <r>    6.4397    1.0000 </r>
       <r>    8.8325    1.0000 </r>
       <r>   14.5045    0.0000 </r>
       <r>   16.7675    0.0000 </r>
       <r>   17.4614    0.0000 </r>
       <r>   26.8974    0.0000 </r>
       <r>   31.8947    0.0000 </r>
      </set>
      <set comment="kpoint 53">
       <r>    3.6533    1.0000 </r>
       <r>   10.4808    0.0000 </r>
       <r>   10.4808    0.0000 </r>
       <r>   12.5387    0.0000 </r>
       <r>   13.4618    0.0000 </r>
       <r>   19.5421    0.0000 </r>
       <r>   30.2073    0.0000 </r>
       <r>   31.0814    0.0000 </r>
      </set>
      <set comment="kpoint 54">
       <r>    5.8091    1.0000 </r>
       <r>    8.3514    1.0000 </r>
       <r>   10.0261    0.0070 </r>
       <r>   12.4171    0.0000 </r>
       <r>   14.2189    0.0000 </r>
       <r>   16.6678    0.0000 </r>
       <r>   30.2064    0.0000 </r>
       <r>   32.0008    0.0000 </r>
      </set>
      <set comment="kpoint 55">
       <r>    7.9073    1.0000 </r>
       <r>    8.2149    1.0000 </r>
       <r>    8.2149    1.0000 </r>
       <r>   13.2735    0.0000 </r>
       <r>   14.2671    0.0000 </r>
       <r>   14.2671    0.0000 </r>
       <r>   30.7378    0.0000 </r>
       <r>   34.1821    0.0000 </r>
      </set>
      <set comment="kpoint 56">
       <r>    7.8669    1.0000 </r>
       <r>    9.5707    1.0000 </r>
       <r>    9.5707    1.0000 </r>
       <r>   11.5402    0.0000 </r>
       <r>   12.4353    0.0000 </r>
       <r>   13.8070    0.0000 </r>
       <r>   33.7750    0.0000 </r>
       <r>   33.9944    0.0000 </r>
      </set>
     </set>
    </set>
   </array>
  </eigenvalues>
  <separator name="orbital magnetization" >
   <v name="MAGDIPOLOUT">      0.00000000      0.00000000      0.00000000</v>
  </separator>
  <dos>
   <i name="efermi">      9.93921274 </i>
   <total>
    <array>
     <dimension dim="1">gridpoints</dimension>
     <dimension dim="2">spin</dimension>
     <field>energy</field>
     <field>total</field>
     <field>integrated</field>
     <set>
      <set comment="spin 1">
       <r>    -6.2263     0.0000     0.0000 </r>
       <r>    -6.0852     0.0000     0.0000 </r>
       <r>    -5.9441     0.0000     0.0000 </r>
       <r>    -5.8030     0.0000     0.0000 </r>
       <r>    -5.6619     0.0000     0.0000 </r>
       <r>    -5.5208     0.0000     0.0000 </r>
       <r>    -5.3797     0.0000     0.0000 </r>
       <r>    -5.2386     0.0000     0.0000 </r>
       <r>    -5.0975     0.0000     0.0000 </r>
       <r>    -4.9564     0.0000     0.0000 </r>
       <r>    -4.8152     0.0000     0.0000 </r>
       <r>    -4.6741     0.0000     0.0000 </r>
       <r>    -4.5330     0.0000     0.0000 </r>
       <r>    -4.3919     0.0001     0.0000 </r>
       <r>    -4.2508     0.0098     0.0014 </r>
       <r>    -4.1097     0.0061     0.0023 </r>
       <r>    -3.9686     0.1209     0.0193 </r>
       <r>    -3.8275     0.0130     0.0212 </r>
       <r>    -3.6864     0.0523     0.0285 </r>
       <r>    -3.5453     0.1189     0.0453 </r>
       <r>    -3.4042     0.1368     0.0646 </r>
       <r>    -3.2631     0.0986     0.0785 </r>
       <r>    -3.1219     0.0312     0.0829 </r>
       <r>    -2.9808     0.2391     0.1167 </r>
       <r>    -2.8397     0.0195     0.1194 </r>
       <r>    -2.6986     0.0794     0.1306 </r>
       <r>    -2.5575     0.1263     0.1485 </r>
       <r>    -2.4164     0.3852     0.2028 </r>
       <r>    -2.2753     0.0366     0.2080 </r>
       <r>    -2.1342     0.0281     0.2120 </r>
       <r>    -1.9931     0.3271     0.2581 </r>
       <r>    -1.8520     0.0608     0.2667 </r>
       <r>    -1.7109     0.2438     0.3011 </r>
       <r>    -1.5697     0.0387     0.3066 </r>
       <r>    -1.4286     0.2229     0.3380 </r>
       <r>    -1.2875     0.1038     0.3527 </r>
       <r>    -1.1464     0.1527     0.3742 </r>
       <r>    -1.0053     0.5737     0.4552 </r>
       <r>    -0.8642     0.1927     0.4823 </r>
       <r>    -0.7231     0.0000     0.4823 </r>
       <r>    -0.5820     0.0363     0.4875 </r>
       <r>    -0.4409     0.4719     0.5540 </r>
       <r>    -0.2998     0.0420     0.5600 </r>
       <r>    -0.1587     0.0888     0.5725 </r>
       <r>    -0.0176     0.3401     0.6205 </r>
       <r>     0.1236     0.1724     0.6448 </r>
       <r>     0.2647     0.2914     0.6860 </r>
       <r>     0.4058     0.0652     0.6952 </r>
       <r>     0.5469     0.7209     0.7969 </r>
       <r>     0.6880     0.0720     0.8070 </r>
       <r>     0.8291     0.1907     0.8340 </r>
       <r>     0.9702     0.3281     0.8803 </r>
       <r>     1.1113     0.1841     0.9062 </r>
       <r>     1.2524     0.2308     0.9388 </r>
       <r>     1.3935     0.0498     0.9458 </r>
       <r>     1.5346     0.4804     1.0136 </r>
       <r>     1.6758     0.0260     1.0173 </r>
       <r>     1.8169     0.0641     1.0263 </r>
       <r>     1.9580     0.5859     1.1090 </r>
       <r>     2.0991     0.3105     1.1528 </r>
       <r>     2.2402     0.2391     1.1865 </r>
       <r>     2.3813     0.0852     1.1986 </r>
       <r>     2.5224     0.9453     1.3319 </r>
       <r>     2.6635     0.1919     1.3590 </r>
       <r>     2.8046     0.3256     1.4050 </r>
       <r>     2.9457     0.1963     1.4327 </r>
       <r>     3.0868     0.0592     1.4410 </r>
       <r>     3.2279     0.1162     1.4574 </r>
       <r>     3.3691     0.2076     1.4867 </r>
       <r>     3.5102     0.4422     1.5491 </r>
       <r>     3.6513     0.2503     1.5844 </r>
       <r>     3.7924     0.3180     1.6293 </r>
       <r>     3.9335     0.4412     1.6916 </r>
       <r>     4.0746     0.1779     1.7167 </r>
       <r>     4.2157     0.7849     1.8274 </r>
       <r>     4.3568     0.1368     1.8467 </r>
       <r>     4.4979     0.0027     1.8471 </r>
       <r>     4.6390     0.4859     1.9157 </r>
       <r>     4.7801     0.6533     2.0079 </r>
       <r>     4.9212     0.2029     2.0365 </r>
       <r>     5.0624     0.4032     2.0934 </r>
       <r>     5.2035     0.4149     2.1519 </r>
       <r>     5.3446     0.0930     2.1650 </r>
       <r>     5.4857     0.4332     2.2262 </r>
       <r>     5.6268     0.2485     2.2612 </r>
       <r>     5.7679     0.1179     2.2779 </r>
       <r>     5.9090     0.2250     2.3096 </r>
       <r>     6.0501     0.2998     2.3519 </r>
       <r>     6.1912     0.6886     2.4491 </r>
       <r>     6.3323     0.2509     2.4845 </r>
       <r>     6.4734     0.5351     2.5600 </r>
       <r>     6.6146     0.4075     2.6175 </r>
       <r>     6.7557     0.3637     2.6688 </r>
       <r>     6.8968     0.6893     2.7661 </r>
       <r>     7.0379     0.2443     2.8006 </r>
       <r>     7.1790     0.2298     2.8330 </r>
       <r>     7.3201     0.4371     2.8947 </r>
       <r>     7.4612     0.3617     2.9457 </r>
       <r>     7.6023     0.3119     2.9897 </r>
       <r>     7.7434     0.5272     3.0641 </r>
       <r>     7.8845     0.4234     3.1239 </r>
       <r>     8.0256     0.4855     3.1924 </r>
       <r>     8.1667     0.0867     3.2046 </r>
       <r>     8.3079     0.4245     3.2645 </r>
       <r>     8.4490     0.3553     3.3146 </r>
       <r>     8.5901     0.3959     3.3705 </r>
       <r>     8.7312     0.6325     3.4598 </r>
       <r>     8.8723     0.3574     3.5102 </r>
       <r>     9.0134     0.4202     3.5695 </r>
       <r>     9.1545     0.5796     3.6513 </r>
       <r>     9.2956     0.2485     3.6863 </r>
       <r>     9.4367     0.4638     3.7518 </r>
       <r>     9.5778     0.1048     3.7666 </r>
       <r>     9.7189     0.8058     3.8803 </r>
       <r>     9.8601     0.3905     3.9354 </r>
       <r>    10.0012     0.7430     4.0402 </r>
       <r>    10.1423     0.7832     4.1507 </r>
       <r>    10.2834     0.5163     4.2236 </r>
       <r>    10.4245     0.2113     4.2534 </r>
       <r>    10.5656     0.3854     4.3078 </r>
       <r>    10.7067     0.3457     4.3565 </r>
       <r>    10.8478     0.4538     4.4206 </r>
       <r>    10.9889     0.3385     4.4683 </r>
       <r>    11.1300     0.7307     4.5714 </r>
       <r>    11.2711     0.0510     4.5786 </r>
       <r>    11.4122     0.2796     4.6181 </r>
       <r>    11.5534     0.3504     4.6675 </r>
       <r>    11.6945     0.3182     4.7124 </r>
       <r>    11.8356     0.6158     4.7993 </r>
       <r>    11.9767     0.3819     4.8532 </r>
       <r>    12.1178     0.5248     4.9273 </r>
       <r>    12.2589     0.3916     4.9825 </r>
       <r>    12.4000     0.5715     5.0632 </r>
       <r>    12.5411     0.9288     5.1942 </r>
       <r>    12.6822     0.6309     5.2833 </r>
       <r>    12.8233     0.2643     5.3205 </r>
       <r>    12.9644     0.0020     5.3208 </r>
       <r>    13.1056     0.1683     5.3446 </r>
       <r>    13.2467     0.5888     5.4276 </r>
       <r>    13.3878     0.6203     5.5152 </r>
       <r>    13.5289     0.4507     5.5788 </r>
       <r>    13.6700     0.7001     5.6776 </r>
       <r>    13.8111     0.4104     5.7355 </r>
       <r>    13.9522     0.8631     5.8573 </r>
       <r>    14.0933     0.4835     5.9255 </r>
       <r>    14.2344     0.2183     5.9563 </r>
       <r>    14.3755     0.2917     5.9975 </r>
       <r>    14.5166     0.8316     6.1148 </r>
       <r>    14.6577     0.6973     6.2132 </r>
       <r>    14.7989     0.0111     6.2148 </r>
       <r>    14.9400     0.2767     6.2538 </r>
       <r>    15.0811     0.2357     6.2871 </r>
       <r>    15.2222     0.4657     6.3528 </r>
       <r>    15.3633     0.7739     6.4620 </r>
       <r>    15.5044     0.4629     6.5273 </r>
       <r>    15.6455     0.8611     6.6488 </r>
       <r>    15.7866     0.7730     6.7579 </r>
       <r>    15.9277     0.6982     6.8564 </r>
       <r>    16.0688     0.5832     6.9387 </r>
       <r>    16.2099     0.6807     7.0348 </r>
       <r>    16.3510     0.1326     7.0535 </r>
       <r>    16.4922     0.4876     7.1223 </r>
       <r>    16.6333     0.1716     7.1465 </r>
       <r>    16.7744     0.8168     7.2618 </r>
       <r>    16.9155     0.6855     7.3585 </r>
       <r>    17.0566     0.4599     7.4234 </r>
       <r>    17.1977     0.7924     7.5352 </r>
       <r>    17.3388     0.8577     7.6562 </r>
       <r>    17.4799     0.6192     7.7436 </r>
       <r>    17.6210     0.2005     7.7719 </r>
       <r>    17.7621     0.1048     7.7867 </r>
       <r>    17.9032     0.7380     7.8908 </r>
       <r>    18.0444     0.8150     8.0058 </r>
       <r>    18.1855     1.1699     8.1709 </r>
       <r>    18.3266     0.0805     8.1823 </r>
       <r>    18.4677     1.0600     8.3318 </r>
       <r>    18.6088     0.2088     8.3613 </r>
       <r>    18.7499     0.0060     8.3622 </r>
       <r>    18.8910     0.2935     8.4036 </r>
       <r>    19.0321     0.1794     8.4289 </r>
       <r>    19.1732     0.0681     8.4385 </r>
       <r>    19.3143     0.3515     8.4881 </r>
       <r>    19.4554     0.2289     8.5204 </r>
       <r>    19.5965     0.3347     8.5676 </r>
       <r>    19.7377     0.6747     8.6628 </r>
       <r>    19.8788     1.0699     8.8138 </r>
       <r>    20.0199     0.9130     8.9426 </r>
       <r>    20.1610     0.8498     9.0626 </r>
       <r>    20.3021     0.9912     9.2024 </r>
       <r>    20.4432     0.3759     9.2555 </r>
       <r>    20.5843     0.6805     9.3515 </r>
       <r>    20.7254     0.0587     9.3598 </r>
       <r>    20.8665     0.5657     9.4396 </r>
       <r>    21.0076     0.1870     9.4660 </r>
       <r>    21.1487     0.1520     9.4874 </r>
       <r>    21.2899     1.0520     9.6359 </r>
       <r>    21.4310     1.5307     9.8519 </r>
       <r>    21.5721     0.3370     9.8994 </r>
       <r>    21.7132     0.6006     9.9842 </r>
       <r>    21.8543     0.5154    10.0569 </r>
       <r>    21.9954     0.3166    10.1016 </r>
       <r>    22.1365     1.6290    10.3314 </r>
       <r>    22.2776     0.5473    10.4087 </r>
       <r>    22.4187     0.3428    10.4570 </r>
       <r>    22.5598     0.4652    10.5227 </r>
       <r>    22.7009     0.5716    10.6033 </r>
       <r>    22.8420     0.4756    10.6704 </r>
       <r>    22.9832     0.9110    10.7990 </r>
       <r>    23.1243     0.8431    10.9180 </r>
       <r>    23.2654     0.3578    10.9684 </r>
       <r>    23.4065     0.7198    11.0700 </r>
       <r>    23.5476     0.8614    11.1916 </r>
       <r>    23.6887     0.2347    11.2247 </r>
       <r>    23.8298     0.9972    11.3654 </r>
       <r>    23.9709     0.9633    11.5013 </r>
       <r>    24.1120     0.3462    11.5502 </r>
       <r>    24.2531     0.0180    11.5527 </r>
       <r>    24.3942     0.7835    11.6633 </r>
       <r>    24.5354     0.4275    11.7236 </r>
       <r>    24.6765     1.0476    11.8714 </r>
       <r>    24.8176     0.0922    11.8844 </r>
       <r>    24.9587     0.5415    11.9609 </r>
       <r>    25.0998     1.2166    12.1325 </r>
       <r>    25.2409     0.4768    12.1998 </r>
       <r>    25.3820     0.4436    12.2624 </r>
       <r>    25.5231     0.3992    12.3187 </r>
       <r>    25.6642     0.1569    12.3409 </r>
       <r>    25.8053     0.1812    12.3664 </r>
       <r>    25.9464     0.5180    12.4395 </r>
       <r>    26.0875     1.3343    12.6278 </r>
       <r>    26.2287     0.9686    12.7645 </r>
       <r>    26.3698     0.8939    12.8906 </r>
       <r>    26.5109     0.3330    12.9376 </r>
       <r>    26.6520     0.6410    13.0281 </r>
       <r>    26.7931     0.4018    13.0848 </r>
       <r>    26.9342     0.9117    13.2134 </r>
       <r>    27.0753     0.7765    13.3230 </r>
       <r>    27.2164     0.5463    13.4001 </r>
       <r>    27.3575     0.6515    13.4920 </r>
       <r>    27.4986     0.7502    13.5979 </r>
       <r>    27.6397     0.6951    13.6960 </r>
       <r>    27.7808     0.9525    13.8304 </r>
       <r>    27.9220     0.3660    13.8820 </r>
       <r>    28.0631     0.3759    13.9350 </r>
       <r>    28.2042     0.2336    13.9680 </r>
       <r>    28.3453     0.7060    14.0676 </r>
       <r>    28.4864     0.3792    14.1211 </r>
       <r>    28.6275     0.2650    14.1585 </r>
       <r>    28.7686     0.5670    14.2385 </r>
       <r>    28.9097     0.3508    14.2880 </r>
       <r>    29.0508     1.3318    14.4760 </r>
       <r>    29.1919     1.6395    14.7073 </r>
       <r>    29.3330     0.9511    14.8415 </r>
       <r>    29.4742     0.1487    14.8625 </r>
       <r>    29.6153     0.6730    14.9575 </r>
       <r>    29.7564     0.4411    15.0197 </r>
       <r>    29.8975     1.0764    15.1716 </r>
       <r>    30.0386     0.4054    15.2288 </r>
       <r>    30.1797     0.5128    15.3012 </r>
       <r>    30.3208     0.4277    15.3615 </r>
       <r>    30.4619     0.3840    15.4157 </r>
       <r>    30.6030     0.7066    15.5154 </r>
       <r>    30.7441     0.7029    15.6146 </r>
       <r>    30.8852     0.5502    15.6923 </r>
       <r>    31.0263     0.2125    15.7222 </r>
       <r>    31.1675     0.3029    15.7650 </r>
       <r>    31.3086     0.3374    15.8126 </r>
       <r>    31.4497     0.1780    15.8377 </r>
       <r>    31.5908     0.0000    15.8377 </r>
       <r>    31.7319     0.0000    15.8377 </r>
       <r>    31.8730     0.1854    15.8639 </r>
       <r>    32.0141     0.4916    15.9332 </r>
       <r>    32.1552     0.1696    15.9572 </r>
       <r>    32.2963     0.0053    15.9579 </r>
       <r>    32.4374     0.0000    15.9579 </r>
       <r>    32.5785     0.0000    15.9579 </r>
       <r>    32.7197     0.0002    15.9580 </r>
       <r>    32.8608     0.0739    15.9684 </r>
       <r>    33.0019     0.0111    15.9699 </r>
       <r>    33.1430     0.0000    15.9699 </r>
       <r>    33.2841     0.0000    15.9699 </r>
       <r>    33.4252     0.0000    15.9699 </r>
       <r>    33.5663     0.0000    15.9699 </r>
       <r>    33.7074     0.0018    15.9702 </r>
       <r>    33.8485     0.0609    15.9788 </r>
       <r>    33.9896     0.0297    15.9830 </r>
       <r>    34.1307     0.0416    15.9889 </r>
       <r>    34.2718     0.0785    15.9999 </r>
       <r>    34.4130     0.0005    16.0000 </r>
       <r>    34.5541     0.0000    16.0000 </r>
       <r>    34.6952     0.0000    16.0000 </r>
       <r>    34.8363     0.0000    16.0000 </r>
       <r>    34.9774     0.0000    16.0000 </r>
       <r>    35.1185     0.0000    16.0000 </r>
       <r>    35.2596     0.0000    16.0000 </r>
       <r>    35.4007     0.0000    16.0000 </r>
       <r>    35.5418     0.0000    16.0000 </r>
       <r>    35.6829     0.0000    16.0000 </r>
       <r>    35.8240     0.0000    16.0000 </r>
       <r>    35.9652     0.0000    16.0000 </r>
       <r>    36.1063     0.0000    16.0000 </r>
      </set>
     </set>
    </array>
   </total>
  </dos>
 </calculation>
 <structure name="finalpos" >
  <crystal>
   <varray name="basis" >
    <v>       1.53866579       1.53866579       1.53866579 </v>
    <v>       1.53866579      -1.53866579      -1.53866579 </v>
    <v>      -1.53866579       1.53866579      -1.53866579 </v>
   </varray>
   <i name="volume">     14.57111830 </i>
   <varray name="rec_basis" >
    <v>       0.32495686       0.32495686       0.00000000 </v>
    <v>       0.32495686       0.00000000      -0.32495686 </v>
    <v>       0.00000000       0.32495686      -0.32495686 </v>
   </varray>
  </crystal>
  <varray name="positions" >
   <v>      -0.00000000       0.00000000       0.00000000 </v>
  </varray>
 </structure>
</modeling>
