unknown system                          
           1
     1.536026    1.536026    1.536026
     1.536026   -1.536026   -1.536026
    -1.536026    1.536026   -1.536026
   Si
     1
Direct configuration=     1
   0.00000000  0.00000000  0.00000000
unknown system                          
           1
     1.539492    1.539492    1.539492
     1.539492   -1.539492   -1.539492
    -1.539492    1.539492   -1.539492
   Si
     1
Direct configuration=     2
  -0.00000000  0.00000000  0.00000000
unknown system                          
           1
     1.538666    1.538666    1.538666
     1.538666   -1.538666   -1.538666
    -1.538666    1.538666   -1.538666
   Si
     1
Direct configuration=     3
  -0.00000000  0.00000000  0.00000000
