   2   2   0   0
  0.2016476E+02  0.3849278E-09  0.3849279E-09  0.3849278E-09  0.5000000E-15
  1.000000000000000E-004
  CAR 
 unknown system                          
     16.41664547     -7.27493743  301      5.83687298      1.00000000
     -7.275  0.0000E+00  0.0000E+00
     -7.196  0.0000E+00  0.0000E+00
     -7.117  0.0000E+00  0.0000E+00
     -7.038  0.0000E+00  0.0000E+00
     -6.959  0.0000E+00  0.0000E+00
     -6.880  0.0000E+00  0.0000E+00
     -6.801  0.0000E+00  0.0000E+00
     -6.722  0.0000E+00  0.0000E+00
     -6.643  0.0000E+00  0.0000E+00
     -6.564  0.0000E+00  0.0000E+00
     -6.485  0.1666E-19  0.1316E-20
     -6.406  0.1460E-12  0.1153E-13
     -6.327  0.9687E-08  0.7650E-09
     -6.248  0.6598E-05  0.5218E-06
     -6.169  0.2189E-03  0.1781E-04
     -6.090  0.8656E-03  0.8617E-04
     -6.011  0.1325E-02  0.1908E-03
     -5.932  0.1892E-02  0.3402E-03
     -5.853  0.1402E-02  0.4509E-03
     -5.774  0.2885E-02  0.6787E-03
     -5.695  0.2504E-02  0.8765E-03
     -5.617  0.1835E-02  0.1021E-02
     -5.538  0.3218E-02  0.1275E-02
     -5.459  0.3827E-02  0.1578E-02
     -5.380  0.3162E-02  0.1827E-02
     -5.301  0.2231E-02  0.2004E-02
     -5.222  0.3805E-02  0.2304E-02
     -5.143  0.4793E-02  0.2683E-02
     -5.064  0.5077E-02  0.3084E-02
     -4.985  0.1992E-02  0.3241E-02
     -4.906  0.4240E-02  0.3576E-02
     -4.827  0.5265E-02  0.3991E-02
     -4.748  0.4444E-02  0.4342E-02
     -4.669  0.6116E-02  0.4825E-02
     -4.590  0.5567E-02  0.5265E-02
     -4.511  0.2877E-02  0.5492E-02
     -4.432  0.5367E-02  0.5916E-02
     -4.353  0.6391E-02  0.6421E-02
     -4.274  0.6768E-02  0.6955E-02
     -4.195  0.7768E-02  0.7569E-02
     -4.116  0.6324E-02  0.8068E-02
     -4.037  0.4536E-02  0.8426E-02
     -3.958  0.6071E-02  0.8906E-02
     -3.879  0.1049E-01  0.9734E-02
     -3.800  0.1201E-01  0.1068E-01
     -3.721  0.9574E-02  0.1144E-01
     -3.642  0.4311E-02  0.1178E-01
     -3.563  0.6970E-02  0.1233E-01
     -3.484  0.9275E-02  0.1306E-01
     -3.405  0.8633E-02  0.1374E-01
     -3.326  0.7584E-02  0.1434E-01
     -3.247  0.9282E-02  0.1508E-01
     -3.168  0.2866E-02  0.1530E-01
     -3.089  0.5571E-02  0.1574E-01
     -3.010  0.5916E-02  0.1621E-01
     -2.931  0.1068E-01  0.1705E-01
     -2.853  0.4808E-02  0.1743E-01
     -2.774  0.3284E-02  0.1769E-01
     -2.695  0.2880E-02  0.1792E-01
     -2.616  0.4097E-02  0.1824E-01
     -2.537  0.9186E-02  0.1897E-01
     -2.458  0.3748E-02  0.1926E-01
     -2.379  0.1230E-02  0.1936E-01
     -2.300  0.1893E-02  0.1951E-01
     -2.221  0.1989E-02  0.1967E-01
     -2.142  0.3364E-02  0.1993E-01
     -2.063  0.1525E-02  0.2005E-01
     -1.984  0.1047E-02  0.2014E-01
     -1.905  0.9993E-03  0.2022E-01
     -1.826  0.1180E-02  0.2031E-01
     -1.747  0.1328E-02  0.2041E-01
     -1.668  0.1957E-02  0.2057E-01
     -1.589  0.5105E-02  0.2097E-01
     -1.510  0.6039E-02  0.2145E-01
     -1.431  0.4550E-02  0.2181E-01
     -1.352  0.3028E-02  0.2205E-01
     -1.273  0.3191E-02  0.2230E-01
     -1.194  0.7034E-02  0.2285E-01
     -1.115  0.1888E-01  0.2435E-01
     -1.036  0.1675E-01  0.2567E-01
     -0.957  0.1129E-01  0.2656E-01
     -0.878  0.8045E-02  0.2720E-01
     -0.799  0.6921E-02  0.2774E-01
     -0.720  0.1073E-01  0.2859E-01
     -0.641  0.9396E-02  0.2933E-01
     -0.562  0.3901E-02  0.2964E-01
     -0.483  0.6306E-02  0.3014E-01
     -0.404  0.8536E-02  0.3081E-01
     -0.325  0.2940E-02  0.3104E-01
     -0.246  0.3255E-02  0.3130E-01
     -0.167  0.9031E-02  0.3201E-01
     -0.088  0.4455E-02  0.3237E-01
     -0.010  0.3036E-02  0.3261E-01
      0.069  0.5582E-02  0.3305E-01
      0.148  0.4095E-02  0.3337E-01
      0.227  0.1561E-02  0.3349E-01
      0.306  0.2967E-02  0.3373E-01
      0.385  0.7119E-02  0.3429E-01
      0.464  0.4473E-02  0.3464E-01
      0.543  0.2338E-02  0.3483E-01
      0.622  0.6806E-03  0.3488E-01
      0.701  0.2811E-02  0.3510E-01
      0.780  0.5476E-02  0.3554E-01
      0.859  0.2594E-02  0.3574E-01
      0.938  0.1682E-03  0.3575E-01
      1.017  0.1933E-02  0.3591E-01
      1.096  0.6097E-02  0.3639E-01
      1.175  0.3086E-02  0.3663E-01
      1.254  0.9074E-03  0.3670E-01
      1.333  0.2056E-02  0.3687E-01
      1.412  0.4910E-02  0.3725E-01
      1.491  0.9637E-02  0.3801E-01
      1.570  0.7232E-02  0.3859E-01
      1.649  0.1388E-01  0.3968E-01
      1.728  0.1278E-01  0.4069E-01
      1.807  0.1196E-01  0.4163E-01
      1.886  0.1401E-01  0.4274E-01
      1.965  0.8330E-02  0.4340E-01
      2.044  0.6717E-02  0.4393E-01
      2.123  0.7932E-02  0.4456E-01
      2.202  0.1694E-01  0.4589E-01
      2.281  0.1335E-01  0.4695E-01
      2.360  0.7168E-02  0.4751E-01
      2.439  0.8294E-02  0.4817E-01
      2.518  0.9078E-02  0.4889E-01
      2.597  0.1378E-01  0.4997E-01
      2.676  0.1757E-01  0.5136E-01
      2.754  0.1386E-01  0.5246E-01
      2.833  0.1074E-01  0.5331E-01
      2.912  0.1569E-01  0.5454E-01
      2.991  0.1522E-01  0.5575E-01
      3.070  0.1405E-01  0.5686E-01
      3.149  0.1819E-01  0.5829E-01
      3.228  0.1159E-01  0.5921E-01
      3.307  0.8936E-02  0.5991E-01
      3.386  0.1501E-01  0.6110E-01
      3.465  0.2408E-01  0.6300E-01
      3.544  0.1373E-01  0.6408E-01
      3.623  0.1298E-01  0.6511E-01
      3.702  0.9453E-02  0.6586E-01
      3.781  0.1031E-01  0.6667E-01
      3.860  0.1383E-01  0.6776E-01
      3.939  0.1254E-01  0.6875E-01
      4.018  0.1431E-01  0.6988E-01
      4.097  0.1364E-01  0.7096E-01
      4.176  0.8813E-02  0.7166E-01
      4.255  0.1380E-01  0.7275E-01
      4.334  0.1411E-01  0.7386E-01
      4.413  0.6014E-02  0.7433E-01
      4.492  0.1366E-01  0.7541E-01
      4.571  0.1103E-01  0.7628E-01
      4.650  0.4430E-02  0.7663E-01
      4.729  0.5866E-02  0.7710E-01
      4.808  0.7456E-02  0.7769E-01
      4.887  0.3466E-02  0.7796E-01
      4.966  0.2986E-02  0.7820E-01
      5.045  0.6172E-02  0.7868E-01
      5.124  0.4573E-02  0.7904E-01
      5.203  0.3404E-02  0.7931E-01
      5.282  0.2288E-02  0.7949E-01
      5.361  0.2344E-02  0.7968E-01
      5.440  0.1584E-02  0.7980E-01
      5.519  0.8645E-03  0.7987E-01
      5.597  0.1364E-02  0.7998E-01
      5.676  0.2395E-03  0.8000E-01
      5.755  0.1130E-04  0.8000E-01
      5.834  0.1172E-07  0.8000E-01
      5.913  0.1091E-12  0.8000E-01
      5.992  0.1184E-14  0.8000E-01
      6.071  0.6969E-09  0.8000E-01
      6.150  0.3471E-05  0.8000E-01
      6.229  0.2279E-03  0.8002E-01
      6.308  0.6079E-03  0.8007E-01
      6.387  0.1421E-02  0.8018E-01
      6.466  0.2458E-02  0.8037E-01
      6.545  0.2686E-02  0.8058E-01
      6.624  0.1343E-02  0.8069E-01
      6.703  0.5611E-02  0.8113E-01
      6.782  0.4584E-02  0.8150E-01
      6.861  0.3281E-02  0.8175E-01
      6.940  0.7645E-02  0.8236E-01
      7.019  0.5680E-02  0.8281E-01
      7.098  0.8604E-02  0.8349E-01
      7.177  0.6348E-02  0.8399E-01
      7.256  0.4950E-02  0.8438E-01
      7.335  0.7537E-02  0.8497E-01
      7.414  0.8027E-02  0.8561E-01
      7.493  0.8991E-02  0.8632E-01
      7.572  0.1425E-01  0.8744E-01
      7.651  0.1162E-01  0.8836E-01
      7.730  0.1141E-01  0.8926E-01
      7.809  0.1501E-01  0.9045E-01
      7.888  0.1354E-01  0.9152E-01
      7.967  0.2402E-01  0.9341E-01
      8.046  0.1634E-01  0.9470E-01
      8.125  0.1198E-01  0.9565E-01
      8.204  0.1753E-01  0.9703E-01
      8.283  0.1628E-01  0.9832E-01
      8.362  0.6787E-02  0.9886E-01
      8.440  0.7413E-02  0.9944E-01
      8.519  0.1273E-01  0.1004E+00
      8.598  0.9358E-02  0.1012E+00
      8.677  0.9467E-02  0.1019E+00
      8.756  0.7465E-02  0.1025E+00
      8.835  0.1655E-01  0.1038E+00
      8.914  0.2708E-01  0.1060E+00
      8.993  0.2199E-01  0.1077E+00
      9.072  0.2044E-01  0.1093E+00
      9.151  0.2033E-01  0.1109E+00
      9.230  0.1605E-01  0.1122E+00
      9.309  0.1582E-01  0.1134E+00
      9.388  0.1634E-01  0.1147E+00
      9.467  0.2003E-01  0.1163E+00
      9.546  0.1438E-01  0.1175E+00
      9.625  0.1079E-01  0.1183E+00
      9.704  0.1222E-01  0.1193E+00
      9.783  0.1077E-01  0.1201E+00
      9.862  0.1039E-01  0.1209E+00
      9.941  0.1389E-01  0.1220E+00
     10.020  0.9352E-02  0.1228E+00
     10.099  0.1271E-01  0.1238E+00
     10.178  0.1759E-01  0.1252E+00
     10.257  0.1763E-01  0.1266E+00
     10.336  0.7155E-02  0.1271E+00
     10.415  0.6220E-02  0.1276E+00
     10.494  0.1294E-01  0.1286E+00
     10.573  0.2257E-01  0.1304E+00
     10.652  0.1210E-01  0.1314E+00
     10.731  0.1596E-01  0.1326E+00
     10.810  0.1828E-01  0.1341E+00
     10.889  0.9649E-02  0.1348E+00
     10.968  0.1219E-01  0.1358E+00
     11.047  0.1009E-01  0.1366E+00
     11.126  0.5517E-02  0.1370E+00
     11.204  0.7730E-02  0.1376E+00
     11.283  0.7588E-02  0.1382E+00
     11.362  0.8270E-02  0.1389E+00
     11.441  0.7732E-02  0.1395E+00
     11.520  0.7807E-02  0.1401E+00
     11.599  0.1455E-01  0.1413E+00
     11.678  0.1407E-01  0.1424E+00
     11.757  0.1398E-01  0.1435E+00
     11.836  0.1770E-01  0.1449E+00
     11.915  0.1381E-01  0.1460E+00
     11.994  0.1140E-01  0.1469E+00
     12.073  0.9359E-02  0.1476E+00
     12.152  0.6939E-02  0.1482E+00
     12.231  0.5187E-02  0.1486E+00
     12.310  0.4488E-02  0.1489E+00
     12.389  0.1054E-01  0.1498E+00
     12.468  0.3751E-02  0.1501E+00
     12.547  0.5059E-02  0.1505E+00
     12.626  0.7167E-02  0.1510E+00
     12.705  0.6103E-02  0.1515E+00
     12.784  0.5850E-02  0.1520E+00
     12.863  0.6305E-02  0.1525E+00
     12.942  0.9012E-02  0.1532E+00
     13.021  0.5576E-02  0.1536E+00
     13.100  0.1495E-01  0.1548E+00
     13.179  0.9499E-02  0.1556E+00
     13.258  0.2876E-02  0.1558E+00
     13.337  0.4450E-02  0.1561E+00
     13.416  0.3596E-02  0.1564E+00
     13.495  0.5309E-02  0.1568E+00
     13.574  0.5362E-02  0.1573E+00
     13.653  0.1313E-02  0.1574E+00
     13.732  0.1767E-02  0.1575E+00
     13.811  0.4651E-02  0.1579E+00
     13.890  0.1219E-02  0.1580E+00
     13.969  0.1969E-02  0.1581E+00
     14.047  0.3469E-02  0.1584E+00
     14.126  0.2343E-02  0.1586E+00
     14.205  0.2684E-02  0.1588E+00
     14.284  0.3246E-02  0.1590E+00
     14.363  0.6545E-02  0.1596E+00
     14.442  0.1031E-02  0.1596E+00
     14.521  0.4225E-05  0.1596E+00
     14.600  0.2507E-09  0.1596E+00
     14.679  0.1404E-15  0.1596E+00
     14.758  0.0000E+00  0.1596E+00
     14.837  0.3575E-14  0.1596E+00
     14.916  0.2291E-08  0.1596E+00
     14.995  0.1213E-04  0.1596E+00
     15.074  0.7198E-03  0.1597E+00
     15.153  0.1163E-02  0.1598E+00
     15.232  0.1251E-02  0.1599E+00
     15.311  0.6381E-03  0.1599E+00
     15.390  0.6478E-03  0.1600E+00
     15.469  0.6976E-04  0.1600E+00
     15.548  0.1158E-06  0.1600E+00
     15.627  0.1752E-11  0.1600E+00
     15.706  0.1999E-18  0.1600E+00
     15.785  0.0000E+00  0.1600E+00
     15.864  0.0000E+00  0.1600E+00
     15.943  0.0000E+00  0.1600E+00
     16.022  0.0000E+00  0.1600E+00
     16.101  0.0000E+00  0.1600E+00
     16.180  0.0000E+00  0.1600E+00
     16.259  0.0000E+00  0.1600E+00
     16.338  0.0000E+00  0.1600E+00
     16.417  0.0000E+00  0.1600E+00
