    2    2  100    1
  0.2016476E+02  0.3849278E-09  0.3849279E-09  0.3849278E-09  0.5000000E-15
  1.000000000000000E-004
  CAR 
 unknown system                          
      8    120      8
 
  0.0000000E+00  0.0000000E+00  0.0000000E+00  0.2962963E-03
    1       -6.198047   1.000000
    2        5.618226   1.000000
    3        5.618226   1.000000
    4        5.618229   1.000000
    5        8.175551   0.000000
    6        8.175559   0.000000
    7        8.175560   0.000000
    8        8.754449   0.000000
 
  0.6666667E-01 -0.3469447E-17  0.0000000E+00  0.2370370E-02
    1       -6.140796   1.000000
    2        5.025220   1.000000
    3        5.525130   1.000000
    4        5.525132   1.000000
    5        8.211164   0.000000
    6        8.312413   0.000000
    7        8.312420   0.000000
    8        9.215018   0.000000
 
  0.1333333E+00 -0.6938894E-17  0.0000000E+00  0.2370370E-02
    1       -5.970115   1.000000
    2        3.874383   1.000000
    3        5.304720   1.000000
    4        5.304722   1.000000
    5        8.032801   0.000000
    6        8.635798   0.000000
    7        8.635805   0.000000
    8       10.300219   0.000000
 
  0.2000000E+00  0.0000000E+00  0.0000000E+00  0.2370370E-02
    1       -5.689958   1.000000
    2        2.636012   1.000000
    3        5.050546   1.000000
    4        5.050548   1.000000
    5        7.771825   0.000000
    6        8.963475   0.000000
    7        8.963483   0.000000
    8       11.498643   0.000000
 
  0.2666667E+00 -0.1387779E-16  0.0000000E+00  0.2370370E-02
    1       -5.309199   1.000000
    2        1.440185   1.000000
    3        4.818946   1.000000
    4        4.818949   1.000000
    5        7.518780   0.000000
    6        9.132075   0.000000
    7        9.132083   0.000000
    8       12.644210   0.000000
 
  0.3333333E+00 -0.1387779E-16  0.0000000E+00  0.2370370E-02
    1       -4.847734   1.000000
    2        0.348065   1.000000
    3        4.635486   1.000000
    4        4.635489   1.000000
    5        7.311919   0.000000
    6        9.122272   0.000000
    7        9.122281   0.000000
    8       13.403244   0.000000
 
  0.4000000E+00 -0.2775558E-16  0.0000000E+00  0.2370370E-02
    1       -4.356566   1.000000
    2       -0.570832   1.000000
    3        4.510443   1.000000
    4        4.510446   1.000000
    5        7.168386   0.000000
    6        9.039474   0.000000
    7        9.039483   0.000000
    8       13.424430   0.000000
 
  0.4666667E+00 -0.2775558E-16  0.0000000E+00  0.2370370E-02
    1       -3.978750   1.000000
    2       -1.164486   1.000000
    3        4.447415   1.000000
    4        4.447418   1.000000
    5        7.095268   0.000000
    6        8.977040   0.000000
    7        8.977049   0.000000
    8       13.334858   0.000000
 
  0.6666667E-01  0.6666667E-01  0.0000000E+00  0.1777778E-02
    1       -6.121643   1.000000
    2        5.134492   1.000000
    3        5.332079   1.000000
    4        5.332080   1.000000
    5        7.996979   0.000000
    6        8.555746   0.000000
    7        8.555751   0.000000
    8        9.215384   0.000000
 
  0.1333333E+00  0.6666667E-01  0.0000000E+00  0.7111111E-02
    1       -5.988569   1.000000
    2        4.210864   1.000000
    3        5.059214   1.000000
    4        5.224799   1.000000
    5        7.994420   0.000000
    6        8.620063   0.000000
    7        8.950135   0.000000
    8       10.008224   0.000000
 
  0.2000000E+00  0.6666667E-01  0.0000000E+00  0.7111111E-02
    1       -5.744419   1.000000
    2        3.024518   1.000000
    3        4.788759   1.000000
    4        5.009477   1.000000
    5        8.071013   0.000000
    6        8.617697   0.000000
    7        9.333808   0.000000
    8       10.887659   0.000000
 
  0.2666667E+00  0.6666667E-01  0.0000000E+00  0.7111111E-02
    1       -5.395995   1.000000
    2        1.830255   1.000000
    3        4.564119   1.000000
    4        4.739099   1.000000
    5        7.927723   0.000000
    6        8.806000   0.000000
    7        9.546150   0.000000
    8       11.373547   0.000000
 
  0.3333333E+00  0.6666667E-01  0.0000000E+00  0.7111111E-02
    1       -4.958203   1.000000
    2        0.710632   1.000000
    3        4.404911   1.000000
    4        4.479653   1.000000
    5        7.734795   0.000000
    6        8.900368   0.000000
    7        9.536597   0.000000
    8       11.939229   0.000000
 
  0.4000000E+00  0.6666667E-01  0.0000000E+00  0.7111111E-02
    1       -4.467544   1.000000
    2       -0.269412   1.000000
    3        4.261545   1.000000
    4        4.318466   1.000000
    5        7.579695   0.000000
    6        8.888770   0.000000
    7        9.401612   0.000000
    8       12.740202   0.000000
 
  0.4666667E+00  0.6666667E-01  0.0000000E+00  0.7111111E-02
    1       -4.025673   1.000000
    2       -0.994611   1.000000
    3        4.099356   1.000000
    4        4.305650   1.000000
    5        7.485651   0.000000
    6        8.877681   0.000000
    7        9.252374   0.000000
    8       13.383777   0.000000
 
 -0.4666667E+00  0.6666667E-01  0.0000000E+00  0.7111111E-02
    1       -3.874777   1.000000
    2       -1.216479   1.000000
    3        4.001647   1.000000
    4        4.363734   1.000000
    5        7.460839   0.000000
    6        8.926272   0.000000
    7        9.149216   0.000000
    8       13.523136   0.000000
 
 -0.4000000E+00  0.6666667E-01  0.0000000E+00  0.7111111E-02
    1       -4.156419   1.000000
    2       -0.792147   1.000000
    3        3.974572   1.000000
    4        4.487360   1.000000
    5        7.507004   0.000000
    6        9.044707   0.000000
    7        9.108277   0.000000
    8       13.493886   0.000000
 
 -0.3333333E+00  0.6666667E-01  0.0000000E+00  0.7111111E-02
    1       -4.633593   1.000000
    2        0.038344   1.000000
    3        4.022810   1.000000
    4        4.668867   1.000000
    5        7.622206   0.000000
    6        9.105167   0.000000
    7        9.203159   0.000000
    8       13.084845   0.000000
 
 -0.2666667E+00  0.6666667E-01  0.0000000E+00  0.7111111E-02
    1       -5.113097   1.000000
    2        1.073002   1.000000
    3        4.149368   1.000000
    4        4.896817   1.000000
    5        7.800383   0.000000
    6        9.064772   0.000000
    7        9.316356   0.000000
    8       12.329166   0.000000
 
 -0.2000000E+00  0.6666667E-01  0.0000000E+00  0.7111111E-02
    1       -5.523505   1.000000
    2        2.220803   1.000000
    3        4.355163   1.000000
    4        5.151188   1.000000
    5        8.026800   0.000000
    6        8.886748   0.000000
    7        9.236232   0.000000
    8       11.592480   0.000000
 
 -0.1333333E+00  0.6666667E-01  0.0000000E+00  0.7111111E-02
    1       -5.838152   1.000000
    2        3.407632   1.000000
    3        4.641607   1.000000
    4        5.392215   1.000000
    5        8.267506   0.000000
    6        8.584335   0.000000
    7        8.890175   0.000000
    8       10.778054   0.000000
 
 -0.6666667E-01  0.6666667E-01  0.0000000E+00  0.3555556E-02
    1       -6.045635   1.000000
    2        4.462688   1.000000
    3        5.044395   1.000000
    4        5.545597   1.000000
    5        8.332972   0.000000
    6        8.433799   0.000000
    7        8.441098   0.000000
    8        9.842474   0.000000
 
  0.1333333E+00  0.1333333E+00  0.0000000E+00  0.1777778E-02
    1       -5.893137   1.000000
    2        4.129129   1.000000
    3        4.755383   1.000000
    4        4.755383   1.000000
    5        7.575077   0.000000
    6        9.411843   0.000000
    7        9.411846   0.000000
    8        9.885742   0.000000
 
  0.2000000E+00  0.1333333E+00  0.0000000E+00  0.7111111E-02
    1       -5.685705   1.000000
    2        3.255131   1.000000
    3        4.467881   1.000000
    4        4.537291   1.000000
    5        7.541633   0.000000
    6        9.427247   0.000000
    7        9.877583   0.000000
    8       10.221881   0.000000
 
  0.2666667E+00  0.1333333E+00  0.0000000E+00  0.7111111E-02
    1       -5.371425   1.000000
    2        2.163995   1.000000
    3        4.236052   1.000000
    4        4.251913   1.000000
    5        7.732224   0.000000
    6        9.341235   0.000000
    7       10.184638   0.000000
    8       10.269937   0.000000
 
  0.3333333E+00  0.1333333E+00  0.0000000E+00  0.7111111E-02
    1       -4.961452   1.000000
    2        1.073913   1.000000
    3        3.925438   1.000000
    4        4.078524   1.000000
    5        7.828902   0.000000
    6        9.356309   0.000000
    7       10.234605   0.000000
    8       10.481447   0.000000
 
  0.4000000E+00  0.1333333E+00  0.0000000E+00  0.7111111E-02
    1       -4.482005   1.000000
    2        0.073656   1.000000
    3        3.621807   1.000000
    4        4.003014   1.000000
    5        7.801746   0.000000
    6        9.296466   0.000000
    7       10.097435   0.000000
    8       11.182793   0.000000
 
  0.4666667E+00  0.1333333E+00  0.0000000E+00  0.7111111E-02
    1       -4.003928   1.000000
    2       -0.738041   1.000000
    3        3.372081   1.000000
    4        4.011075   1.000000
    5        7.771371   0.000000
    6        9.219908   0.000000
    7        9.900502   0.000000
    8       12.191555   0.000000
 
 -0.4666667E+00  0.1333333E+00  0.0000000E+00  0.7111111E-02
    1       -3.722163   1.000000
    2       -1.153398   1.000000
    3        3.192772   1.000000
    4        4.099927   1.000000
    5        7.798339   0.000000
    6        9.197428   0.000000
    7        9.723471   0.000000
    8       13.295818   0.000000
 
 -0.4000000E+00  0.1333333E+00  0.0000000E+00  0.7111111E-02
    1       -3.877798   1.000000
    2       -0.927245   1.000000
    3        3.095157   1.000000
    4        4.262939   1.000000
    5        7.895637   0.000000
    6        9.250384   0.000000
    7        9.596012   0.000000
    8       13.728873   0.000000
 
 -0.3333333E+00  0.1333333E+00  0.0000000E+00  0.7111111E-02
    1       -4.322476   1.000000
    2       -0.211475   1.000000
    3        3.089218   1.000000
    4        4.488845   1.000000
    5        8.054931   0.000000
    6        9.369035   0.000000
    7        9.504899   0.000000
    8       12.883639   0.000000
 
 -0.2666667E+00  0.1333333E+00  0.0000000E+00  0.7111111E-02
    1       -4.812682   1.000000
    2        0.735452   1.000000
    3        3.187709   1.000000
    4        4.759239   1.000000
    5        8.257782   0.000000
    6        9.383560   0.000000
    7        9.486671   0.000000
    8       11.984709   0.000000
 
 -0.2000000E+00  0.1333333E+00  0.0000000E+00  0.7111111E-02
    1       -5.248833   1.000000
    2        1.771415   1.000000
    3        3.419212   1.000000
    4        5.042611   1.000000
    5        8.474104   0.000000
    6        9.137532   0.000000
    7        9.411697   0.000000
    8       11.368441   0.000000
 
 -0.1333333E+00  0.1333333E+00  0.0000000E+00  0.3555556E-02
    1       -5.595511   1.000000
    2        2.732583   1.000000
    3        3.873730   1.000000
    4        5.282601   1.000000
    5        8.601241   0.000000
    6        8.804057   0.000000
    7        9.038123   0.000000
    8       11.115433   0.000000
 
  0.2000000E+00  0.2000000E+00  0.0000000E+00  0.1777778E-02
    1       -5.514869   1.000000
    2        2.983697   1.000000
    3        4.163564   1.000000
    4        4.163565   1.000000
    5        7.094890   0.000000
    6        9.472421   0.000000
    7       10.460656   0.000000
    8       10.460658   0.000000
 
  0.2666667E+00  0.2000000E+00  0.0000000E+00  0.7111111E-02
    1       -5.235603   1.000000
    2        2.217689   1.000000
    3        3.855253   1.000000
    4        3.916458   1.000000
    5        7.085931   0.000000
    6        9.118156   0.000000
    7       10.731281   0.000000
    8       10.919790   0.000000
 
  0.3333333E+00  0.2000000E+00  0.0000000E+00  0.7111111E-02
    1       -4.856265   1.000000
    2        1.288552   1.000000
    3        3.452167   1.000000
    4        3.746663   1.000000
    5        7.297876   0.000000
    6        9.135018   0.000000
    7       10.646976   0.000000
    8       11.099782   0.000000
 
  0.4000000E+00  0.2000000E+00  0.0000000E+00  0.7111111E-02
    1       -4.395698   1.000000
    2        0.354300   1.000000
    3        3.040932   1.000000
    4        3.663301   1.000000
    5        7.405763   0.000000
    6        9.688963   0.000000
    7       10.480069   0.000000
    8       11.015709   0.000000
 
  0.4666667E+00  0.2000000E+00  0.0000000E+00  0.7111111E-02
    1       -3.902912   1.000000
    2       -0.475177   1.000000
    3        2.686169   1.000000
    4        3.669180   1.000000
    5        7.439997   0.000000
    6       10.319686   0.000000
    7       10.649655   0.000000
    8       10.810320   0.000000
 
 -0.4666667E+00  0.2000000E+00  0.0000000E+00  0.7111111E-02
    1       -3.522201   1.000000
    2       -1.025451   1.000000
    3        2.416260   1.000000
    4        3.762705   1.000000
    5        7.517242   0.000000
    6       10.214588   0.000000
    7       10.590553   0.000000
    8       11.823079   0.000000
 
 -0.4000000E+00  0.2000000E+00  0.0000000E+00  0.7111111E-02
    1       -3.534640   1.000000
    2       -1.004347   1.000000
    3        2.248179   1.000000
    4        3.937989   1.000000
    5        7.677263   0.000000
    6       10.166328   0.000000
    7       10.399865   0.000000
    8       13.114606   0.000000
 
 -0.3333333E+00  0.2000000E+00  0.0000000E+00  0.7111111E-02
    1       -3.926200   1.000000
    2       -0.432427   1.000000
    3        2.201139   1.000000
    4        4.183539   1.000000
    5        7.917489   0.000000
    6       10.172165   0.000000
    7       10.226770   0.000000
    8       12.761961   0.000000
 
 -0.2666667E+00  0.2000000E+00  0.0000000E+00  0.7111111E-02
    1       -4.417900   1.000000
    2        0.374051   1.000000
    3        2.314057   1.000000
    4        4.478855   1.000000
    5        8.207342   0.000000
    6        9.987842   0.000000
    7       10.167618   0.000000
    8       11.775845   0.000000
 
 -0.2000000E+00  0.2000000E+00  0.0000000E+00  0.3555556E-02
    1       -4.874224   1.000000
    2        1.171343   1.000000
    3        2.684191   1.000000
    4        4.786998   1.000000
    5        8.470083   0.000000
    6        9.584797   0.000000
    7        9.888865   0.000000
    8       11.276647   0.000000
 
  0.2666667E+00  0.2666667E+00  0.0000000E+00  0.1777778E-02
    1       -4.990995   1.000000
    2        1.804216   1.000000
    3        3.650712   1.000000
    4        3.650714   1.000000
    5        6.674729   0.000000
    6        8.513730   0.000000
    7       11.600197   0.000000
    8       11.600198   0.000000
 
  0.3333333E+00  0.2666667E+00  0.0000000E+00  0.7111111E-02
    1       -4.643707   1.000000
    2        1.124672   1.000000
    3        3.303114   1.000000
    4        3.461756   1.000000
    5        6.717180   0.000000
    6        8.211196   0.000000
    7       11.878580   0.000000
    8       12.016406   0.000000
 
  0.4000000E+00  0.2666667E+00  0.0000000E+00  0.7111111E-02
    1       -4.207211   1.000000
    2        0.364711   1.000000
    3        2.794161   1.000000
    4        3.360562   1.000000
    5        6.927471   0.000000
    6        8.409175   0.000000
    7       11.813912   0.000000
    8       12.068485   0.000000
 
  0.4666667E+00  0.2666667E+00  0.0000000E+00  0.7111111E-02
    1       -3.715172   1.000000
    2       -0.376879   1.000000
    3        2.293536   1.000000
    4        3.351380   1.000000
    5        7.022279   0.000000
    6        9.174707   0.000000
    7       11.669759   0.000000
    8       11.898713   0.000000
 
 -0.4666667E+00  0.2666667E+00  0.0000000E+00  0.7111111E-02
    1       -3.269161   1.000000
    2       -0.965297   1.000000
    3        1.893098   1.000000
    4        3.433902   1.000000
    5        7.115438   0.000000
    6       10.259368   0.000000
    7       11.548407   0.000000
    8       11.661204   0.000000
 
 -0.4000000E+00  0.2666667E+00  0.0000000E+00  0.7111111E-02
    1       -3.143112   1.000000
    2       -1.112677   1.000000
    3        1.634189   1.000000
    4        3.603508   1.000000
    5        7.289281   0.000000
    6       11.236959   0.000000
    7       11.418770   0.000000
    8       11.751757   0.000000
 
 -0.3333333E+00  0.2666667E+00  0.0000000E+00  0.7111111E-02
    1       -3.467124   1.000000
    2       -0.706607   1.000000
    3        1.558465   1.000000
    4        3.849945   1.000000
    5        7.554311   0.000000
    6       11.139241   0.000000
    7       11.279077   0.000000
    8       12.668046   0.000000
 
 -0.2666667E+00  0.2666667E+00  0.0000000E+00  0.3555556E-02
    1       -3.950447   1.000000
    2       -0.115300   1.000000
    3        1.750328   1.000000
    4        4.153827   1.000000
    5        7.886457   0.000000
    6       10.665902   0.000000
    7       11.005609   0.000000
    8       11.862299   0.000000
 
  0.3333333E+00  0.3333333E+00  0.0000000E+00  0.1777778E-02
    1       -4.327848   1.000000
    2        0.627802   1.000000
    3        3.250739   1.000000
    4        3.250741   1.000000
    5        6.376941   0.000000
    6        7.640511   0.000000
    7       12.793050   0.000000
    8       12.793051   0.000000
 
  0.4000000E+00  0.3333333E+00  0.0000000E+00  0.7111111E-02
    1       -3.918174   1.000000
    2        0.012622   1.000000
    3        2.906847   1.000000
    4        3.126883   1.000000
    5        6.479972   0.000000
    6        7.464897   0.000000
    7       13.094850   0.000000
    8       13.151349   0.000000
 
  0.4666667E+00  0.3333333E+00  0.0000000E+00  0.7111111E-02
    1       -3.437353   1.000000
    2       -0.609612   1.000000
    3        2.350338   1.000000
    4        3.096015   1.000000
    5        6.663811   0.000000
    6        7.901882   0.000000
    7       13.050148   0.000000
    8       13.100492   0.000000
 
 -0.4666667E+00  0.3333333E+00  0.0000000E+00  0.7111111E-02
    1       -2.954540   1.000000
    2       -1.153735   1.000000
    3        1.811225   1.000000
    4        3.159124   1.000000
    5        6.769589   0.000000
    6        8.868335   0.000000
    7       12.873110   0.000000
    8       12.918724   0.000000
 
 -0.4000000E+00  0.3333333E+00  0.0000000E+00  0.7111111E-02
    1       -2.723199   1.000000
    2       -1.383268   1.000000
    3        1.428560   1.000000
    4        3.312926   1.000000
    5        6.939537   0.000000
    6       10.086544   0.000000
    7       12.562841   0.000000
    8       12.791213   0.000000
 
 -0.3333333E+00  0.3333333E+00  0.0000000E+00  0.3555556E-02
    1       -3.000697   1.000000
    2       -1.095787   1.000000
    3        1.306731   1.000000
    4        3.548858   1.000000
    5        7.206437   0.000000
    6       11.396735   0.000000
    7       12.027578   0.000000
    8       12.590896   0.000000
 
  0.4000000E+00  0.4000000E+00  0.0000000E+00  0.1777778E-02
    1       -3.534493   1.000000
    2       -0.519370   1.000000
    3        2.978378   1.000000
    4        2.978381   1.000000
    5        6.236247   0.000000
    6        6.968065   0.000000
    7       14.020738   0.000000
    8       14.020739   0.000000
 
  0.4666667E+00  0.4000000E+00  0.0000000E+00  0.7111111E-02
    1       -3.070758   1.000000
    2       -1.079331   1.000000
    3        2.669406   1.000000
    4        2.922606   1.000000
    5        6.392170   0.000000
    6        6.948100   0.000000
    7       14.314135   0.000000
    8       14.339211   0.000000
 
 -0.4666667E+00  0.4000000E+00  0.0000000E+00  0.7111111E-02
    1       -2.572214   1.000000
    2       -1.588025   1.000000
    3        2.131638   1.000000
    4        2.961889   1.000000
    5        6.527344   0.000000
    6        7.647443   0.000000
    7       14.149652   0.000000
    8       14.311263   0.000000
 
 -0.4000000E+00  0.4000000E+00  0.0000000E+00  0.3555556E-02
    1       -2.358866   1.000000
    2       -1.755616   1.000000
    3        1.648123   1.000000
    4        3.094277   1.000000
    5        6.682286   0.000000
    6        8.767673   0.000000
    7       13.617086   0.000000
    8       14.192505   0.000000
 
  0.4666667E+00  0.4666667E+00  0.0000000E+00  0.1777778E-02
    1       -2.623429   1.000000
    2       -1.611344   1.000000
    3        2.840699   1.000000
    4        2.840702   1.000000
    5        6.276211   0.000000
    6        6.515294   0.000000
    7       15.219652   0.000000
    8       15.219655   0.000000
 
 -0.4666667E+00  0.4666667E+00  0.0000000E+00  0.3555556E-02
    1       -2.146565   1.000000
    2       -2.087257   1.000000
    3        2.590348   1.000000
    4        2.854010   1.000000
    5        6.405082   0.000000
    6        6.732028   0.000000
    7       15.194509   0.000000
    8       15.339755   0.000000
 
  0.2000000E+00  0.1333333E+00  0.6666667E-01  0.7111111E-02
    1       -5.818469   1.000000
    2        3.559340   1.000000
    3        4.463149   1.000000
    4        5.148574   1.000000
    5        7.980307   0.000000
    6        8.880653   0.000000
    7        9.274421   0.000000
    8       10.497457   0.000000
 
  0.2666667E+00  0.1333333E+00  0.6666667E-01  0.1422222E-01
    1       -5.539219   1.000000
    2        2.548331   1.000000
    3        4.026169   1.000000
    4        4.970393   1.000000
    5        8.164638   0.000000
    6        8.872753   0.000000
    7        9.664640   0.000000
    8       10.727461   0.000000
 
  0.3333333E+00  0.1333333E+00  0.6666667E-01  0.1422222E-01
    1       -5.159477   1.000000
    2        1.441232   1.000000
    3        3.752027   1.000000
    4        4.717703   1.000000
    5        8.198294   0.000000
    6        8.924396   0.000000
    7        9.861021   0.000000
    8       10.962684   0.000000
 
  0.4000000E+00  0.1333333E+00  0.6666667E-01  0.1422222E-01
    1       -4.698789   1.000000
    2        0.390981   1.000000
    3        3.575981   1.000000
    4        4.471026   1.000000
    5        8.088961   0.000000
    6        8.930415   0.000000
    7        9.836912   0.000000
    8       11.579642   0.000000
 
  0.4666667E+00  0.1333333E+00  0.6666667E-01  0.1422222E-01
    1       -4.207155   1.000000
    2       -0.507768   1.000000
    3        3.475186   1.000000
    4        4.278395   1.000000
    5        7.982051   0.000000
    6        8.858538   0.000000
    7        9.739488   0.000000
    8       12.496063   0.000000
 
 -0.4666667E+00  0.1333333E+00  0.6666667E-01  0.1422222E-01
    1       -3.826860   1.000000
    2       -1.095045   1.000000
    3        3.431809   1.000000
    4        4.171970   1.000000
    5        7.923213   0.000000
    6        8.800515   0.000000
    7        9.669254   0.000000
    8       13.453959   0.000000
 
  0.2666667E+00  0.2000000E+00  0.6666667E-01  0.7111111E-02
    1       -5.442670   1.000000
    2        2.593879   1.000000
    3        3.868719   1.000000
    4        4.457374   1.000000
    5        7.519277   0.000000
    6        9.491104   0.000000
    7       10.151056   0.000000
    8       10.356644   0.000000
 
  0.3333333E+00  0.2000000E+00  0.6666667E-01  0.1422222E-01
    1       -5.095825   1.000000
    2        1.685135   1.000000
    3        3.430455   1.000000
    4        4.257327   1.000000
    5        7.751599   0.000000
    6        9.479742   0.000000
    7       10.002429   0.000000
    8       10.726415   0.000000
 
  0.4000000E+00  0.2000000E+00  0.6666667E-01  0.1422222E-01
    1       -4.659559   1.000000
    2        0.706617   1.000000
    3        3.134312   1.000000
    4        4.024965   1.000000
    5        7.903821   0.000000
    6        9.593701   0.000000
    7       10.091295   0.000000
    8       10.827309   0.000000
 
  0.4666667E+00  0.2000000E+00  0.6666667E-01  0.1422222E-01
    1       -4.168891   1.000000
    2       -0.201343   1.000000
    3        2.915439   1.000000
    4        3.857342   1.000000
    5        7.937783   0.000000
    6        9.410870   0.000000
    7       10.707697   0.000000
    8       10.952180   0.000000
 
 -0.4666667E+00  0.2000000E+00  0.6666667E-01  0.1422222E-01
    1       -3.723732   1.000000
    2       -0.894141   1.000000
    3        2.748035   1.000000
    4        3.799951   1.000000
    5        7.979962   0.000000
    6        9.221772   0.000000
    7       10.631204   0.000000
    8       12.026513   0.000000
 
 -0.4000000E+00  0.2000000E+00  0.6666667E-01  0.1422222E-01
    1       -3.572922   1.000000
    2       -1.105380   1.000000
    3        2.635197   1.000000
    4        3.859774   1.000000
    5        8.086105   0.000000
    6        9.089944   0.000000
    7       10.559226   0.000000
    8       13.251562   0.000000
 
 -0.3333333E+00  0.2000000E+00  0.6666667E-01  0.1422222E-01
    1       -3.862774   1.000000
    2       -0.686077   1.000000
    3        2.595310   1.000000
    4        4.022052   1.000000
    5        8.259689   0.000000
    6        9.027638   0.000000
    7       10.528824   0.000000
    8       12.369179   0.000000
 
 -0.2666667E+00  0.2000000E+00  0.6666667E-01  0.1422222E-01
    1       -4.342629   1.000000
    2        0.100888   1.000000
    3        2.653186   1.000000
    4        4.262265   1.000000
    5        8.474201   0.000000
    6        9.011251   0.000000
    7       10.502408   0.000000
    8       11.367448   0.000000
 
 -0.2000000E+00  0.2000000E+00  0.6666667E-01  0.1422222E-01
    1       -4.820284   1.000000
    2        1.022155   1.000000
    3        2.849344   1.000000
    4        4.545237   1.000000
    5        8.659154   0.000000
    6        8.941311   0.000000
    7       10.388884   0.000000
    8       10.701573   0.000000
 
 -0.1333333E+00  0.2000000E+00  0.6666667E-01  0.7111111E-02
    1       -5.227538   1.000000
    2        1.896784   1.000000
    3        3.276580   1.000000
    4        4.812978   1.000000
    5        8.494045   0.000000
    6        8.931253   0.000000
    7       10.091956   0.000000
    8       10.516430   0.000000
 
  0.3333333E+00  0.2666667E+00  0.6666667E-01  0.7111111E-02
    1       -4.922817   1.000000
    2        1.576660   1.000000
    3        3.358992   1.000000
    4        3.789213   1.000000
    5        7.109028   0.000000
    6        8.776861   0.000000
    7       10.898622   0.000000
    8       11.533470   0.000000
 
  0.4000000E+00  0.2666667E+00  0.6666667E-01  0.1422222E-01
    1       -4.514819   1.000000
    2        0.796313   1.000000
    3        2.910275   1.000000
    4        3.583915   1.000000
    5        7.372451   0.000000
    6        8.828095   0.000000
    7       10.746820   0.000000
    8       11.881322   0.000000
 
  0.4666667E+00  0.2666667E+00  0.6666667E-01  0.1422222E-01
    1       -4.036134   1.000000
    2       -0.014031   1.000000
    3        2.519922   1.000000
    4        3.435681   1.000000
    5        7.515748   0.000000
    6        9.447458   0.000000
    7       10.516158   0.000000
    8       11.909404   0.000000
 
 -0.4666667E+00  0.2666667E+00  0.6666667E-01  0.1422222E-01
    1       -3.554992   1.000000
    2       -0.722555   1.000000
    3        2.196788   1.000000
    4        3.404681   1.000000
    5        7.594572   0.000000
    6       10.201250   0.000000
    7       10.548821   0.000000
    8       11.810868   0.000000
 
 -0.4000000E+00  0.2666667E+00  0.6666667E-01  0.1422222E-01
    1       -3.273778   1.000000
    2       -1.091898   1.000000
    3        1.964542   1.000000
    4        3.490123   1.000000
    5        7.728467   0.000000
    6       10.051855   0.000000
    7       11.653935   0.000000
    8       11.772164   0.000000
 
 -0.3333333E+00  0.2666667E+00  0.6666667E-01  0.1422222E-01
    1       -3.450423   1.000000
    2       -0.856622   1.000000
    3        1.850955   1.000000
    4        3.676436   1.000000
    5        7.946947   0.000000
    6        9.905206   0.000000
    7       11.578149   0.000000
    8       12.326250   0.000000
 
 -0.2666667E+00  0.2666667E+00  0.6666667E-01  0.1422222E-01
    1       -3.905068   1.000000
    2       -0.224363   1.000000
    3        1.899766   1.000000
    4        3.941720   1.000000
    5        8.238946   0.000000
    6        9.754308   0.000000
    7       11.192570   0.000000
    8       11.538650   0.000000
 
 -0.2000000E+00  0.2666667E+00  0.6666667E-01  0.7111111E-02
    1       -4.391655   1.000000
    2        0.470120   1.000000
    3        2.200291   1.000000
    4        4.251794   1.000000
    5        8.559032   0.000000
    6        9.392154   0.000000
    7       10.652183   0.000000
    8       11.110158   0.000000
 
  0.4000000E+00  0.3333333E+00  0.6666667E-01  0.7111111E-02
    1       -4.266017   1.000000
    2        0.517032   1.000000
    3        2.970122   1.000000
    4        3.252810   1.000000
    5        6.811730   0.000000
    6        7.949648   0.000000
    7       11.951306   0.000000
    8       12.761113   0.000000
 
  0.4666667E+00  0.3333333E+00  0.6666667E-01  0.1422222E-01
    1       -3.806846   1.000000
    2       -0.140161   1.000000
    3        2.496674   1.000000
    4        3.090552   1.000000
    5        7.090382   0.000000
    6        8.187074   0.000000
    7       11.761384   0.000000
    8       13.098807   0.000000
 
 -0.4666667E+00  0.3333333E+00  0.6666667E-01  0.1422222E-01
    1       -3.311638   1.000000
    2       -0.767892   1.000000
    3        2.003405   1.000000
    4        3.062460   1.000000
    5        7.217778   0.000000
    6        9.029593   0.000000
    7       11.519804   0.000000
    8       13.089128   0.000000
 