 running on    4 total cores
 distrk:  each k-point on    4 cores,    1 groups
 distr:  one band on    1 cores,    4 groups
 vasp.6.2.0 18Jan21 (build Aug 12 2022 13:00:08) complex                        
  
 POSCAR found type information on POSCAR Si
 POSCAR found :  1 types and       2 ions
 scaLAPACK will be used
 LDA part: xc-table for Pade appr. of Perdew
 POSCAR, INCAR and KPOINTS ok, starting setup
 FFT: planning ...
 WAVECAR not read
 entering main loop
       N       E                     dE             d eps       ncg     rms          rms(c)
DAV:   1     0.264991276165E+01    0.26499E+01   -0.28382E+03  1920   0.650E+02
DAV:   2    -0.108581039132E+02   -0.13508E+02   -0.12971E+02  2816   0.707E+01
DAV:   3    -0.110227108055E+02   -0.16461E+00   -0.16461E+00  2664   0.976E+00
DAV:   4    -0.110233201081E+02   -0.60930E-03   -0.60930E-03  2936   0.612E-01
DAV:   5    -0.110233210538E+02   -0.94568E-06   -0.94563E-06  2584   0.173E-02    0.483E+00
DAV:   6    -0.109018241126E+02    0.12150E+00   -0.80131E-02  2352   0.148E+00    0.295E+00
DAV:   7    -0.108462253226E+02    0.55599E-01   -0.15205E-01  2488   0.216E+00    0.185E-01
DAV:   8    -0.108472920478E+02   -0.10667E-02   -0.38506E-03  2200   0.465E-01    0.739E-02
DAV:   9    -0.108474859338E+02   -0.19389E-03   -0.19181E-04  2856   0.108E-01    0.571E-02
DAV:  10    -0.108475113049E+02   -0.25371E-04   -0.30044E-05  2304   0.410E-02    0.974E-03
DAV:  11    -0.108475109871E+02    0.31787E-06   -0.57147E-07  2672   0.521E-03
   1 F= -.10847511E+02 E0= -.10847511E+02  d E =-.108475E+02
 curvature:   0.00 expect dE= 0.000E+00 dE for cont linesearch  0.000E+00
 trial: gam= 0.00000 g(F)=  0.606E-43 g(S)=  0.720E-02 ort = 0.000E+00 (trialstep = 0.100E+01)
 search vector abs. value=  0.720E-02
 bond charge predicted
       N       E                     dE             d eps       ncg     rms          rms(c)
DAV:   1    -0.108515567994E+02   -0.40455E-02   -0.11125E-01  2384   0.189E+00    0.315E-01
DAV:   2    -0.108496744927E+02    0.18823E-02   -0.15882E-03  2608   0.271E-01    0.192E-01
DAV:   3    -0.108486810515E+02    0.99344E-03   -0.20591E-03  2264   0.230E-01    0.622E-02
DAV:   4    -0.108486810129E+02    0.38582E-07   -0.21071E-05  2760   0.413E-02    0.549E-02
DAV:   5    -0.108486745154E+02    0.64975E-05   -0.53162E-06  2200   0.168E-02    0.124E-02
DAV:   6    -0.108486747063E+02   -0.19093E-06   -0.58845E-08  1272   0.229E-03
   2 F= -.10848675E+02 E0= -.10848675E+02  d E =-.116372E-02
 trial-energy change:   -0.001164  1 .order   -0.001265   -0.007202    0.004671
 step:   0.5942(harm=  0.6066)  dis= 0.00000  next Energy=   -10.849629 (dE=-0.212E-02)
 bond charge predicted
       N       E                     dE             d eps       ncg     rms          rms(c)
DAV:   1    -0.108500863852E+02   -0.14119E-02   -0.18559E-02  2392   0.775E-01    0.131E-01
DAV:   2    -0.108497777617E+02    0.30862E-03   -0.26003E-04  2600   0.109E-01    0.793E-02
DAV:   3    -0.108496215810E+02    0.15618E-03   -0.34028E-04  2256   0.935E-02    0.257E-02
DAV:   4    -0.108496222298E+02   -0.64875E-06   -0.34739E-06  2632   0.168E-02    0.229E-02
DAV:   5    -0.108496240370E+02   -0.18072E-05   -0.86111E-07  2000   0.687E-03    0.570E-03
DAV:   6    -0.108496239596E+02    0.77423E-07   -0.11500E-08  1048   0.997E-04
   3 F= -.10849624E+02 E0= -.10849624E+02  d E =-.211297E-02
 curvature:  -0.30 expect dE=-0.713E-07 dE for cont linesearch -0.713E-07
 trial: gam=-0.00568 g(F)=  0.549E-44 g(S)=  0.235E-06 ort = 0.412E-04 (trialstep = 0.919E+00)
 search vector abs. value=  0.108E-09
 reached required accuracy - stopping structural energy minimisation
