unknown system                          
           1
     3.333573    0.000000    1.924639
     1.111191    3.142924    1.924639
     0.000000    0.000000    3.849278
   Si
     2
Direct configuration=     1
   0.87500000  0.87500000  0.87500000
   0.12500000  0.12500000  0.12500000
unknown system                          
           1
     3.358940    0.000000    1.939284
     1.119647    3.166840    1.939284
    -0.000000   -0.000000    3.878569
   Si
     2
Direct configuration=     2
   0.87500000  0.87500000  0.87500000
   0.12500000  0.12500000  0.12500000
unknown system                          
           1
     3.348646    0.000000    1.933341
     1.116215    3.157135    1.933341
    -0.000000   -0.000000    3.866682
   Si
     2
Direct configuration=     3
   0.87500000  0.87500000  0.87500000
   0.12500000  0.12500000  0.12500000
