   1   1   0   0
  0.1408159E+02  0.2710538E-09  0.2710538E-09  0.2710538E-09  0.5000000E-15
  1.000000000000000E-004
  CAR 
 unknown system                          
     38.86827634     -6.31961852  301     10.21552108      1.00000000
     -6.320  0.0000E+00  0.0000E+00
     -6.169  0.0000E+00  0.0000E+00
     -6.018  0.0000E+00  0.0000E+00
     -5.868  0.0000E+00  0.0000E+00
     -5.717  0.0000E+00  0.0000E+00
     -5.566  0.0000E+00  0.0000E+00
     -5.416  0.0000E+00  0.0000E+00
     -5.265  0.0000E+00  0.0000E+00
     -5.115  0.0000E+00  0.0000E+00
     -4.964  0.0000E+00  0.0000E+00
     -4.813  0.0000E+00  0.0000E+00
     -4.663  0.0000E+00  0.0000E+00
     -4.512  0.6169E-16  0.9292E-17
     -4.361  0.1319E-06  0.1987E-07
     -4.211  0.4212E-04  0.6364E-05
     -4.060  0.4994E-03  0.8158E-04
     -3.910  0.3356E-03  0.1321E-03
     -3.759  0.1060E-02  0.2919E-03
     -3.608  0.4220E-03  0.3554E-03
     -3.458  0.5821E-03  0.4431E-03
     -3.307  0.1513E-02  0.6710E-03
     -3.156  0.9839E-03  0.8192E-03
     -3.006  0.1205E-02  0.1001E-02
     -2.855  0.3859E-03  0.1059E-02
     -2.705  0.2536E-02  0.1441E-02
     -2.554  0.9569E-03  0.1585E-02
     -2.403  0.1336E-02  0.1786E-02
     -2.253  0.1183E-02  0.1964E-02
     -2.102  0.6405E-03  0.2061E-02
     -1.951  0.2477E-02  0.2434E-02
     -1.801  0.1834E-02  0.2710E-02
     -1.650  0.2855E-02  0.3140E-02
     -1.500  0.1927E-03  0.3169E-02
     -1.349  0.1687E-02  0.3423E-02
     -1.198  0.1546E-02  0.3656E-02
     -1.048  0.2209E-02  0.3989E-02
     -0.897  0.2067E-02  0.4300E-02
     -0.746  0.1236E-02  0.4486E-02
     -0.596  0.4337E-02  0.5140E-02
     -0.445  0.9424E-03  0.5282E-02
     -0.295  0.1904E-02  0.5568E-02
     -0.144  0.6090E-03  0.5660E-02
      0.007  0.3107E-02  0.6128E-02
      0.157  0.1838E-02  0.6405E-02
      0.308  0.3593E-02  0.6946E-02
      0.459  0.2783E-02  0.7366E-02
      0.609  0.2406E-03  0.7402E-02
      0.760  0.4398E-02  0.8064E-02
      0.910  0.1815E-02  0.8338E-02
      1.061  0.2009E-02  0.8640E-02
      1.212  0.3344E-03  0.8691E-02
      1.362  0.4998E-02  0.9443E-02
      1.513  0.2390E-02  0.9803E-02
      1.664  0.3059E-02  0.1026E-01
      1.814  0.3048E-02  0.1072E-01
      1.965  0.1560E-02  0.1096E-01
      2.115  0.2672E-02  0.1136E-01
      2.266  0.3084E-02  0.1183E-01
      2.417  0.3506E-02  0.1235E-01
      2.567  0.9076E-03  0.1249E-01
      2.718  0.3616E-02  0.1303E-01
      2.869  0.2163E-02  0.1336E-01
      3.019  0.5569E-02  0.1420E-01
      3.170  0.1171E-02  0.1438E-01
      3.320  0.4457E-02  0.1505E-01
      3.471  0.3250E-02  0.1554E-01
      3.622  0.2626E-02  0.1593E-01
      3.772  0.8990E-03  0.1607E-01
      3.923  0.1425E-02  0.1628E-01
      4.074  0.3779E-02  0.1685E-01
      4.224  0.3283E-02  0.1735E-01
      4.375  0.7318E-02  0.1845E-01
      4.525  0.7560E-03  0.1856E-01
      4.676  0.2901E-02  0.1900E-01
      4.827  0.3849E-02  0.1958E-01
      4.977  0.4578E-02  0.2027E-01
      5.128  0.2521E-02  0.2065E-01
      5.279  0.2855E-02  0.2108E-01
      5.429  0.4590E-02  0.2177E-01
      5.580  0.3124E-02  0.2224E-01
      5.730  0.1836E-02  0.2252E-01
      5.881  0.1337E-02  0.2272E-01
      6.032  0.3739E-02  0.2328E-01
      6.182  0.4843E-02  0.2401E-01
      6.333  0.5089E-02  0.2478E-01
      6.484  0.3857E-02  0.2536E-01
      6.634  0.1429E-02  0.2557E-01
      6.785  0.4876E-02  0.2631E-01
      6.935  0.4915E-02  0.2705E-01
      7.086  0.3626E-02  0.2759E-01
      7.237  0.1703E-02  0.2785E-01
      7.387  0.7556E-02  0.2899E-01
      7.538  0.1252E-02  0.2918E-01
      7.689  0.1557E-02  0.2941E-01
      7.839  0.1385E-02  0.2962E-01
      7.990  0.4037E-02  0.3023E-01
      8.141  0.5071E-02  0.3099E-01
      8.291  0.8711E-02  0.3230E-01
      8.442  0.5057E-02  0.3307E-01
      8.592  0.1778E-02  0.3333E-01
      8.743  0.2381E-02  0.3369E-01
      8.894  0.5835E-02  0.3457E-01
      9.044  0.2271E-02  0.3491E-01
      9.195  0.2097E-02  0.3523E-01
      9.346  0.5544E-02  0.3606E-01
      9.496  0.4556E-02  0.3675E-01
      9.647  0.5079E-02  0.3752E-01
      9.797  0.9233E-03  0.3766E-01
      9.948  0.6489E-02  0.3863E-01
     10.099  0.3879E-02  0.3922E-01
     10.249  0.6716E-02  0.4023E-01
     10.400  0.3737E-02  0.4079E-01
     10.551  0.2635E-02  0.4119E-01
     10.701  0.1923E-02  0.4148E-01
     10.852  0.7209E-02  0.4256E-01
     11.002  0.6484E-02  0.4354E-01
     11.153  0.2408E-02  0.4390E-01
     11.304  0.5851E-02  0.4478E-01
     11.454  0.5067E-02  0.4555E-01
     11.605  0.2629E-02  0.4594E-01
     11.756  0.2284E-02  0.4629E-01
     11.906  0.5167E-02  0.4707E-01
     12.057  0.2875E-02  0.4750E-01
     12.207  0.1008E-01  0.4902E-01
     12.358  0.3154E-02  0.4949E-01
     12.509  0.6722E-02  0.5051E-01
     12.659  0.3574E-02  0.5104E-01
     12.810  0.4898E-02  0.5178E-01
     12.961  0.3296E-02  0.5228E-01
     13.111  0.6783E-02  0.5330E-01
     13.262  0.6348E-02  0.5426E-01
     13.412  0.5151E-02  0.5503E-01
     13.563  0.3728E-02  0.5559E-01
     13.714  0.5775E-02  0.5646E-01
     13.864  0.5414E-02  0.5728E-01
     14.015  0.5331E-02  0.5808E-01
     14.166  0.6727E-02  0.5909E-01
     14.316  0.3578E-02  0.5963E-01
     14.467  0.5093E-02  0.6040E-01
     14.617  0.7281E-02  0.6150E-01
     14.768  0.6118E-02  0.6242E-01
     14.919  0.3764E-02  0.6299E-01
     15.069  0.4776E-02  0.6371E-01
     15.220  0.3476E-02  0.6423E-01
     15.371  0.1505E-02  0.6446E-01
     15.521  0.6677E-02  0.6546E-01
     15.672  0.4705E-02  0.6617E-01
     15.822  0.7565E-02  0.6731E-01
     15.973  0.5948E-02  0.6821E-01
     16.124  0.2475E-02  0.6858E-01
     16.274  0.5632E-02  0.6943E-01
     16.425  0.2149E-02  0.6975E-01
     16.576  0.6150E-02  0.7068E-01
     16.726  0.2630E-02  0.7107E-01
     16.877  0.5324E-02  0.7187E-01
     17.027  0.4617E-02  0.7257E-01
     17.178  0.6680E-02  0.7358E-01
     17.329  0.4673E-02  0.7428E-01
     17.479  0.3104E-02  0.7475E-01
     17.630  0.6019E-02  0.7565E-01
     17.781  0.6026E-02  0.7656E-01
     17.931  0.3270E-02  0.7705E-01
     18.082  0.1968E-02  0.7735E-01
     18.232  0.1012E-01  0.7888E-01
     18.383  0.7365E-02  0.7998E-01
     18.534  0.5033E-02  0.8074E-01
     18.684  0.2815E-02  0.8117E-01
     18.835  0.5994E-02  0.8207E-01
     18.986  0.4820E-02  0.8280E-01
     19.136  0.4831E-02  0.8352E-01
     19.287  0.5128E-02  0.8430E-01
     19.437  0.9641E-02  0.8575E-01
     19.588  0.2332E-02  0.8610E-01
     19.739  0.2503E-02  0.8648E-01
     19.889  0.3266E-02  0.8697E-01
     20.040  0.6084E-02  0.8788E-01
     20.191  0.7751E-02  0.8905E-01
     20.341  0.7476E-02  0.9018E-01
     20.492  0.7240E-02  0.9127E-01
     20.642  0.5574E-02  0.9211E-01
     20.793  0.4495E-02  0.9279E-01
     20.944  0.3458E-02  0.9331E-01
     21.094  0.7841E-02  0.9449E-01
     21.245  0.8509E-02  0.9577E-01
     21.396  0.4750E-02  0.9648E-01
     21.546  0.7677E-02  0.9764E-01
     21.697  0.2242E-02  0.9798E-01
     21.848  0.7108E-02  0.9905E-01
     21.998  0.8189E-02  0.1003E+00
     22.149  0.3440E-02  0.1008E+00
     22.299  0.2284E-02  0.1011E+00
     22.450  0.4557E-02  0.1018E+00
     22.601  0.7588E-02  0.1030E+00
     22.751  0.6079E-02  0.1039E+00
     22.902  0.3246E-02  0.1044E+00
     23.053  0.5256E-02  0.1052E+00
     23.203  0.6879E-02  0.1062E+00
     23.354  0.7638E-02  0.1074E+00
     23.504  0.1029E-01  0.1089E+00
     23.655  0.7714E-02  0.1101E+00
     23.806  0.8778E-02  0.1114E+00
     23.956  0.3888E-02  0.1120E+00
     24.107  0.4120E-02  0.1126E+00
     24.258  0.6167E-02  0.1135E+00
     24.408  0.2026E-02  0.1138E+00
     24.559  0.9585E-02  0.1153E+00
     24.709  0.6222E-02  0.1162E+00
     24.860  0.4831E-02  0.1169E+00
     25.011  0.4863E-02  0.1177E+00
     25.161  0.2892E-02  0.1181E+00
     25.312  0.9177E-02  0.1195E+00
     25.463  0.1401E-01  0.1216E+00
     25.613  0.5662E-02  0.1225E+00
     25.764  0.4417E-02  0.1231E+00
     25.914  0.5403E-02  0.1239E+00
     26.065  0.8231E-02  0.1252E+00
     26.216  0.6173E-02  0.1261E+00
     26.366  0.5933E-02  0.1270E+00
     26.517  0.5140E-02  0.1278E+00
     26.668  0.9077E-02  0.1291E+00
     26.818  0.6407E-02  0.1301E+00
     26.969  0.1428E-02  0.1303E+00
     27.119  0.5194E-02  0.1311E+00
     27.270  0.4308E-02  0.1317E+00
     27.421  0.9012E-02  0.1331E+00
     27.571  0.6473E-02  0.1341E+00
     27.722  0.1017E-01  0.1356E+00
     27.873  0.6675E-02  0.1366E+00
     28.023  0.1822E-02  0.1369E+00
     28.174  0.4220E-02  0.1375E+00
     28.324  0.8367E-02  0.1388E+00
     28.475  0.8077E-02  0.1400E+00
     28.626  0.2957E-02  0.1405E+00
     28.776  0.1683E-02  0.1407E+00
     28.927  0.2083E-02  0.1410E+00
     29.078  0.8556E-02  0.1423E+00
     29.228  0.4933E-02  0.1431E+00
     29.379  0.4831E-02  0.1438E+00
     29.529  0.4040E-02  0.1444E+00
     29.680  0.1552E-02  0.1446E+00
     29.831  0.1026E-01  0.1462E+00
     29.981  0.8607E-02  0.1475E+00
     30.132  0.5875E-02  0.1483E+00
     30.283  0.5456E-02  0.1492E+00
     30.433  0.2552E-02  0.1496E+00
     30.584  0.2929E-02  0.1500E+00
     30.734  0.2944E-02  0.1504E+00
     30.885  0.6103E-02  0.1514E+00
     31.036  0.3430E-02  0.1519E+00
     31.186  0.2739E-02  0.1523E+00
     31.337  0.3214E-02  0.1528E+00
     31.488  0.5515E-02  0.1536E+00
     31.638  0.4013E-02  0.1542E+00
     31.789  0.2959E-02  0.1547E+00
     31.939  0.9647E-04  0.1547E+00
     32.090  0.1474E-02  0.1549E+00
     32.241  0.4718E-02  0.1556E+00
     32.391  0.1084E-02  0.1558E+00
     32.542  0.8437E-03  0.1559E+00
     32.693  0.1918E-02  0.1562E+00
     32.843  0.9596E-03  0.1563E+00
     32.994  0.3168E-02  0.1568E+00
     33.144  0.2702E-02  0.1572E+00
     33.295  0.1770E-02  0.1575E+00
     33.446  0.9606E-03  0.1576E+00
     33.596  0.1386E-02  0.1578E+00
     33.747  0.2145E-02  0.1582E+00
     33.898  0.1244E-02  0.1583E+00
     34.048  0.1723E-02  0.1586E+00
     34.199  0.1692E-02  0.1589E+00
     34.349  0.3010E-03  0.1589E+00
     34.500  0.1132E-03  0.1589E+00
     34.651  0.1769E-02  0.1592E+00
     34.801  0.3407E-04  0.1592E+00
     34.952  0.4428E-03  0.1593E+00
     35.103  0.5980E-03  0.1593E+00
     35.253  0.5598E-03  0.1594E+00
     35.404  0.8917E-03  0.1596E+00
     35.554  0.1254E-02  0.1598E+00
     35.705  0.4145E-04  0.1598E+00
     35.856  0.9000E-03  0.1599E+00
     36.006  0.5534E-05  0.1599E+00
     36.157  0.5643E-14  0.1599E+00
     36.308  0.8503E-11  0.1599E+00
     36.458  0.4997E-04  0.1599E+00
     36.609  0.4215E-03  0.1600E+00
     36.760  0.1493E-04  0.1600E+00
     36.910  0.2209E-03  0.1600E+00
     37.061  0.7914E-06  0.1600E+00
     37.211  0.3701E-15  0.1600E+00
     37.362  0.0000E+00  0.1600E+00
     37.513  0.0000E+00  0.1600E+00
     37.663  0.0000E+00  0.1600E+00
     37.814  0.0000E+00  0.1600E+00
     37.965  0.0000E+00  0.1600E+00
     38.115  0.0000E+00  0.1600E+00
     38.266  0.0000E+00  0.1600E+00
     38.416  0.0000E+00  0.1600E+00
     38.567  0.0000E+00  0.1600E+00
     38.718  0.0000E+00  0.1600E+00
     38.868  0.0000E+00  0.1600E+00
