    1    1  100    1
  0.1408159E+02  0.2710538E-09  0.2710538E-09  0.2710538E-09  0.5000000E-15
  1.000000000000000E-004
  CAR 
 unknown system                          
      4    120      8
 
  0.0000000E+00  0.0000000E+00  0.0000000E+00  0.2962963E-03
    1       -4.265623   1.000000
    2       21.421253   0.000000
    3       21.421260   0.000000
    4       21.421266   0.000000
    5       22.255282   0.000000
    6       22.255290   0.000000
    7       22.255299   0.000000
    8       27.534989   0.000000
 
  0.6666667E-01 -0.6938894E-17  0.0000000E+00  0.2370370E-02
    1       -4.135494   1.000000
    2       19.284478   0.000000
    3       20.765631   0.000000
    4       20.765641   0.000000
    5       23.104628   0.000000
    6       23.104641   0.000000
    7       23.301470   0.000000
    8       28.606649   0.000000
 
  0.1333333E+00  0.0000000E+00  0.0000000E+00  0.2370370E-02
    1       -3.746441   1.000000
    2       16.443573   0.000000
    3       20.001987   0.000000
    4       20.001996   0.000000
    5       23.577430   0.000000
    6       24.200183   0.000000
    7       24.200197   0.000000
    8       27.562980   0.000000
 
  0.2000000E+00  0.0000000E+00  0.0000000E+00  0.2370370E-02
    1       -3.099843   1.000000
    2       13.596108   0.000000
    3       19.420669   0.000000
    4       19.420678   0.000000
    5       23.497909   0.000000
    6       24.429708   0.000000
    7       24.429718   0.000000
    8       27.503518   0.000000
 
  0.2666667E+00  0.0000000E+00  0.0000000E+00  0.2370370E-02
    1       -2.198301   1.000000
    2       10.885664   0.000000
    3       19.037325   0.000000
    4       19.037332   0.000000
    5       23.403929   0.000000
    6       23.537140   0.000000
    7       23.537148   0.000000
    8       28.776568   0.000000
 
  0.3333333E+00  0.0000000E+00  0.0000000E+00  0.2370370E-02
    1       -1.045914   1.000000
    2        8.354846   1.000000
    3       18.839316   0.000000
    4       18.839321   0.000000
    5       22.498284   0.000000
    6       22.498294   0.000000
    7       23.395262   0.000000
    8       27.605882   0.000000
 
  0.4000000E+00 -0.2775558E-16  0.0000000E+00  0.2370370E-02
    1        0.352686   1.000000
    2        6.032757   1.000000
    3       18.797707   0.000000
    4       18.797710   0.000000
    5       21.717283   0.000000
    6       21.717295   0.000000
    7       23.528440   0.000000
    8       26.687281   0.000000
 
  0.4666667E+00  0.0000000E+00  0.0000000E+00  0.2370370E-02
    1        1.964911   1.000000
    2        3.954593   1.000000
    3       18.823640   0.000000
    4       18.823641   0.000000
    5       21.255285   0.000000
    6       21.255298   0.000000
    7       23.648463   0.000000
    8       26.138013   0.000000
 
  0.6666667E-01  0.6666667E-01  0.0000000E+00  0.1777778E-02
    1       -4.092140   1.000000
    2       19.763719   0.000000
    3       19.763720   0.000000
    4       21.018977   0.000000
    5       21.350682   0.000000
    6       24.179836   0.000000
    7       24.179837   0.000000
    8       27.466692   0.000000
 
  0.1333333E+00  0.6666667E-01  0.0000000E+00  0.7111111E-02
    1       -3.789582   1.000000
    2       17.456827   0.000000
    3       18.917615   0.000000
    4       20.475910   0.000000
    5       21.862637   0.000000
    6       24.885905   0.000000
    7       25.337779   0.000000
    8       25.962325   0.000000
 
  0.2000000E+00  0.6666667E-01  0.0000000E+00  0.7111111E-02
    1       -3.228861   1.000000
    2       14.624670   0.000000
    3       18.277211   0.000000
    4       19.842314   0.000000
    5       22.568751   0.000000
    6       24.686007   0.000000
    7       25.460656   0.000000
    8       25.967336   0.000000
 
  0.2666667E+00  0.6666667E-01  0.0000000E+00  0.7111111E-02
    1       -2.412386   1.000000
    2       11.872213   0.000000
    3       17.850762   0.000000
    4       19.324917   0.000000
    5       22.004288   0.000000
    6       24.493587   0.000000
    7       25.304545   0.000000
    8       26.495162   0.000000
 
  0.3333333E+00  0.6666667E-01  0.0000000E+00  0.7111111E-02
    1       -1.343223   1.000000
    2        9.282309   1.000000
    3       17.642885   0.000000
    4       18.883089   0.000000
    5       21.117168   0.000000
    6       24.250907   0.000000
    7       24.470888   0.000000
    8       28.083132   0.000000
 
  0.4000000E+00  0.6666667E-01  0.0000000E+00  0.7111111E-02
    1       -0.026308   1.000000
    2        6.890330   1.000000
    3       17.646504   0.000000
    4       18.406971   0.000000
    5       20.597703   0.000000
    6       23.271173   0.000000
    7       24.513609   0.000000
    8       27.918841   0.000000
 
  0.4666667E+00  0.6666667E-01  0.0000000E+00  0.7111111E-02
    1        1.522393   1.000000
    2        4.722574   1.000000
    3       17.850394   0.000000
    4       17.866370   0.000000
    5       20.550191   0.000000
    6       22.493236   0.000000
    7       24.544304   0.000000
    8       27.375024   0.000000
 
 -0.4666667E+00  0.6666667E-01  0.0000000E+00  0.7111111E-02
    1        2.598866   1.000000
    2        3.490950   1.000000
    3       17.376989   0.000000
    4       18.240275   0.000000
    5       20.899764   0.000000
    6       21.968545   0.000000
    7       24.481238   0.000000
    8       27.287618   0.000000
 
 -0.4000000E+00  0.6666667E-01  0.0000000E+00  0.7111111E-02
    1        0.982884   1.000000
    2        5.417366   1.000000
    3       17.035503   0.000000
    4       18.770973   0.000000
    5       21.558191   0.000000
    6       21.756177   0.000000
    7       24.329811   0.000000
    8       27.689136   0.000000
 
 -0.3333333E+00  0.6666667E-01  0.0000000E+00  0.7111111E-02
    1       -0.492408   1.000000
    2        7.663698   1.000000
    3       16.885824   0.000000
    4       19.353197   0.000000
    5       21.908327   0.000000
    6       22.455949   0.000000
    7       24.177642   0.000000
    8       28.432896   0.000000
 
 -0.2666667E+00  0.6666667E-01  0.0000000E+00  0.7111111E-02
    1       -1.727639   1.000000
    2       10.124306   0.995059
    3       16.950194   0.000000
    4       19.909851   0.000000
    5       22.473882   0.000000
    6       23.545214   0.000000
    7       24.110154   0.000000
    8       28.167214   0.000000
 
 -0.2000000E+00  0.6666667E-01  0.0000000E+00  0.7111111E-02
    1       -2.712801   1.000000
    2       12.772860   0.000000
    3       17.229891   0.000000
    4       20.457038   0.000000
    5       23.290262   0.000000
    6       24.118653   0.000000
    7       24.723079   0.000000
    8       26.485909   0.000000
 
 -0.1333333E+00  0.6666667E-01  0.0000000E+00  0.7111111E-02
    1       -3.444330   1.000000
    2       15.562343   0.000000
    3       17.729649   0.000000
    4       21.053273   0.000000
    5       23.406937   0.000000
    6       24.070258   0.000000
    7       25.351548   0.000000
    8       26.090592   0.000000
 
 -0.6666667E-01  0.6666667E-01  0.0000000E+00  0.3555556E-02
    1       -3.919233   1.000000
    2       18.286295   0.000000
    3       18.536762   0.000000
    4       21.502568   0.000000
    5       22.616154   0.000000
    6       23.714920   0.000000
    7       24.646900   0.000000
    8       27.231553   0.000000
 
  0.1333333E+00  0.1333333E+00  0.0000000E+00  0.1777778E-02
    1       -3.573641   1.000000
    2       17.997579   0.000000
    3       17.997579   0.000000
    4       19.679402   0.000000
    5       19.946665   0.000000
    6       24.079913   0.000000
    7       26.572576   0.000000
    8       26.572576   0.000000
 
  0.2000000E+00  0.1333333E+00  0.0000000E+00  0.7111111E-02
    1       -3.099524   1.000000
    2       15.792844   0.000000
    3       17.286014   0.000000
    4       19.109147   0.000000
    5       20.228650   0.000000
    6       22.756465   0.000000
    7       27.288457   0.000000
    8       27.549166   0.000000
 
  0.2666667E+00  0.1333333E+00  0.0000000E+00  0.7111111E-02
    1       -2.369147   1.000000
    2       13.064566   0.000000
    3       16.792704   0.000000
    4       18.385569   0.000000
    5       20.123489   0.000000
    6       23.106290   0.000000
    7       27.290423   0.000000
    8       27.447048   0.000000
 
  0.3333333E+00  0.1333333E+00  0.0000000E+00  0.7111111E-02
    1       -1.385079   1.000000
    2       10.435331   0.000000
    3       16.522243   0.000000
    4       17.557872   0.000000
    5       19.526163   0.000000
    6       24.603795   0.000000
    7       26.314712   0.000000
    8       27.636014   0.000000
 
  0.4000000E+00  0.1333333E+00  0.0000000E+00  0.7111111E-02
    1       -0.151856   1.000000
    2        7.984491   1.000000
    3       16.469249   0.000000
    4       16.644973   0.000000
    5       19.265642   0.000000
    6       25.302958   0.000000
    7       25.867382   0.000000
    8       28.368305   0.000000
 
  0.4666667E+00  0.1333333E+00  0.0000000E+00  0.7111111E-02
    1        1.321013   1.000000
    2        5.744091   1.000000
    3       15.801657   0.000000
    4       16.640423   0.000000
    5       19.371781   0.000000
    6       24.453045   0.000000
    7       26.280030   0.000000
    8       29.813844   0.000000
 
 -0.4666667E+00  0.1333333E+00  0.0000000E+00  0.7111111E-02
    1        2.937986   1.000000
    2        3.817752   1.000000
    3       15.121143   0.000000
    4       17.024894   0.000000
    5       19.769418   0.000000
    6       23.785864   0.000000
    7       26.191302   0.000000
    8       29.901571   0.000000
 
 -0.4000000E+00  0.1333333E+00  0.0000000E+00  0.7111111E-02
    1        1.859966   1.000000
    2        5.049580   1.000000
    3       14.643532   0.000000
    4       17.615098   0.000000
    5       20.420174   0.000000
    6       23.362766   0.000000
    7       25.953780   0.000000
    8       30.212185   0.000000
 
 -0.3333333E+00  0.1333333E+00  0.0000000E+00  0.7111111E-02
    1        0.312752   1.000000
    2        7.210050   1.000000
    3       14.386858   0.000000
    4       18.390972   0.000000
    5       21.302610   0.000000
    6       23.188381   0.000000
    7       25.703073   0.000000
    8       29.851406   0.000000
 
 -0.2666667E+00  0.1333333E+00  0.0000000E+00  0.7111111E-02
    1       -1.001854   1.000000
    2        9.589292   1.000000
    3       14.360563   0.000000
    4       19.313157   0.000000
    5       22.397577   0.000000
    6       23.283740   0.000000
    7       25.498690   0.000000
    8       27.641191   0.000000
 
 -0.2000000E+00  0.1333333E+00  0.0000000E+00  0.7111111E-02
    1       -2.069411   1.000000
    2       12.147632   0.000000
    3       14.579594   0.000000
    4       20.309285   0.000000
    5       23.652308   0.000000
    6       23.679221   0.000000
    7       25.277397   0.000000
    8       25.757541   0.000000
 
 -0.1333333E+00  0.1333333E+00  0.0000000E+00  0.3555556E-02
    1       -2.884624   1.000000
    2       14.616401   0.000000
    3       15.262110   0.000000
    4       21.145545   0.000000
    5       23.617584   0.000000
    6       24.829816   0.000000
    7       24.911539   0.000000
    8       25.019017   0.000000
 
  0.2000000E+00  0.2000000E+00  0.0000000E+00  0.1777778E-02
    1       -2.712271   1.000000
    2       16.501059   0.000000
    3       16.501059   0.000000
    4       18.090401   0.000000
    5       18.194629   0.000000
    6       21.052404   0.000000
    7       29.021717   0.000000
    8       29.021718   0.000000
 
  0.2666667E+00  0.2000000E+00  0.0000000E+00  0.7111111E-02
    1       -2.068699   1.000000
    2       14.397792   0.000000
    3       15.934910   0.000000
    4       17.047276   0.000000
    5       18.342996   0.000000
    6       20.614506   0.000000
    7       29.375909   0.000000
    8       29.759676   0.000000
 
  0.3333333E+00  0.2000000E+00  0.0000000E+00  0.7111111E-02
    1       -1.171018   1.000000
    2       11.793236   0.000000
    3       15.588664   0.000000
    4       15.817518   0.000000
    5       18.236937   0.000000
    6       21.890112   0.000000
    7       28.562407   0.000000
    8       29.933020   0.000000
 
  0.4000000E+00  0.2000000E+00  0.0000000E+00  0.7111111E-02
    1       -0.022945   1.000000
    2        9.304923   1.000000
    3       14.646288   0.000000
    4       15.471307   0.000000
    5       18.125757   0.000000
    6       23.812634   0.000000
    7       27.581807   0.000000
    8       29.901579   0.000000
 
  0.4666667E+00  0.2000000E+00  0.0000000E+00  0.7111111E-02
    1        1.367462   1.000000
    2        7.004257   1.000000
    3       13.635338   0.000000
    4       15.576752   0.000000
    5       18.230703   0.000000
    6       25.832294   0.000000
    7       26.672253   0.000000
    8       29.759414   0.000000
 
 -0.4666667E+00  0.2000000E+00  0.0000000E+00  0.7111111E-02
    1        2.974595   1.000000
    2        4.938020   1.000000
    3       12.831487   0.000000
    4       15.904618   0.000000
    5       18.592145   0.000000
    6       25.956678   0.000000
    7       27.394873   0.000000
    8       30.064147   0.000000
 
 -0.4000000E+00  0.2000000E+00  0.0000000E+00  0.7111111E-02
    1        2.974995   1.000000
    2        4.935107   1.000000
    3       12.252019   0.000000
    4       16.450304   0.000000
    5       19.196199   0.000000
    6       25.444706   0.000000
    7       27.708401   0.000000
    8       31.273464   0.000000
 
 -0.3333333E+00  0.2000000E+00  0.0000000E+00  0.7111111E-02
    1        1.366948   1.000000
    2        6.994038   1.000000
    3       11.910525   0.000000
    4       17.204201   0.000000
    5       20.032732   0.000000
    6       25.136924   0.000000
    7       27.454338   0.000000
    8       29.678622   0.000000
 
 -0.2666667E+00  0.2000000E+00  0.0000000E+00  0.7111111E-02
    1       -0.023815   1.000000
    2        9.266936   1.000000
    3       11.828312   0.000000
    4       18.151085   0.000000
    5       21.091933   0.000000
    6       25.084948   0.000000
    7       27.022698   0.000000
    8       27.376580   0.000000
 
 -0.2000000E+00  0.2000000E+00  0.0000000E+00  0.3555556E-02
    1       -1.171806   1.000000
    2       11.427486   0.000000
    3       12.289776   0.000000
    4       19.242712   0.000000
    5       22.330247   0.000000
    6       25.270101   0.000000
    7       25.278728   0.000000
    8       26.330758   0.000000
 
  0.2666667E+00  0.2666667E+00  0.0000000E+00  0.1777778E-02
    1       -1.511621   1.000000
    2       15.291520   0.000000
    3       15.291520   0.000000
    4       15.463644   0.000000
    5       16.744849   0.000000
    6       19.200207   0.000000
    7       31.371708   0.000000
    8       31.371709   0.000000
 
  0.3333333E+00  0.2666667E+00  0.0000000E+00  0.7111111E-02
    1       -0.701568   1.000000
    2       13.254419   0.000000
    3       14.083454   0.000000
    4       14.874699   0.000000
    5       17.064582   0.000000
    6       19.388124   0.000000
    7       30.895999   0.000000
    8       32.067796   0.000000
 
  0.4000000E+00  0.2666667E+00  0.0000000E+00  0.7111111E-02
    1        0.358969   1.000000
    2       10.816711   0.000000
    3       12.733916   0.000000
    4       14.683428   0.000000
    5       17.161980   0.000000
    6       21.005784   0.000000
    7       29.996912   0.000000
    8       32.104509   0.000000
 
  0.4666667E+00  0.2666667E+00  0.0000000E+00  0.7111111E-02
    1        1.664100   1.000000
    2        8.484819   1.000000
    3       11.594426   0.000000
    4       14.717538   0.000000
    5       17.268866   0.000000
    6       23.144150   0.000000
    7       29.092916   0.000000
    8       31.742312   0.000000
 
 -0.4666667E+00  0.2666667E+00  0.0000000E+00  0.7111111E-02
    1        3.199417   1.000000
    2        6.349094   1.000000
    3       10.684034   0.000000
    4       14.976650   0.000000
    5       17.577343   0.000000
    6       25.492986   0.000000
    7       28.325562   0.000000
    8       31.175395   0.000000
 
 -0.4000000E+00  0.2666667E+00  0.0000000E+00  0.7111111E-02
    1        4.284707   1.000000
    2        5.105750   1.000000
    3       10.015404   1.000000
    4       15.458513   0.000000
    5       18.121468   0.000000
    6       27.747848   0.000000
    7       27.784449   0.000000
    8       30.570869   0.000000
 
 -0.3333333E+00  0.2666667E+00  0.0000000E+00  0.7111111E-02
    1        2.663971   1.000000
    2        6.995590   1.000000
    3        9.613306   1.000000
    4       16.157740   0.000000
    5       18.898061   0.000000
    6       27.352890   0.000000
    7       29.102571   0.000000
    8       29.750772   0.000000
 
 -0.2666667E+00  0.2666667E+00  0.0000000E+00  0.3555556E-02
    1        1.200675   1.000000
    2        8.841587   1.000000
    3        9.789996   1.000000
    4       17.064897   0.000000
    5       19.897430   0.000000
    6       26.981513   0.000000
    7       27.612838   0.000000
    8       28.365845   0.000000
 
  0.3333333E+00  0.3333333E+00  0.0000000E+00  0.1777778E-02
    1        0.020525   1.000000
    2       12.355971   0.000000
    3       14.383127   0.000000
    4       14.383127   0.000000
    5       15.731495   0.000000
    6       18.123773   0.000000
    7       32.911166   0.000000
    8       33.511384   0.000000
 
  0.4000000E+00  0.3333333E+00  0.0000000E+00  0.7111111E-02
    1        0.992644   1.000000
    2       10.894254   0.000000
    3       12.567452   0.000000
    4       14.117238   0.000000
    5       16.213778   0.000000
    6       18.582635   0.000000
    7       32.420224   0.000000
    8       34.085342   0.000000
 
  0.4666667E+00  0.3333333E+00  0.0000000E+00  0.7111111E-02
    1        2.209012   1.000000
    2        9.584470   1.000000
    3       10.328926   0.000669
    4       14.077651   0.000000
    5       16.482875   0.000000
    6       20.413289   0.000000
    7       31.606380   0.000000
    8       33.884659   0.000000
 
 -0.4666667E+00  0.3333333E+00  0.0000000E+00  0.7111111E-02
    1        3.657064   1.000000
    2        7.917587   1.000000
    3        8.812583   1.000000
    4       14.263876   0.000000
    5       16.767963   0.000000
    6       22.733055   0.000000
    7       30.813355   0.000000
    8       33.171646   0.000000
 
 -0.4000000E+00  0.3333333E+00  0.0000000E+00  0.7111111E-02
    1        5.262183   1.000000
    2        6.037607   1.000000
    3        8.027006   1.000000
    4       14.675540   0.000000
    5       17.252713   0.000000
    6       25.284853   0.000000
    7       30.155630   0.000000
    8       32.197820   0.000000
 
 -0.3333333E+00  0.3333333E+00  0.0000000E+00  0.3555556E-02
    1        4.192164   1.000000
    2        6.891430   1.000000
    3        7.870392   1.000000
    4       15.309115   0.000000
    5       17.963256   0.000000
    6       27.842339   0.000000
    7       29.364018   0.000000
    8       30.453857   0.000000
 
  0.4000000E+00  0.4000000E+00  0.0000000E+00  0.1777778E-02
    1        1.875221   1.000000
    2        9.360646   1.000000
    3       13.776753   0.000000
    4       13.776753   0.000000
    5       15.051856   0.000000
    6       17.463599   0.000000
    7       34.221782   0.000000
    8       35.470412   0.000000
 
  0.4666667E+00  0.4000000E+00  0.0000000E+00  0.7111111E-02
    1        2.997408   1.000000
    2        8.033498   1.000000
    3       12.075697   0.000000
    4       13.662081   0.000000
    5       15.711203   0.000000
    6       18.111772   0.000000
    7       33.963914   0.000000
    8       35.766639   0.000000
 
 -0.4666667E+00  0.4000000E+00  0.0000000E+00  0.7111111E-02
    1        4.336272   1.000000
    2        6.955584   1.000000
    3        9.921350   1.000000
    4       13.774386   0.000000
    5       16.145781   0.000000
    6       20.110795   0.000000
    7       33.242938   0.000000
    8       35.090769   0.000000
 
 -0.4000000E+00  0.4000000E+00  0.0000000E+00  0.3555556E-02
    1        5.587582   1.000000
    2        6.395748   1.000000
    3        7.949974   1.000000
    4       14.112668   0.000000
    5       16.606337   0.000000
    6       22.604478   0.000000
    7       32.194675   0.000000
    8       33.653853   0.000000
 
  0.4666667E+00  0.4666667E+00  0.0000000E+00  0.1777778E-02
    1        4.007838   1.000000
    2        6.641127   1.000000
    3       13.472479   0.000000
    4       13.472480   0.000000
    5       14.709374   0.000000
    6       17.136445   0.000000
    7       35.208576   0.000000
    8       36.814281   0.000000
 
 -0.4666667E+00  0.4666667E+00  0.0000000E+00  0.3555556E-02
    1        4.935162   1.000000
    2        5.803843   1.000000
    3       11.914450   0.000000
    4       13.509986   0.000000
    5       15.543595   0.000000
    6       17.957099   0.000000
    7       34.856782   0.000000
    8       36.502413   0.000000
 
  0.2000000E+00  0.1333333E+00  0.6666667E-01  0.7111111E-02
    1       -3.401200   1.000000
    2       16.476128   0.000000
    3       16.888070   0.000000
    4       20.794050   0.000000
    5       21.452153   0.000000
    6       24.443017   0.000000
    7       25.811135   0.000000
    8       26.185347   0.000000
 
  0.2666667E+00  0.1333333E+00  0.6666667E-01  0.1422222E-01
    1       -2.755635   1.000000
    2       13.866232   0.000000
    3       16.148853   0.000000
    4       20.145903   0.000000
    5       21.878485   0.000000
    6       23.954307   0.000000
    7       26.041973   0.000000
    8       26.247139   0.000000
 
  0.3333333E+00  0.1333333E+00  0.6666667E-01  0.1422222E-01
    1       -1.855291   1.000000
    2       11.188972   0.000000
    3       15.789507   0.000000
    4       19.271951   0.000000
    5       21.434130   0.000000
    6       24.540882   0.000000
    7       25.479838   0.000000
    8       26.662908   0.000000
 
  0.4000000E+00  0.1333333E+00  0.6666667E-01  0.1422222E-01
    1       -0.703919   1.000000
    2        8.672097   1.000000
    3       15.658594   0.000000
    4       18.332361   0.000000
    5       21.102307   0.000000
    6       23.778500   0.000000
    7       25.729808   0.000000
    8       28.073225   0.000000
 
  0.4666667E+00  0.1333333E+00  0.6666667E-01  0.1422222E-01
    1        0.691694   1.000000
    2        6.357150   1.000000
    3       15.743108   0.000000
    4       17.467029   0.000000
    5       21.066282   0.000000
    6       22.910824   0.000000
    7       25.903921   0.000000
    8       29.425521   0.000000
 
 -0.4666667E+00  0.1333333E+00  0.6666667E-01  0.1422222E-01
    1        2.302536   1.000000
    2        4.283006   1.000000
    3       15.986820   0.000000
    4       16.814416   0.000000
    5       21.194784   0.000000
    6       22.309581   0.000000
    7       26.001203   0.000000
    8       29.139619   0.000000
 
  0.2666667E+00  0.2000000E+00  0.6666667E-01  0.7111111E-02
    1       -2.540621   1.000000
    2       14.908679   0.000000
    3       15.410001   0.000000
    4       18.797199   0.000000
    5       19.964472   0.000000
    6       21.831725   0.000000
    7       27.798971   0.000000
    8       28.432657   0.000000
 
  0.3333333E+00  0.2000000E+00  0.6666667E-01  0.1422222E-01
    1       -1.726491   1.000000
    2       12.448338   0.000000
    3       14.783229   0.000000
    4       17.624617   0.000000
    5       20.177265   0.000000
    6       22.523341   0.000000
    7       27.058555   0.000000
    8       28.893233   0.000000
 
  0.4000000E+00  0.2000000E+00  0.6666667E-01  0.1422222E-01
    1       -0.660350   1.000000
    2        9.905068   1.000000
    3       14.557479   0.000000
    4       16.433254   0.000000
    5       20.028302   0.000000
    6       24.174449   0.000000
    7       26.135493   0.000000
    8       29.040269   0.000000
 
  0.4666667E+00  0.2000000E+00  0.6666667E-01  0.1422222E-01
    1        0.652028   1.000000
    2        7.533032   1.000000
    3       14.514680   0.000000
    4       15.441286   0.000000
    5       20.052324   0.000000
    6       24.756625   0.000000
    7       26.478188   0.000000
    8       29.287679   0.000000
 
 -0.4666667E+00  0.2000000E+00  0.6666667E-01  0.1422222E-01
    1        2.196612   1.000000
    2        5.376899   1.000000
    3       14.266336   0.000000
    4       15.084198   0.000000
    5       20.299681   0.000000
    6       24.086341   0.000000
    7       27.651489   0.000000
    8       30.095816   0.000000
 
 -0.4000000E+00  0.2000000E+00  0.6666667E-01  0.1422222E-01
    1        3.276044   1.000000
    2        4.143242   1.000000
    3       13.713860   0.000000
    4       15.475999   0.000000
    5       20.759324   0.000000
    6       23.512669   0.000000
    7       27.857145   0.000000
    8       31.238249   0.000000
 
 -0.3333333E+00  0.2000000E+00  0.6666667E-01  0.1422222E-01
    1        1.657926   1.000000
    2        6.066746   1.000000
    3       13.314051   0.000000
    4       16.165784   0.000000
    5       21.415590   0.000000
    6       23.197703   0.000000
    7       27.592519   0.000000
    8       30.034455   0.000000
 
 -0.2666667E+00  0.2000000E+00  0.6666667E-01  0.1422222E-01
    1        0.187263   1.000000
    2        8.294708   1.000000
    3       13.136599   0.000000
    4       17.076298   0.000000
    5       22.129066   0.000000
    6       23.215647   0.000000
    7       26.762440   0.000000
    8       28.483321   0.000000
 
 -0.2000000E+00  0.2000000E+00  0.6666667E-01  0.1422222E-01
    1       -1.043940   1.000000
    2       10.712547   0.000000
    3       13.208332   0.000000
    4       18.171676   0.000000
    5       22.643092   0.000000
    6       23.677014   0.000000
    7       25.305153   0.000000
    8       27.799076   0.000000
 
 -0.1333333E+00  0.2000000E+00  0.6666667E-01  0.7111111E-02
    1       -2.026210   1.000000
    2       13.029474   0.000000
    3       13.782962   0.000000
    4       19.361611   0.000000
    5       22.705482   0.000000
    6       23.422758   0.000000
    7       25.286075   0.000000
    8       27.210555   0.000000
 
  0.3333333E+00  0.2666667E+00  0.6666667E-01  0.7111111E-02
    1       -1.341216   1.000000
    2       13.646118   0.000000
    3       14.156494   0.000000
    4       15.844658   0.000000
    5       18.708109   0.000000
    6       20.321032   0.000000
    7       29.205903   0.000000
    8       31.026492   0.000000
 
  0.4000000E+00  0.2666667E+00  0.6666667E-01  0.1422222E-01
    1       -0.362329   1.000000
    2       11.327027   0.000000
    3       13.612642   0.000000
    4       14.558974   0.000000
    5       19.025261   0.000000
    6       21.508678   0.000000
    7       28.317742   0.000000
    8       31.474730   0.000000
 
  0.4666667E+00  0.2666667E+00  0.6666667E-01  0.1422222E-01
    1        0.864957   1.000000
    2        8.930254   1.000000
    3       13.059671   0.000000
    4       13.866025   0.000000
    5       19.077287   0.000000
    6       23.497684   0.000000
    7       27.400944   0.000000
    8       31.424586   0.000000
 
 -0.4666667E+00  0.2666667E+00  0.6666667E-01  0.1422222E-01
    1        2.329660   1.000000
    2        6.714723   1.000000
    3       12.183767   0.000000
    4       13.950810   0.000000
    5       19.296142   0.000000
    6       25.475794   0.000000
    7       26.822545   0.000000
    8       31.071518   0.000000
 
 -0.4000000E+00  0.2666667E+00  0.6666667E-01  0.1422222E-01
    1        3.947900   1.000000
    2        4.791819   1.000000
    3       11.458468   0.000000
    4       14.350353   0.000000
    5       19.730041   0.000000
    6       25.630415   0.000000
    7       28.224122   0.000000
    8       30.429518   0.000000
 
 -0.3333333E+00  0.2666667E+00  0.6666667E-01  0.1422222E-01
    1        2.866900   1.000000
    2        6.017489   1.000000
    3       10.960176   0.000000
    4       14.993494   0.000000
    5       20.382829   0.000000
    6       25.233111   0.000000
    7       28.963290   0.000000
    8       29.879819   0.000000
 
 -0.2666667E+00  0.2666667E+00  0.6666667E-01  0.1422222E-01
    1        1.326685   1.000000
    2        8.132508   1.000000
    3       10.722058   0.000000
    4       15.862624   0.000000
    5       21.240545   0.000000
    6       24.976946   0.000000
    7       27.072480   0.000000
    8       29.834321   0.000000
 
 -0.2000000E+00  0.2666667E+00  0.6666667E-01  0.7111111E-02
    1        0.018988   1.000000
    2       10.137362   0.986470
    3       11.044674   0.000000
    4       16.939024   0.000000
    5       22.261398   0.000000
    6       24.606899   0.000000
    7       25.362522   0.000000
    8       29.056340   0.000000
 
  0.4000000E+00  0.3333333E+00  0.6666667E-01  0.7111111E-02
    1        0.189609   1.000000
    2       12.409451   0.000000
    3       12.691733   0.000000
    4       13.497321   0.000000
    5       17.734747   0.000000
    6       19.355235   0.000000
    7       30.665149   0.000000
    8       33.350312   0.000000
 
  0.4666667E+00  0.3333333E+00  0.6666667E-01  0.1422222E-01
    1        1.329154   1.000000
    2       10.467597   0.000000
    3       11.296281   0.000000
    4       13.044771   0.000000
    5       18.217116   0.000000
    6       20.783447   0.000000
    7       29.821675   0.000000
    8       33.633863   0.000000
 
 -0.4666667E+00  0.3333333E+00  0.6666667E-01  0.1422222E-01
    1        2.708030   1.000000
    2        8.260380   1.000000
    3       10.211565   0.544545
    4       13.116638   0.000000
    5       18.447173   0.000000
    6       22.972894   0.000000
    7       28.991092   0.000000
    8       33.026097   0.000000
 