       N       E                     dE             d eps       ncg     rms          rms(c)
DAV:   1    -0.392155969237E+01   -0.39216E+01   -0.12323E+03  2128   0.218E+02
DAV:   2    -0.488208051791E+01   -0.96052E+00   -0.94739E+00  2840   0.180E+01
DAV:   3    -0.488501580706E+01   -0.29353E-02   -0.29352E-02  2176   0.958E-01
DAV:   4    -0.488501749774E+01   -0.16907E-05   -0.16908E-05  3168   0.208E-02
DAV:   5    -0.488501749760E+01    0.14087E-09   -0.41501E-09  2200   0.115E-04    0.317E+00
DAV:   6    -0.487095112392E+01    0.14066E-01   -0.40283E-03  2192   0.277E-01    0.176E+00
DAV:   7    -0.486286287526E+01    0.80882E-02   -0.80248E-03  2280   0.391E-01    0.141E-01
DAV:   8    -0.486281794493E+01    0.44930E-04   -0.22731E-05  2792   0.348E-02    0.131E-02
DAV:   9    -0.486281838466E+01   -0.43973E-06   -0.28821E-07  2368   0.306E-03
   1 F= -.48628184E+01 E0= -.48624216E+01  d E =-.486282E+01
       N       E                     dE             d eps       ncg     rms          rms(c)
DAV:   1    -0.486592776983E+01   -0.31098E-02   -0.66390E-02  2104   0.100E+00    0.240E-01
DAV:   2    -0.486518447599E+01    0.74329E-03   -0.26860E-04  2504   0.931E-02    0.132E-01
DAV:   3    -0.486475443199E+01    0.43004E-03   -0.48032E-04  2120   0.910E-02    0.457E-02
DAV:   4    -0.486475393648E+01    0.49551E-06   -0.57303E-07  2640   0.586E-03    0.395E-02
DAV:   5    -0.486475067517E+01    0.32613E-05   -0.15093E-07  1216   0.242E-03    0.695E-03
DAV:   6    -0.486475088897E+01   -0.21380E-06   -0.48330E-09  1048   0.522E-04
   2 F= -.48647509E+01 E0= -.48643441E+01  d E =-.193250E-02
       N       E                     dE             d eps       ncg     rms          rms(c)
DAV:   1    -0.486477157835E+01   -0.20903E-04   -0.40991E-04  2080   0.792E-02    0.184E-02
DAV:   2    -0.486476670379E+01    0.48746E-05   -0.16454E-06  2536   0.724E-03    0.102E-02
DAV:   3    -0.486476450964E+01    0.21942E-05   -0.29817E-06  2064   0.717E-03    0.367E-03
DAV:   4    -0.486476452031E+01   -0.10669E-07   -0.35988E-09   960   0.472E-04    0.320E-03
DAV:   5    -0.486476467455E+01   -0.15424E-06   -0.11041E-09   960   0.221E-04    0.485E-04
DAV:   6    -0.486476465567E+01    0.18879E-07   -0.34460E-11   960   0.435E-05
   3 F= -.48647647E+01 E0= -.48643560E+01  d E =-.194627E-02
