<?xml version="1.0" encoding="ISO-8859-1"?>
<modeling>
 <generator>
  <i name="program" type="string">vasp </i>
  <i name="version" type="string">6.2.0  </i>
  <i name="subversion" type="string">18Jan21 (build Aug 12 2022 13:00:08) complex                          parallel </i>
  <i name="platform" type="string">LinuxIFC </i>
  <i name="date" type="string">2024 11 03 </i>
  <i name="time" type="string">22:10:24 </i>
 </generator>
 <incar>
  <i type="int" name="ISTART">     0</i>
  <i type="string" name="PREC">Accurate      (Accurate strictly avoids</i>
  <i type="logical" name="ADDGRID"> T  </i>
  <i type="int" name="ISPIN">     1</i>
  <i type="int" name="NELM">    90</i>
  <i type="int" name="NELMIN">     6</i>
  <i type="int" name="IBRION">     2</i>
  <i name="EDIFF">      0.00000100</i>
  <i name="EDIFFG">     -0.00200000</i>
  <i type="int" name="NSW">   100</i>
  <i type="int" name="ISIF">     3</i>
  <i type="int" name="ISYM">     2</i>
  <i name="ENCUT">    250.00000000</i>
  <i type="logical" name="LREAL"> F  </i>
  <i type="int" name="ISMEAR">     0</i>
  <i name="SIGMA">      0.05000000</i>
  <i type="logical" name="LWAVE"> F  </i>
  <i type="logical" name="LCHARG"> F  </i>
  <i type="logical" name="LASPH"> T  </i>
 </incar>
 <primitive_cell>
  <structure name="primitive_cell" >
   <crystal>
    <varray name="basis" >
     <v>       2.34739500       0.00000000       1.35526800 </v>
     <v>       0.78246500       2.21314500       1.35526800 </v>
     <v>       0.00000000       0.00000000       2.71053800 </v>
    </varray>
    <i name="volume">     14.08158510 </i>
    <varray name="rec_basis" >
     <v>       0.42600415      -0.15061523       0.00000000 </v>
     <v>       0.00000000       0.45184568       0.00000000 </v>
     <v>      -0.21300192      -0.15061511       0.36893045 </v>
    </varray>
   </crystal>
   <varray name="positions" >
    <v>       0.00000000       0.00000000       0.00000000 </v>
   </varray>
  </structure>
  <varray name="primitive_index" >
   <v type="int" >        1 </v>
  </varray>
 </primitive_cell>
 <kpoints>
  <generation param="Monkhorst-Pack">
   <v type="int" name="divisions">      15       15       15 </v>
   <v name="usershift">      0.00000000       0.00000000       0.00000000 </v>
   <v name="genvec1">      0.06666667      -0.00000000       0.00000000 </v>
   <v name="genvec2">      0.00000000       0.06666667       0.00000000 </v>
   <v name="genvec3">      0.00000000       0.00000000       0.06666667 </v>
   <v name="shift">      0.00000000       0.00000000       0.00000000 </v>
  </generation>
  <varray name="kpointlist" >
   <v>       0.00000000       0.00000000       0.00000000 </v>
   <v>       0.06666667      -0.00000000       0.00000000 </v>
   <v>       0.13333333       0.00000000       0.00000000 </v>
   <v>       0.20000000       0.00000000       0.00000000 </v>
   <v>       0.26666667       0.00000000       0.00000000 </v>
   <v>       0.33333333       0.00000000       0.00000000 </v>
   <v>       0.40000000      -0.00000000       0.00000000 </v>
   <v>       0.46666667       0.00000000       0.00000000 </v>
   <v>       0.06666667       0.06666667       0.00000000 </v>
   <v>       0.13333333       0.06666667       0.00000000 </v>
   <v>       0.20000000       0.06666667       0.00000000 </v>
   <v>       0.26666667       0.06666667       0.00000000 </v>
   <v>       0.33333333       0.06666667       0.00000000 </v>
   <v>       0.40000000       0.06666667       0.00000000 </v>
   <v>       0.46666667       0.06666667       0.00000000 </v>
   <v>      -0.46666667       0.06666667       0.00000000 </v>
   <v>      -0.40000000       0.06666667       0.00000000 </v>
   <v>      -0.33333333       0.06666667       0.00000000 </v>
   <v>      -0.26666667       0.06666667       0.00000000 </v>
   <v>      -0.20000000       0.06666667       0.00000000 </v>
   <v>      -0.13333333       0.06666667       0.00000000 </v>
   <v>      -0.06666667       0.06666667       0.00000000 </v>
   <v>       0.13333333       0.13333333       0.00000000 </v>
   <v>       0.20000000       0.13333333       0.00000000 </v>
   <v>       0.26666667       0.13333333       0.00000000 </v>
   <v>       0.33333333       0.13333333       0.00000000 </v>
   <v>       0.40000000       0.13333333       0.00000000 </v>
   <v>       0.46666667       0.13333333       0.00000000 </v>
   <v>      -0.46666667       0.13333333       0.00000000 </v>
   <v>      -0.40000000       0.13333333       0.00000000 </v>
   <v>      -0.33333333       0.13333333       0.00000000 </v>
   <v>      -0.26666667       0.13333333       0.00000000 </v>
   <v>      -0.20000000       0.13333333       0.00000000 </v>
   <v>      -0.13333333       0.13333333       0.00000000 </v>
   <v>       0.20000000       0.20000000       0.00000000 </v>
   <v>       0.26666667       0.20000000       0.00000000 </v>
   <v>       0.33333333       0.20000000       0.00000000 </v>
   <v>       0.40000000       0.20000000       0.00000000 </v>
   <v>       0.46666667       0.20000000       0.00000000 </v>
   <v>      -0.46666667       0.20000000       0.00000000 </v>
   <v>      -0.40000000       0.20000000       0.00000000 </v>
   <v>      -0.33333333       0.20000000       0.00000000 </v>
   <v>      -0.26666667       0.20000000       0.00000000 </v>
   <v>      -0.20000000       0.20000000       0.00000000 </v>
   <v>       0.26666667       0.26666667       0.00000000 </v>
   <v>       0.33333333       0.26666667       0.00000000 </v>
   <v>       0.40000000       0.26666667       0.00000000 </v>
   <v>       0.46666667       0.26666667       0.00000000 </v>
   <v>      -0.46666667       0.26666667       0.00000000 </v>
   <v>      -0.40000000       0.26666667       0.00000000 </v>
   <v>      -0.33333333       0.26666667       0.00000000 </v>
   <v>      -0.26666667       0.26666667       0.00000000 </v>
   <v>       0.33333333       0.33333333       0.00000000 </v>
   <v>       0.40000000       0.33333333       0.00000000 </v>
   <v>       0.46666667       0.33333333       0.00000000 </v>
   <v>      -0.46666667       0.33333333       0.00000000 </v>
   <v>      -0.40000000       0.33333333       0.00000000 </v>
   <v>      -0.33333333       0.33333333       0.00000000 </v>
   <v>       0.40000000       0.40000000       0.00000000 </v>
   <v>       0.46666667       0.40000000       0.00000000 </v>
   <v>      -0.46666667       0.40000000       0.00000000 </v>
   <v>      -0.40000000       0.40000000       0.00000000 </v>
   <v>       0.46666667       0.46666667       0.00000000 </v>
   <v>      -0.46666667       0.46666667       0.00000000 </v>
   <v>       0.20000000       0.13333333       0.06666667 </v>
   <v>       0.26666667       0.13333333       0.06666667 </v>
   <v>       0.33333333       0.13333333       0.06666667 </v>
   <v>       0.40000000       0.13333333       0.06666667 </v>
   <v>       0.46666667       0.13333333       0.06666667 </v>
   <v>      -0.46666667       0.13333333       0.06666667 </v>
   <v>       0.26666667       0.20000000       0.06666667 </v>
   <v>       0.33333333       0.20000000       0.06666667 </v>
   <v>       0.40000000       0.20000000       0.06666667 </v>
   <v>       0.46666667       0.20000000       0.06666667 </v>
   <v>      -0.46666667       0.20000000       0.06666667 </v>
   <v>      -0.40000000       0.20000000       0.06666667 </v>
   <v>      -0.33333333       0.20000000       0.06666667 </v>
   <v>      -0.26666667       0.20000000       0.06666667 </v>
   <v>      -0.20000000       0.20000000       0.06666667 </v>
   <v>      -0.13333333       0.20000000       0.06666667 </v>
   <v>       0.33333333       0.26666667       0.06666667 </v>
   <v>       0.40000000       0.26666667       0.06666667 </v>
   <v>       0.46666667       0.26666667       0.06666667 </v>
   <v>      -0.46666667       0.26666667       0.06666667 </v>
   <v>      -0.40000000       0.26666667       0.06666667 </v>
   <v>      -0.33333333       0.26666667       0.06666667 </v>
   <v>      -0.26666667       0.26666667       0.06666667 </v>
   <v>      -0.20000000       0.26666667       0.06666667 </v>
   <v>       0.40000000       0.33333333       0.06666667 </v>
   <v>       0.46666667       0.33333333       0.06666667 </v>
   <v>      -0.46666667       0.33333333       0.06666667 </v>
   <v>      -0.40000000       0.33333333       0.06666667 </v>
   <v>      -0.33333333       0.33333333       0.06666667 </v>
   <v>      -0.26666667       0.33333333       0.06666667 </v>
   <v>       0.46666667       0.40000000       0.06666667 </v>
   <v>      -0.46666667       0.40000000       0.06666667 </v>
   <v>      -0.40000000       0.40000000       0.06666667 </v>
   <v>      -0.33333333       0.40000000       0.06666667 </v>
   <v>      -0.46666667       0.46666667       0.06666667 </v>
   <v>      -0.40000000       0.46666667       0.06666667 </v>
   <v>       0.40000000       0.26666667       0.13333333 </v>
   <v>       0.46666667       0.26666667       0.13333333 </v>
   <v>      -0.46666667       0.26666667       0.13333333 </v>
   <v>      -0.40000000       0.26666667       0.13333333 </v>
   <v>       0.46666667       0.33333333       0.13333333 </v>
   <v>      -0.46666667       0.33333333       0.13333333 </v>
   <v>      -0.40000000       0.33333333       0.13333333 </v>
   <v>      -0.33333333       0.33333333       0.13333333 </v>
   <v>      -0.26666667       0.33333333       0.13333333 </v>
   <v>      -0.20000000       0.33333333       0.13333333 </v>
   <v>      -0.46666667       0.40000000       0.13333333 </v>
   <v>      -0.40000000       0.40000000       0.13333333 </v>
   <v>      -0.33333333       0.40000000       0.13333333 </v>
   <v>      -0.26666667       0.40000000       0.13333333 </v>
   <v>      -0.40000000       0.46666667       0.13333333 </v>
   <v>      -0.33333333       0.46666667       0.13333333 </v>
   <v>      -0.40000000       0.40000000       0.20000000 </v>
   <v>      -0.33333333       0.40000000       0.20000000 </v>
   <v>      -0.33333333       0.46666667       0.20000000 </v>
   <v>      -0.26666667       0.46666667       0.20000000 </v>
  </varray>
  <varray name="weights" >
   <v>       0.00029630 </v>
   <v>       0.00237037 </v>
   <v>       0.00237037 </v>
   <v>       0.00237037 </v>
   <v>       0.00237037 </v>
   <v>       0.00237037 </v>
   <v>       0.00237037 </v>
   <v>       0.00237037 </v>
   <v>       0.00177778 </v>
   <v>       0.00711111 </v>
   <v>       0.00711111 </v>
   <v>       0.00711111 </v>
   <v>       0.00711111 </v>
   <v>       0.00711111 </v>
   <v>       0.00711111 </v>
   <v>       0.00711111 </v>
   <v>       0.00711111 </v>
   <v>       0.00711111 </v>
   <v>       0.00711111 </v>
   <v>       0.00711111 </v>
   <v>       0.00711111 </v>
   <v>       0.00355556 </v>
   <v>       0.00177778 </v>
   <v>       0.00711111 </v>
   <v>       0.00711111 </v>
   <v>       0.00711111 </v>
   <v>       0.00711111 </v>
   <v>       0.00711111 </v>
   <v>       0.00711111 </v>
   <v>       0.00711111 </v>
   <v>       0.00711111 </v>
   <v>       0.00711111 </v>
   <v>       0.00711111 </v>
   <v>       0.00355556 </v>
   <v>       0.00177778 </v>
   <v>       0.00711111 </v>
   <v>       0.00711111 </v>
   <v>       0.00711111 </v>
   <v>       0.00711111 </v>
   <v>       0.00711111 </v>
   <v>       0.00711111 </v>
   <v>       0.00711111 </v>
   <v>       0.00711111 </v>
   <v>       0.00355556 </v>
   <v>       0.00177778 </v>
   <v>       0.00711111 </v>
   <v>       0.00711111 </v>
   <v>       0.00711111 </v>
   <v>       0.00711111 </v>
   <v>       0.00711111 </v>
   <v>       0.00711111 </v>
   <v>       0.00355556 </v>
   <v>       0.00177778 </v>
   <v>       0.00711111 </v>
   <v>       0.00711111 </v>
   <v>       0.00711111 </v>
   <v>       0.00711111 </v>
   <v>       0.00355556 </v>
   <v>       0.00177778 </v>
   <v>       0.00711111 </v>
   <v>       0.00711111 </v>
   <v>       0.00355556 </v>
   <v>       0.00177778 </v>
   <v>       0.00355556 </v>
   <v>       0.00711111 </v>
   <v>       0.01422222 </v>
   <v>       0.01422222 </v>
   <v>       0.01422222 </v>
   <v>       0.01422222 </v>
   <v>       0.01422222 </v>
   <v>       0.00711111 </v>
   <v>       0.01422222 </v>
   <v>       0.01422222 </v>
   <v>       0.01422222 </v>
   <v>       0.01422222 </v>
   <v>       0.01422222 </v>
   <v>       0.01422222 </v>
   <v>       0.01422222 </v>
   <v>       0.01422222 </v>
   <v>       0.00711111 </v>
   <v>       0.00711111 </v>
   <v>       0.01422222 </v>
   <v>       0.01422222 </v>
   <v>       0.01422222 </v>
   <v>       0.01422222 </v>
   <v>       0.01422222 </v>
   <v>       0.01422222 </v>
   <v>       0.00711111 </v>
   <v>       0.00711111 </v>
   <v>       0.01422222 </v>
   <v>       0.01422222 </v>
   <v>       0.01422222 </v>
   <v>       0.01422222 </v>
   <v>       0.00711111 </v>
   <v>       0.00711111 </v>
   <v>       0.01422222 </v>
   <v>       0.01422222 </v>
   <v>       0.00711111 </v>
   <v>       0.00711111 </v>
   <v>       0.00711111 </v>
   <v>       0.00711111 </v>
   <v>       0.01422222 </v>
   <v>       0.01422222 </v>
   <v>       0.01422222 </v>
   <v>       0.00711111 </v>
   <v>       0.01422222 </v>
   <v>       0.01422222 </v>
   <v>       0.01422222 </v>
   <v>       0.01422222 </v>
   <v>       0.00711111 </v>
   <v>       0.00711111 </v>
   <v>       0.01422222 </v>
   <v>       0.01422222 </v>
   <v>       0.00711111 </v>
   <v>       0.00711111 </v>
   <v>       0.00711111 </v>
   <v>       0.00711111 </v>
   <v>       0.01422222 </v>
   <v>       0.00711111 </v>
   <v>       0.00711111 </v>
  </varray>
 </kpoints>
 <parameters>
  <separator name="general" >
   <i type="string" name="SYSTEM">unknown system</i>
   <i type="logical" name="LCOMPAT"> F  </i>
  </separator>
  <separator name="electronic" >
   <i type="string" name="PREC">accura</i>
   <i name="ENMAX">    250.00000000</i>
   <i name="ENAUG">    322.06900000</i>
   <i name="EDIFF">      0.00000100</i>
   <i type="int" name="IALGO">    38</i>
   <i type="int" name="IWAVPR">    11</i>
   <i type="int" name="NBANDS">     8</i>
   <i type="int" name="NBANDSLOW">    -1</i>
   <i type="int" name="NBANDSHIGH">    -1</i>
   <i name="NELECT">      4.00000000</i>
   <i type="int" name="TURBO">     0</i>
   <i type="int" name="IRESTART">     0</i>
   <i type="int" name="NREBOOT">     0</i>
   <i type="int" name="NMIN">     0</i>
   <i name="EREF">      0.00000000</i>
   <separator name="electronic smearing" >
    <i type="int" name="ISMEAR">     0</i>
    <i name="SIGMA">      0.05000000</i>
    <i name="KSPACING">      0.50000000</i>
    <i type="logical" name="KGAMMA"> T  </i>
    <i type="logical" name="KBLOWUP"> T  </i>
   </separator>
   <separator name="electronic projectors" >
    <i type="logical" name="LREAL"> F  </i>
    <v name="ROPT">      0.00000000</v>
    <i type="int" name="LMAXPAW">  -100</i>
    <i type="int" name="LMAXMIX">     2</i>
    <i type="logical" name="NLSPLINE"> F  </i>
   </separator>
   <separator name="electronic startup" >
    <i type="int" name="ISTART">     0</i>
    <i type="int" name="ICHARG">     2</i>
    <i type="int" name="INIWAV">     1</i>
   </separator>
   <separator name="electronic spin" >
    <i type="int" name="ISPIN">     1</i>
    <i type="logical" name="LNONCOLLINEAR"> F  </i>
    <v name="MAGMOM">      1.00000000</v>
    <i name="NUPDOWN">     -1.00000000</i>
    <i type="logical" name="LSORBIT"> F  </i>
    <v name="SAXIS">      0.00000000      0.00000000      1.00000000</v>
    <i type="logical" name="LSPIRAL"> F  </i>
    <v name="QSPIRAL">      0.00000000      0.00000000      0.00000000</v>
    <i type="logical" name="LZEROZ"> F  </i>
   </separator>
   <separator name="electronic exchange-correlation" >
    <i type="logical" name="LASPH"> T  </i>
    <i type="logical" name="LMETAGGA"> F  </i>
   </separator>
   <separator name="electronic convergence" >
    <i type="int" name="NELM">    90</i>
    <i type="int" name="NELMDL">    -5</i>
    <i type="int" name="NELMIN">     6</i>
    <i name="ENINI">    250.00000000</i>
    <separator name="electronic convergence detail" >
     <i type="logical" name="LDIAG"> T  </i>
     <i type="logical" name="LSUBROT"> F  </i>
     <i name="WEIMIN">      0.00100000</i>
     <i name="EBREAK">      0.00000003</i>
     <i name="DEPER">      0.30000000</i>
     <i type="int" name="NRMM">     4</i>
     <i name="TIME">      0.40000000</i>
    </separator>
   </separator>
   <separator name="electronic mixer" >
    <i name="AMIX">      0.40000000</i>
    <i name="BMIX">      1.00000000</i>
    <i name="AMIN">      0.10000000</i>
    <i name="AMIX_MAG">      1.60000000</i>
    <i name="BMIX_MAG">      1.00000000</i>
    <separator name="electronic mixer details" >
     <i type="int" name="IMIX">     4</i>
     <i type="logical" name="MIXFIRST"> F  </i>
     <i type="int" name="MAXMIX">   -45</i>
     <i name="WC">    100.00000000</i>
     <i type="int" name="INIMIX">     1</i>
     <i type="int" name="MIXPRE">     1</i>
     <i type="int" name="MREMOVE">     5</i>
    </separator>
   </separator>
   <separator name="electronic dipolcorrection" >
    <i type="logical" name="LDIPOL"> F  </i>
    <i type="logical" name="LMONO"> F  </i>
    <i type="int" name="IDIPOL">     0</i>
    <i name="EPSILON">      1.00000000</i>
    <v name="DIPOL">   -100.00000000   -100.00000000   -100.00000000</v>
    <i name="EFIELD">      0.00000000</i>
   </separator>
  </separator>
  <separator name="grids" >
   <i type="int" name="NGX">    14</i>
   <i type="int" name="NGY">    14</i>
   <i type="int" name="NGZ">    14</i>
   <i type="int" name="NGXF">    28</i>
   <i type="int" name="NGYF">    28</i>
   <i type="int" name="NGZF">    28</i>
   <i type="logical" name="ADDGRID"> T  </i>
  </separator>
  <separator name="ionic" >
   <i type="int" name="NSW">   100</i>
   <i type="int" name="IBRION">     2</i>
   <i type="int" name="MDALGO">     0</i>
   <i type="int" name="ISIF">     3</i>
   <i name="PSTRESS">      0.00000000</i>
   <i name="EDIFFG">     -0.00200000</i>
   <i type="int" name="NFREE">     1</i>
   <i name="POTIM">      0.50000000</i>
   <i name="SMASS">     -3.00000000</i>
   <i name="SCALEE">      1.00000000</i>
  </separator>
  <separator name="ionic md" >
   <i name="TEBEG">      0.00010000</i>
   <i name="TEEND">      0.00010000</i>
   <i type="int" name="NBLOCK">     1</i>
   <i type="int" name="KBLOCK">   100</i>
   <i type="int" name="NPACO">   256</i>
   <i name="APACO">     16.00000000</i>
  </separator>
  <separator name="symmetry" >
   <i type="int" name="ISYM">     2</i>
   <i name="SYMPREC">      0.00001000</i>
  </separator>
  <separator name="dos" >
   <i type="int" name="LORBIT">     0</i>
   <v name="RWIGS">     -1.00000000</v>
   <i type="int" name="NEDOS">   301</i>
   <i name="EMIN">     10.00000000</i>
   <i name="EMAX">    -10.00000000</i>
   <i name="EFERMI">      0.00000000</i>
  </separator>
  <separator name="writing" >
   <i type="int" name="NWRITE">     2</i>
   <i type="logical" name="LWAVE"> F  </i>
   <i type="logical" name="LDOWNSAMPLE"> F  </i>
   <i type="logical" name="LCHARG"> F  </i>
   <i type="logical" name="LPARD"> F  </i>
   <i type="logical" name="LVTOT"> F  </i>
   <i type="logical" name="LVHAR"> F  </i>
   <i type="logical" name="LELF"> F  </i>
   <i type="logical" name="LOPTICS"> F  </i>
   <v name="STM">      0.00000000      0.00000000      0.00000000      0.00000000      0.00000000      0.00000000      0.00000000</v>
  </separator>
  <separator name="performance" >
   <i type="int" name="NPAR">     4</i>
   <i type="int" name="NSIM">     4</i>
   <i type="int" name="NBLK">    -1</i>
   <i type="logical" name="LPLANE"> T  </i>
   <i type="logical" name="LSCALAPACK"> T  </i>
   <i type="logical" name="LSCAAWARE"> F  </i>
   <i type="logical" name="LSCALU"> F  </i>
   <i type="logical" name="LASYNC"> F  </i>
   <i type="logical" name="LORBITALREAL"> F  </i>
  </separator>
  <separator name="miscellaneous" >
   <i type="int" name="IDIOT">     3</i>
   <i type="int" name="PHON_NSTRUCT">    -1</i>
   <i type="logical" name="LMUSIC"> F  </i>
   <v name="POMASS">     28.08500000</v>
   <v name="DARWINR">      0.00000000</v>
   <v name="DARWINV">      1.00000000</v>
   <i type="logical" name="LCORR"> T  </i>
  </separator>
  <i type="logical" name="GGA_COMPAT"> T  </i>
  <i type="logical" name="LBERRY"> F  </i>
  <i type="int" name="ICORELEVEL">     0</i>
  <i type="logical" name="LDAU"> F  </i>
  <i type="int" name="I_CONSTRAINED_M">     0</i>
  <separator name="electronic exchange-correlation" >
   <i type="string" name="GGA">--</i>
   <i type="int" name="VOSKOWN">     0</i>
   <i type="logical" name="LHFCALC"> F  </i>
   <i type="string" name="PRECFOCK"></i>
   <i type="logical" name="LSYMGRAD"> F  </i>
   <i type="logical" name="LHFONE"> F  </i>
   <i type="logical" name="LRHFCALC"> F  </i>
   <i type="logical" name="LTHOMAS"> F  </i>
   <i type="logical" name="LMODELHF"> F  </i>
   <i type="logical" name="LFOCKACE"> F  </i>
   <i name="ENCUT4O">     -1.00000000</i>
   <i type="int" name="EXXOEP">     0</i>
   <i type="int" name="FOURORBIT">     0</i>
   <i name="AEXX">      0.00000000</i>
   <i name="HFALPHA">      0.00000000</i>
   <i name="MCALPHA">      0.00000000</i>
   <i name="ALDAX">      1.00000000</i>
   <i name="AGGAX">      1.00000000</i>
   <i name="ALDAC">      1.00000000</i>
   <i name="AGGAC">      1.00000000</i>
   <i type="int" name="NKREDX">     1</i>
   <i type="int" name="NKREDY">     1</i>
   <i type="int" name="NKREDZ">     1</i>
   <i type="logical" name="SHIFTRED"> F  </i>
   <i type="logical" name="ODDONLY"> F  </i>
   <i type="logical" name="EVENONLY"> F  </i>
   <i type="int" name="LMAXFOCK">     0</i>
   <i type="int" name="NMAXFOCKAE">     0</i>
   <i type="logical" name="LFOCKAEDFT"> F  </i>
   <i name="HFSCREEN">      0.00000000</i>
   <i name="HFSCREENC">      0.00000000</i>
   <i type="int" name="NBANDSGWLOW">     0</i>
  </separator>
  <separator name="vdW DFT" >
   <i type="logical" name="LUSE_VDW"> F  </i>
   <i name="Zab_VDW">     -0.84910000</i>
   <i name="PARAM1">      0.12340000</i>
   <i name="PARAM2">      1.00000000</i>
   <i name="PARAM3">      0.00000000</i>
  </separator>
  <separator name="model GW" >
   <i type="int" name="MODEL_GW">     0</i>
   <i name="MODEL_EPS0">      8.44895106</i>
   <i name="MODEL_ALPHA">      1.00000000</i>
  </separator>
  <separator name="linear response parameters" >
   <i type="logical" name="LEPSILON"> F  </i>
   <i type="logical" name="LRPA"> F  </i>
   <i type="logical" name="LNABLA"> F  </i>
   <i type="logical" name="LVEL"> F  </i>
   <i type="int" name="KINTER">     0</i>
   <i name="CSHIFT">      0.10000000</i>
   <i name="OMEGAMAX">     -1.00000000</i>
   <i name="DEG_THRESHOLD">      0.00200000</i>
   <i name="RTIME">     -0.10000000</i>
   <i name="WPLASMAI">      0.00000000</i>
   <v name="DFIELD">      0.00000000      0.00000000      0.00000000</v>
   <v name="WPLASMA">      0.00000000      0.00000000      0.00000000      0.00000000      0.00000000      0.00000000      0.00000000      0.00000000      0.00000000</v>
  </separator>
  <separator name="orbital magnetization" >
   <i type="logical" name="NUCIND"> F  </i>
   <v name="MAGPOS">      0.00000000      0.00000000      0.00000000</v>
   <i type="logical" name="LNICSALL"> T  </i>
   <i type="logical" name="ORBITALMAG"> F  </i>
   <i type="logical" name="LMAGBLOCH"> F  </i>
   <i type="logical" name="LCHIMAG"> F  </i>
   <i type="logical" name="LGAUGE"> T  </i>
   <i type="int" name="MAGATOM">     0</i>
   <v name="MAGDIPOL">      0.00000000      0.00000000      0.00000000</v>
   <v name="AVECCONST">      0.00000000      0.00000000      0.00000000</v>
  </separator>
  <separator name="response functions" >
   <i type="logical" name="LFINITE_TEMPERATURE"> F  </i>
   <i type="logical" name="LADDER"> F  </i>
   <i type="logical" name="LRPAFORCE"> F  </i>
   <i type="logical" name="LFXC"> F  </i>
   <i type="logical" name="LHARTREE"> T  </i>
   <i type="int" name="IBSE">     0</i>
   <v type="int" name="KPOINT">    -1     0     0     0</v>
   <i type="logical" name="LTCTC"> F  </i>
   <i type="logical" name="LTCTE"> F  </i>
   <i type="logical" name="LTETE"> F  </i>
   <i type="logical" name="LTRIPLET"> F  </i>
   <i type="logical" name="LFXCEPS"> F  </i>
   <i type="logical" name="LFXHEG"> F  </i>
   <i type="int" name="NATURALO">     2</i>
   <i type="logical" name="LHOLEGF"> F  </i>
   <i type="logical" name="L2ORDER"> F  </i>
   <i type="logical" name="LDMP1"> F  </i>
   <i type="logical" name="LMP2LT"> F  </i>
   <i type="logical" name="LSMP2LT"> F  </i>
   <i type="logical" name="LGWLF"> F  </i>
   <i name="ENCUTGW">     -2.00000000</i>
   <i name="ENCUTGWSOFT">     -2.00000000</i>
   <i name="ENCUTLF">     -1.00000000</i>
   <i type="logical" name="LESF_SPLINES"> F  </i>
   <i type="int" name="LMAXMP2">    -1</i>
   <i name="SCISSOR">      0.00000000</i>
   <i type="int" name="NOMEGA">     0</i>
   <i type="int" name="NOMEGAR">     0</i>
   <i type="int" name="NBANDSGW">    -1</i>
   <i type="int" name="NBANDSO">    -1</i>
   <i type="int" name="NBANDSV">    -1</i>
   <i type="int" name="NELM">    90</i>
   <i type="int" name="NELMHF">     1</i>
   <i type="int" name="DIM">     3</i>
   <i type="int" name="IESPILON">     4</i>
   <i type="int" name="ANTIRES">     0</i>
   <i name="OMEGAMAX">    -30.00000000</i>
   <i name="OMEGAMIN">    -30.00000000</i>
   <i name="OMEGATL">   -200.00000000</i>
   <i type="int" name="OMEGAGRID">     0</i>
   <i name="CSHIFT">     -0.10000000</i>
   <i type="logical" name="LSELFENERGY"> F  </i>
   <i type="logical" name="LSPECTRAL"> F  </i>
   <i type="logical" name="LSPECTRALGW"> F  </i>
   <i type="logical" name="LSINGLES"> F  </i>
   <i type="logical" name="LFERMIGW"> F  </i>
   <i type="logical" name="ODDONLYGW"> F  </i>
   <i type="logical" name="EVENONLYGW"> F  </i>
   <i type="int" name="NKREDLFX">     1</i>
   <i type="int" name="NKREDLFY">     1</i>
   <i type="int" name="NKREDLFZ">     1</i>
   <i type="int" name="MAXMEM">  2800</i>
   <i type="int" name="TELESCOPE">     0</i>
   <i type="int" name="NTAUPAR">    -1</i>
   <i type="int" name="NOMEGAPAR">    -1</i>
   <i name="DAMP_NEWTON">      0.80000001</i>
   <i name="LAMBDA">      1.00000000</i>
  </separator>
  <separator name="External order field" >
   <i name="OFIELD_KAPPA">      0.00000000</i>
   <v name="OFIELD_K">      0.00000000      0.00000000      0.00000000</v>
   <i name="OFIELD_Q6_NEAR">      0.00000000</i>
   <i name="OFIELD_Q6_FAR">      0.00000000</i>
   <i name="OFIELD_A">      0.00000000</i>
  </separator>
 </parameters>
 <atominfo>
  <atoms>       1 </atoms>
  <types>       1 </types>
  <array name="atoms" >
   <dimension dim="1">ion</dimension>
   <field type="string">element</field>
   <field type="int">atomtype</field>
   <set>
    <rc><c>Si</c><c>   1</c></rc>
   </set>
  </array>
  <array name="atomtypes" >
   <dimension dim="1">type</dimension>
   <field type="int">atomspertype</field>
   <field type="string">element</field>
   <field>mass</field>
   <field>valence</field>
   <field type="string">pseudopotential</field>
   <set>
    <rc><c>   1</c><c>Si</c><c>     28.08500000</c><c>      4.00000000</c><c>  PAW_PBE Si 05Jan2001                  </c></rc>
   </set>
  </array>
 </atominfo>
 <structure name="initialpos" >
  <crystal>
   <varray name="basis" >
    <v>       2.34739500       0.00000000       1.35526800 </v>
    <v>       0.78246500       2.21314500       1.35526800 </v>
    <v>       0.00000000       0.00000000       2.71053800 </v>
   </varray>
   <i name="volume">     14.08158510 </i>
   <varray name="rec_basis" >
    <v>       0.42600415      -0.15061523       0.00000000 </v>
    <v>       0.00000000       0.45184568       0.00000000 </v>
    <v>      -0.21300192      -0.15061511       0.36893045 </v>
   </varray>
  </crystal>
  <varray name="positions" >
   <v>       0.00000000       0.00000000       0.00000000 </v>
  </varray>
 </structure>
 <calculation>
  <scstep>
   <time name="dav">    0.32    0.32</time>
   <time name="total">    0.49    0.49</time>
   <energy>
    <i name="alphaZ">      2.39057823 </i>
    <i name="ewald">   -137.78496289 </i>
    <i name="hartreedc">     -0.54229904 </i>
    <i name="XCdc">     -8.73347641 </i>
    <i name="pawpsdc">     88.12379961 </i>
    <i name="pawaedc">    -70.53051779 </i>
    <i name="eentropy">     -0.00083630 </i>
    <i name="bandstr">     20.09440528 </i>
    <i name="atom">    103.06174961 </i>
    <i name="e_fr_energy">     -3.92155969 </i>
    <i name="e_wo_entrp">     -3.92072340 </i>
    <i name="e_0_energy">     -3.92114154 </i>
   </energy>
  </scstep>
  <scstep>
   <time name="dav">    0.44    0.46</time>
   <time name="total">    0.44    0.46</time>
   <energy>
    <i name="e_fr_energy">     -4.88208052 </i>
    <i name="e_wo_entrp">     -4.88133766 </i>
    <i name="e_0_energy">     -4.88170909 </i>
   </energy>
  </scstep>
  <scstep>
   <time name="dav">    0.33    0.34</time>
   <time name="total">    0.33    0.34</time>
   <energy>
    <i name="e_fr_energy">     -4.88501581 </i>
    <i name="e_wo_entrp">     -4.88427121 </i>
    <i name="e_0_energy">     -4.88464351 </i>
   </energy>
  </scstep>
  <scstep>
   <time name="dav">    0.51    0.52</time>
   <time name="total">    0.51    0.52</time>
   <energy>
    <i name="e_fr_energy">     -4.88501750 </i>
    <i name="e_wo_entrp">     -4.88427290 </i>
    <i name="e_0_energy">     -4.88464520 </i>
   </energy>
  </scstep>
  <scstep>
   <time name="dav">    0.33    0.34</time>
   <time name="total">    0.35    0.36</time>
   <energy>
    <i name="e_fr_energy">     -4.88501750 </i>
    <i name="e_wo_entrp">     -4.88427290 </i>
    <i name="e_0_energy">     -4.88464520 </i>
   </energy>
  </scstep>
  <scstep>
   <time name="dav">    0.32    0.32</time>
   <time name="total">    0.51    0.52</time>
   <energy>
    <i name="e_fr_energy">     -4.87095112 </i>
    <i name="e_wo_entrp">     -4.87018477 </i>
    <i name="e_0_energy">     -4.87056795 </i>
   </energy>
  </scstep>
  <scstep>
   <time name="dav">    0.34    0.34</time>
   <time name="total">    0.52    0.53</time>
   <energy>
    <i name="e_fr_energy">     -4.86286288 </i>
    <i name="e_wo_entrp">     -4.86206951 </i>
    <i name="e_0_energy">     -4.86246619 </i>
   </energy>
  </scstep>
  <scstep>
   <time name="dav">    0.44    0.44</time>
   <time name="total">    0.62    0.64</time>
   <energy>
    <i name="e_fr_energy">     -4.86281794 </i>
    <i name="e_wo_entrp">     -4.86202454 </i>
    <i name="e_0_energy">     -4.86242124 </i>
   </energy>
  </scstep>
  <scstep>
   <time name="dav">    0.37    0.37</time>
   <time name="total">    0.54    0.55</time>
   <energy>
    <i name="alphaZ">      2.39057823 </i>
    <i name="ewald">   -137.78496289 </i>
    <i name="hartreedc">     -0.41012970 </i>
    <i name="XCdc">     -8.66581205 </i>
    <i name="pawpsdc">    373.72937177 </i>
    <i name="pawaedc">   -356.15187373 </i>
    <i name="eentropy">     -0.00079347 </i>
    <i name="bandstr">     18.96905385 </i>
    <i name="atom">    103.06174961 </i>
    <i name="e_fr_energy">     -4.86281838 </i>
    <i name="e_wo_entrp">     -4.86202491 </i>
    <i name="e_0_energy">     -4.86242165 </i>
   </energy>
  </scstep>
  <structure>
   <crystal>
    <varray name="basis" >
     <v>       2.34739500       0.00000000       1.35526800 </v>
     <v>       0.78246500       2.21314500       1.35526800 </v>
     <v>       0.00000000       0.00000000       2.71053800 </v>
    </varray>
    <i name="volume">     14.08158510 </i>
    <varray name="rec_basis" >
     <v>       0.42600415      -0.15061523       0.00000000 </v>
     <v>       0.00000000       0.45184568       0.00000000 </v>
     <v>      -0.21300192      -0.15061511       0.36893045 </v>
    </varray>
   </crystal>
   <varray name="positions" >
    <v>       0.00000000       0.00000000       0.00000000 </v>
   </varray>
  </structure>
  <varray name="forces" >
   <v>       0.00000000       0.00000000       0.00000000 </v>
  </varray>
  <varray name="stress" >
   <v>      19.56189415      -0.00000000      -0.00000833 </v>
   <v>      -0.00000000      19.56189008      -0.00000589 </v>
   <v>      -0.00000833      -0.00000589      19.56189024 </v>
  </varray>
  <energy>
   <i name="e_fr_energy">     -4.86281838 </i>
   <i name="e_wo_entrp">     -4.86202491 </i>
   <i name="e_0_energy">     -4.86242165 </i>
  </energy>
  <time name="totalsc">    4.99    5.26</time>
 </calculation>
 <calculation>
  <scstep>
   <time name="dav">    0.31    0.31</time>
   <time name="total">    0.49    0.50</time>
   <energy>
    <i name="alphaZ">      2.33206657 </i>
    <i name="ewald">   -136.65152563 </i>
    <i name="hartreedc">     -0.40670835 </i>
    <i name="XCdc">     -8.73034368 </i>
    <i name="pawpsdc">    373.69368502 </i>
    <i name="pawaedc">   -356.11591415 </i>
    <i name="eentropy">     -0.00079395 </i>
    <i name="bandstr">     17.95185679 </i>
    <i name="atom">    103.06174961 </i>
    <i name="e_fr_energy">     -4.86592777 </i>
    <i name="e_wo_entrp">     -4.86513382 </i>
    <i name="e_0_energy">     -4.86553079 </i>
   </energy>
  </scstep>
  <scstep>
   <time name="dav">    0.39    0.39</time>
   <time name="total">    0.57    0.59</time>
   <energy>
    <i name="e_fr_energy">     -4.86518448 </i>
    <i name="e_wo_entrp">     -4.86438205 </i>
    <i name="e_0_energy">     -4.86478326 </i>
   </energy>
  </scstep>
  <scstep>
   <time name="dav">    0.31    0.31</time>
   <time name="total">    0.50    0.50</time>
   <energy>
    <i name="e_fr_energy">     -4.86475443 </i>
    <i name="e_wo_entrp">     -4.86394078 </i>
    <i name="e_0_energy">     -4.86434761 </i>
   </energy>
  </scstep>
  <scstep>
   <time name="dav">    0.41    0.41</time>
   <time name="total">    0.59    0.60</time>
   <energy>
    <i name="e_fr_energy">     -4.86475394 </i>
    <i name="e_wo_entrp">     -4.86394034 </i>
    <i name="e_0_energy">     -4.86434714 </i>
   </energy>
  </scstep>
  <scstep>
   <time name="dav">    0.19    0.19</time>
   <time name="total">    0.38    0.39</time>
   <energy>
    <i name="e_fr_energy">     -4.86475068 </i>
    <i name="e_wo_entrp">     -4.86393717 </i>
    <i name="e_0_energy">     -4.86434392 </i>
   </energy>
  </scstep>
  <scstep>
   <time name="dav">    0.18    0.18</time>
   <time name="total">    0.35    0.36</time>
   <energy>
    <i name="alphaZ">      2.33206657 </i>
    <i name="ewald">   -136.65152563 </i>
    <i name="hartreedc">     -0.44645764 </i>
    <i name="XCdc">     -8.73884107 </i>
    <i name="pawpsdc">    358.28070176 </i>
    <i name="pawaedc">   -340.69882935 </i>
    <i name="eentropy">     -0.00081352 </i>
    <i name="bandstr">     17.99719838 </i>
    <i name="atom">    103.06174961 </i>
    <i name="e_fr_energy">     -4.86475089 </i>
    <i name="e_wo_entrp">     -4.86393737 </i>
    <i name="e_0_energy">     -4.86434413 </i>
   </energy>
  </scstep>
  <structure>
   <crystal>
    <varray name="basis" >
     <v>       2.36686514      -0.00000000       1.36650907 </v>
     <v>       0.78895504       2.23150162       1.36650907 </v>
     <v>      -0.00000001      -0.00000001       2.73302018 </v>
    </varray>
    <i name="volume">     14.43489273 </i>
    <varray name="rec_basis" >
     <v>       0.42249978      -0.14937624       0.00000000 </v>
     <v>       0.00000000       0.44812873       0.00000000 </v>
     <v>      -0.21124973      -0.14937613       0.36589558 </v>
    </varray>
   </crystal>
   <varray name="positions" >
    <v>       0.00000000       0.00000000       0.00000000 </v>
   </varray>
  </structure>
  <varray name="forces" >
   <v>      -0.00000000       0.00000000       0.00000000 </v>
  </varray>
  <varray name="stress" >
   <v>      -1.55522766       0.00000000       0.00000067 </v>
   <v>       0.00000000      -1.55522733       0.00000048 </v>
   <v>       0.00000067       0.00000048      -1.55522734 </v>
  </varray>
  <energy>
   <i name="e_fr_energy">     -4.86475089 </i>
   <i name="e_wo_entrp">     -4.86393737 </i>
   <i name="e_0_energy">     -4.86434413 </i>
  </energy>
  <time name="totalsc">    3.54    3.74</time>
 </calculation>
 <calculation>
  <scstep>
   <time name="dav">    0.31    0.31</time>
   <time name="total">    0.49    0.49</time>
   <energy>
    <i name="alphaZ">      2.33658309 </i>
    <i name="ewald">   -136.73968643 </i>
    <i name="hartreedc">     -0.44673991 </i>
    <i name="XCdc">     -8.73386445 </i>
    <i name="pawpsdc">    358.16394538 </i>
    <i name="pawaedc">   -340.58207793 </i>
    <i name="eentropy">     -0.00081869 </i>
    <i name="bandstr">     18.07613776 </i>
    <i name="atom">    103.06174961 </i>
    <i name="e_fr_energy">     -4.86477158 </i>
    <i name="e_wo_entrp">     -4.86395289 </i>
    <i name="e_0_energy">     -4.86436223 </i>
   </energy>
  </scstep>
  <scstep>
   <time name="dav">    0.39    0.39</time>
   <time name="total">    0.58    0.59</time>
   <energy>
    <i name="e_fr_energy">     -4.86476670 </i>
    <i name="e_wo_entrp">     -4.86394855 </i>
    <i name="e_0_energy">     -4.86435763 </i>
   </energy>
  </scstep>
  <scstep>
   <time name="dav">    0.31    0.31</time>
   <time name="total">    0.49    0.50</time>
   <energy>
    <i name="e_fr_energy">     -4.86476451 </i>
    <i name="e_wo_entrp">     -4.86394713 </i>
    <i name="e_0_energy">     -4.86435582 </i>
   </energy>
  </scstep>
  <scstep>
   <time name="dav">    0.16    0.16</time>
   <time name="total">    0.35    0.36</time>
   <energy>
    <i name="e_fr_energy">     -4.86476452 </i>
    <i name="e_wo_entrp">     -4.86394714 </i>
    <i name="e_0_energy">     -4.86435583 </i>
   </energy>
  </scstep>
  <scstep>
   <time name="dav">    0.16    0.16</time>
   <time name="total">    0.35    0.36</time>
   <energy>
    <i name="e_fr_energy">     -4.86476467 </i>
    <i name="e_wo_entrp">     -4.86394728 </i>
    <i name="e_0_energy">     -4.86435598 </i>
   </energy>
  </scstep>
  <scstep>
   <time name="dav">    0.16    0.16</time>
   <time name="total">    0.33    0.34</time>
   <energy>
    <i name="alphaZ">      2.33658309 </i>
    <i name="ewald">   -136.73968643 </i>
    <i name="hartreedc">     -0.44346866 </i>
    <i name="XCdc">     -8.73319927 </i>
    <i name="pawpsdc">    359.24813638 </i>
    <i name="pawaedc">   -341.66658306 </i>
    <i name="eentropy">     -0.00081739 </i>
    <i name="bandstr">     18.07252107 </i>
    <i name="atom">    103.06174961 </i>
    <i name="e_fr_energy">     -4.86476466 </i>
    <i name="e_wo_entrp">     -4.86394727 </i>
    <i name="e_0_energy">     -4.86435596 </i>
   </energy>
  </scstep>
  <structure>
   <crystal>
    <varray name="basis" >
     <v>       2.36533914      -0.00000000       1.36562804 </v>
     <v>       0.78844638       2.23006290       1.36562804 </v>
     <v>      -0.00000001      -0.00000001       2.73125811 </v>
    </varray>
    <i name="volume">     14.40699071 </i>
    <varray name="rec_basis" >
     <v>       0.42277235      -0.14947262       0.00000000 </v>
     <v>       0.00000000       0.44841785       0.00000000 </v>
     <v>      -0.21138602      -0.14947250       0.36613163 </v>
    </varray>
   </crystal>
   <varray name="positions" >
    <v>       0.00000000      -0.00000000       0.00000000 </v>
   </varray>
  </structure>
  <varray name="forces" >
   <v>      -0.00000000      -0.00000000      -0.00000000 </v>
  </varray>
  <varray name="stress" >
   <v>       0.01717479      -0.00000000      -0.00000001 </v>
   <v>      -0.00000000       0.01717478      -0.00000001 </v>
   <v>      -0.00000001      -0.00000001       0.01717478 </v>
  </varray>
  <energy>
   <i name="e_fr_energy">     -4.86476466 </i>
   <i name="e_wo_entrp">     -4.86394727 </i>
   <i name="e_0_energy">     -4.86435596 </i>
  </energy>
  <time name="totalsc">    3.23    3.43</time>
  <eigenvalues>
   <array>
    <dimension dim="1">band</dimension>
    <dimension dim="2">kpoint</dimension>
    <dimension dim="3">spin</dimension>
    <field>eigene</field>
    <field>occ</field>
    <set>
     <set comment="spin 1">
      <set comment="kpoint 1">
       <r>   -4.2656    1.0000 </r>
       <r>   21.4213    0.0000 </r>
       <r>   21.4213    0.0000 </r>
       <r>   21.4213    0.0000 </r>
       <r>   22.2553    0.0000 </r>
       <r>   22.2553    0.0000 </r>
       <r>   22.2553    0.0000 </r>
       <r>   27.5350    0.0000 </r>
      </set>
      <set comment="kpoint 2">
       <r>   -4.1355    1.0000 </r>
       <r>   19.2845    0.0000 </r>
       <r>   20.7656    0.0000 </r>
       <r>   20.7656    0.0000 </r>
       <r>   23.1046    0.0000 </r>
       <r>   23.1046    0.0000 </r>
       <r>   23.3015    0.0000 </r>
       <r>   28.6066    0.0000 </r>
      </set>
      <set comment="kpoint 3">
       <r>   -3.7464    1.0000 </r>
       <r>   16.4436    0.0000 </r>
       <r>   20.0020    0.0000 </r>
       <r>   20.0020    0.0000 </r>
       <r>   23.5774    0.0000 </r>
       <r>   24.2002    0.0000 </r>
       <r>   24.2002    0.0000 </r>
       <r>   27.5630    0.0000 </r>
      </set>
      <set comment="kpoint 4">
       <r>   -3.0998    1.0000 </r>
       <r>   13.5961    0.0000 </r>
       <r>   19.4207    0.0000 </r>
       <r>   19.4207    0.0000 </r>
       <r>   23.4979    0.0000 </r>
       <r>   24.4297    0.0000 </r>
       <r>   24.4297    0.0000 </r>
       <r>   27.5035    0.0000 </r>
      </set>
      <set comment="kpoint 5">
       <r>   -2.1983    1.0000 </r>
       <r>   10.8857    0.0000 </r>
       <r>   19.0373    0.0000 </r>
       <r>   19.0373    0.0000 </r>
       <r>   23.4039    0.0000 </r>
       <r>   23.5371    0.0000 </r>
       <r>   23.5371    0.0000 </r>
       <r>   28.7766    0.0000 </r>
      </set>
      <set comment="kpoint 6">
       <r>   -1.0459    1.0000 </r>
       <r>    8.3548    1.0000 </r>
       <r>   18.8393    0.0000 </r>
       <r>   18.8393    0.0000 </r>
       <r>   22.4983    0.0000 </r>
       <r>   22.4983    0.0000 </r>
       <r>   23.3953    0.0000 </r>
       <r>   27.6059    0.0000 </r>
      </set>
      <set comment="kpoint 7">
       <r>    0.3527    1.0000 </r>
       <r>    6.0328    1.0000 </r>
       <r>   18.7977    0.0000 </r>
       <r>   18.7977    0.0000 </r>
       <r>   21.7173    0.0000 </r>
       <r>   21.7173    0.0000 </r>
       <r>   23.5284    0.0000 </r>
       <r>   26.6873    0.0000 </r>
      </set>
      <set comment="kpoint 8">
       <r>    1.9649    1.0000 </r>
       <r>    3.9546    1.0000 </r>
       <r>   18.8236    0.0000 </r>
       <r>   18.8236    0.0000 </r>
       <r>   21.2553    0.0000 </r>
       <r>   21.2553    0.0000 </r>
       <r>   23.6485    0.0000 </r>
       <r>   26.1380    0.0000 </r>
      </set>
      <set comment="kpoint 9">
       <r>   -4.0921    1.0000 </r>
       <r>   19.7637    0.0000 </r>
       <r>   19.7637    0.0000 </r>
       <r>   21.0190    0.0000 </r>
       <r>   21.3507    0.0000 </r>
       <r>   24.1798    0.0000 </r>
       <r>   24.1798    0.0000 </r>
       <r>   27.4667    0.0000 </r>
      </set>
      <set comment="kpoint 10">
       <r>   -3.7896    1.0000 </r>
       <r>   17.4568    0.0000 </r>
       <r>   18.9176    0.0000 </r>
       <r>   20.4759    0.0000 </r>
       <r>   21.8626    0.0000 </r>
       <r>   24.8859    0.0000 </r>
       <r>   25.3378    0.0000 </r>
       <r>   25.9623    0.0000 </r>
      </set>
      <set comment="kpoint 11">
       <r>   -3.2289    1.0000 </r>
       <r>   14.6247    0.0000 </r>
       <r>   18.2772    0.0000 </r>
       <r>   19.8423    0.0000 </r>
       <r>   22.5688    0.0000 </r>
       <r>   24.6860    0.0000 </r>
       <r>   25.4607    0.0000 </r>
       <r>   25.9673    0.0000 </r>
      </set>
      <set comment="kpoint 12">
       <r>   -2.4124    1.0000 </r>
       <r>   11.8722    0.0000 </r>
       <r>   17.8508    0.0000 </r>
       <r>   19.3249    0.0000 </r>
       <r>   22.0043    0.0000 </r>
       <r>   24.4936    0.0000 </r>
       <r>   25.3045    0.0000 </r>
       <r>   26.4952    0.0000 </r>
      </set>
      <set comment="kpoint 13">
       <r>   -1.3432    1.0000 </r>
       <r>    9.2823    1.0000 </r>
       <r>   17.6429    0.0000 </r>
       <r>   18.8831    0.0000 </r>
       <r>   21.1172    0.0000 </r>
       <r>   24.2509    0.0000 </r>
       <r>   24.4709    0.0000 </r>
       <r>   28.0831    0.0000 </r>
      </set>
      <set comment="kpoint 14">
       <r>   -0.0263    1.0000 </r>
       <r>    6.8903    1.0000 </r>
       <r>   17.6465    0.0000 </r>
       <r>   18.4070    0.0000 </r>
       <r>   20.5977    0.0000 </r>
       <r>   23.2712    0.0000 </r>
       <r>   24.5136    0.0000 </r>
       <r>   27.9188    0.0000 </r>
      </set>
      <set comment="kpoint 15">
       <r>    1.5224    1.0000 </r>
       <r>    4.7226    1.0000 </r>
       <r>   17.8504    0.0000 </r>
       <r>   17.8664    0.0000 </r>
       <r>   20.5502    0.0000 </r>
       <r>   22.4932    0.0000 </r>
       <r>   24.5443    0.0000 </r>
       <r>   27.3750    0.0000 </r>
      </set>
      <set comment="kpoint 16">
       <r>    2.5989    1.0000 </r>
       <r>    3.4909    1.0000 </r>
       <r>   17.3770    0.0000 </r>
       <r>   18.2403    0.0000 </r>
       <r>   20.8998    0.0000 </r>
       <r>   21.9685    0.0000 </r>
       <r>   24.4812    0.0000 </r>
       <r>   27.2876    0.0000 </r>
      </set>
      <set comment="kpoint 17">
       <r>    0.9829    1.0000 </r>
       <r>    5.4174    1.0000 </r>
       <r>   17.0355    0.0000 </r>
       <r>   18.7710    0.0000 </r>
       <r>   21.5582    0.0000 </r>
       <r>   21.7562    0.0000 </r>
       <r>   24.3298    0.0000 </r>
       <r>   27.6891    0.0000 </r>
      </set>
      <set comment="kpoint 18">
       <r>   -0.4924    1.0000 </r>
       <r>    7.6637    1.0000 </r>
       <r>   16.8858    0.0000 </r>
       <r>   19.3532    0.0000 </r>
       <r>   21.9083    0.0000 </r>
       <r>   22.4559    0.0000 </r>
       <r>   24.1776    0.0000 </r>
       <r>   28.4329    0.0000 </r>
      </set>
      <set comment="kpoint 19">
       <r>   -1.7276    1.0000 </r>
       <r>   10.1243    0.9951 </r>
       <r>   16.9502    0.0000 </r>
       <r>   19.9099    0.0000 </r>
       <r>   22.4739    0.0000 </r>
       <r>   23.5452    0.0000 </r>
       <r>   24.1102    0.0000 </r>
       <r>   28.1672    0.0000 </r>
      </set>
      <set comment="kpoint 20">
       <r>   -2.7128    1.0000 </r>
       <r>   12.7729    0.0000 </r>
       <r>   17.2299    0.0000 </r>
       <r>   20.4570    0.0000 </r>
       <r>   23.2903    0.0000 </r>
       <r>   24.1187    0.0000 </r>
       <r>   24.7231    0.0000 </r>
       <r>   26.4859    0.0000 </r>
      </set>
      <set comment="kpoint 21">
       <r>   -3.4443    1.0000 </r>
       <r>   15.5623    0.0000 </r>
       <r>   17.7296    0.0000 </r>
       <r>   21.0533    0.0000 </r>
       <r>   23.4069    0.0000 </r>
       <r>   24.0703    0.0000 </r>
       <r>   25.3515    0.0000 </r>
       <r>   26.0906    0.0000 </r>
      </set>
      <set comment="kpoint 22">
       <r>   -3.9192    1.0000 </r>
       <r>   18.2863    0.0000 </r>
       <r>   18.5368    0.0000 </r>
       <r>   21.5026    0.0000 </r>
       <r>   22.6162    0.0000 </r>
       <r>   23.7149    0.0000 </r>
       <r>   24.6469    0.0000 </r>
       <r>   27.2316    0.0000 </r>
      </set>
      <set comment="kpoint 23">
       <r>   -3.5736    1.0000 </r>
       <r>   17.9976    0.0000 </r>
       <r>   17.9976    0.0000 </r>
       <r>   19.6794    0.0000 </r>
       <r>   19.9467    0.0000 </r>
       <r>   24.0799    0.0000 </r>
       <r>   26.5726    0.0000 </r>
       <r>   26.5726    0.0000 </r>
      </set>
      <set comment="kpoint 24">
       <r>   -3.0995    1.0000 </r>
       <r>   15.7928    0.0000 </r>
       <r>   17.2860    0.0000 </r>
       <r>   19.1091    0.0000 </r>
       <r>   20.2286    0.0000 </r>
       <r>   22.7565    0.0000 </r>
       <r>   27.2885    0.0000 </r>
       <r>   27.5492    0.0000 </r>
      </set>
      <set comment="kpoint 25">
       <r>   -2.3691    1.0000 </r>
       <r>   13.0646    0.0000 </r>
       <r>   16.7927    0.0000 </r>
       <r>   18.3856    0.0000 </r>
       <r>   20.1235    0.0000 </r>
       <r>   23.1063    0.0000 </r>
       <r>   27.2904    0.0000 </r>
       <r>   27.4470    0.0000 </r>
      </set>
      <set comment="kpoint 26">
       <r>   -1.3851    1.0000 </r>
       <r>   10.4353    0.0000 </r>
       <r>   16.5222    0.0000 </r>
       <r>   17.5579    0.0000 </r>
       <r>   19.5262    0.0000 </r>
       <r>   24.6038    0.0000 </r>
       <r>   26.3147    0.0000 </r>
       <r>   27.6360    0.0000 </r>
      </set>
      <set comment="kpoint 27">
       <r>   -0.1519    1.0000 </r>
       <r>    7.9845    1.0000 </r>
       <r>   16.4692    0.0000 </r>
       <r>   16.6450    0.0000 </r>
       <r>   19.2656    0.0000 </r>
       <r>   25.3030    0.0000 </r>
       <r>   25.8674    0.0000 </r>
       <r>   28.3683    0.0000 </r>
      </set>
      <set comment="kpoint 28">
       <r>    1.3210    1.0000 </r>
       <r>    5.7441    1.0000 </r>
       <r>   15.8017    0.0000 </r>
       <r>   16.6404    0.0000 </r>
       <r>   19.3718    0.0000 </r>
       <r>   24.4530    0.0000 </r>
       <r>   26.2800    0.0000 </r>
       <r>   29.8138    0.0000 </r>
      </set>
      <set comment="kpoint 29">
       <r>    2.9380    1.0000 </r>
       <r>    3.8178    1.0000 </r>
       <r>   15.1211    0.0000 </r>
       <r>   17.0249    0.0000 </r>
       <r>   19.7694    0.0000 </r>
       <r>   23.7859    0.0000 </r>
       <r>   26.1913    0.0000 </r>
       <r>   29.9016    0.0000 </r>
      </set>
      <set comment="kpoint 30">
       <r>    1.8600    1.0000 </r>
       <r>    5.0496    1.0000 </r>
       <r>   14.6435    0.0000 </r>
       <r>   17.6151    0.0000 </r>
       <r>   20.4202    0.0000 </r>
       <r>   23.3628    0.0000 </r>
       <r>   25.9538    0.0000 </r>
       <r>   30.2122    0.0000 </r>
      </set>
      <set comment="kpoint 31">
       <r>    0.3128    1.0000 </r>
       <r>    7.2100    1.0000 </r>
       <r>   14.3869    0.0000 </r>
       <r>   18.3910    0.0000 </r>
       <r>   21.3026    0.0000 </r>
       <r>   23.1884    0.0000 </r>
       <r>   25.7031    0.0000 </r>
       <r>   29.8514    0.0000 </r>
      </set>
      <set comment="kpoint 32">
       <r>   -1.0019    1.0000 </r>
       <r>    9.5893    1.0000 </r>
       <r>   14.3606    0.0000 </r>
       <r>   19.3132    0.0000 </r>
       <r>   22.3976    0.0000 </r>
       <r>   23.2837    0.0000 </r>
       <r>   25.4987    0.0000 </r>
       <r>   27.6412    0.0000 </r>
      </set>
      <set comment="kpoint 33">
       <r>   -2.0694    1.0000 </r>
       <r>   12.1476    0.0000 </r>
       <r>   14.5796    0.0000 </r>
       <r>   20.3093    0.0000 </r>
       <r>   23.6523    0.0000 </r>
       <r>   23.6792    0.0000 </r>
       <r>   25.2774    0.0000 </r>
       <r>   25.7575    0.0000 </r>
      </set>
      <set comment="kpoint 34">
       <r>   -2.8846    1.0000 </r>
       <r>   14.6164    0.0000 </r>
       <r>   15.2621    0.0000 </r>
       <r>   21.1455    0.0000 </r>
       <r>   23.6176    0.0000 </r>
       <r>   24.8298    0.0000 </r>
       <r>   24.9115    0.0000 </r>
       <r>   25.0190    0.0000 </r>
      </set>
      <set comment="kpoint 35">
       <r>   -2.7123    1.0000 </r>
       <r>   16.5011    0.0000 </r>
       <r>   16.5011    0.0000 </r>
       <r>   18.0904    0.0000 </r>
       <r>   18.1946    0.0000 </r>
       <r>   21.0524    0.0000 </r>
       <r>   29.0217    0.0000 </r>
       <r>   29.0217    0.0000 </r>
      </set>
      <set comment="kpoint 36">
       <r>   -2.0687    1.0000 </r>
       <r>   14.3978    0.0000 </r>
       <r>   15.9349    0.0000 </r>
       <r>   17.0473    0.0000 </r>
       <r>   18.3430    0.0000 </r>
       <r>   20.6145    0.0000 </r>
       <r>   29.3759    0.0000 </r>
       <r>   29.7597    0.0000 </r>
      </set>
      <set comment="kpoint 37">
       <r>   -1.1710    1.0000 </r>
       <r>   11.7932    0.0000 </r>
       <r>   15.5887    0.0000 </r>
       <r>   15.8175    0.0000 </r>
       <r>   18.2369    0.0000 </r>
       <r>   21.8901    0.0000 </r>
       <r>   28.5624    0.0000 </r>
       <r>   29.9330    0.0000 </r>
      </set>
      <set comment="kpoint 38">
       <r>   -0.0229    1.0000 </r>
       <r>    9.3049    1.0000 </r>
       <r>   14.6463    0.0000 </r>
       <r>   15.4713    0.0000 </r>
       <r>   18.1258    0.0000 </r>
       <r>   23.8126    0.0000 </r>
       <r>   27.5818    0.0000 </r>
       <r>   29.9016    0.0000 </r>
      </set>
      <set comment="kpoint 39">
       <r>    1.3675    1.0000 </r>
       <r>    7.0043    1.0000 </r>
       <r>   13.6353    0.0000 </r>
       <r>   15.5768    0.0000 </r>
       <r>   18.2307    0.0000 </r>
       <r>   25.8323    0.0000 </r>
       <r>   26.6723    0.0000 </r>
       <r>   29.7594    0.0000 </r>
      </set>
      <set comment="kpoint 40">
       <r>    2.9746    1.0000 </r>
       <r>    4.9380    1.0000 </r>
       <r>   12.8315    0.0000 </r>
       <r>   15.9046    0.0000 </r>
       <r>   18.5921    0.0000 </r>
       <r>   25.9567    0.0000 </r>
       <r>   27.3949    0.0000 </r>
       <r>   30.0641    0.0000 </r>
      </set>
      <set comment="kpoint 41">
       <r>    2.9750    1.0000 </r>
       <r>    4.9351    1.0000 </r>
       <r>   12.2520    0.0000 </r>
       <r>   16.4503    0.0000 </r>
       <r>   19.1962    0.0000 </r>
       <r>   25.4447    0.0000 </r>
       <r>   27.7084    0.0000 </r>
       <r>   31.2735    0.0000 </r>
      </set>
      <set comment="kpoint 42">
       <r>    1.3669    1.0000 </r>
       <r>    6.9940    1.0000 </r>
       <r>   11.9105    0.0000 </r>
       <r>   17.2042    0.0000 </r>
       <r>   20.0327    0.0000 </r>
       <r>   25.1369    0.0000 </r>
       <r>   27.4543    0.0000 </r>
       <r>   29.6786    0.0000 </r>
      </set>
      <set comment="kpoint 43">
       <r>   -0.0238    1.0000 </r>
       <r>    9.2669    1.0000 </r>
       <r>   11.8283    0.0000 </r>
       <r>   18.1511    0.0000 </r>
       <r>   21.0919    0.0000 </r>
       <r>   25.0849    0.0000 </r>
       <r>   27.0227    0.0000 </r>
       <r>   27.3766    0.0000 </r>
      </set>
      <set comment="kpoint 44">
       <r>   -1.1718    1.0000 </r>
       <r>   11.4275    0.0000 </r>
       <r>   12.2898    0.0000 </r>
       <r>   19.2427    0.0000 </r>
       <r>   22.3302    0.0000 </r>
       <r>   25.2701    0.0000 </r>
       <r>   25.2787    0.0000 </r>
       <r>   26.3308    0.0000 </r>
      </set>
      <set comment="kpoint 45">
       <r>   -1.5116    1.0000 </r>
       <r>   15.2915    0.0000 </r>
       <r>   15.2915    0.0000 </r>
       <r>   15.4636    0.0000 </r>
       <r>   16.7448    0.0000 </r>
       <r>   19.2002    0.0000 </r>
       <r>   31.3717    0.0000 </r>
       <r>   31.3717    0.0000 </r>
      </set>
      <set comment="kpoint 46">
       <r>   -0.7016    1.0000 </r>
       <r>   13.2544    0.0000 </r>
       <r>   14.0835    0.0000 </r>
       <r>   14.8747    0.0000 </r>
       <r>   17.0646    0.0000 </r>
       <r>   19.3881    0.0000 </r>
       <r>   30.8960    0.0000 </r>
       <r>   32.0678    0.0000 </r>
      </set>
      <set comment="kpoint 47">
       <r>    0.3590    1.0000 </r>
       <r>   10.8167    0.0000 </r>
       <r>   12.7339    0.0000 </r>
       <r>   14.6834    0.0000 </r>
       <r>   17.1620    0.0000 </r>
       <r>   21.0058    0.0000 </r>
       <r>   29.9969    0.0000 </r>
       <r>   32.1045    0.0000 </r>
      </set>
      <set comment="kpoint 48">
       <r>    1.6641    1.0000 </r>
       <r>    8.4848    1.0000 </r>
       <r>   11.5944    0.0000 </r>
       <r>   14.7175    0.0000 </r>
       <r>   17.2689    0.0000 </r>
       <r>   23.1441    0.0000 </r>
       <r>   29.0929    0.0000 </r>
       <r>   31.7423    0.0000 </r>
      </set>
      <set comment="kpoint 49">
       <r>    3.1994    1.0000 </r>
       <r>    6.3491    1.0000 </r>
       <r>   10.6840    0.0000 </r>
       <r>   14.9766    0.0000 </r>
       <r>   17.5773    0.0000 </r>
       <r>   25.4930    0.0000 </r>
       <r>   28.3256    0.0000 </r>
       <r>   31.1754    0.0000 </r>
      </set>
      <set comment="kpoint 50">
       <r>    4.2847    1.0000 </r>
       <r>    5.1057    1.0000 </r>
       <r>   10.0154    1.0000 </r>
       <r>   15.4585    0.0000 </r>
       <r>   18.1215    0.0000 </r>
       <r>   27.7478    0.0000 </r>
       <r>   27.7844    0.0000 </r>
       <r>   30.5709    0.0000 </r>
      </set>
      <set comment="kpoint 51">
       <r>    2.6640    1.0000 </r>
       <r>    6.9956    1.0000 </r>
       <r>    9.6133    1.0000 </r>
       <r>   16.1577    0.0000 </r>
       <r>   18.8981    0.0000 </r>
       <r>   27.3529    0.0000 </r>
       <r>   29.1026    0.0000 </r>
       <r>   29.7508    0.0000 </r>
      </set>
      <set comment="kpoint 52">
       <r>    1.2007    1.0000 </r>
       <r>    8.8416    1.0000 </r>
       <r>    9.7900    1.0000 </r>
       <r>   17.0649    0.0000 </r>
       <r>   19.8974    0.0000 </r>
       <r>   26.9815    0.0000 </r>
       <r>   27.6128    0.0000 </r>
       <r>   28.3658    0.0000 </r>
      </set>
      <set comment="kpoint 53">
       <r>    0.0205    1.0000 </r>
       <r>   12.3560    0.0000 </r>
       <r>   14.3831    0.0000 </r>
       <r>   14.3831    0.0000 </r>
       <r>   15.7315    0.0000 </r>
       <r>   18.1238    0.0000 </r>
       <r>   32.9112    0.0000 </r>
       <r>   33.5114    0.0000 </r>
      </set>
      <set comment="kpoint 54">
       <r>    0.9926    1.0000 </r>
       <r>   10.8943    0.0000 </r>
       <r>   12.5675    0.0000 </r>
       <r>   14.1172    0.0000 </r>
       <r>   16.2138    0.0000 </r>
       <r>   18.5826    0.0000 </r>
       <r>   32.4202    0.0000 </r>
       <r>   34.0853    0.0000 </r>
      </set>
      <set comment="kpoint 55">
       <r>    2.2090    1.0000 </r>
       <r>    9.5845    1.0000 </r>
       <r>   10.3289    0.0007 </r>
       <r>   14.0777    0.0000 </r>
       <r>   16.4829    0.0000 </r>
       <r>   20.4133    0.0000 </r>
       <r>   31.6064    0.0000 </r>
       <r>   33.8847    0.0000 </r>
      </set>
      <set comment="kpoint 56">
       <r>    3.6571    1.0000 </r>
       <r>    7.9176    1.0000 </r>
       <r>    8.8126    1.0000 </r>
       <r>   14.2639    0.0000 </r>
       <r>   16.7680    0.0000 </r>
       <r>   22.7331    0.0000 </r>
       <r>   30.8134    0.0000 </r>
       <r>   33.1716    0.0000 </r>
      </set>
      <set comment="kpoint 57">
       <r>    5.2622    1.0000 </r>
       <r>    6.0376    1.0000 </r>
       <r>    8.0270    1.0000 </r>
       <r>   14.6755    0.0000 </r>
       <r>   17.2527    0.0000 </r>
       <r>   25.2849    0.0000 </r>
       <r>   30.1556    0.0000 </r>
       <r>   32.1978    0.0000 </r>
      </set>
      <set comment="kpoint 58">
       <r>    4.1922    1.0000 </r>
       <r>    6.8914    1.0000 </r>
       <r>    7.8704    1.0000 </r>
       <r>   15.3091    0.0000 </r>
       <r>   17.9633    0.0000 </r>
       <r>   27.8423    0.0000 </r>
       <r>   29.3640    0.0000 </r>
       <r>   30.4539    0.0000 </r>
      </set>
      <set comment="kpoint 59">
       <r>    1.8752    1.0000 </r>
       <r>    9.3606    1.0000 </r>
       <r>   13.7768    0.0000 </r>
       <r>   13.7768    0.0000 </r>
       <r>   15.0519    0.0000 </r>
       <r>   17.4636    0.0000 </r>
       <r>   34.2218    0.0000 </r>
       <r>   35.4704    0.0000 </r>
      </set>
      <set comment="kpoint 60">
       <r>    2.9974    1.0000 </r>
       <r>    8.0335    1.0000 </r>
       <r>   12.0757    0.0000 </r>
       <r>   13.6621    0.0000 </r>
       <r>   15.7112    0.0000 </r>
       <r>   18.1118    0.0000 </r>
       <r>   33.9639    0.0000 </r>
       <r>   35.7666    0.0000 </r>
      </set>
      <set comment="kpoint 61">
       <r>    4.3363    1.0000 </r>
       <r>    6.9556    1.0000 </r>
       <r>    9.9214    1.0000 </r>
       <r>   13.7744    0.0000 </r>
       <r>   16.1458    0.0000 </r>
       <r>   20.1108    0.0000 </r>
       <r>   33.2429    0.0000 </r>
       <r>   35.0908    0.0000 </r>
      </set>
      <set comment="kpoint 62">
       <r>    5.5876    1.0000 </r>
       <r>    6.3957    1.0000 </r>
       <r>    7.9500    1.0000 </r>
       <r>   14.1127    0.0000 </r>
       <r>   16.6063    0.0000 </r>
       <r>   22.6045    0.0000 </r>
       <r>   32.1947    0.0000 </r>
       <r>   33.6539    0.0000 </r>
      </set>
      <set comment="kpoint 63">
       <r>    4.0078    1.0000 </r>
       <r>    6.6411    1.0000 </r>
       <r>   13.4725    0.0000 </r>
       <r>   13.4725    0.0000 </r>
       <r>   14.7094    0.0000 </r>
       <r>   17.1364    0.0000 </r>
       <r>   35.2086    0.0000 </r>
       <r>   36.8143    0.0000 </r>
      </set>
      <set comment="kpoint 64">
       <r>    4.9352    1.0000 </r>
       <r>    5.8038    1.0000 </r>
       <r>   11.9144    0.0000 </r>
       <r>   13.5100    0.0000 </r>
       <r>   15.5436    0.0000 </r>
       <r>   17.9571    0.0000 </r>
       <r>   34.8568    0.0000 </r>
       <r>   36.5024    0.0000 </r>
      </set>
      <set comment="kpoint 65">
       <r>   -3.4012    1.0000 </r>
       <r>   16.4761    0.0000 </r>
       <r>   16.8881    0.0000 </r>
       <r>   20.7940    0.0000 </r>
       <r>   21.4522    0.0000 </r>
       <r>   24.4430    0.0000 </r>
       <r>   25.8111    0.0000 </r>
       <r>   26.1853    0.0000 </r>
      </set>
      <set comment="kpoint 66">
       <r>   -2.7556    1.0000 </r>
       <r>   13.8662    0.0000 </r>
       <r>   16.1489    0.0000 </r>
       <r>   20.1459    0.0000 </r>
       <r>   21.8785    0.0000 </r>
       <r>   23.9543    0.0000 </r>
       <r>   26.0420    0.0000 </r>
       <r>   26.2471    0.0000 </r>
      </set>
      <set comment="kpoint 67">
       <r>   -1.8553    1.0000 </r>
       <r>   11.1890    0.0000 </r>
       <r>   15.7895    0.0000 </r>
       <r>   19.2720    0.0000 </r>
       <r>   21.4341    0.0000 </r>
       <r>   24.5409    0.0000 </r>
       <r>   25.4798    0.0000 </r>
       <r>   26.6629    0.0000 </r>
      </set>
      <set comment="kpoint 68">
       <r>   -0.7039    1.0000 </r>
       <r>    8.6721    1.0000 </r>
       <r>   15.6586    0.0000 </r>
       <r>   18.3324    0.0000 </r>
       <r>   21.1023    0.0000 </r>
       <r>   23.7785    0.0000 </r>
       <r>   25.7298    0.0000 </r>
       <r>   28.0732    0.0000 </r>
      </set>
      <set comment="kpoint 69">
       <r>    0.6917    1.0000 </r>
       <r>    6.3572    1.0000 </r>
       <r>   15.7431    0.0000 </r>
       <r>   17.4670    0.0000 </r>
       <r>   21.0663    0.0000 </r>
       <r>   22.9108    0.0000 </r>
       <r>   25.9039    0.0000 </r>
       <r>   29.4255    0.0000 </r>
      </set>
      <set comment="kpoint 70">
       <r>    2.3025    1.0000 </r>
       <r>    4.2830    1.0000 </r>
       <r>   15.9868    0.0000 </r>
       <r>   16.8144    0.0000 </r>
       <r>   21.1948    0.0000 </r>
       <r>   22.3096    0.0000 </r>
       <r>   26.0012    0.0000 </r>
       <r>   29.1396    0.0000 </r>
      </set>
      <set comment="kpoint 71">
       <r>   -2.5406    1.0000 </r>
       <r>   14.9087    0.0000 </r>
       <r>   15.4100    0.0000 </r>
       <r>   18.7972    0.0000 </r>
       <r>   19.9645    0.0000 </r>
       <r>   21.8317    0.0000 </r>
       <r>   27.7990    0.0000 </r>
       <r>   28.4327    0.0000 </r>
      </set>
      <set comment="kpoint 72">
       <r>   -1.7265    1.0000 </r>
       <r>   12.4483    0.0000 </r>
       <r>   14.7832    0.0000 </r>
       <r>   17.6246    0.0000 </r>
       <r>   20.1773    0.0000 </r>
       <r>   22.5233    0.0000 </r>
       <r>   27.0586    0.0000 </r>
       <r>   28.8932    0.0000 </r>
      </set>
      <set comment="kpoint 73">
       <r>   -0.6603    1.0000 </r>
       <r>    9.9051    1.0000 </r>
       <r>   14.5575    0.0000 </r>
       <r>   16.4333    0.0000 </r>
       <r>   20.0283    0.0000 </r>
       <r>   24.1744    0.0000 </r>
       <r>   26.1355    0.0000 </r>
       <r>   29.0403    0.0000 </r>
      </set>
      <set comment="kpoint 74">
       <r>    0.6520    1.0000 </r>
       <r>    7.5330    1.0000 </r>
       <r>   14.5147    0.0000 </r>
       <r>   15.4413    0.0000 </r>
       <r>   20.0523    0.0000 </r>
       <r>   24.7566    0.0000 </r>
       <r>   26.4782    0.0000 </r>
       <r>   29.2877    0.0000 </r>
      </set>
      <set comment="kpoint 75">
       <r>    2.1966    1.0000 </r>
       <r>    5.3769    1.0000 </r>
       <r>   14.2663    0.0000 </r>
       <r>   15.0842    0.0000 </r>
       <r>   20.2997    0.0000 </r>
       <r>   24.0863    0.0000 </r>
       <r>   27.6515    0.0000 </r>
       <r>   30.0958    0.0000 </r>
      </set>
      <set comment="kpoint 76">
       <r>    3.2760    1.0000 </r>
       <r>    4.1432    1.0000 </r>
       <r>   13.7139    0.0000 </r>
       <r>   15.4760    0.0000 </r>
       <r>   20.7593    0.0000 </r>
       <r>   23.5127    0.0000 </r>
       <r>   27.8571    0.0000 </r>
       <r>   31.2382    0.0000 </r>
      </set>
      <set comment="kpoint 77">
       <r>    1.6579    1.0000 </r>
       <r>    6.0667    1.0000 </r>
       <r>   13.3141    0.0000 </r>
       <r>   16.1658    0.0000 </r>
       <r>   21.4156    0.0000 </r>
       <r>   23.1977    0.0000 </r>
       <r>   27.5925    0.0000 </r>
       <r>   30.0345    0.0000 </r>
      </set>
      <set comment="kpoint 78">
       <r>    0.1873    1.0000 </r>
       <r>    8.2947    1.0000 </r>
       <r>   13.1366    0.0000 </r>
       <r>   17.0763    0.0000 </r>
       <r>   22.1291    0.0000 </r>
       <r>   23.2156    0.0000 </r>
       <r>   26.7624    0.0000 </r>
       <r>   28.4833    0.0000 </r>
      </set>
      <set comment="kpoint 79">
       <r>   -1.0439    1.0000 </r>
       <r>   10.7125    0.0000 </r>
       <r>   13.2083    0.0000 </r>
       <r>   18.1717    0.0000 </r>
       <r>   22.6431    0.0000 </r>
       <r>   23.6770    0.0000 </r>
       <r>   25.3052    0.0000 </r>
       <r>   27.7991    0.0000 </r>
      </set>
      <set comment="kpoint 80">
       <r>   -2.0262    1.0000 </r>
       <r>   13.0295    0.0000 </r>
       <r>   13.7830    0.0000 </r>
       <r>   19.3616    0.0000 </r>
       <r>   22.7055    0.0000 </r>
       <r>   23.4228    0.0000 </r>
       <r>   25.2861    0.0000 </r>
       <r>   27.2106    0.0000 </r>
      </set>
      <set comment="kpoint 81">
       <r>   -1.3412    1.0000 </r>
       <r>   13.6461    0.0000 </r>
       <r>   14.1565    0.0000 </r>
       <r>   15.8447    0.0000 </r>
       <r>   18.7081    0.0000 </r>
       <r>   20.3210    0.0000 </r>
       <r>   29.2059    0.0000 </r>
       <r>   31.0265    0.0000 </r>
      </set>
      <set comment="kpoint 82">
       <r>   -0.3623    1.0000 </r>
       <r>   11.3270    0.0000 </r>
       <r>   13.6126    0.0000 </r>
       <r>   14.5590    0.0000 </r>
       <r>   19.0253    0.0000 </r>
       <r>   21.5087    0.0000 </r>
       <r>   28.3177    0.0000 </r>
       <r>   31.4747    0.0000 </r>
      </set>
      <set comment="kpoint 83">
       <r>    0.8650    1.0000 </r>
       <r>    8.9303    1.0000 </r>
       <r>   13.0597    0.0000 </r>
       <r>   13.8660    0.0000 </r>
       <r>   19.0773    0.0000 </r>
       <r>   23.4977    0.0000 </r>
       <r>   27.4009    0.0000 </r>
       <r>   31.4246    0.0000 </r>
      </set>
      <set comment="kpoint 84">
       <r>    2.3297    1.0000 </r>
       <r>    6.7147    1.0000 </r>
       <r>   12.1838    0.0000 </r>
       <r>   13.9508    0.0000 </r>
       <r>   19.2961    0.0000 </r>
       <r>   25.4758    0.0000 </r>
       <r>   26.8225    0.0000 </r>
       <r>   31.0715    0.0000 </r>
      </set>
      <set comment="kpoint 85">
       <r>    3.9479    1.0000 </r>
       <r>    4.7918    1.0000 </r>
       <r>   11.4585    0.0000 </r>
       <r>   14.3504    0.0000 </r>
       <r>   19.7300    0.0000 </r>
       <r>   25.6304    0.0000 </r>
       <r>   28.2241    0.0000 </r>
       <r>   30.4295    0.0000 </r>
      </set>
      <set comment="kpoint 86">
       <r>    2.8669    1.0000 </r>
       <r>    6.0175    1.0000 </r>
       <r>   10.9602    0.0000 </r>
       <r>   14.9935    0.0000 </r>
       <r>   20.3828    0.0000 </r>
       <r>   25.2331    0.0000 </r>
       <r>   28.9633    0.0000 </r>
       <r>   29.8798    0.0000 </r>
      </set>
      <set comment="kpoint 87">
       <r>    1.3267    1.0000 </r>
       <r>    8.1325    1.0000 </r>
       <r>   10.7221    0.0000 </r>
       <r>   15.8626    0.0000 </r>
       <r>   21.2405    0.0000 </r>
       <r>   24.9769    0.0000 </r>
       <r>   27.0725    0.0000 </r>
       <r>   29.8343    0.0000 </r>
      </set>
      <set comment="kpoint 88">
       <r>    0.0190    1.0000 </r>
       <r>   10.1374    0.9865 </r>
       <r>   11.0447    0.0000 </r>
       <r>   16.9390    0.0000 </r>
       <r>   22.2614    0.0000 </r>
       <r>   24.6069    0.0000 </r>
       <r>   25.3625    0.0000 </r>
       <r>   29.0563    0.0000 </r>
      </set>
      <set comment="kpoint 89">
       <r>    0.1896    1.0000 </r>
       <r>   12.4095    0.0000 </r>
       <r>   12.6917    0.0000 </r>
       <r>   13.4973    0.0000 </r>
       <r>   17.7347    0.0000 </r>
       <r>   19.3552    0.0000 </r>
       <r>   30.6651    0.0000 </r>
       <r>   33.3503    0.0000 </r>
      </set>
      <set comment="kpoint 90">
       <r>    1.3292    1.0000 </r>
       <r>   10.4676    0.0000 </r>
       <r>   11.2963    0.0000 </r>
       <r>   13.0448    0.0000 </r>
       <r>   18.2171    0.0000 </r>
       <r>   20.7834    0.0000 </r>
       <r>   29.8217    0.0000 </r>
       <r>   33.6339    0.0000 </r>
      </set>
      <set comment="kpoint 91">
       <r>    2.7080    1.0000 </r>
       <r>    8.2604    1.0000 </r>
       <r>   10.2116    0.5445 </r>
       <r>   13.1166    0.0000 </r>
       <r>   18.4472    0.0000 </r>
       <r>   22.9729    0.0000 </r>
       <r>   28.9911    0.0000 </r>
       <r>   33.0261    0.0000 </r>
      </set>
      <set comment="kpoint 92">
       <r>    4.3015    1.0000 </r>
       <r>    6.2255    1.0000 </r>
       <r>    9.3761    1.0000 </r>
       <r>   13.4538    0.0000 </r>
       <r>   18.8377    0.0000 </r>
       <r>   25.3719    0.0000 </r>
       <r>   28.3443    0.0000 </r>
       <r>   31.6950    0.0000 </r>
      </set>
      <set comment="kpoint 93">
       <r>    4.3071    1.0000 </r>
       <r>    6.1911    1.0000 </r>
       <r>    8.8094    1.0000 </r>
       <r>   14.0304    0.0000 </r>
       <r>   19.4384    0.0000 </r>
       <r>   27.2530    0.0000 </r>
       <r>   28.3710    0.0000 </r>
       <r>   29.6972    0.0000 </r>
      </set>
      <set comment="kpoint 94">
       <r>    2.7073    1.0000 </r>
       <r>    7.8674    1.0000 </r>
       <r>    8.8264    1.0000 </r>
       <r>   14.8370    0.0000 </r>
       <r>   20.2495    0.0000 </r>
       <r>   27.1172    0.0000 </r>
       <r>   27.3053    0.0000 </r>
       <r>   30.4228    0.0000 </r>
      </set>
      <set comment="kpoint 95">
       <r>    2.0420    1.0000 </r>
       <r>    9.5080    1.0000 </r>
       <r>   12.0538    0.0000 </r>
       <r>   12.7686    0.0000 </r>
       <r>   17.0883    0.0000 </r>
       <r>   18.7364    0.0000 </r>
       <r>   32.2672    0.0000 </r>
       <r>   35.3771    0.0000 </r>
      </set>
      <set comment="kpoint 96">
       <r>    3.3286    1.0000 </r>
       <r>    8.3316    1.0000 </r>
       <r>   10.1027    0.9993 </r>
       <r>   12.5418    0.0000 </r>
       <r>   17.7332    0.0000 </r>
       <r>   20.3392    0.0000 </r>
       <r>   31.5234    0.0000 </r>
       <r>   34.5551    0.0000 </r>
      </set>
      <set comment="kpoint 97">
       <r>    4.8256    1.0000 </r>
       <r>    7.3314    1.0000 </r>
       <r>    8.1228    1.0000 </r>
       <r>   12.7919    0.0000 </r>
       <r>   18.1326    0.0000 </r>
       <r>   22.7062    0.0000 </r>
       <r>   30.8028    0.0000 </r>
       <r>   32.6000    0.0000 </r>
      </set>
      <set comment="kpoint 98">
       <r>    5.9258    1.0000 </r>
       <r>    6.2397    1.0000 </r>
       <r>    7.2863    1.0000 </r>
       <r>   13.2938    0.0000 </r>
       <r>   18.6837    0.0000 </r>
       <r>   25.2980    0.0000 </r>
       <r>   30.1791    0.0000 </r>
       <r>   30.2375    0.0000 </r>
      </set>
      <set comment="kpoint 99">
       <r>    4.1724    1.0000 </r>
       <r>    6.8011    1.0000 </r>
       <r>   11.7336    0.0000 </r>
       <r>   12.4440    0.0000 </r>
       <r>   16.7646    0.0000 </r>
       <r>   18.4287    0.0000 </r>
       <r>   33.8849    0.0000 </r>
       <r>   35.4427    0.0000 </r>
      </set>
      <set comment="kpoint 100">
       <r>    5.2612    1.0000 </r>
       <r>    6.1235    1.0000 </r>
       <r>    9.9269    1.0000 </r>
       <r>   12.3807    0.0000 </r>
       <r>   17.5744    0.0000 </r>
       <r>   20.1949    0.0000 </r>
       <r>   33.1008    0.0000 </r>
       <r>   33.5486    0.0000 </r>
      </set>
      <set comment="kpoint 101">
       <r>   -0.8302    1.0000 </r>
       <r>   11.7477    0.0000 </r>
       <r>   12.5455    0.0000 </r>
       <r>   16.3092    0.0000 </r>
       <r>   21.5094    0.0000 </r>
       <r>   22.4355    0.0000 </r>
       <r>   26.1226    0.0000 </r>
       <r>   30.1270    0.0000 </r>
      </set>
      <set comment="kpoint 102">
       <r>    0.3156    1.0000 </r>
       <r>    9.5844    1.0000 </r>
       <r>   12.1024    0.0000 </r>
       <r>   15.0803    0.0000 </r>
       <r>   21.7881    0.0000 </r>
       <r>   23.7498    0.0000 </r>
       <r>   25.4101    0.0000 </r>
       <r>   30.7012    0.0000 </r>
      </set>
      <set comment="kpoint 103">
       <r>    1.7036    1.0000 </r>
       <r>    7.3170    1.0000 </r>
       <r>   12.1683    0.0000 </r>
       <r>   14.0619    0.0000 </r>
       <r>   21.8675    0.0000 </r>
       <r>   23.8370    0.0000 </r>
       <r>   26.5958    0.0000 </r>
       <r>   30.7972    0.0000 </r>
      </set>
      <set comment="kpoint 104">
       <r>    3.3094    1.0000 </r>
       <r>    5.2614    1.0000 </r>
       <r>   12.4222    0.0000 </r>
       <r>   13.3374    0.0000 </r>
       <r>   22.0189    0.0000 </r>
       <r>   23.3509    0.0000 </r>
       <r>   28.6485    0.0000 </r>
       <r>   30.2601    0.0000 </r>
      </set>
      <set comment="kpoint 105">
       <r>    0.6968    1.0000 </r>
       <r>   10.7820    0.0000 </r>
       <r>   11.5401    0.0000 </r>
       <r>   13.1943    0.0000 </r>
       <r>   20.5849    0.0000 </r>
       <r>   21.6666    0.0000 </r>
       <r>   27.4272    0.0000 </r>
       <r>   32.8824    0.0000 </r>
      </set>
      <set comment="kpoint 106">
       <r>    1.9992    1.0000 </r>
       <r>    8.7681    1.0000 </r>
       <r>   11.1841    0.0000 </r>
       <r>   12.1262    0.0000 </r>
       <r>   21.0696    0.0000 </r>
       <r>   23.3674    0.0000 </r>
       <r>   26.5863    0.0000 </r>
       <r>   32.9368    0.0000 </r>
      </set>
      <set comment="kpoint 107">
       <r>    3.5327    1.0000 </r>
       <r>    6.6634    1.0000 </r>
       <r>   10.8639    0.0000 </r>
       <r>   11.7783    0.0000 </r>
       <r>   21.3739    0.0000 </r>
       <r>   24.9790    0.0000 </r>
       <r>   26.5278    0.0000 </r>
       <r>   31.3919    0.0000 </r>
      </set>
      <set comment="kpoint 108">
       <r>    4.6175    1.0000 </r>
       <r>    5.4278    1.0000 </r>
       <r>   10.2902    0.0173 </r>
       <r>   12.1872    0.0000 </r>
       <r>   21.8436    0.0000 </r>
       <r>   24.8241    0.0000 </r>
       <r>   28.2277    0.0000 </r>
       <r>   29.4910    0.0000 </r>
      </set>
      <set comment="kpoint 109">
       <r>    2.9979    1.0000 </r>
       <r>    7.3184    1.0000 </r>
       <r>    9.9082    1.0000 </r>
       <r>   12.9130    0.0000 </r>
       <r>   22.4704    0.0000 </r>
       <r>   24.4567    0.0000 </r>
       <r>   26.6810    0.0000 </r>
       <r>   30.9651    0.0000 </r>
      </set>
      <set comment="kpoint 110">
       <r>    1.5375    1.0000 </r>
       <r>    9.1657    1.0000 </r>
       <r>   10.0794    0.9999 </r>
       <r>   13.8843    0.0000 </r>
       <r>   23.0923    0.0000 </r>
       <r>   23.7350    0.0000 </r>
       <r>   25.1809    0.0000 </r>
       <r>   32.1537    0.0000 </r>
      </set>
      <set comment="kpoint 111">
       <r>    2.5427    1.0000 </r>
       <r>    9.8829    1.0000 </r>
       <r>   10.1368    0.9871 </r>
       <r>   11.2119    0.0000 </r>
       <r>   19.9555    0.0000 </r>
       <r>   21.1280    0.0000 </r>
       <r>   29.0278    0.0000 </r>
       <r>   34.1595    0.0000 </r>
      </set>
      <set comment="kpoint 112">
       <r>    3.9882    1.0000 </r>
       <r>    8.2196    1.0000 </r>
       <r>    9.0621    1.0000 </r>
       <r>   10.9672    0.0000 </r>
       <r>   20.6157    0.0000 </r>
       <r>   23.0212    0.0000 </r>
       <r>   28.2467    0.0000 </r>
       <r>   32.1170    0.0000 </r>
      </set>
      <set comment="kpoint 113">
       <r>    5.5930    1.0000 </r>
       <r>    6.3521    1.0000 </r>
       <r>    8.3238    1.0000 </r>
       <r>   11.3430    0.0000 </r>
       <r>   21.0947    0.0000 </r>
       <r>   25.3783    0.0000 </r>
       <r>   27.6386    0.0000 </r>
       <r>   29.7538    0.0000 </r>
      </set>
      <set comment="kpoint 114">
       <r>    4.5214    1.0000 </r>
       <r>    7.2171    1.0000 </r>
       <r>    8.1716    1.0000 </r>
       <r>   12.0032    0.0000 </r>
       <r>   21.7270    0.0000 </r>
       <r>   26.5747    0.0000 </r>
       <r>   26.7565    0.0000 </r>
       <r>   29.0650    0.0000 </r>
      </set>
      <set comment="kpoint 115">
       <r>    4.6645    1.0000 </r>
       <r>    7.2711    1.0000 </r>
       <r>    9.8126    1.0000 </r>
       <r>   10.7929    0.0000 </r>
       <r>   19.6273    0.0000 </r>
       <r>   20.8508    0.0000 </r>
       <r>   30.8423    0.0000 </r>
       <r>   32.7307    0.0000 </r>
      </set>
      <set comment="kpoint 116">
       <r>    5.9135    1.0000 </r>
       <r>    6.7202    1.0000 </r>
       <r>    8.2083    1.0000 </r>
       <r>   10.7791    0.0000 </r>
       <r>   20.4686    0.0000 </r>
       <r>   22.9053    0.0000 </r>
       <r>   29.8994    0.0000 </r>
       <r>   30.4612    0.0000 </r>
      </set>
      <set comment="kpoint 117">
       <r>    3.3727    1.0000 </r>
       <r>    8.5175    1.0000 </r>
       <r>    9.3617    1.0000 </r>
       <r>   10.9913    0.0000 </r>
       <r>   23.1347    0.0000 </r>
       <r>   23.5030    0.0000 </r>
       <r>   25.9159    0.0000 </r>
       <r>   31.6032    0.0000 </r>
      </set>
      <set comment="kpoint 118">
       <r>    4.9618    1.0000 </r>
       <r>    6.8313    1.0000 </r>
       <r>    9.2853    1.0000 </r>
       <r>   10.2375    0.2668 </r>
       <r>   23.4738    0.0000 </r>
       <r>   24.6218    0.0000 </r>
       <r>   26.3702    0.0000 </r>
       <r>   29.3208    0.0000 </r>
      </set>
      <set comment="kpoint 119">
       <r>    5.4784    1.0000 </r>
       <r>    7.9634    1.0000 </r>
       <r>    8.1927    1.0000 </r>
       <r>    9.3787    1.0000 </r>
       <r>   22.8284    0.0000 </r>
       <r>   23.4758    0.0000 </r>
       <r>   27.4771    0.0000 </r>
       <r>   29.7192    0.0000 </r>
      </set>
      <set comment="kpoint 120">
       <r>    6.5657    1.0000 </r>
       <r>    6.8917    1.0000 </r>
       <r>    7.7926    1.0000 </r>
       <r>    9.4529    1.0000 </r>
       <r>   23.5575    0.0000 </r>
       <r>   25.4152    0.0000 </r>
       <r>   26.2923    0.0000 </r>
       <r>   28.1460    0.0000 </r>
      </set>
     </set>
    </set>
   </array>
  </eigenvalues>
  <separator name="orbital magnetization" >
   <v name="MAGDIPOLOUT">      0.00000000      0.00000000      0.00000000</v>
  </separator>
  <dos>
   <i name="efermi">     10.21552108 </i>
   <total>
    <array>
     <dimension dim="1">gridpoints</dimension>
     <dimension dim="2">spin</dimension>
     <field>energy</field>
     <field>total</field>
     <field>integrated</field>
     <set>
      <set comment="spin 1">
       <r>    -6.3196     0.0000     0.0000 </r>
       <r>    -6.1690     0.0000     0.0000 </r>
       <r>    -6.0184     0.0000     0.0000 </r>
       <r>    -5.8677     0.0000     0.0000 </r>
       <r>    -5.7171     0.0000     0.0000 </r>
       <r>    -5.5665     0.0000     0.0000 </r>
       <r>    -5.4159     0.0000     0.0000 </r>
       <r>    -5.2652     0.0000     0.0000 </r>
       <r>    -5.1146     0.0000     0.0000 </r>
       <r>    -4.9640     0.0000     0.0000 </r>
       <r>    -4.8134     0.0000     0.0000 </r>
       <r>    -4.6627     0.0000     0.0000 </r>
       <r>    -4.5121     0.0000     0.0000 </r>
       <r>    -4.3615     0.0000     0.0000 </r>
       <r>    -4.2109     0.0042     0.0006 </r>
       <r>    -4.0602     0.0499     0.0082 </r>
       <r>    -3.9096     0.0336     0.0132 </r>
       <r>    -3.7590     0.1060     0.0292 </r>
       <r>    -3.6083     0.0422     0.0355 </r>
       <r>    -3.4577     0.0582     0.0443 </r>
       <r>    -3.3071     0.1513     0.0671 </r>
       <r>    -3.1565     0.0984     0.0819 </r>
       <r>    -3.0058     0.1205     0.1001 </r>
       <r>    -2.8552     0.0386     0.1059 </r>
       <r>    -2.7046     0.2536     0.1441 </r>
       <r>    -2.5540     0.0957     0.1585 </r>
       <r>    -2.4033     0.1336     0.1786 </r>
       <r>    -2.2527     0.1183     0.1964 </r>
       <r>    -2.1021     0.0640     0.2061 </r>
       <r>    -1.9515     0.2477     0.2434 </r>
       <r>    -1.8008     0.1834     0.2710 </r>
       <r>    -1.6502     0.2855     0.3140 </r>
       <r>    -1.4996     0.0193     0.3169 </r>
       <r>    -1.3490     0.1687     0.3423 </r>
       <r>    -1.1983     0.1546     0.3656 </r>
       <r>    -1.0477     0.2209     0.3989 </r>
       <r>    -0.8971     0.2067     0.4300 </r>
       <r>    -0.7464     0.1236     0.4486 </r>
       <r>    -0.5958     0.4337     0.5140 </r>
       <r>    -0.4452     0.0942     0.5282 </r>
       <r>    -0.2946     0.1904     0.5568 </r>
       <r>    -0.1439     0.0609     0.5660 </r>
       <r>     0.0067     0.3107     0.6128 </r>
       <r>     0.1573     0.1838     0.6405 </r>
       <r>     0.3079     0.3593     0.6946 </r>
       <r>     0.4586     0.2783     0.7366 </r>
       <r>     0.6092     0.0241     0.7402 </r>
       <r>     0.7598     0.4398     0.8064 </r>
       <r>     0.9104     0.1815     0.8338 </r>
       <r>     1.0611     0.2009     0.8640 </r>
       <r>     1.2117     0.0334     0.8691 </r>
       <r>     1.3623     0.4998     0.9443 </r>
       <r>     1.5129     0.2390     0.9803 </r>
       <r>     1.6636     0.3059     1.0264 </r>
       <r>     1.8142     0.3048     1.0723 </r>
       <r>     1.9648     0.1560     1.0958 </r>
       <r>     2.1155     0.2672     1.1361 </r>
       <r>     2.2661     0.3084     1.1825 </r>
       <r>     2.4167     0.3506     1.2353 </r>
       <r>     2.5673     0.0908     1.2490 </r>
       <r>     2.7180     0.3616     1.3035 </r>
       <r>     2.8686     0.2163     1.3360 </r>
       <r>     3.0192     0.5569     1.4199 </r>
       <r>     3.1698     0.1171     1.4376 </r>
       <r>     3.3205     0.4457     1.5047 </r>
       <r>     3.4711     0.3250     1.5536 </r>
       <r>     3.6217     0.2626     1.5932 </r>
       <r>     3.7723     0.0899     1.6067 </r>
       <r>     3.9230     0.1425     1.6282 </r>
       <r>     4.0736     0.3779     1.6851 </r>
       <r>     4.2242     0.3283     1.7346 </r>
       <r>     4.3748     0.7318     1.8448 </r>
       <r>     4.5255     0.0756     1.8562 </r>
       <r>     4.6761     0.2901     1.8999 </r>
       <r>     4.8267     0.3849     1.9579 </r>
       <r>     4.9774     0.4578     2.0268 </r>
       <r>     5.1280     0.2521     2.0648 </r>
       <r>     5.2786     0.2855     2.1078 </r>
       <r>     5.4292     0.4590     2.1769 </r>
       <r>     5.5799     0.3124     2.2240 </r>
       <r>     5.7305     0.1836     2.2516 </r>
       <r>     5.8811     0.1337     2.2718 </r>
       <r>     6.0317     0.3739     2.3281 </r>
       <r>     6.1824     0.4843     2.4010 </r>
       <r>     6.3330     0.5089     2.4777 </r>
       <r>     6.4836     0.3857     2.5358 </r>
       <r>     6.6342     0.1429     2.5573 </r>
       <r>     6.7849     0.4876     2.6308 </r>
       <r>     6.9355     0.4915     2.7048 </r>
       <r>     7.0861     0.3626     2.7594 </r>
       <r>     7.2367     0.1703     2.7851 </r>
       <r>     7.3874     0.7556     2.8989 </r>
       <r>     7.5380     0.1252     2.9177 </r>
       <r>     7.6886     0.1557     2.9412 </r>
       <r>     7.8393     0.1385     2.9621 </r>
       <r>     7.9899     0.4037     3.0229 </r>
       <r>     8.1405     0.5071     3.0992 </r>
       <r>     8.2911     0.8711     3.2305 </r>
       <r>     8.4418     0.5057     3.3066 </r>
       <r>     8.5924     0.1778     3.3334 </r>
       <r>     8.7430     0.2381     3.3693 </r>
       <r>     8.8936     0.5835     3.4572 </r>
       <r>     9.0443     0.2271     3.4914 </r>
       <r>     9.1949     0.2097     3.5230 </r>
       <r>     9.3455     0.5544     3.6065 </r>
       <r>     9.4961     0.4556     3.6751 </r>
       <r>     9.6468     0.5079     3.7516 </r>
       <r>     9.7974     0.0923     3.7655 </r>
       <r>     9.9480     0.6489     3.8633 </r>
       <r>    10.0986     0.3879     3.9217 </r>
       <r>    10.2493     0.6716     4.0228 </r>
       <r>    10.3999     0.3737     4.0791 </r>
       <r>    10.5505     0.2635     4.1188 </r>
       <r>    10.7012     0.1923     4.1478 </r>
       <r>    10.8518     0.7209     4.2564 </r>
       <r>    11.0024     0.6484     4.3541 </r>
       <r>    11.1530     0.2408     4.3903 </r>
       <r>    11.3037     0.5851     4.4785 </r>
       <r>    11.4543     0.5067     4.5548 </r>
       <r>    11.6049     0.2629     4.5944 </r>
       <r>    11.7555     0.2284     4.6288 </r>
       <r>    11.9062     0.5167     4.7066 </r>
       <r>    12.0568     0.2875     4.7499 </r>
       <r>    12.2074     1.0083     4.9018 </r>
       <r>    12.3580     0.3154     4.9493 </r>
       <r>    12.5087     0.6722     5.0505 </r>
       <r>    12.6593     0.3574     5.1044 </r>
       <r>    12.8099     0.4898     5.1781 </r>
       <r>    12.9605     0.3296     5.2278 </r>
       <r>    13.1112     0.6783     5.3300 </r>
       <r>    13.2618     0.6348     5.4256 </r>
       <r>    13.4124     0.5151     5.5032 </r>
       <r>    13.5631     0.3728     5.5593 </r>
       <r>    13.7137     0.5775     5.6463 </r>
       <r>    13.8643     0.5414     5.7279 </r>
       <r>    14.0149     0.5331     5.8082 </r>
       <r>    14.1656     0.6727     5.9095 </r>
       <r>    14.3162     0.3578     5.9634 </r>
       <r>    14.4668     0.5093     6.0401 </r>
       <r>    14.6174     0.7281     6.1498 </r>
       <r>    14.7681     0.6118     6.2419 </r>
       <r>    14.9187     0.3764     6.2986 </r>
       <r>    15.0693     0.4776     6.3705 </r>
       <r>    15.2199     0.3476     6.4229 </r>
       <r>    15.3706     0.1505     6.4456 </r>
       <r>    15.5212     0.6677     6.5461 </r>
       <r>    15.6718     0.4705     6.6170 </r>
       <r>    15.8224     0.7565     6.7310 </r>
       <r>    15.9731     0.5948     6.8206 </r>
       <r>    16.1237     0.2475     6.8578 </r>
       <r>    16.2743     0.5632     6.9427 </r>
       <r>    16.4250     0.2149     6.9750 </r>
       <r>    16.5756     0.6150     7.0677 </r>
       <r>    16.7262     0.2630     7.1073 </r>
       <r>    16.8768     0.5324     7.1875 </r>
       <r>    17.0275     0.4617     7.2570 </r>
       <r>    17.1781     0.6680     7.3577 </r>
       <r>    17.3287     0.4673     7.4280 </r>
       <r>    17.4793     0.3104     7.4748 </r>
       <r>    17.6300     0.6019     7.5655 </r>
       <r>    17.7806     0.6026     7.6562 </r>
       <r>    17.9312     0.3270     7.7055 </r>
       <r>    18.0818     0.1968     7.7351 </r>
       <r>    18.2325     1.0121     7.8876 </r>
       <r>    18.3831     0.7365     7.9985 </r>
       <r>    18.5337     0.5033     8.0743 </r>
       <r>    18.6843     0.2815     8.1167 </r>
       <r>    18.8350     0.5994     8.2070 </r>
       <r>    18.9856     0.4820     8.2796 </r>
       <r>    19.1362     0.4831     8.3524 </r>
       <r>    19.2869     0.5128     8.4296 </r>
       <r>    19.4375     0.9641     8.5748 </r>
       <r>    19.5881     0.2332     8.6099 </r>
       <r>    19.7387     0.2503     8.6476 </r>
       <r>    19.8894     0.3266     8.6968 </r>
       <r>    20.0400     0.6084     8.7885 </r>
       <r>    20.1906     0.7751     8.9052 </r>
       <r>    20.3412     0.7476     9.0178 </r>
       <r>    20.4919     0.7240     9.1269 </r>
       <r>    20.6425     0.5574     9.2108 </r>
       <r>    20.7931     0.4495     9.2785 </r>
       <r>    20.9437     0.3458     9.3306 </r>
       <r>    21.0944     0.7841     9.4487 </r>
       <r>    21.2450     0.8509     9.5769 </r>
       <r>    21.3956     0.4750     9.6485 </r>
       <r>    21.5462     0.7677     9.7641 </r>
       <r>    21.6969     0.2242     9.7979 </r>
       <r>    21.8475     0.7108     9.9049 </r>
       <r>    21.9981     0.8189    10.0283 </r>
       <r>    22.1488     0.3440    10.0801 </r>
       <r>    22.2994     0.2284    10.1145 </r>
       <r>    22.4500     0.4557    10.1831 </r>
       <r>    22.6006     0.7588    10.2974 </r>
       <r>    22.7513     0.6079    10.3890 </r>
       <r>    22.9019     0.3246    10.4379 </r>
       <r>    23.0525     0.5256    10.5171 </r>
       <r>    23.2031     0.6879    10.6207 </r>
       <r>    23.3538     0.7638    10.7357 </r>
       <r>    23.5044     1.0289    10.8907 </r>
       <r>    23.6550     0.7714    11.0069 </r>
       <r>    23.8056     0.8778    11.1391 </r>
       <r>    23.9563     0.3888    11.1977 </r>
       <r>    24.1069     0.4120    11.2597 </r>
       <r>    24.2575     0.6167    11.3526 </r>
       <r>    24.4081     0.2026    11.3831 </r>
       <r>    24.5588     0.9585    11.5275 </r>
       <r>    24.7094     0.6222    11.6212 </r>
       <r>    24.8600     0.4831    11.6940 </r>
       <r>    25.0107     0.4863    11.7672 </r>
       <r>    25.1613     0.2892    11.8108 </r>
       <r>    25.3119     0.9177    11.9490 </r>
       <r>    25.4625     1.4014    12.1601 </r>
       <r>    25.6132     0.5662    12.2454 </r>
       <r>    25.7638     0.4417    12.3119 </r>
       <r>    25.9144     0.5403    12.3933 </r>
       <r>    26.0650     0.8231    12.5173 </r>
       <r>    26.2157     0.6173    12.6103 </r>
       <r>    26.3663     0.5933    12.6997 </r>
       <r>    26.5169     0.5140    12.7771 </r>
       <r>    26.6675     0.9077    12.9138 </r>
       <r>    26.8182     0.6407    13.0103 </r>
       <r>    26.9688     0.1428    13.0318 </r>
       <r>    27.1194     0.5194    13.1100 </r>
       <r>    27.2700     0.4308    13.1749 </r>
       <r>    27.4207     0.9012    13.3107 </r>
       <r>    27.5713     0.6473    13.4082 </r>
       <r>    27.7219     1.0171    13.5614 </r>
       <r>    27.8726     0.6675    13.6619 </r>
       <r>    28.0232     0.1822    13.6894 </r>
       <r>    28.1738     0.4220    13.7529 </r>
       <r>    28.3244     0.8367    13.8790 </r>
       <r>    28.4751     0.8077    14.0006 </r>
       <r>    28.6257     0.2957    14.0452 </r>
       <r>    28.7763     0.1683    14.0705 </r>
       <r>    28.9269     0.2083    14.1019 </r>
       <r>    29.0776     0.8556    14.2308 </r>
       <r>    29.2282     0.4933    14.3051 </r>
       <r>    29.3788     0.4831    14.3778 </r>
       <r>    29.5294     0.4040    14.4387 </r>
       <r>    29.6801     0.1552    14.4621 </r>
       <r>    29.8307     1.0263    14.6166 </r>
       <r>    29.9813     0.8607    14.7463 </r>
       <r>    30.1319     0.5875    14.8348 </r>
       <r>    30.2826     0.5456    14.9170 </r>
       <r>    30.4332     0.2552    14.9554 </r>
       <r>    30.5838     0.2929    14.9995 </r>
       <r>    30.7345     0.2944    15.0439 </r>
       <r>    30.8851     0.6103    15.1358 </r>
       <r>    31.0357     0.3430    15.1875 </r>
       <r>    31.1863     0.2739    15.2287 </r>
       <r>    31.3370     0.3214    15.2771 </r>
       <r>    31.4876     0.5515    15.3602 </r>
       <r>    31.6382     0.4013    15.4206 </r>
       <r>    31.7888     0.2959    15.4652 </r>
       <r>    31.9395     0.0096    15.4667 </r>
       <r>    32.0901     0.1474    15.4889 </r>
       <r>    32.2407     0.4718    15.5599 </r>
       <r>    32.3913     0.1084    15.5763 </r>
       <r>    32.5420     0.0844    15.5890 </r>
       <r>    32.6926     0.1918    15.6179 </r>
       <r>    32.8432     0.0960    15.6323 </r>
       <r>    32.9939     0.3168    15.6800 </r>
       <r>    33.1445     0.2702    15.7207 </r>
       <r>    33.2951     0.1770    15.7474 </r>
       <r>    33.4457     0.0961    15.7619 </r>
       <r>    33.5964     0.1386    15.7827 </r>
       <r>    33.7470     0.2145    15.8151 </r>
       <r>    33.8976     0.1244    15.8338 </r>
       <r>    34.0482     0.1723    15.8598 </r>
       <r>    34.1989     0.1692    15.8852 </r>
       <r>    34.3495     0.0301    15.8898 </r>
       <r>    34.5001     0.0113    15.8915 </r>
       <r>    34.6507     0.1769    15.9181 </r>
       <r>    34.8014     0.0034    15.9186 </r>
       <r>    34.9520     0.0443    15.9253 </r>
       <r>    35.1026     0.0598    15.9343 </r>
       <r>    35.2532     0.0560    15.9427 </r>
       <r>    35.4039     0.0892    15.9562 </r>
       <r>    35.5545     0.1254    15.9751 </r>
       <r>    35.7051     0.0041    15.9757 </r>
       <r>    35.8558     0.0900    15.9892 </r>
       <r>    36.0064     0.0006    15.9893 </r>
       <r>    36.1570     0.0000    15.9893 </r>
       <r>    36.3076     0.0000    15.9893 </r>
       <r>    36.4583     0.0050    15.9901 </r>
       <r>    36.6089     0.0422    15.9964 </r>
       <r>    36.7595     0.0015    15.9967 </r>
       <r>    36.9101     0.0221    16.0000 </r>
       <r>    37.0608     0.0001    16.0000 </r>
       <r>    37.2114     0.0000    16.0000 </r>
       <r>    37.3620     0.0000    16.0000 </r>
       <r>    37.5126     0.0000    16.0000 </r>
       <r>    37.6633     0.0000    16.0000 </r>
       <r>    37.8139     0.0000    16.0000 </r>
       <r>    37.9645     0.0000    16.0000 </r>
       <r>    38.1151     0.0000    16.0000 </r>
       <r>    38.2658     0.0000    16.0000 </r>
       <r>    38.4164     0.0000    16.0000 </r>
       <r>    38.5670     0.0000    16.0000 </r>
       <r>    38.7177     0.0000    16.0000 </r>
       <r>    38.8683     0.0000    16.0000 </r>
      </set>
     </set>
    </array>
   </total>
  </dos>
 </calculation>
 <structure name="finalpos" >
  <crystal>
   <varray name="basis" >
    <v>       2.36533914      -0.00000000       1.36562804 </v>
    <v>       0.78844638       2.23006290       1.36562804 </v>
    <v>      -0.00000001      -0.00000001       2.73125811 </v>
   </varray>
   <i name="volume">     14.40699071 </i>
   <varray name="rec_basis" >
    <v>       0.42277235      -0.14947262       0.00000000 </v>
    <v>       0.00000000       0.44841785       0.00000000 </v>
    <v>      -0.21138602      -0.14947250       0.36613163 </v>
   </varray>
  </crystal>
  <varray name="positions" >
   <v>       0.00000000      -0.00000000       0.00000000 </v>
  </varray>
 </structure>
</modeling>
