unknown system                          
           1
     2.347395    0.000000    1.355268
     0.782465    2.213145    1.355268
     0.000000    0.000000    2.710538
   Si
     1
Direct configuration=     1
   0.00000000  0.00000000  0.00000000
unknown system                          
           1
     2.366865   -0.000000    1.366509
     0.788955    2.231502    1.366509
    -0.000000   -0.000000    2.733020
   Si
     1
Direct configuration=     2
   0.00000000  0.00000000  0.00000000
unknown system                          
           1
     2.365339   -0.000000    1.365628
     0.788446    2.230063    1.365628
    -0.000000   -0.000000    2.731258
   Si
     1
Direct configuration=     3
   0.00000000 -0.00000000  0.00000000
