   1   1   0   0
  0.1365609E+02  0.2608051E-09  0.2608051E-09  0.2608051E-09  0.5000000E-15
  1.000000000000000E-004
  CAR 
 unknown system                          
     38.00429964     -6.03896377  301     10.81726094      1.00000000
     -6.039  0.0000E+00  0.0000E+00
     -5.892  0.0000E+00  0.0000E+00
     -5.745  0.0000E+00  0.0000E+00
     -5.599  0.0000E+00  0.0000E+00
     -5.452  0.0000E+00  0.0000E+00
     -5.305  0.0000E+00  0.0000E+00
     -5.158  0.0000E+00  0.0000E+00
     -5.011  0.0000E+00  0.0000E+00
     -4.864  0.0000E+00  0.0000E+00
     -4.718  0.0000E+00  0.0000E+00
     -4.571  0.0000E+00  0.0000E+00
     -4.424  0.0000E+00  0.0000E+00
     -4.277  0.5547E-15  0.8143E-16
     -4.130  0.4212E-06  0.6184E-07
     -3.984  0.9522E-04  0.1404E-04
     -3.837  0.4748E-04  0.2101E-04
     -3.690  0.1175E-02  0.1935E-03
     -3.543  0.1070E-03  0.2092E-03
     -3.396  0.5192E-03  0.2854E-03
     -3.250  0.1040E-02  0.4381E-03
     -3.103  0.1418E-02  0.6462E-03
     -2.956  0.9078E-03  0.7794E-03
     -2.809  0.3296E-03  0.8278E-03
     -2.662  0.2278E-02  0.1162E-02
     -2.516  0.1977E-03  0.1191E-02
     -2.369  0.7823E-03  0.1306E-02
     -2.222  0.8503E-03  0.1431E-02
     -2.075  0.4067E-02  0.2028E-02
     -1.928  0.2913E-03  0.2071E-02
     -1.781  0.3276E-03  0.2119E-02
     -1.635  0.2909E-02  0.2546E-02
     -1.488  0.7915E-03  0.2662E-02
     -1.341  0.2329E-02  0.3004E-02
     -1.194  0.2577E-03  0.3042E-02
     -1.047  0.2297E-02  0.3379E-02
     -0.901  0.6503E-03  0.3475E-02
     -0.754  0.1817E-02  0.3742E-02
     -0.607  0.4492E-02  0.4401E-02
     -0.460  0.2878E-02  0.4823E-02
     -0.313  0.3464E-07  0.4823E-02
     -0.167  0.1103E-03  0.4840E-02
     -0.020  0.4724E-02  0.5533E-02
      0.127  0.2572E-03  0.5571E-02
      0.274  0.1048E-02  0.5725E-02
      0.421  0.2255E-02  0.6056E-02
      0.568  0.2660E-02  0.6446E-02
      0.714  0.2473E-02  0.6810E-02
      0.861  0.6730E-03  0.6908E-02
      1.008  0.7052E-02  0.7944E-02
      1.155  0.4737E-03  0.8013E-02
      1.302  0.2218E-02  0.8339E-02
      1.448  0.1834E-02  0.8608E-02
      1.595  0.3085E-02  0.9061E-02
      1.742  0.1849E-02  0.9332E-02
      1.889  0.6418E-03  0.9427E-02
      2.036  0.4660E-02  0.1011E-01
      2.182  0.2747E-03  0.1015E-01
      2.329  0.7591E-03  0.1026E-01
      2.476  0.2946E-02  0.1070E-01
      2.623  0.5654E-02  0.1153E-01
      2.770  0.1834E-02  0.1179E-01
      2.916  0.6946E-03  0.1190E-01
      3.063  0.9323E-02  0.1327E-01
      3.210  0.8217E-03  0.1339E-01
      3.357  0.4507E-02  0.1405E-01
      3.504  0.9879E-03  0.1419E-01
      3.651  0.1483E-02  0.1441E-01
      3.797  0.1269E-06  0.1441E-01
      3.944  0.7826E-03  0.1453E-01
      4.091  0.7650E-02  0.1565E-01
      4.238  0.1495E-02  0.1587E-01
      4.385  0.5206E-03  0.1594E-01
      4.531  0.4773E-02  0.1664E-01
      4.678  0.5037E-02  0.1738E-01
      4.825  0.4226E-02  0.1800E-01
      4.972  0.1246E-02  0.1819E-01
      5.119  0.3734E-02  0.1874E-01
      5.265  0.1478E-02  0.1895E-01
      5.412  0.2852E-02  0.1937E-01
      5.559  0.7137E-02  0.2042E-01
      5.706  0.5131E-02  0.2117E-01
      5.853  0.2212E-02  0.2150E-01
      6.000  0.4913E-03  0.2157E-01
      6.146  0.4634E-02  0.2225E-01
      6.293  0.1075E-02  0.2241E-01
      6.440  0.1478E-02  0.2262E-01
      6.587  0.4031E-02  0.2322E-01
      6.734  0.9295E-03  0.2335E-01
      6.880  0.4724E-02  0.2405E-01
      7.027  0.3866E-02  0.2461E-01
      7.174  0.8451E-02  0.2585E-01
      7.321  0.1263E-02  0.2604E-01
      7.468  0.1409E-02  0.2625E-01
      7.614  0.1102E-01  0.2786E-01
      7.761  0.1088E-02  0.2802E-01
      7.908  0.4428E-05  0.2802E-01
      8.055  0.5378E-02  0.2881E-01
      8.202  0.4446E-02  0.2947E-01
      8.349  0.2119E-02  0.2978E-01
      8.495  0.1665E-02  0.3002E-01
      8.642  0.9711E-02  0.3145E-01
      8.789  0.1467E-02  0.3166E-01
      8.936  0.3257E-02  0.3214E-01
      9.083  0.2639E-02  0.3253E-01
      9.229  0.3106E-02  0.3299E-01
      9.376  0.4811E-02  0.3369E-01
      9.523  0.4052E-02  0.3429E-01
      9.670  0.4990E-02  0.3502E-01
      9.817  0.1304E-02  0.3521E-01
      9.963  0.5797E-02  0.3606E-01
     10.110  0.8102E-02  0.3725E-01
     10.257  0.1224E-02  0.3743E-01
     10.404  0.3448E-03  0.3748E-01
     10.551  0.6658E-02  0.3846E-01
     10.697  0.6435E-02  0.3940E-01
     10.844  0.5213E-02  0.4017E-01
     10.991  0.6899E-02  0.4118E-01
     11.138  0.5968E-02  0.4206E-01
     11.285  0.1649E-02  0.4230E-01
     11.432  0.1836E-02  0.4257E-01
     11.578  0.8031E-02  0.4375E-01
     11.725  0.1187E-02  0.4392E-01
     11.872  0.5172E-02  0.4468E-01
     12.019  0.6536E-02  0.4564E-01
     12.166  0.5974E-03  0.4573E-01
     12.312  0.2147E-02  0.4604E-01
     12.459  0.2856E-02  0.4646E-01
     12.606  0.3051E-02  0.4691E-01
     12.753  0.2699E-02  0.4731E-01
     12.900  0.7268E-02  0.4838E-01
     13.046  0.6381E-02  0.4931E-01
     13.193  0.2939E-02  0.4974E-01
     13.340  0.5729E-02  0.5058E-01
     13.487  0.4346E-02  0.5122E-01
     13.634  0.7991E-02  0.5240E-01
     13.781  0.3998E-02  0.5298E-01
     13.927  0.1470E-02  0.5320E-01
     14.074  0.1004E-02  0.5335E-01
     14.221  0.5177E-02  0.5411E-01
     14.368  0.4352E-02  0.5474E-01
     14.515  0.3679E-02  0.5528E-01
     14.661  0.6376E-02  0.5622E-01
     14.808  0.7791E-02  0.5736E-01
     14.955  0.4106E-02  0.5797E-01
     15.102  0.6087E-02  0.5886E-01
     15.249  0.6513E-02  0.5982E-01
     15.395  0.4258E-03  0.5988E-01
     15.542  0.2141E-02  0.6019E-01
     15.689  0.8850E-02  0.6149E-01
     15.836  0.4292E-02  0.6212E-01
     15.983  0.7610E-03  0.6224E-01
     16.129  0.4496E-02  0.6290E-01
     16.276  0.2775E-02  0.6330E-01
     16.423  0.5833E-02  0.6416E-01
     16.570  0.6856E-02  0.6517E-01
     16.717  0.3614E-02  0.6570E-01
     16.864  0.1127E-01  0.6735E-01
     17.010  0.3172E-02  0.6782E-01
     17.157  0.5591E-02  0.6864E-01
     17.304  0.5964E-02  0.6951E-01
     17.451  0.4229E-02  0.7013E-01
     17.598  0.6622E-02  0.7111E-01
     17.744  0.1919E-02  0.7139E-01
     17.891  0.4916E-02  0.7211E-01
     18.038  0.4071E-02  0.7271E-01
     18.185  0.6733E-02  0.7370E-01
     18.332  0.8683E-02  0.7497E-01
     18.478  0.5458E-02  0.7577E-01
     18.625  0.9441E-02  0.7716E-01
     18.772  0.4501E-02  0.7782E-01
     18.919  0.1898E-04  0.7782E-01
     19.066  0.9742E-03  0.7796E-01
     19.213  0.7370E-02  0.7905E-01
     19.359  0.1166E-01  0.8076E-01
     19.506  0.7949E-02  0.8193E-01
     19.653  0.7433E-02  0.8302E-01
     19.800  0.5172E-03  0.8309E-01
     19.947  0.3592E-02  0.8362E-01
     20.093  0.1229E-02  0.8380E-01
     20.240  0.8770E-03  0.8393E-01
     20.387  0.2424E-02  0.8428E-01
     20.534  0.2807E-02  0.8470E-01
     20.681  0.1969E-02  0.8499E-01
     20.827  0.5928E-02  0.8586E-01
     20.974  0.4443E-02  0.8651E-01
     21.121  0.7692E-02  0.8764E-01
     21.268  0.1469E-01  0.8980E-01
     21.415  0.1323E-01  0.9174E-01
     21.561  0.2447E-02  0.9210E-01
     21.708  0.3828E-02  0.9266E-01
     21.855  0.5223E-02  0.9343E-01
     22.002  0.1017E-02  0.9357E-01
     22.149  0.5478E-02  0.9438E-01
     22.296  0.1723E-02  0.9463E-01
     22.442  0.3767E-02  0.9519E-01
     22.589  0.6783E-02  0.9618E-01
     22.736  0.9610E-02  0.9759E-01
     22.883  0.9732E-02  0.9902E-01
     23.030  0.3565E-02  0.9954E-01
     23.176  0.5251E-02  0.1003E+00
     23.323  0.4914E-02  0.1010E+00
     23.470  0.1115E-01  0.1027E+00
     23.617  0.7745E-02  0.1038E+00
     23.764  0.4450E-02  0.1045E+00
     23.910  0.4729E-02  0.1052E+00
     24.057  0.7724E-02  0.1063E+00
     24.204  0.3646E-02  0.1068E+00
     24.351  0.4750E-02  0.1075E+00
     24.498  0.6337E-02  0.1085E+00
     24.645  0.8102E-02  0.1096E+00
     24.791  0.5173E-02  0.1104E+00
     24.938  0.1029E-01  0.1119E+00
     25.085  0.2783E-02  0.1123E+00
     25.232  0.9311E-02  0.1137E+00
     25.379  0.8520E-02  0.1149E+00
     25.525  0.2222E-02  0.1153E+00
     25.672  0.9610E-03  0.1154E+00
     25.819  0.6489E-02  0.1164E+00
     25.966  0.5808E-02  0.1172E+00
     26.113  0.4825E-02  0.1179E+00
     26.259  0.6297E-02  0.1188E+00
     26.406  0.1809E-02  0.1191E+00
     26.553  0.8469E-02  0.1204E+00
     26.700  0.1450E-01  0.1225E+00
     26.847  0.1000E-02  0.1226E+00
     26.993  0.4430E-02  0.1233E+00
     27.140  0.8317E-03  0.1234E+00
     27.287  0.1715E-02  0.1237E+00
     27.434  0.6393E-02  0.1246E+00
     27.581  0.1306E-01  0.1265E+00
     27.728  0.7763E-02  0.1277E+00
     27.874  0.2511E-02  0.1280E+00
     28.021  0.9066E-02  0.1294E+00
     28.168  0.6499E-02  0.1303E+00
     28.315  0.3318E-02  0.1308E+00
     28.462  0.6700E-02  0.1318E+00
     28.608  0.9838E-02  0.1332E+00
     28.755  0.6737E-02  0.1342E+00
     28.902  0.7639E-02  0.1353E+00
     29.049  0.5253E-02  0.1361E+00
     29.196  0.6141E-02  0.1370E+00
     29.342  0.7981E-02  0.1382E+00
     29.489  0.5276E-02  0.1389E+00
     29.636  0.2758E-02  0.1394E+00
     29.783  0.1752E-04  0.1394E+00
     29.930  0.6507E-02  0.1403E+00
     30.077  0.2757E-02  0.1407E+00
     30.223  0.5364E-02  0.1415E+00
     30.370  0.7008E-02  0.1425E+00
     30.517  0.2582E-02  0.1429E+00
     30.664  0.7037E-02  0.1439E+00
     30.811  0.1829E-01  0.1466E+00
     30.957  0.1160E-01  0.1483E+00
     31.104  0.2691E-02  0.1487E+00
     31.251  0.5513E-02  0.1495E+00
     31.398  0.2545E-02  0.1499E+00
     31.545  0.1229E-01  0.1517E+00
     31.691  0.3626E-02  0.1522E+00
     31.838  0.6887E-02  0.1533E+00
     31.985  0.1806E-02  0.1535E+00
     32.132  0.3380E-02  0.1540E+00
     32.279  0.6363E-02  0.1550E+00
     32.425  0.8287E-02  0.1562E+00
     32.572  0.4371E-02  0.1568E+00
     32.719  0.2478E-02  0.1572E+00
     32.866  0.2554E-02  0.1576E+00
     33.013  0.1272E-02  0.1577E+00
     33.160  0.4246E-02  0.1584E+00
     33.306  0.1037E-03  0.1584E+00
     33.453  0.1314E-10  0.1584E+00
     33.600  0.1886E-03  0.1584E+00
     33.747  0.5305E-02  0.1592E+00
     33.894  0.1876E-02  0.1595E+00
     34.040  0.6949E-03  0.1596E+00
     34.187  0.1238E-03  0.1596E+00
     34.334  0.8899E-10  0.1596E+00
     34.481  0.8504E-09  0.1596E+00
     34.628  0.2264E-03  0.1596E+00
     34.774  0.5923E-03  0.1597E+00
     34.921  0.1523E-06  0.1597E+00
     35.068  0.0000E+00  0.1597E+00
     35.215  0.0000E+00  0.1597E+00
     35.362  0.8698E-09  0.1597E+00
     35.509  0.1830E-03  0.1597E+00
     35.655  0.4310E-03  0.1598E+00
     35.802  0.2816E-03  0.1598E+00
     35.949  0.3862E-03  0.1599E+00
     36.096  0.7618E-03  0.1600E+00
     36.243  0.3370E-05  0.1600E+00
     36.389  0.4437E-14  0.1600E+00
     36.536  0.0000E+00  0.1600E+00
     36.683  0.0000E+00  0.1600E+00
     36.830  0.0000E+00  0.1600E+00
     36.977  0.0000E+00  0.1600E+00
     37.123  0.0000E+00  0.1600E+00
     37.270  0.0000E+00  0.1600E+00
     37.417  0.0000E+00  0.1600E+00
     37.564  0.0000E+00  0.1600E+00
     37.711  0.0000E+00  0.1600E+00
     37.857  0.0000E+00  0.1600E+00
     38.004  0.0000E+00  0.1600E+00
