    1    1  100    1
  0.1365609E+02  0.2608051E-09  0.2608051E-09  0.2608051E-09  0.5000000E-15
  1.000000000000000E-004
  CAR 
 unknown system                          
      4     56      8
 
  0.0000000E+00  0.0000000E+00  0.0000000E+00  0.7513148E-03
    1       -4.036997   1.000000
    2       23.134202   0.000000
    3       23.134203   0.000000
    4       23.134203   0.000000
    5       23.695354   0.000000
    6       23.695355   0.000000
    7       23.695355   0.000000
    8       27.531003   0.000000
 
  0.9090909E-01  0.0000000E+00  0.0000000E+00  0.9015778E-02
    1       -3.771898   1.000000
    2       20.221092   0.000000
    3       21.178507   0.000000
    4       22.706770   0.000000
    5       22.874595   0.000000
    6       24.872268   0.000000
    7       26.091826   0.000000
    8       26.333343   0.000000
 
  0.1818182E+00  0.0000000E+00  0.0000000E+00  0.9015778E-02
    1       -2.978603   1.000000
    2       16.222458   0.000000
    3       19.413505   0.000000
    4       21.365019   0.000000
    5       21.702472   0.000000
    6       23.755364   0.000000
    7       27.250108   0.000000
    8       27.590020   0.000000
 
  0.2727273E+00  0.0000000E+00  0.0000000E+00  0.9015778E-02
    1       -1.663188   1.000000
    2       12.235134   0.000000
    3       18.091758   0.000000
    4       20.007586   0.000000
    5       20.653365   0.000000
    6       22.538335   0.000000
    7       28.482313   0.000000
    8       28.798205   0.000000
 
  0.3636364E+00  0.0000000E+00  0.0000000E+00  0.9015778E-02
    1        0.164373   1.000000
    2        8.561763   1.000000
    3       17.212873   0.000000
    4       19.046215   0.000000
    5       19.866247   0.000000
    6       21.673659   0.000000
    7       29.864158   0.000000
    8       30.592727   0.000000
 
  0.4545455E+00  0.0000000E+00  0.0000000E+00  0.9015778E-02
    1        2.489671   1.000000
    2        5.299869   1.000000
    3       16.774148   0.000000
    4       18.556084   0.000000
    5       19.454432   0.000000
    6       21.222184   0.000000
    7       31.439029   0.000000
    8       32.293498   0.000000
 
  0.9090909E-01  0.9090909E-01  0.0000000E+00  0.1803156E-01
    1       -3.242691   1.000000
    2       18.181699   0.000000
    3       18.566621   0.000000
    4       20.755411   0.000000
    5       23.531931   0.000000
    6       24.863843   0.000000
    7       26.087100   0.000000
    8       27.326318   0.000000
 
  0.1818182E+00  0.9090909E-01 -0.6938894E-17  0.3606311E-01
    1       -2.188351   1.000000
    2       14.367279   0.000000
    3       16.801165   0.000000
    4       19.332616   0.000000
    5       22.800198   0.000000
    6       24.351245   0.000000
    7       26.660287   0.000000
    8       29.210547   0.000000
 
  0.2727273E+00  0.9090909E-01 -0.2775558E-16  0.3606311E-01
    1       -0.616811   1.000000
    2       10.533320   1.000000
    3       15.641735   0.000000
    4       18.237748   0.000000
    5       21.819501   0.000000
    6       23.876243   0.000000
    7       27.580725   0.000000
    8       31.154036   0.000000
 
  0.3636364E+00  0.9090909E-01  0.0000000E+00  0.3606311E-01
    1        1.459920   1.000000
    2        7.063162   1.000000
    3       14.941281   0.000000
    4       17.560373   0.000000
    5       21.166655   0.000000
    6       23.429533   0.000000
    7       29.173915   0.000000
    8       32.306687   0.000000
 
  0.4545455E+00  0.9090909E-01  0.0000000E+00  0.1803156E-01
    1        3.963199   1.000000
    2        4.091662   1.000000
    3       14.706947   0.000000
    4       17.332201   0.000000
    5       20.942782   0.000000
    6       23.260296   0.000000
    7       30.865352   0.000000
    8       31.386007   0.000000
 
  0.1818182E+00  0.1818182E+00  0.0000000E+00  0.1803156E-01
    1       -0.877846   1.000000
    2       12.875877   0.000000
    3       13.008789   0.000000
    4       18.068676   0.000000
    5       23.528996   0.000000
    6       24.228417   0.000000
    7       28.478583   0.000000
    8       29.494159   0.000000
 
  0.2727273E+00  0.1818182E+00 -0.1387779E-16  0.3606311E-01
    1        0.942978   1.000000
    2        9.301669   1.000000
    3       11.976413   0.000000
    4       17.188791   0.000000
    5       23.072905   0.000000
    6       25.174187   0.000000
    7       28.602103   0.000000
    8       31.433175   0.000000
 
  0.3636364E+00  0.1818182E+00  0.1387779E-16  0.3606311E-01
    1        3.259885   1.000000
    2        6.057365   1.000000
    3       11.490181   0.000000
    4       16.738360   0.000000
    5       22.671032   0.000000
    6       26.142877   0.000000
    7       28.912852   0.000000
    8       30.923940   0.000000
 
  0.2727273E+00  0.2727273E+00 -0.2775558E-16  0.1803156E-01
    1        3.004311   1.000000
    2        8.534062   1.000000
    3        8.582360   1.000000
    4       16.533191   0.000000
    5       24.520071   0.000000
    6       25.164348   0.000000
    7       29.274828   0.000000
    8       31.801975   0.000000
 
  0.3636364E+00  0.2727273E+00  0.2775558E-16  0.1803156E-01
    1        5.510056   1.000000
    2        5.591932   1.000000
    3        8.309758   1.000000
    4       16.309429   0.000000
    5       24.595819   0.000000
    6       26.607888   0.000000
    7       27.524930   0.000000
    8       32.669089   0.000000
 
  0.9090909E-01  0.9090909E-01  0.9090909E-01  0.6010518E-02
    1       -2.451440   1.000000
    2       16.325316   0.000000
    3       16.908478   0.000000
    4       16.908478   0.000000
    5       25.665667   0.000000
    6       25.665667   0.000000
    7       27.376740   0.000000
    8       27.376740   0.000000
 
  0.1818182E+00  0.9090909E-01  0.9090909E-01  0.1803156E-01
    1       -1.139292   1.000000
    2       12.720192   0.000000
    3       15.160410   0.000000
    4       15.523894   0.000000
    5       25.393099   0.000000
    6       25.864285   0.000000
    7       28.682108   0.000000
    8       28.833673   0.000000
 
  0.2727273E+00  0.9090909E-01  0.9090909E-01  0.1803156E-01
    1        0.683943   1.000000
    2        9.060648   1.000000
    3       14.227466   0.000000
    4       14.569172   0.000000
    5       24.909688   0.000000
    6       25.243575   0.000000
    7       30.264527   0.000000
    8       30.743030   0.000000
 
  0.3636364E+00  0.9090909E-01  0.9090909E-01  0.1803156E-01
    1        3.004107   1.000000
    2        5.807028   1.000000
    3       13.760352   0.000000
    4       14.085021   0.000000
    5       24.594705   0.000000
    6       24.879294   0.000000
    7       31.744612   0.000000
    8       32.524922   0.000000
 
 -0.9090909E-01  0.9090909E-01  0.9090909E-01  0.4507889E-02
    1       -3.507102   1.000000
    2       19.632051   0.000000
    3       19.632052   0.000000
    4       21.294173   0.000000
    5       23.659199   0.000000
    6       24.211670   0.000000
    7       25.901344   0.000000
    8       25.901344   0.000000
 
  0.1818182E+00  0.1818182E+00  0.9090909E-01  0.1803156E-01
    1        0.424607   1.000000
    2       11.463610   0.000000
    3       11.575461   0.000000
    4       14.187975   0.000000
    5       26.559606   0.000000
    6       27.352968   0.000000
    7       29.490965   0.000000
    8       30.297336   0.000000
 
  0.2727273E+00  0.1818182E+00  0.9090909E-01  0.3606311E-01
    1        2.491699   1.000000
    2        8.068446   1.000000
    3       10.788902   0.788754
    4       13.475646   0.000000
    5       26.595920   0.000000
    6       27.969530   0.000000
    7       30.573287   0.000000
    8       32.148693   0.000000
 
  0.3636364E+00  0.1818182E+00  0.9090909E-01  0.1803156E-01
    1        4.998678   1.000000
    2        5.095401   1.000000
    3       10.543764   1.000000
    4       13.236784   0.000000
    5       26.480429   0.000000
    6       28.183581   0.000000
    7       31.475033   0.000000
    8       32.419343   0.000000
 
 -0.1818182E+00  0.1818182E+00  0.9090909E-01  0.1803156E-01
    1       -2.714802   1.000000
    2       16.352178   0.000000
    3       17.862450   0.000000
    4       20.354714   0.000000
    5       22.436187   0.000000
    6       23.321205   0.000000
    7       26.119127   0.000000
    8       28.395426   0.000000
 
  0.2727273E+00  0.2727273E+00  0.9090909E-01  0.1803156E-01
    1        4.792589   1.000000
    2        7.542072   1.000000
    3        7.597439   1.000000
    4       13.001401   0.000000
    5       27.987078   0.000000
    6       29.035479   0.000000
    7       30.760010   0.000000
    8       33.098401   0.000000
 
 -0.2727273E+00  0.2727273E+00  0.9090909E-01  0.1803156E-01
    1       -1.401056   1.000000
    2       12.454873   0.000000
    3       16.495307   0.000000
    4       19.226900   0.000000
    5       22.063419   0.000000
    6       22.662285   0.000000
    7       25.853118   0.000000
    8       31.640230   0.000000
 
 -0.1818182E+00  0.2727273E+00  0.9090909E-01  0.1803156E-01
    1       -1.663108   1.000000
    2       14.655217   0.000000
    3       14.789366   0.000000
    4       19.873384   0.000000
    5       21.201470   0.000000
    6       22.977139   0.000000
    7       27.876227   0.000000
    8       28.718716   0.000000
 
 -0.3636364E+00  0.3636364E+00  0.9090909E-01  0.1803156E-01
    1        0.424130   1.000000
    2        8.803363   1.000000
    3       15.576124   0.000000
    4       18.341348   0.000000
    5       21.156769   0.000000
    6       22.832980   0.000000
    7       26.443286   0.000000
    8       32.004228   0.000000
 
 -0.2727273E+00  0.3636364E+00  0.9090909E-01  0.3606311E-01
    1       -0.095625   1.000000
    2       10.995171   0.000000
    3       13.535907   0.000000
    4       19.185720   0.000000
    5       21.350638   0.000000
    6       22.541319   0.000000
    7       27.528312   0.000000
    8       30.804981   0.000000
 
 -0.4545455E+00  0.4545455E+00  0.9090909E-01  0.1803156E-01
    1        2.746231   1.000000
    2        5.550940   1.000000
    3       15.114702   0.000000
    4       17.880495   0.000000
    5       20.691772   0.000000
    6       22.749287   0.000000
    7       28.022240   0.000000
    8       30.259935   0.000000
 
 -0.3636364E+00  0.4545455E+00  0.9090909E-01  0.3606311E-01
    1        1.975457   1.000000
    2        7.556284   1.000000
    3       12.817514   0.000000
    4       18.559433   0.000000
    5       21.018797   0.000000
    6       23.623901   0.000000
    7       26.947358   0.000000
    8       29.893886   0.000000
 
 -0.2727273E+00  0.4545455E+00  0.9090909E-01  0.1803156E-01
    1        1.717832   1.000000
    2        9.989997   1.000000
    3       10.037786   1.000000
    4       19.509799   0.000000
    5       21.429819   0.000000
    6       22.057181   0.000000
    7       28.156013   0.000000
    8       30.778096   0.000000
 
 -0.4545455E+00 -0.4545455E+00  0.9090909E-01  0.1803156E-01
    1        4.480205   1.000000
    2        4.588767   1.000000
    3       12.577456   0.000000
    4       18.339859   0.000000
    5       20.829015   0.000000
    6       24.511308   0.000000
    7       26.660348   0.000000
    8       28.875076   0.000000
 
 -0.3636364E+00 -0.4545455E+00  0.9090909E-01  0.3606311E-01
    1        4.024376   1.000000
    2        6.803844   1.000000
    3        9.520473   1.000000
    4       19.302541   0.000000
    5       21.371196   0.000000
    6       23.416609   0.000000
    7       25.767654   0.000000
    8       31.517787   0.000000
 
 -0.3636364E+00 -0.3636364E+00  0.9090909E-01  0.6010518E-02
    1        6.494806   1.000000
    2        6.580616   1.000000
    3        6.580616   1.000000
    4       19.359412   0.000000
    5       23.174526   0.000000
    6       23.322880   0.000000
    7       23.322880   0.000000
    8       34.648627   0.000000
 
  0.1818182E+00  0.1818182E+00  0.1818182E+00  0.6010518E-02
    1        2.234826   1.000000
    2       10.458416   1.000000
    3       10.599174   1.000000
    4       10.599174   1.000000
    5       29.331023   0.000000
    6       29.331023   0.000000
    7       31.064700   0.000000
    8       31.064700   0.000000
 
  0.2727273E+00  0.1818182E+00  0.1818182E+00  0.1803156E-01
    1        4.539234   1.000000
    2        7.320970   1.000000
    3       10.019416   1.000000
    4       10.107794   1.000000
    5       29.941289   0.000000
    6       30.169336   0.000000
    7       32.414730   0.000000
    8       32.842194   0.000000
 
 -0.1818182E+00  0.1818182E+00  0.1818182E+00  0.4507889E-02
    1       -1.925507   1.000000
    2       16.059659   0.000000
    3       16.059659   0.000000
    4       18.360052   0.000000
    5       19.492080   0.000000
    6       25.756568   0.000000
    7       27.674618   0.000000
    8       27.674619   0.000000
 
  0.2727273E+00  0.2727273E+00  0.1818182E+00  0.6010518E-02
    1        7.008209   1.000000
    2        7.101975   1.000000
    3        7.101975   1.000000
    4        9.819952   1.000000
    5       31.177043   0.000000
    6       32.188754   0.000000
    7       32.188754   0.000000
    8       34.003940   0.000000
 
 -0.2727273E+00  0.2727273E+00  0.1818182E+00  0.1803156E-01
    1       -0.616754   1.000000
    2       13.054195   0.000000
    3       14.667952   0.000000
    4       17.398845   0.000000
    5       19.127034   0.000000
    6       25.241922   0.000000
    7       27.598575   0.000000
    8       30.418086   0.000000
 
 -0.3636364E+00  0.3636364E+00  0.1818182E+00  0.1803156E-01
    1        1.201129   1.000000
    2        9.517861   1.000000
    3       13.733489   0.000000
    4       16.486971   0.000000
    5       20.459176   0.000000
    6       24.412920   0.000000
    7       26.453805   0.000000
    8       29.430665   0.000000
 
 -0.2727273E+00  0.3636364E+00  0.1818182E+00  0.1803156E-01
    1        0.942410   1.000000
    2       11.824778   0.000000
    3       11.875310   0.000000
    4       17.547452   0.000000
    5       18.171862   0.000000
    6       25.053568   0.000000
    7       27.487285   0.000000
    8       30.146184   0.000000
 
 -0.4545455E+00  0.4545455E+00  0.1818182E+00  0.1803156E-01
    1        3.513055   1.000000
    2        6.299767   1.000000
    3       13.264521   0.000000
    4       16.003892   0.000000
    5       22.163042   0.000000
    6       23.968786   0.000000
    7       24.847082   0.000000
    8       28.493204   0.000000
 
 -0.3636364E+00  0.4545455E+00  0.1818182E+00  0.3606311E-01
    1        3.001543   1.000000
    2        8.526173   1.000000
    3       11.122782   0.000000
    4       17.101452   0.000000
    5       19.579659   0.000000
    6       24.015675   0.000000
    7       25.337456   0.000000
    8       30.714589   0.000000
 
 -0.4545455E+00 -0.4545455E+00  0.1818182E+00  0.1803156E-01
    1        5.503704   1.000000
    2        5.579047   1.000000
    3       10.879277   0.039708
    4       16.872773   0.000000
    5       21.254645   0.000000
    6       22.361193   0.000000
    7       24.739401   0.000000
    8       30.679504   0.000000
 
 -0.3636364E+00 -0.4545455E+00  0.1818182E+00  0.1803156E-01
    1        5.287848   1.000000
    2        8.011326   1.000000
    3        8.046016   1.000000
    4       18.685847   0.000000
    5       19.455182   0.000000
    6       21.670517   0.000000
    7       24.696769   0.000000
    8       33.664750   0.000000
 
 -0.2727273E+00  0.2727273E+00  0.2727273E+00  0.4507889E-02
    1        0.683346   1.000000
    2       13.263841   0.000000
    3       13.263841   0.000000
    4       15.760933   0.000000
    5       16.303290   0.000000
    6       27.132764   0.000000
    7       28.305245   0.000000
    8       29.934447   0.000000
 
 -0.3636364E+00  0.3636364E+00  0.2727273E+00  0.1803156E-01
    1        2.488313   1.000000
    2       10.634402   1.000000
    3       12.321933   0.000000
    4       15.009393   0.000000
    5       16.697008   0.000000
    6       24.100795   0.000000
    7       28.129587   0.000000
    8       30.749302   0.000000
 
 -0.4545455E+00  0.4545455E+00  0.2727273E+00  0.1803156E-01
    1        4.780447   1.000000
    2        7.528652   1.000000
    3       11.849883   0.000000
    4       14.519272   0.000000
    5       18.650167   0.000000
    6       21.246265   0.000000
    7       27.727705   0.000000
    8       30.862807   0.000000
 
 -0.3636364E+00  0.4545455E+00  0.2727273E+00  0.1803156E-01
    1        4.526531   1.000000
    2        9.889565   1.000000
    3        9.913454   1.000000
    4       15.765929   0.000000
    5       16.118488   0.000000
    6       20.999667   0.000000
    7       28.513039   0.000000
    8       33.039838   0.000000
 
 -0.4545455E+00 -0.4545455E+00  0.2727273E+00  0.1803156E-01
    1        7.007256   1.000000
    2        7.048378   1.000000
    3        9.656572   1.000000
    4       15.676736   0.000000
    5       18.002253   0.000000
    6       18.450941   0.000000
    7       28.395737   0.000000
    8       33.660556   0.000000
 
 -0.3636364E+00  0.3636364E+00  0.3636364E+00  0.4507889E-02
    1        4.272163   1.000000
    2       11.376151   0.000000
    3       11.376151   0.000000
    4       13.883912   0.000000
    5       14.162629   0.000000
    6       20.770979   0.000000
    7       31.751304   0.000000
    8       32.829251   0.000000
 
 -0.4545455E+00  0.4545455E+00  0.3636364E+00  0.1803156E-01
    1        6.525962   1.000000
    2        9.164942   1.000000
    3       10.902780   0.007785
    4       13.502564   0.000000
    5       15.214429   0.000000
    6       17.752420   0.000000
    7       31.817983   0.000000
    8       33.770197   0.000000
 
 -0.4545455E+00 -0.4545455E+00  0.3636364E+00  0.6010518E-02
    1        8.900174   1.000000
    2        8.928610   1.000000
    3        8.928610   1.000000
    4       14.731176   0.000000
    5       15.087309   0.000000
    6       15.087309   0.000000
    7       32.391662   0.000000
    8       36.002333   0.000000
 
 -0.4545455E+00  0.4545455E+00  0.4545455E+00  0.4507889E-02
    1        8.672914   1.000000
    2       10.428915   1.000000
    3       10.428915   1.000000
    4       12.902780   0.000000
    5       13.090138   0.000000
    6       14.730884   0.000000
    7       35.527259   0.000000
    8       35.805825   0.000000
