 running on    4 total cores
 distrk:  each k-point on    4 cores,    1 groups
 distr:  one band on    1 cores,    4 groups
 vasp.6.2.0 18Jan21 (build Aug 12 2022 13:00:08) complex                        
  
 POSCAR found type information on POSCAR Si
 POSCAR found :  1 types and       1 ions
 scaLAPACK will be used
 LDA part: xc-table for Pade appr. of Perdew
 POSCAR, INCAR and KPOINTS ok, starting setup
 FFT: planning ...
 WAVECAR not read
 entering main loop
       N       E                     dE             d eps       ncg     rms          rms(c)
DAV:   1    -0.296829193878E+01   -0.29683E+01   -0.15053E+03   976   0.276E+02
DAV:   2    -0.487214234433E+01   -0.19039E+01   -0.17940E+01  1376   0.255E+01
DAV:   3    -0.488094679764E+01   -0.88045E-02   -0.88041E-02  1008   0.182E+00
DAV:   4    -0.488095293179E+01   -0.61342E-05   -0.61341E-05  1400   0.500E-02
DAV:   5    -0.488095293228E+01   -0.48554E-09   -0.48885E-09  1000   0.322E-04    0.295E+00
DAV:   6    -0.486892451845E+01    0.12028E-01   -0.35961E-03   936   0.267E-01    0.164E+00
DAV:   7    -0.486200739052E+01    0.69171E-02   -0.72260E-03   968   0.379E-01    0.137E-01
DAV:   8    -0.486198220894E+01    0.25182E-04   -0.31325E-05  1232   0.417E-02    0.106E-02
DAV:   9    -0.486198270839E+01   -0.49946E-06   -0.40444E-07  1024   0.360E-03
   1 F= -.48619827E+01 E0= -.48615457E+01  d E =-.486198E+01
 curvature:   0.00 expect dE= 0.000E+00 dE for cont linesearch  0.000E+00
 trial: gam= 0.00000 g(F)=  0.573E-66 g(S)=  0.000E+00 ort = 0.000E+00 (trialstep = 0.100E+01)
 search vector abs. value=  0.100E-09
 reached required accuracy - stopping structural energy minimisation
