<?xml version="1.0" encoding="ISO-8859-1"?>
<modeling>
 <generator>
  <i name="program" type="string">vasp </i>
  <i name="version" type="string">6.2.0  </i>
  <i name="subversion" type="string">18Jan21 (build Aug 12 2022 13:00:08) complex                          parallel </i>
  <i name="platform" type="string">LinuxIFC </i>
  <i name="date" type="string">2024 11 05 </i>
  <i name="time" type="string">05:28:52 </i>
 </generator>
 <incar>
  <i type="int" name="ISTART">     0</i>
  <i type="string" name="PREC">Accurate      (Accurate strictly avoids</i>
  <i type="logical" name="ADDGRID"> T  </i>
  <i type="int" name="ISPIN">     1</i>
  <i type="int" name="NELM">    90</i>
  <i type="int" name="NELMIN">     6</i>
  <i type="int" name="IBRION">     2</i>
  <i name="EDIFF">      0.00000100</i>
  <i name="EDIFFG">     -0.00200000</i>
  <i type="int" name="NSW">   100</i>
  <i type="int" name="ISIF">     2</i>
  <i type="int" name="ISYM">     2</i>
  <i name="ENCUT">    350.00000000</i>
  <i type="logical" name="LREAL"> F  </i>
  <i type="int" name="ISMEAR">     0</i>
  <i name="SIGMA">      0.05000000</i>
  <i type="logical" name="LWAVE"> F  </i>
  <i type="logical" name="LCHARG"> F  </i>
  <i type="logical" name="LASPH"> T  </i>
 </incar>
 <primitive_cell>
  <structure name="primitive_cell" >
   <crystal>
    <varray name="basis" >
     <v>       1.50575900       1.50575900       1.50575900 </v>
     <v>       1.50575900      -1.50575900      -1.50575900 </v>
     <v>      -1.50575900       1.50575900      -1.50575900 </v>
    </varray>
    <i name="volume">     13.65609080 </i>
    <varray name="rec_basis" >
     <v>       0.33205845       0.33205845       0.00000000 </v>
     <v>       0.33205845       0.00000000      -0.33205845 </v>
     <v>       0.00000000       0.33205845      -0.33205845 </v>
    </varray>
   </crystal>
   <varray name="positions" >
    <v>       0.00000000       0.00000000       0.00000000 </v>
   </varray>
  </structure>
  <varray name="primitive_index" >
   <v type="int" >        1 </v>
  </varray>
 </primitive_cell>
 <kpoints>
  <generation param="Monkhorst-Pack">
   <v type="int" name="divisions">      11       11       11 </v>
   <v name="usershift">      0.00000000       0.00000000       0.00000000 </v>
   <v name="genvec1">      0.09090909       0.00000000       0.00000000 </v>
   <v name="genvec2">      0.00000000       0.09090909       0.00000000 </v>
   <v name="genvec3">      0.00000000       0.00000000       0.09090909 </v>
   <v name="shift">      0.00000000       0.00000000       0.00000000 </v>
  </generation>
  <varray name="kpointlist" >
   <v>       0.00000000       0.00000000       0.00000000 </v>
   <v>       0.09090909       0.00000000       0.00000000 </v>
   <v>       0.18181818       0.00000000       0.00000000 </v>
   <v>       0.27272727       0.00000000       0.00000000 </v>
   <v>       0.36363636       0.00000000       0.00000000 </v>
   <v>       0.45454545       0.00000000       0.00000000 </v>
   <v>       0.09090909       0.09090909       0.00000000 </v>
   <v>       0.18181818       0.09090909      -0.00000000 </v>
   <v>       0.27272727       0.09090909      -0.00000000 </v>
   <v>       0.36363636       0.09090909       0.00000000 </v>
   <v>       0.45454545       0.09090909       0.00000000 </v>
   <v>       0.18181818       0.18181818       0.00000000 </v>
   <v>       0.27272727       0.18181818      -0.00000000 </v>
   <v>       0.36363636       0.18181818       0.00000000 </v>
   <v>       0.27272727       0.27272727      -0.00000000 </v>
   <v>       0.36363636       0.27272727       0.00000000 </v>
   <v>       0.09090909       0.09090909       0.09090909 </v>
   <v>       0.18181818       0.09090909       0.09090909 </v>
   <v>       0.27272727       0.09090909       0.09090909 </v>
   <v>       0.36363636       0.09090909       0.09090909 </v>
   <v>      -0.09090909       0.09090909       0.09090909 </v>
   <v>       0.18181818       0.18181818       0.09090909 </v>
   <v>       0.27272727       0.18181818       0.09090909 </v>
   <v>       0.36363636       0.18181818       0.09090909 </v>
   <v>      -0.18181818       0.18181818       0.09090909 </v>
   <v>       0.27272727       0.27272727       0.09090909 </v>
   <v>      -0.27272727       0.27272727       0.09090909 </v>
   <v>      -0.18181818       0.27272727       0.09090909 </v>
   <v>      -0.36363636       0.36363636       0.09090909 </v>
   <v>      -0.27272727       0.36363636       0.09090909 </v>
   <v>      -0.45454545       0.45454545       0.09090909 </v>
   <v>      -0.36363636       0.45454545       0.09090909 </v>
   <v>      -0.27272727       0.45454545       0.09090909 </v>
   <v>      -0.45454545      -0.45454545       0.09090909 </v>
   <v>      -0.36363636      -0.45454545       0.09090909 </v>
   <v>      -0.36363636      -0.36363636       0.09090909 </v>
   <v>       0.18181818       0.18181818       0.18181818 </v>
   <v>       0.27272727       0.18181818       0.18181818 </v>
   <v>      -0.18181818       0.18181818       0.18181818 </v>
   <v>       0.27272727       0.27272727       0.18181818 </v>
   <v>      -0.27272727       0.27272727       0.18181818 </v>
   <v>      -0.36363636       0.36363636       0.18181818 </v>
   <v>      -0.27272727       0.36363636       0.18181818 </v>
   <v>      -0.45454545       0.45454545       0.18181818 </v>
   <v>      -0.36363636       0.45454545       0.18181818 </v>
   <v>      -0.45454545      -0.45454545       0.18181818 </v>
   <v>      -0.36363636      -0.45454545       0.18181818 </v>
   <v>      -0.27272727       0.27272727       0.27272727 </v>
   <v>      -0.36363636       0.36363636       0.27272727 </v>
   <v>      -0.45454545       0.45454545       0.27272727 </v>
   <v>      -0.36363636       0.45454545       0.27272727 </v>
   <v>      -0.45454545      -0.45454545       0.27272727 </v>
   <v>      -0.36363636       0.36363636       0.36363636 </v>
   <v>      -0.45454545       0.45454545       0.36363636 </v>
   <v>      -0.45454545      -0.45454545       0.36363636 </v>
   <v>      -0.45454545       0.45454545       0.45454545 </v>
  </varray>
  <varray name="weights" >
   <v>       0.00075131 </v>
   <v>       0.00901578 </v>
   <v>       0.00901578 </v>
   <v>       0.00901578 </v>
   <v>       0.00901578 </v>
   <v>       0.00901578 </v>
   <v>       0.01803156 </v>
   <v>       0.03606311 </v>
   <v>       0.03606311 </v>
   <v>       0.03606311 </v>
   <v>       0.01803156 </v>
   <v>       0.01803156 </v>
   <v>       0.03606311 </v>
   <v>       0.03606311 </v>
   <v>       0.01803156 </v>
   <v>       0.01803156 </v>
   <v>       0.00601052 </v>
   <v>       0.01803156 </v>
   <v>       0.01803156 </v>
   <v>       0.01803156 </v>
   <v>       0.00450789 </v>
   <v>       0.01803156 </v>
   <v>       0.03606311 </v>
   <v>       0.01803156 </v>
   <v>       0.01803156 </v>
   <v>       0.01803156 </v>
   <v>       0.01803156 </v>
   <v>       0.01803156 </v>
   <v>       0.01803156 </v>
   <v>       0.03606311 </v>
   <v>       0.01803156 </v>
   <v>       0.03606311 </v>
   <v>       0.01803156 </v>
   <v>       0.01803156 </v>
   <v>       0.03606311 </v>
   <v>       0.00601052 </v>
   <v>       0.00601052 </v>
   <v>       0.01803156 </v>
   <v>       0.00450789 </v>
   <v>       0.00601052 </v>
   <v>       0.01803156 </v>
   <v>       0.01803156 </v>
   <v>       0.01803156 </v>
   <v>       0.01803156 </v>
   <v>       0.03606311 </v>
   <v>       0.01803156 </v>
   <v>       0.01803156 </v>
   <v>       0.00450789 </v>
   <v>       0.01803156 </v>
   <v>       0.01803156 </v>
   <v>       0.01803156 </v>
   <v>       0.01803156 </v>
   <v>       0.00450789 </v>
   <v>       0.01803156 </v>
   <v>       0.00601052 </v>
   <v>       0.00450789 </v>
  </varray>
 </kpoints>
 <parameters>
  <separator name="general" >
   <i type="string" name="SYSTEM">unknown system</i>
   <i type="logical" name="LCOMPAT"> F  </i>
  </separator>
  <separator name="electronic" >
   <i type="string" name="PREC">accura</i>
   <i name="ENMAX">    350.00000000</i>
   <i name="ENAUG">    322.06900000</i>
   <i name="EDIFF">      0.00000100</i>
   <i type="int" name="IALGO">    38</i>
   <i type="int" name="IWAVPR">    11</i>
   <i type="int" name="NBANDS">     8</i>
   <i type="int" name="NBANDSLOW">    -1</i>
   <i type="int" name="NBANDSHIGH">    -1</i>
   <i name="NELECT">      4.00000000</i>
   <i type="int" name="TURBO">     0</i>
   <i type="int" name="IRESTART">     0</i>
   <i type="int" name="NREBOOT">     0</i>
   <i type="int" name="NMIN">     0</i>
   <i name="EREF">      0.00000000</i>
   <separator name="electronic smearing" >
    <i type="int" name="ISMEAR">     0</i>
    <i name="SIGMA">      0.05000000</i>
    <i name="KSPACING">      0.50000000</i>
    <i type="logical" name="KGAMMA"> T  </i>
    <i type="logical" name="KBLOWUP"> T  </i>
   </separator>
   <separator name="electronic projectors" >
    <i type="logical" name="LREAL"> F  </i>
    <v name="ROPT">      0.00000000</v>
    <i type="int" name="LMAXPAW">  -100</i>
    <i type="int" name="LMAXMIX">     2</i>
    <i type="logical" name="NLSPLINE"> F  </i>
   </separator>
   <separator name="electronic startup" >
    <i type="int" name="ISTART">     0</i>
    <i type="int" name="ICHARG">     2</i>
    <i type="int" name="INIWAV">     1</i>
   </separator>
   <separator name="electronic spin" >
    <i type="int" name="ISPIN">     1</i>
    <i type="logical" name="LNONCOLLINEAR"> F  </i>
    <v name="MAGMOM">      1.00000000</v>
    <i name="NUPDOWN">     -1.00000000</i>
    <i type="logical" name="LSORBIT"> F  </i>
    <v name="SAXIS">      0.00000000      0.00000000      1.00000000</v>
    <i type="logical" name="LSPIRAL"> F  </i>
    <v name="QSPIRAL">      0.00000000      0.00000000      0.00000000</v>
    <i type="logical" name="LZEROZ"> F  </i>
   </separator>
   <separator name="electronic exchange-correlation" >
    <i type="logical" name="LASPH"> T  </i>
    <i type="logical" name="LMETAGGA"> F  </i>
   </separator>
   <separator name="electronic convergence" >
    <i type="int" name="NELM">    90</i>
    <i type="int" name="NELMDL">    -5</i>
    <i type="int" name="NELMIN">     6</i>
    <i name="ENINI">    350.00000000</i>
    <separator name="electronic convergence detail" >
     <i type="logical" name="LDIAG"> T  </i>
     <i type="logical" name="LSUBROT"> F  </i>
     <i name="WEIMIN">      0.00100000</i>
     <i name="EBREAK">      0.00000003</i>
     <i name="DEPER">      0.30000000</i>
     <i type="int" name="NRMM">     4</i>
     <i name="TIME">      0.40000000</i>
    </separator>
   </separator>
   <separator name="electronic mixer" >
    <i name="AMIX">      0.40000000</i>
    <i name="BMIX">      1.00000000</i>
    <i name="AMIN">      0.10000000</i>
    <i name="AMIX_MAG">      1.60000000</i>
    <i name="BMIX_MAG">      1.00000000</i>
    <separator name="electronic mixer details" >
     <i type="int" name="IMIX">     4</i>
     <i type="logical" name="MIXFIRST"> F  </i>
     <i type="int" name="MAXMIX">   -45</i>
     <i name="WC">    100.00000000</i>
     <i type="int" name="INIMIX">     1</i>
     <i type="int" name="MIXPRE">     1</i>
     <i type="int" name="MREMOVE">     5</i>
    </separator>
   </separator>
   <separator name="electronic dipolcorrection" >
    <i type="logical" name="LDIPOL"> F  </i>
    <i type="logical" name="LMONO"> F  </i>
    <i type="int" name="IDIPOL">     0</i>
    <i name="EPSILON">      1.00000000</i>
    <v name="DIPOL">   -100.00000000   -100.00000000   -100.00000000</v>
    <i name="EFIELD">      0.00000000</i>
   </separator>
  </separator>
  <separator name="grids" >
   <i type="int" name="NGX">    16</i>
   <i type="int" name="NGY">    16</i>
   <i type="int" name="NGZ">    16</i>
   <i type="int" name="NGXF">    32</i>
   <i type="int" name="NGYF">    32</i>
   <i type="int" name="NGZF">    32</i>
   <i type="logical" name="ADDGRID"> T  </i>
  </separator>
  <separator name="ionic" >
   <i type="int" name="NSW">   100</i>
   <i type="int" name="IBRION">     2</i>
   <i type="int" name="MDALGO">     0</i>
   <i type="int" name="ISIF">     2</i>
   <i name="PSTRESS">      0.00000000</i>
   <i name="EDIFFG">     -0.00200000</i>
   <i type="int" name="NFREE">     1</i>
   <i name="POTIM">      0.50000000</i>
   <i name="SMASS">     -3.00000000</i>
   <i name="SCALEE">      1.00000000</i>
  </separator>
  <separator name="ionic md" >
   <i name="TEBEG">      0.00010000</i>
   <i name="TEEND">      0.00010000</i>
   <i type="int" name="NBLOCK">     1</i>
   <i type="int" name="KBLOCK">   100</i>
   <i type="int" name="NPACO">   256</i>
   <i name="APACO">     16.00000000</i>
  </separator>
  <separator name="symmetry" >
   <i type="int" name="ISYM">     2</i>
   <i name="SYMPREC">      0.00001000</i>
  </separator>
  <separator name="dos" >
   <i type="int" name="LORBIT">     0</i>
   <v name="RWIGS">     -1.00000000</v>
   <i type="int" name="NEDOS">   301</i>
   <i name="EMIN">     10.00000000</i>
   <i name="EMAX">    -10.00000000</i>
   <i name="EFERMI">      0.00000000</i>
  </separator>
  <separator name="writing" >
   <i type="int" name="NWRITE">     2</i>
   <i type="logical" name="LWAVE"> F  </i>
   <i type="logical" name="LDOWNSAMPLE"> F  </i>
   <i type="logical" name="LCHARG"> F  </i>
   <i type="logical" name="LPARD"> F  </i>
   <i type="logical" name="LVTOT"> F  </i>
   <i type="logical" name="LVHAR"> F  </i>
   <i type="logical" name="LELF"> F  </i>
   <i type="logical" name="LOPTICS"> F  </i>
   <v name="STM">      0.00000000      0.00000000      0.00000000      0.00000000      0.00000000      0.00000000      0.00000000</v>
  </separator>
  <separator name="performance" >
   <i type="int" name="NPAR">     4</i>
   <i type="int" name="NSIM">     4</i>
   <i type="int" name="NBLK">    -1</i>
   <i type="logical" name="LPLANE"> T  </i>
   <i type="logical" name="LSCALAPACK"> T  </i>
   <i type="logical" name="LSCAAWARE"> F  </i>
   <i type="logical" name="LSCALU"> F  </i>
   <i type="logical" name="LASYNC"> F  </i>
   <i type="logical" name="LORBITALREAL"> F  </i>
  </separator>
  <separator name="miscellaneous" >
   <i type="int" name="IDIOT">     3</i>
   <i type="int" name="PHON_NSTRUCT">    -1</i>
   <i type="logical" name="LMUSIC"> F  </i>
   <v name="POMASS">     28.08500000</v>
   <v name="DARWINR">      0.00000000</v>
   <v name="DARWINV">      1.00000000</v>
   <i type="logical" name="LCORR"> T  </i>
  </separator>
  <i type="logical" name="GGA_COMPAT"> T  </i>
  <i type="logical" name="LBERRY"> F  </i>
  <i type="int" name="ICORELEVEL">     0</i>
  <i type="logical" name="LDAU"> F  </i>
  <i type="int" name="I_CONSTRAINED_M">     0</i>
  <separator name="electronic exchange-correlation" >
   <i type="string" name="GGA">--</i>
   <i type="int" name="VOSKOWN">     0</i>
   <i type="logical" name="LHFCALC"> F  </i>
   <i type="string" name="PRECFOCK"></i>
   <i type="logical" name="LSYMGRAD"> F  </i>
   <i type="logical" name="LHFONE"> F  </i>
   <i type="logical" name="LRHFCALC"> F  </i>
   <i type="logical" name="LTHOMAS"> F  </i>
   <i type="logical" name="LMODELHF"> F  </i>
   <i type="logical" name="LFOCKACE"> F  </i>
   <i name="ENCUT4O">     -1.00000000</i>
   <i type="int" name="EXXOEP">     0</i>
   <i type="int" name="FOURORBIT">     0</i>
   <i name="AEXX">      0.00000000</i>
   <i name="HFALPHA">      0.00000000</i>
   <i name="MCALPHA">      0.00000000</i>
   <i name="ALDAX">      1.00000000</i>
   <i name="AGGAX">      1.00000000</i>
   <i name="ALDAC">      1.00000000</i>
   <i name="AGGAC">      1.00000000</i>
   <i type="int" name="NKREDX">     1</i>
   <i type="int" name="NKREDY">     1</i>
   <i type="int" name="NKREDZ">     1</i>
   <i type="logical" name="SHIFTRED"> F  </i>
   <i type="logical" name="ODDONLY"> F  </i>
   <i type="logical" name="EVENONLY"> F  </i>
   <i type="int" name="LMAXFOCK">     0</i>
   <i type="int" name="NMAXFOCKAE">     0</i>
   <i type="logical" name="LFOCKAEDFT"> F  </i>
   <i name="HFSCREEN">      0.00000000</i>
   <i name="HFSCREENC">      0.00000000</i>
   <i type="int" name="NBANDSGWLOW">     0</i>
  </separator>
  <separator name="vdW DFT" >
   <i type="logical" name="LUSE_VDW"> F  </i>
   <i name="Zab_VDW">     -0.84910000</i>
   <i name="PARAM1">      0.12340000</i>
   <i name="PARAM2">      1.00000000</i>
   <i name="PARAM3">      0.00000000</i>
  </separator>
  <separator name="model GW" >
   <i type="int" name="MODEL_GW">     0</i>
   <i name="MODEL_EPS0">      8.19365448</i>
   <i name="MODEL_ALPHA">      1.00000000</i>
  </separator>
  <separator name="linear response parameters" >
   <i type="logical" name="LEPSILON"> F  </i>
   <i type="logical" name="LRPA"> F  </i>
   <i type="logical" name="LNABLA"> F  </i>
   <i type="logical" name="LVEL"> F  </i>
   <i type="int" name="KINTER">     0</i>
   <i name="CSHIFT">      0.10000000</i>
   <i name="OMEGAMAX">     -1.00000000</i>
   <i name="DEG_THRESHOLD">      0.00200000</i>
   <i name="RTIME">     -0.10000000</i>
   <i name="WPLASMAI">      0.00000000</i>
   <v name="DFIELD">      0.00000000      0.00000000      0.00000000</v>
   <v name="WPLASMA">      0.00000000      0.00000000      0.00000000      0.00000000      0.00000000      0.00000000      0.00000000      0.00000000      0.00000000</v>
  </separator>
  <separator name="orbital magnetization" >
   <i type="logical" name="NUCIND"> F  </i>
   <v name="MAGPOS">      0.00000000      0.00000000      0.00000000</v>
   <i type="logical" name="LNICSALL"> T  </i>
   <i type="logical" name="ORBITALMAG"> F  </i>
   <i type="logical" name="LMAGBLOCH"> F  </i>
   <i type="logical" name="LCHIMAG"> F  </i>
   <i type="logical" name="LGAUGE"> T  </i>
   <i type="int" name="MAGATOM">     0</i>
   <v name="MAGDIPOL">      0.00000000      0.00000000      0.00000000</v>
   <v name="AVECCONST">      0.00000000      0.00000000      0.00000000</v>
  </separator>
  <separator name="response functions" >
   <i type="logical" name="LFINITE_TEMPERATURE"> F  </i>
   <i type="logical" name="LADDER"> F  </i>
   <i type="logical" name="LRPAFORCE"> F  </i>
   <i type="logical" name="LFXC"> F  </i>
   <i type="logical" name="LHARTREE"> T  </i>
   <i type="int" name="IBSE">     0</i>
   <v type="int" name="KPOINT">    -1     0     0     0</v>
   <i type="logical" name="LTCTC"> F  </i>
   <i type="logical" name="LTCTE"> F  </i>
   <i type="logical" name="LTETE"> F  </i>
   <i type="logical" name="LTRIPLET"> F  </i>
   <i type="logical" name="LFXCEPS"> F  </i>
   <i type="logical" name="LFXHEG"> F  </i>
   <i type="int" name="NATURALO">     2</i>
   <i type="logical" name="LHOLEGF"> F  </i>
   <i type="logical" name="L2ORDER"> F  </i>
   <i type="logical" name="LDMP1"> F  </i>
   <i type="logical" name="LMP2LT"> F  </i>
   <i type="logical" name="LSMP2LT"> F  </i>
   <i type="logical" name="LGWLF"> F  </i>
   <i name="ENCUTGW">     -2.00000000</i>
   <i name="ENCUTGWSOFT">     -2.00000000</i>
   <i name="ENCUTLF">     -1.00000000</i>
   <i type="logical" name="LESF_SPLINES"> F  </i>
   <i type="int" name="LMAXMP2">    -1</i>
   <i name="SCISSOR">      0.00000000</i>
   <i type="int" name="NOMEGA">     0</i>
   <i type="int" name="NOMEGAR">     0</i>
   <i type="int" name="NBANDSGW">    -1</i>
   <i type="int" name="NBANDSO">    -1</i>
   <i type="int" name="NBANDSV">    -1</i>
   <i type="int" name="NELM">    90</i>
   <i type="int" name="NELMHF">     1</i>
   <i type="int" name="DIM">     3</i>
   <i type="int" name="IESPILON">     4</i>
   <i type="int" name="ANTIRES">     0</i>
   <i name="OMEGAMAX">    -30.00000000</i>
   <i name="OMEGAMIN">    -30.00000000</i>
   <i name="OMEGATL">   -200.00000000</i>
   <i type="int" name="OMEGAGRID">     0</i>
   <i name="CSHIFT">     -0.10000000</i>
   <i type="logical" name="LSELFENERGY"> F  </i>
   <i type="logical" name="LSPECTRAL"> F  </i>
   <i type="logical" name="LSPECTRALGW"> F  </i>
   <i type="logical" name="LSINGLES"> F  </i>
   <i type="logical" name="LFERMIGW"> F  </i>
   <i type="logical" name="ODDONLYGW"> F  </i>
   <i type="logical" name="EVENONLYGW"> F  </i>
   <i type="int" name="NKREDLFX">     1</i>
   <i type="int" name="NKREDLFY">     1</i>
   <i type="int" name="NKREDLFZ">     1</i>
   <i type="int" name="MAXMEM">  2800</i>
   <i type="int" name="TELESCOPE">     0</i>
   <i type="int" name="NTAUPAR">    -1</i>
   <i type="int" name="NOMEGAPAR">    -1</i>
   <i name="DAMP_NEWTON">      0.80000001</i>
   <i name="LAMBDA">      1.00000000</i>
  </separator>
  <separator name="External order field" >
   <i name="OFIELD_KAPPA">      0.00000000</i>
   <v name="OFIELD_K">      0.00000000      0.00000000      0.00000000</v>
   <i name="OFIELD_Q6_NEAR">      0.00000000</i>
   <i name="OFIELD_Q6_FAR">      0.00000000</i>
   <i name="OFIELD_A">      0.00000000</i>
  </separator>
 </parameters>
 <atominfo>
  <atoms>       1 </atoms>
  <types>       1 </types>
  <array name="atoms" >
   <dimension dim="1">ion</dimension>
   <field type="string">element</field>
   <field type="int">atomtype</field>
   <set>
    <rc><c>Si</c><c>   1</c></rc>
   </set>
  </array>
  <array name="atomtypes" >
   <dimension dim="1">type</dimension>
   <field type="int">atomspertype</field>
   <field type="string">element</field>
   <field>mass</field>
   <field>valence</field>
   <field type="string">pseudopotential</field>
   <set>
    <rc><c>   1</c><c>Si</c><c>     28.08500000</c><c>      4.00000000</c><c>  PAW_PBE Si 05Jan2001                  </c></rc>
   </set>
  </array>
 </atominfo>
 <structure name="initialpos" >
  <crystal>
   <varray name="basis" >
    <v>       1.50575900       1.50575900       1.50575900 </v>
    <v>       1.50575900      -1.50575900      -1.50575900 </v>
    <v>      -1.50575900       1.50575900      -1.50575900 </v>
   </varray>
   <i name="volume">     13.65609080 </i>
   <varray name="rec_basis" >
    <v>       0.33205845       0.33205845       0.00000000 </v>
    <v>       0.33205845       0.00000000      -0.33205845 </v>
    <v>       0.00000000       0.33205845      -0.33205845 </v>
   </varray>
  </crystal>
  <varray name="positions" >
   <v>       0.00000000       0.00000000       0.00000000 </v>
  </varray>
 </structure>
 <calculation>
  <scstep>
   <time name="dav">    0.26    0.26</time>
   <time name="total">    0.50    0.50</time>
   <energy>
    <i name="alphaZ">      2.46506349 </i>
    <i name="ewald">   -139.21002512 </i>
    <i name="hartreedc">     -0.45436056 </i>
    <i name="XCdc">     -8.65230277 </i>
    <i name="pawpsdc">     88.12379961 </i>
    <i name="pawaedc">    -70.53051779 </i>
    <i name="eentropy">     -0.00089280 </i>
    <i name="bandstr">     22.22531693 </i>
    <i name="atom">    103.06562707 </i>
    <i name="e_fr_energy">     -2.96829194 </i>
    <i name="e_wo_entrp">     -2.96739914 </i>
    <i name="e_0_energy">     -2.96784554 </i>
   </energy>
  </scstep>
  <scstep>
   <time name="dav">    0.37    0.39</time>
   <time name="total">    0.38    0.39</time>
   <energy>
    <i name="e_fr_energy">     -4.87214234 </i>
    <i name="e_wo_entrp">     -4.87133253 </i>
    <i name="e_0_energy">     -4.87173744 </i>
   </energy>
  </scstep>
  <scstep>
   <time name="dav">    0.17    0.18</time>
   <time name="total">    0.17    0.18</time>
   <energy>
    <i name="e_fr_energy">     -4.88094680 </i>
    <i name="e_wo_entrp">     -4.88011732 </i>
    <i name="e_0_energy">     -4.88053206 </i>
   </energy>
  </scstep>
  <scstep>
   <time name="dav">    0.24    0.25</time>
   <time name="total">    0.24    0.25</time>
   <energy>
    <i name="e_fr_energy">     -4.88095293 </i>
    <i name="e_wo_entrp">     -4.88012337 </i>
    <i name="e_0_energy">     -4.88053815 </i>
   </energy>
  </scstep>
  <scstep>
   <time name="dav">    0.17    0.17</time>
   <time name="total">    0.18    0.19</time>
   <energy>
    <i name="e_fr_energy">     -4.88095293 </i>
    <i name="e_wo_entrp">     -4.88012337 </i>
    <i name="e_0_energy">     -4.88053815 </i>
   </energy>
  </scstep>
  <scstep>
   <time name="dav">    0.16    0.16</time>
   <time name="total">    0.34    0.36</time>
   <energy>
    <i name="e_fr_energy">     -4.86892452 </i>
    <i name="e_wo_entrp">     -4.86807814 </i>
    <i name="e_0_energy">     -4.86850133 </i>
   </energy>
  </scstep>
  <scstep>
   <time name="dav">    0.16    0.16</time>
   <time name="total">    0.35    0.35</time>
   <energy>
    <i name="e_fr_energy">     -4.86200739 </i>
    <i name="e_wo_entrp">     -4.86113458 </i>
    <i name="e_0_energy">     -4.86157098 </i>
   </energy>
  </scstep>
  <scstep>
   <time name="dav">    0.21    0.21</time>
   <time name="total">    0.40    0.41</time>
   <energy>
    <i name="e_fr_energy">     -4.86198221 </i>
    <i name="e_wo_entrp">     -4.86110845 </i>
    <i name="e_0_energy">     -4.86154533 </i>
   </energy>
  </scstep>
  <scstep>
   <time name="dav">    0.17    0.18</time>
   <time name="total">    0.35    0.36</time>
   <energy>
    <i name="alphaZ">      2.46506349 </i>
    <i name="ewald">   -139.21002512 </i>
    <i name="hartreedc">     -0.33387850 </i>
    <i name="XCdc">     -8.57898931 </i>
    <i name="pawpsdc">    345.98479292 </i>
    <i name="pawaedc">   -328.42108707 </i>
    <i name="eentropy">     -0.00087399 </i>
    <i name="bandstr">     20.16738780 </i>
    <i name="atom">    103.06562707 </i>
    <i name="e_fr_energy">     -4.86198271 </i>
    <i name="e_wo_entrp">     -4.86110871 </i>
    <i name="e_0_energy">     -4.86154571 </i>
   </energy>
  </scstep>
  <structure>
   <crystal>
    <varray name="basis" >
     <v>       1.50575900       1.50575900       1.50575900 </v>
     <v>       1.50575900      -1.50575900      -1.50575900 </v>
     <v>      -1.50575900       1.50575900      -1.50575900 </v>
    </varray>
    <i name="volume">     13.65609080 </i>
    <varray name="rec_basis" >
     <v>       0.33205845       0.33205845       0.00000000 </v>
     <v>       0.33205845       0.00000000      -0.33205845 </v>
     <v>       0.00000000       0.33205845      -0.33205845 </v>
    </varray>
   </crystal>
   <varray name="positions" >
    <v>       0.00000000       0.00000000       0.00000000 </v>
   </varray>
  </structure>
  <varray name="forces" >
   <v>      -0.00000000       0.00000000       0.00000000 </v>
  </varray>
  <varray name="stress" >
   <v>      73.92501892       0.00000000       0.00000000 </v>
   <v>      -0.00000000      73.92501892       0.00000000 </v>
   <v>       0.00000000       0.00000000      73.92501892 </v>
  </varray>
  <energy>
   <i name="e_fr_energy">     -4.86198271 </i>
   <i name="e_wo_entrp">     -4.86110871 </i>
   <i name="e_0_energy">     -4.86154571 </i>
  </energy>
  <time name="totalsc">    3.52    3.68</time>
  <eigenvalues>
   <array>
    <dimension dim="1">band</dimension>
    <dimension dim="2">kpoint</dimension>
    <dimension dim="3">spin</dimension>
    <field>eigene</field>
    <field>occ</field>
    <set>
     <set comment="spin 1">
      <set comment="kpoint 1">
       <r>   -4.0370    1.0000 </r>
       <r>   23.1342    0.0000 </r>
       <r>   23.1342    0.0000 </r>
       <r>   23.1342    0.0000 </r>
       <r>   23.6954    0.0000 </r>
       <r>   23.6954    0.0000 </r>
       <r>   23.6954    0.0000 </r>
       <r>   27.5310    0.0000 </r>
      </set>
      <set comment="kpoint 2">
       <r>   -3.7719    1.0000 </r>
       <r>   20.2211    0.0000 </r>
       <r>   21.1785    0.0000 </r>
       <r>   22.7068    0.0000 </r>
       <r>   22.8746    0.0000 </r>
       <r>   24.8723    0.0000 </r>
       <r>   26.0918    0.0000 </r>
       <r>   26.3333    0.0000 </r>
      </set>
      <set comment="kpoint 3">
       <r>   -2.9786    1.0000 </r>
       <r>   16.2225    0.0000 </r>
       <r>   19.4135    0.0000 </r>
       <r>   21.3650    0.0000 </r>
       <r>   21.7025    0.0000 </r>
       <r>   23.7554    0.0000 </r>
       <r>   27.2501    0.0000 </r>
       <r>   27.5900    0.0000 </r>
      </set>
      <set comment="kpoint 4">
       <r>   -1.6632    1.0000 </r>
       <r>   12.2351    0.0000 </r>
       <r>   18.0918    0.0000 </r>
       <r>   20.0076    0.0000 </r>
       <r>   20.6534    0.0000 </r>
       <r>   22.5383    0.0000 </r>
       <r>   28.4823    0.0000 </r>
       <r>   28.7982    0.0000 </r>
      </set>
      <set comment="kpoint 5">
       <r>    0.1644    1.0000 </r>
       <r>    8.5618    1.0000 </r>
       <r>   17.2129    0.0000 </r>
       <r>   19.0462    0.0000 </r>
       <r>   19.8662    0.0000 </r>
       <r>   21.6737    0.0000 </r>
       <r>   29.8642    0.0000 </r>
       <r>   30.5927    0.0000 </r>
      </set>
      <set comment="kpoint 6">
       <r>    2.4897    1.0000 </r>
       <r>    5.2999    1.0000 </r>
       <r>   16.7741    0.0000 </r>
       <r>   18.5561    0.0000 </r>
       <r>   19.4544    0.0000 </r>
       <r>   21.2222    0.0000 </r>
       <r>   31.4390    0.0000 </r>
       <r>   32.2935    0.0000 </r>
      </set>
      <set comment="kpoint 7">
       <r>   -3.2427    1.0000 </r>
       <r>   18.1817    0.0000 </r>
       <r>   18.5666    0.0000 </r>
       <r>   20.7554    0.0000 </r>
       <r>   23.5319    0.0000 </r>
       <r>   24.8638    0.0000 </r>
       <r>   26.0871    0.0000 </r>
       <r>   27.3263    0.0000 </r>
      </set>
      <set comment="kpoint 8">
       <r>   -2.1884    1.0000 </r>
       <r>   14.3673    0.0000 </r>
       <r>   16.8012    0.0000 </r>
       <r>   19.3326    0.0000 </r>
       <r>   22.8002    0.0000 </r>
       <r>   24.3512    0.0000 </r>
       <r>   26.6603    0.0000 </r>
       <r>   29.2105    0.0000 </r>
      </set>
      <set comment="kpoint 9">
       <r>   -0.6168    1.0000 </r>
       <r>   10.5333    1.0000 </r>
       <r>   15.6417    0.0000 </r>
       <r>   18.2377    0.0000 </r>
       <r>   21.8195    0.0000 </r>
       <r>   23.8762    0.0000 </r>
       <r>   27.5807    0.0000 </r>
       <r>   31.1540    0.0000 </r>
      </set>
      <set comment="kpoint 10">
       <r>    1.4599    1.0000 </r>
       <r>    7.0632    1.0000 </r>
       <r>   14.9413    0.0000 </r>
       <r>   17.5604    0.0000 </r>
       <r>   21.1667    0.0000 </r>
       <r>   23.4295    0.0000 </r>
       <r>   29.1739    0.0000 </r>
       <r>   32.3067    0.0000 </r>
      </set>
      <set comment="kpoint 11">
       <r>    3.9632    1.0000 </r>
       <r>    4.0917    1.0000 </r>
       <r>   14.7069    0.0000 </r>
       <r>   17.3322    0.0000 </r>
       <r>   20.9428    0.0000 </r>
       <r>   23.2603    0.0000 </r>
       <r>   30.8654    0.0000 </r>
       <r>   31.3860    0.0000 </r>
      </set>
      <set comment="kpoint 12">
       <r>   -0.8778    1.0000 </r>
       <r>   12.8759    0.0000 </r>
       <r>   13.0088    0.0000 </r>
       <r>   18.0687    0.0000 </r>
       <r>   23.5290    0.0000 </r>
       <r>   24.2284    0.0000 </r>
       <r>   28.4786    0.0000 </r>
       <r>   29.4942    0.0000 </r>
      </set>
      <set comment="kpoint 13">
       <r>    0.9430    1.0000 </r>
       <r>    9.3017    1.0000 </r>
       <r>   11.9764    0.0000 </r>
       <r>   17.1888    0.0000 </r>
       <r>   23.0729    0.0000 </r>
       <r>   25.1742    0.0000 </r>
       <r>   28.6021    0.0000 </r>
       <r>   31.4332    0.0000 </r>
      </set>
      <set comment="kpoint 14">
       <r>    3.2599    1.0000 </r>
       <r>    6.0574    1.0000 </r>
       <r>   11.4902    0.0000 </r>
       <r>   16.7384    0.0000 </r>
       <r>   22.6710    0.0000 </r>
       <r>   26.1429    0.0000 </r>
       <r>   28.9129    0.0000 </r>
       <r>   30.9239    0.0000 </r>
      </set>
      <set comment="kpoint 15">
       <r>    3.0043    1.0000 </r>
       <r>    8.5341    1.0000 </r>
       <r>    8.5824    1.0000 </r>
       <r>   16.5332    0.0000 </r>
       <r>   24.5201    0.0000 </r>
       <r>   25.1643    0.0000 </r>
       <r>   29.2748    0.0000 </r>
       <r>   31.8020    0.0000 </r>
      </set>
      <set comment="kpoint 16">
       <r>    5.5101    1.0000 </r>
       <r>    5.5919    1.0000 </r>
       <r>    8.3098    1.0000 </r>
       <r>   16.3094    0.0000 </r>
       <r>   24.5958    0.0000 </r>
       <r>   26.6079    0.0000 </r>
       <r>   27.5249    0.0000 </r>
       <r>   32.6691    0.0000 </r>
      </set>
      <set comment="kpoint 17">
       <r>   -2.4514    1.0000 </r>
       <r>   16.3253    0.0000 </r>
       <r>   16.9085    0.0000 </r>
       <r>   16.9085    0.0000 </r>
       <r>   25.6657    0.0000 </r>
       <r>   25.6657    0.0000 </r>
       <r>   27.3767    0.0000 </r>
       <r>   27.3767    0.0000 </r>
      </set>
      <set comment="kpoint 18">
       <r>   -1.1393    1.0000 </r>
       <r>   12.7202    0.0000 </r>
       <r>   15.1604    0.0000 </r>
       <r>   15.5239    0.0000 </r>
       <r>   25.3931    0.0000 </r>
       <r>   25.8643    0.0000 </r>
       <r>   28.6821    0.0000 </r>
       <r>   28.8337    0.0000 </r>
      </set>
      <set comment="kpoint 19">
       <r>    0.6839    1.0000 </r>
       <r>    9.0606    1.0000 </r>
       <r>   14.2275    0.0000 </r>
       <r>   14.5692    0.0000 </r>
       <r>   24.9097    0.0000 </r>
       <r>   25.2436    0.0000 </r>
       <r>   30.2645    0.0000 </r>
       <r>   30.7430    0.0000 </r>
      </set>
      <set comment="kpoint 20">
       <r>    3.0041    1.0000 </r>
       <r>    5.8070    1.0000 </r>
       <r>   13.7604    0.0000 </r>
       <r>   14.0850    0.0000 </r>
       <r>   24.5947    0.0000 </r>
       <r>   24.8793    0.0000 </r>
       <r>   31.7446    0.0000 </r>
       <r>   32.5249    0.0000 </r>
      </set>
      <set comment="kpoint 21">
       <r>   -3.5071    1.0000 </r>
       <r>   19.6321    0.0000 </r>
       <r>   19.6321    0.0000 </r>
       <r>   21.2942    0.0000 </r>
       <r>   23.6592    0.0000 </r>
       <r>   24.2117    0.0000 </r>
       <r>   25.9013    0.0000 </r>
       <r>   25.9013    0.0000 </r>
      </set>
      <set comment="kpoint 22">
       <r>    0.4246    1.0000 </r>
       <r>   11.4636    0.0000 </r>
       <r>   11.5755    0.0000 </r>
       <r>   14.1880    0.0000 </r>
       <r>   26.5596    0.0000 </r>
       <r>   27.3530    0.0000 </r>
       <r>   29.4910    0.0000 </r>
       <r>   30.2973    0.0000 </r>
      </set>
      <set comment="kpoint 23">
       <r>    2.4917    1.0000 </r>
       <r>    8.0684    1.0000 </r>
       <r>   10.7889    0.7888 </r>
       <r>   13.4756    0.0000 </r>
       <r>   26.5959    0.0000 </r>
       <r>   27.9695    0.0000 </r>
       <r>   30.5733    0.0000 </r>
       <r>   32.1487    0.0000 </r>
      </set>
      <set comment="kpoint 24">
       <r>    4.9987    1.0000 </r>
       <r>    5.0954    1.0000 </r>
       <r>   10.5438    1.0000 </r>
       <r>   13.2368    0.0000 </r>
       <r>   26.4804    0.0000 </r>
       <r>   28.1836    0.0000 </r>
       <r>   31.4750    0.0000 </r>
       <r>   32.4193    0.0000 </r>
      </set>
      <set comment="kpoint 25">
       <r>   -2.7148    1.0000 </r>
       <r>   16.3522    0.0000 </r>
       <r>   17.8624    0.0000 </r>
       <r>   20.3547    0.0000 </r>
       <r>   22.4362    0.0000 </r>
       <r>   23.3212    0.0000 </r>
       <r>   26.1191    0.0000 </r>
       <r>   28.3954    0.0000 </r>
      </set>
      <set comment="kpoint 26">
       <r>    4.7926    1.0000 </r>
       <r>    7.5421    1.0000 </r>
       <r>    7.5974    1.0000 </r>
       <r>   13.0014    0.0000 </r>
       <r>   27.9871    0.0000 </r>
       <r>   29.0355    0.0000 </r>
       <r>   30.7600    0.0000 </r>
       <r>   33.0984    0.0000 </r>
      </set>
      <set comment="kpoint 27">
       <r>   -1.4011    1.0000 </r>
       <r>   12.4549    0.0000 </r>
       <r>   16.4953    0.0000 </r>
       <r>   19.2269    0.0000 </r>
       <r>   22.0634    0.0000 </r>
       <r>   22.6623    0.0000 </r>
       <r>   25.8531    0.0000 </r>
       <r>   31.6402    0.0000 </r>
      </set>
      <set comment="kpoint 28">
       <r>   -1.6631    1.0000 </r>
       <r>   14.6552    0.0000 </r>
       <r>   14.7894    0.0000 </r>
       <r>   19.8734    0.0000 </r>
       <r>   21.2015    0.0000 </r>
       <r>   22.9771    0.0000 </r>
       <r>   27.8762    0.0000 </r>
       <r>   28.7187    0.0000 </r>
      </set>
      <set comment="kpoint 29">
       <r>    0.4241    1.0000 </r>
       <r>    8.8034    1.0000 </r>
       <r>   15.5761    0.0000 </r>
       <r>   18.3413    0.0000 </r>
       <r>   21.1568    0.0000 </r>
       <r>   22.8330    0.0000 </r>
       <r>   26.4433    0.0000 </r>
       <r>   32.0042    0.0000 </r>
      </set>
      <set comment="kpoint 30">
       <r>   -0.0956    1.0000 </r>
       <r>   10.9952    0.0000 </r>
       <r>   13.5359    0.0000 </r>
       <r>   19.1857    0.0000 </r>
       <r>   21.3506    0.0000 </r>
       <r>   22.5413    0.0000 </r>
       <r>   27.5283    0.0000 </r>
       <r>   30.8050    0.0000 </r>
      </set>
      <set comment="kpoint 31">
       <r>    2.7462    1.0000 </r>
       <r>    5.5509    1.0000 </r>
       <r>   15.1147    0.0000 </r>
       <r>   17.8805    0.0000 </r>
       <r>   20.6918    0.0000 </r>
       <r>   22.7493    0.0000 </r>
       <r>   28.0222    0.0000 </r>
       <r>   30.2599    0.0000 </r>
      </set>
      <set comment="kpoint 32">
       <r>    1.9755    1.0000 </r>
       <r>    7.5563    1.0000 </r>
       <r>   12.8175    0.0000 </r>
       <r>   18.5594    0.0000 </r>
       <r>   21.0188    0.0000 </r>
       <r>   23.6239    0.0000 </r>
       <r>   26.9474    0.0000 </r>
       <r>   29.8939    0.0000 </r>
      </set>
      <set comment="kpoint 33">
       <r>    1.7178    1.0000 </r>
       <r>    9.9900    1.0000 </r>
       <r>   10.0378    1.0000 </r>
       <r>   19.5098    0.0000 </r>
       <r>   21.4298    0.0000 </r>
       <r>   22.0572    0.0000 </r>
       <r>   28.1560    0.0000 </r>
       <r>   30.7781    0.0000 </r>
      </set>
      <set comment="kpoint 34">
       <r>    4.4802    1.0000 </r>
       <r>    4.5888    1.0000 </r>
       <r>   12.5775    0.0000 </r>
       <r>   18.3399    0.0000 </r>
       <r>   20.8290    0.0000 </r>
       <r>   24.5113    0.0000 </r>
       <r>   26.6603    0.0000 </r>
       <r>   28.8751    0.0000 </r>
      </set>
      <set comment="kpoint 35">
       <r>    4.0244    1.0000 </r>
       <r>    6.8038    1.0000 </r>
       <r>    9.5205    1.0000 </r>
       <r>   19.3025    0.0000 </r>
       <r>   21.3712    0.0000 </r>
       <r>   23.4166    0.0000 </r>
       <r>   25.7677    0.0000 </r>
       <r>   31.5178    0.0000 </r>
      </set>
      <set comment="kpoint 36">
       <r>    6.4948    1.0000 </r>
       <r>    6.5806    1.0000 </r>
       <r>    6.5806    1.0000 </r>
       <r>   19.3594    0.0000 </r>
       <r>   23.1745    0.0000 </r>
       <r>   23.3229    0.0000 </r>
       <r>   23.3229    0.0000 </r>
       <r>   34.6486    0.0000 </r>
      </set>
      <set comment="kpoint 37">
       <r>    2.2348    1.0000 </r>
       <r>   10.4584    1.0000 </r>
       <r>   10.5992    1.0000 </r>
       <r>   10.5992    1.0000 </r>
       <r>   29.3310    0.0000 </r>
       <r>   29.3310    0.0000 </r>
       <r>   31.0647    0.0000 </r>
       <r>   31.0647    0.0000 </r>
      </set>
      <set comment="kpoint 38">
       <r>    4.5392    1.0000 </r>
       <r>    7.3210    1.0000 </r>
       <r>   10.0194    1.0000 </r>
       <r>   10.1078    1.0000 </r>
       <r>   29.9413    0.0000 </r>
       <r>   30.1693    0.0000 </r>
       <r>   32.4147    0.0000 </r>
       <r>   32.8422    0.0000 </r>
      </set>
      <set comment="kpoint 39">
       <r>   -1.9255    1.0000 </r>
       <r>   16.0597    0.0000 </r>
       <r>   16.0597    0.0000 </r>
       <r>   18.3601    0.0000 </r>
       <r>   19.4921    0.0000 </r>
       <r>   25.7566    0.0000 </r>
       <r>   27.6746    0.0000 </r>
       <r>   27.6746    0.0000 </r>
      </set>
      <set comment="kpoint 40">
       <r>    7.0082    1.0000 </r>
       <r>    7.1020    1.0000 </r>
       <r>    7.1020    1.0000 </r>
       <r>    9.8200    1.0000 </r>
       <r>   31.1770    0.0000 </r>
       <r>   32.1888    0.0000 </r>
       <r>   32.1888    0.0000 </r>
       <r>   34.0039    0.0000 </r>
      </set>
      <set comment="kpoint 41">
       <r>   -0.6168    1.0000 </r>
       <r>   13.0542    0.0000 </r>
       <r>   14.6680    0.0000 </r>
       <r>   17.3988    0.0000 </r>
       <r>   19.1270    0.0000 </r>
       <r>   25.2419    0.0000 </r>
       <r>   27.5986    0.0000 </r>
       <r>   30.4181    0.0000 </r>
      </set>
      <set comment="kpoint 42">
       <r>    1.2011    1.0000 </r>
       <r>    9.5179    1.0000 </r>
       <r>   13.7335    0.0000 </r>
       <r>   16.4870    0.0000 </r>
       <r>   20.4592    0.0000 </r>
       <r>   24.4129    0.0000 </r>
       <r>   26.4538    0.0000 </r>
       <r>   29.4307    0.0000 </r>
      </set>
      <set comment="kpoint 43">
       <r>    0.9424    1.0000 </r>
       <r>   11.8248    0.0000 </r>
       <r>   11.8753    0.0000 </r>
       <r>   17.5475    0.0000 </r>
       <r>   18.1719    0.0000 </r>
       <r>   25.0536    0.0000 </r>
       <r>   27.4873    0.0000 </r>
       <r>   30.1462    0.0000 </r>
      </set>
      <set comment="kpoint 44">
       <r>    3.5131    1.0000 </r>
       <r>    6.2998    1.0000 </r>
       <r>   13.2645    0.0000 </r>
       <r>   16.0039    0.0000 </r>
       <r>   22.1630    0.0000 </r>
       <r>   23.9688    0.0000 </r>
       <r>   24.8471    0.0000 </r>
       <r>   28.4932    0.0000 </r>
      </set>
      <set comment="kpoint 45">
       <r>    3.0015    1.0000 </r>
       <r>    8.5262    1.0000 </r>
       <r>   11.1228    0.0000 </r>
       <r>   17.1015    0.0000 </r>
       <r>   19.5797    0.0000 </r>
       <r>   24.0157    0.0000 </r>
       <r>   25.3375    0.0000 </r>
       <r>   30.7146    0.0000 </r>
      </set>
      <set comment="kpoint 46">
       <r>    5.5037    1.0000 </r>
       <r>    5.5790    1.0000 </r>
       <r>   10.8793    0.0397 </r>
       <r>   16.8728    0.0000 </r>
       <r>   21.2546    0.0000 </r>
       <r>   22.3612    0.0000 </r>
       <r>   24.7394    0.0000 </r>
       <r>   30.6795    0.0000 </r>
      </set>
      <set comment="kpoint 47">
       <r>    5.2878    1.0000 </r>
       <r>    8.0113    1.0000 </r>
       <r>    8.0460    1.0000 </r>
       <r>   18.6858    0.0000 </r>
       <r>   19.4552    0.0000 </r>
       <r>   21.6705    0.0000 </r>
       <r>   24.6968    0.0000 </r>
       <r>   33.6647    0.0000 </r>
      </set>
      <set comment="kpoint 48">
       <r>    0.6833    1.0000 </r>
       <r>   13.2638    0.0000 </r>
       <r>   13.2638    0.0000 </r>
       <r>   15.7609    0.0000 </r>
       <r>   16.3033    0.0000 </r>
       <r>   27.1328    0.0000 </r>
       <r>   28.3052    0.0000 </r>
       <r>   29.9344    0.0000 </r>
      </set>
      <set comment="kpoint 49">
       <r>    2.4883    1.0000 </r>
       <r>   10.6344    1.0000 </r>
       <r>   12.3219    0.0000 </r>
       <r>   15.0094    0.0000 </r>
       <r>   16.6970    0.0000 </r>
       <r>   24.1008    0.0000 </r>
       <r>   28.1296    0.0000 </r>
       <r>   30.7493    0.0000 </r>
      </set>
      <set comment="kpoint 50">
       <r>    4.7804    1.0000 </r>
       <r>    7.5287    1.0000 </r>
       <r>   11.8499    0.0000 </r>
       <r>   14.5193    0.0000 </r>
       <r>   18.6502    0.0000 </r>
       <r>   21.2463    0.0000 </r>
       <r>   27.7277    0.0000 </r>
       <r>   30.8628    0.0000 </r>
      </set>
      <set comment="kpoint 51">
       <r>    4.5265    1.0000 </r>
       <r>    9.8896    1.0000 </r>
       <r>    9.9135    1.0000 </r>
       <r>   15.7659    0.0000 </r>
       <r>   16.1185    0.0000 </r>
       <r>   20.9997    0.0000 </r>
       <r>   28.5130    0.0000 </r>
       <r>   33.0398    0.0000 </r>
      </set>
      <set comment="kpoint 52">
       <r>    7.0073    1.0000 </r>
       <r>    7.0484    1.0000 </r>
       <r>    9.6566    1.0000 </r>
       <r>   15.6767    0.0000 </r>
       <r>   18.0023    0.0000 </r>
       <r>   18.4509    0.0000 </r>
       <r>   28.3957    0.0000 </r>
       <r>   33.6606    0.0000 </r>
      </set>
      <set comment="kpoint 53">
       <r>    4.2722    1.0000 </r>
       <r>   11.3762    0.0000 </r>
       <r>   11.3762    0.0000 </r>
       <r>   13.8839    0.0000 </r>
       <r>   14.1626    0.0000 </r>
       <r>   20.7710    0.0000 </r>
       <r>   31.7513    0.0000 </r>
       <r>   32.8293    0.0000 </r>
      </set>
      <set comment="kpoint 54">
       <r>    6.5260    1.0000 </r>
       <r>    9.1649    1.0000 </r>
       <r>   10.9028    0.0078 </r>
       <r>   13.5026    0.0000 </r>
       <r>   15.2144    0.0000 </r>
       <r>   17.7524    0.0000 </r>
       <r>   31.8180    0.0000 </r>
       <r>   33.7702    0.0000 </r>
      </set>
      <set comment="kpoint 55">
       <r>    8.9002    1.0000 </r>
       <r>    8.9286    1.0000 </r>
       <r>    8.9286    1.0000 </r>
       <r>   14.7312    0.0000 </r>
       <r>   15.0873    0.0000 </r>
       <r>   15.0873    0.0000 </r>
       <r>   32.3917    0.0000 </r>
       <r>   36.0023    0.0000 </r>
      </set>
      <set comment="kpoint 56">
       <r>    8.6729    1.0000 </r>
       <r>   10.4289    1.0000 </r>
       <r>   10.4289    1.0000 </r>
       <r>   12.9028    0.0000 </r>
       <r>   13.0901    0.0000 </r>
       <r>   14.7309    0.0000 </r>
       <r>   35.5273    0.0000 </r>
       <r>   35.8058    0.0000 </r>
      </set>
     </set>
    </set>
   </array>
  </eigenvalues>
  <separator name="orbital magnetization" >
   <v name="MAGDIPOLOUT">      0.00000000      0.00000000      0.00000000</v>
  </separator>
  <dos>
   <i name="efermi">     10.81726094 </i>
   <total>
    <array>
     <dimension dim="1">gridpoints</dimension>
     <dimension dim="2">spin</dimension>
     <field>energy</field>
     <field>total</field>
     <field>integrated</field>
     <set>
      <set comment="spin 1">
       <r>    -6.0390     0.0000     0.0000 </r>
       <r>    -5.8922     0.0000     0.0000 </r>
       <r>    -5.7453     0.0000     0.0000 </r>
       <r>    -5.5985     0.0000     0.0000 </r>
       <r>    -5.4517     0.0000     0.0000 </r>
       <r>    -5.3049     0.0000     0.0000 </r>
       <r>    -5.1581     0.0000     0.0000 </r>
       <r>    -5.0113     0.0000     0.0000 </r>
       <r>    -4.8645     0.0000     0.0000 </r>
       <r>    -4.7177     0.0000     0.0000 </r>
       <r>    -4.5709     0.0000     0.0000 </r>
       <r>    -4.4240     0.0000     0.0000 </r>
       <r>    -4.2772     0.0000     0.0000 </r>
       <r>    -4.1304     0.0000     0.0000 </r>
       <r>    -3.9836     0.0095     0.0014 </r>
       <r>    -3.8368     0.0047     0.0021 </r>
       <r>    -3.6900     0.1175     0.0193 </r>
       <r>    -3.5432     0.0107     0.0209 </r>
       <r>    -3.3964     0.0519     0.0285 </r>
       <r>    -3.2496     0.1040     0.0438 </r>
       <r>    -3.1027     0.1418     0.0646 </r>
       <r>    -2.9559     0.0908     0.0779 </r>
       <r>    -2.8091     0.0330     0.0828 </r>
       <r>    -2.6623     0.2278     0.1162 </r>
       <r>    -2.5155     0.0198     0.1191 </r>
       <r>    -2.3687     0.0782     0.1306 </r>
       <r>    -2.2219     0.0850     0.1431 </r>
       <r>    -2.0751     0.4067     0.2028 </r>
       <r>    -1.9283     0.0291     0.2071 </r>
       <r>    -1.7814     0.0328     0.2119 </r>
       <r>    -1.6346     0.2909     0.2546 </r>
       <r>    -1.4878     0.0792     0.2662 </r>
       <r>    -1.3410     0.2329     0.3004 </r>
       <r>    -1.1942     0.0258     0.3042 </r>
       <r>    -1.0474     0.2297     0.3379 </r>
       <r>    -0.9006     0.0650     0.3475 </r>
       <r>    -0.7538     0.1817     0.3742 </r>
       <r>    -0.6070     0.4492     0.4401 </r>
       <r>    -0.4602     0.2878     0.4823 </r>
       <r>    -0.3133     0.0000     0.4823 </r>
       <r>    -0.1665     0.0110     0.4840 </r>
       <r>    -0.0197     0.4724     0.5533 </r>
       <r>     0.1271     0.0257     0.5571 </r>
       <r>     0.2739     0.1048     0.5725 </r>
       <r>     0.4207     0.2255     0.6056 </r>
       <r>     0.5675     0.2660     0.6446 </r>
       <r>     0.7143     0.2473     0.6810 </r>
       <r>     0.8611     0.0673     0.6908 </r>
       <r>     1.0080     0.7052     0.7944 </r>
       <r>     1.1548     0.0474     0.8013 </r>
       <r>     1.3016     0.2218     0.8339 </r>
       <r>     1.4484     0.1834     0.8608 </r>
       <r>     1.5952     0.3085     0.9061 </r>
       <r>     1.7420     0.1849     0.9332 </r>
       <r>     1.8888     0.0642     0.9427 </r>
       <r>     2.0356     0.4660     1.0111 </r>
       <r>     2.1824     0.0275     1.0151 </r>
       <r>     2.3293     0.0759     1.0263 </r>
       <r>     2.4761     0.2946     1.0695 </r>
       <r>     2.6229     0.5654     1.1525 </r>
       <r>     2.7697     0.1834     1.1794 </r>
       <r>     2.9165     0.0695     1.1896 </r>
       <r>     3.0633     0.9323     1.3265 </r>
       <r>     3.2101     0.0822     1.3386 </r>
       <r>     3.3569     0.4507     1.4047 </r>
       <r>     3.5037     0.0988     1.4192 </r>
       <r>     3.6506     0.1483     1.4410 </r>
       <r>     3.7974     0.0000     1.4410 </r>
       <r>     3.9442     0.0783     1.4525 </r>
       <r>     4.0910     0.7650     1.5648 </r>
       <r>     4.2378     0.1495     1.5868 </r>
       <r>     4.3846     0.0521     1.5944 </r>
       <r>     4.5314     0.4773     1.6645 </r>
       <r>     4.6782     0.5037     1.7384 </r>
       <r>     4.8250     0.4226     1.8005 </r>
       <r>     4.9719     0.1246     1.8188 </r>
       <r>     5.1187     0.3734     1.8736 </r>
       <r>     5.2655     0.1478     1.8953 </r>
       <r>     5.4123     0.2852     1.9371 </r>
       <r>     5.5591     0.7137     2.0419 </r>
       <r>     5.7059     0.5131     2.1173 </r>
       <r>     5.8527     0.2212     2.1497 </r>
       <r>     5.9995     0.0491     2.1569 </r>
       <r>     6.1463     0.4634     2.2250 </r>
       <r>     6.2931     0.1075     2.2407 </r>
       <r>     6.4400     0.1478     2.2625 </r>
       <r>     6.5868     0.4031     2.3216 </r>
       <r>     6.7336     0.0930     2.3353 </r>
       <r>     6.8804     0.4724     2.4046 </r>
       <r>     7.0272     0.3866     2.4614 </r>
       <r>     7.1740     0.8451     2.5855 </r>
       <r>     7.3208     0.1263     2.6040 </r>
       <r>     7.4676     0.1409     2.6247 </r>
       <r>     7.6144     1.1017     2.7864 </r>
       <r>     7.7613     0.1088     2.8024 </r>
       <r>     7.9081     0.0004     2.8025 </r>
       <r>     8.0549     0.5378     2.8814 </r>
       <r>     8.2017     0.4446     2.9467 </r>
       <r>     8.3485     0.2119     2.9778 </r>
       <r>     8.4953     0.1665     3.0022 </r>
       <r>     8.6421     0.9711     3.1448 </r>
       <r>     8.7889     0.1467     3.1663 </r>
       <r>     8.9357     0.3257     3.2142 </r>
       <r>     9.0826     0.2639     3.2529 </r>
       <r>     9.2294     0.3106     3.2985 </r>
       <r>     9.3762     0.4811     3.3691 </r>
       <r>     9.5230     0.4052     3.4286 </r>
       <r>     9.6698     0.4990     3.5019 </r>
       <r>     9.8166     0.1304     3.5210 </r>
       <r>     9.9634     0.5797     3.6061 </r>
       <r>    10.1102     0.8102     3.7251 </r>
       <r>    10.2570     0.1224     3.7430 </r>
       <r>    10.4039     0.0345     3.7481 </r>
       <r>    10.5507     0.6658     3.8459 </r>
       <r>    10.6975     0.6435     3.9403 </r>
       <r>    10.8443     0.5213     4.0169 </r>
       <r>    10.9911     0.6899     4.1182 </r>
       <r>    11.1379     0.5968     4.2058 </r>
       <r>    11.2847     0.1649     4.2300 </r>
       <r>    11.4315     0.1836     4.2569 </r>
       <r>    11.5783     0.8031     4.3748 </r>
       <r>    11.7252     0.1187     4.3923 </r>
       <r>    11.8720     0.5172     4.4682 </r>
       <r>    12.0188     0.6536     4.5642 </r>
       <r>    12.1656     0.0597     4.5729 </r>
       <r>    12.3124     0.2147     4.6045 </r>
       <r>    12.4592     0.2856     4.6464 </r>
       <r>    12.6060     0.3051     4.6912 </r>
       <r>    12.7528     0.2699     4.7308 </r>
       <r>    12.8996     0.7268     4.8375 </r>
       <r>    13.0465     0.6381     4.9312 </r>
       <r>    13.1933     0.2939     4.9743 </r>
       <r>    13.3401     0.5729     5.0584 </r>
       <r>    13.4869     0.4346     5.1222 </r>
       <r>    13.6337     0.7991     5.2396 </r>
       <r>    13.7805     0.3998     5.2982 </r>
       <r>    13.9273     0.1470     5.3198 </r>
       <r>    14.0741     0.1004     5.3346 </r>
       <r>    14.2209     0.5177     5.4106 </r>
       <r>    14.3677     0.4352     5.4745 </r>
       <r>    14.5146     0.3679     5.5285 </r>
       <r>    14.6614     0.6376     5.6221 </r>
       <r>    14.8082     0.7791     5.7365 </r>
       <r>    14.9550     0.4106     5.7967 </r>
       <r>    15.1018     0.6087     5.8861 </r>
       <r>    15.2486     0.6513     5.9817 </r>
       <r>    15.3954     0.0426     5.9880 </r>
       <r>    15.5422     0.2141     6.0194 </r>
       <r>    15.6890     0.8850     6.1493 </r>
       <r>    15.8359     0.4292     6.2124 </r>
       <r>    15.9827     0.0761     6.2235 </r>
       <r>    16.1295     0.4496     6.2895 </r>
       <r>    16.2763     0.2775     6.3303 </r>
       <r>    16.4231     0.5833     6.4159 </r>
       <r>    16.5699     0.6856     6.5166 </r>
       <r>    16.7167     0.3614     6.5696 </r>
       <r>    16.8635     1.1272     6.7351 </r>
       <r>    17.0103     0.3172     6.7817 </r>
       <r>    17.1572     0.5591     6.8638 </r>
       <r>    17.3040     0.5964     6.9513 </r>
       <r>    17.4508     0.4229     7.0134 </r>
       <r>    17.5976     0.6622     7.1106 </r>
       <r>    17.7444     0.1919     7.1388 </r>
       <r>    17.8912     0.4916     7.2109 </r>
       <r>    18.0380     0.4071     7.2707 </r>
       <r>    18.1848     0.6733     7.3696 </r>
       <r>    18.3316     0.8683     7.4970 </r>
       <r>    18.4785     0.5458     7.5772 </r>
       <r>    18.6253     0.9441     7.7158 </r>
       <r>    18.7721     0.4501     7.7818 </r>
       <r>    18.9189     0.0019     7.7821 </r>
       <r>    19.0657     0.0974     7.7964 </r>
       <r>    19.2125     0.7370     7.9046 </r>
       <r>    19.3593     1.1661     8.0758 </r>
       <r>    19.5061     0.7949     8.1925 </r>
       <r>    19.6529     0.7433     8.3017 </r>
       <r>    19.7998     0.0517     8.3093 </r>
       <r>    19.9466     0.3592     8.3620 </r>
       <r>    20.0934     0.1229     8.3800 </r>
       <r>    20.2402     0.0877     8.3929 </r>
       <r>    20.3870     0.2424     8.4285 </r>
       <r>    20.5338     0.2807     8.4697 </r>
       <r>    20.6806     0.1969     8.4986 </r>
       <r>    20.8274     0.5928     8.5857 </r>
       <r>    20.9742     0.4443     8.6509 </r>
       <r>    21.1210     0.7692     8.7638 </r>
       <r>    21.2679     1.4692     8.9795 </r>
       <r>    21.4147     1.3230     9.1737 </r>
       <r>    21.5615     0.2447     9.2097 </r>
       <r>    21.7083     0.3828     9.2659 </r>
       <r>    21.8551     0.5223     9.3425 </r>
       <r>    22.0019     0.1017     9.3575 </r>
       <r>    22.1487     0.5478     9.4379 </r>
       <r>    22.2955     0.1723     9.4632 </r>
       <r>    22.4423     0.3767     9.5185 </r>
       <r>    22.5892     0.6783     9.6181 </r>
       <r>    22.7360     0.9610     9.7592 </r>
       <r>    22.8828     0.9732     9.9020 </r>
       <r>    23.0296     0.3565     9.9544 </r>
       <r>    23.1764     0.5251    10.0315 </r>
       <r>    23.3232     0.4914    10.1036 </r>
       <r>    23.4700     1.1151    10.2673 </r>
       <r>    23.6168     0.7745    10.3810 </r>
       <r>    23.7636     0.4450    10.4464 </r>
       <r>    23.9105     0.4729    10.5158 </r>
       <r>    24.0573     0.7724    10.6292 </r>
       <r>    24.2041     0.3646    10.6827 </r>
       <r>    24.3509     0.4750    10.7524 </r>
       <r>    24.4977     0.6337    10.8455 </r>
       <r>    24.6445     0.8102    10.9644 </r>
       <r>    24.7913     0.5173    11.0404 </r>
       <r>    24.9381     1.0289    11.1914 </r>
       <r>    25.0849     0.2783    11.2323 </r>
       <r>    25.2318     0.9311    11.3690 </r>
       <r>    25.3786     0.8520    11.4940 </r>
       <r>    25.5254     0.2222    11.5267 </r>
       <r>    25.6722     0.0961    11.5408 </r>
       <r>    25.8190     0.6489    11.6360 </r>
       <r>    25.9658     0.5808    11.7213 </r>
       <r>    26.1126     0.4825    11.7921 </r>
       <r>    26.2594     0.6297    11.8846 </r>
       <r>    26.4062     0.1809    11.9112 </r>
       <r>    26.5531     0.8469    12.0355 </r>
       <r>    26.6999     1.4505    12.2484 </r>
       <r>    26.8467     0.1000    12.2631 </r>
       <r>    26.9935     0.4430    12.3282 </r>
       <r>    27.1403     0.0832    12.3404 </r>
       <r>    27.2871     0.1715    12.3656 </r>
       <r>    27.4339     0.6393    12.4594 </r>
       <r>    27.5807     1.3056    12.6511 </r>
       <r>    27.7275     0.7763    12.7651 </r>
       <r>    27.8743     0.2511    12.8019 </r>
       <r>    28.0212     0.9066    12.9350 </r>
       <r>    28.1680     0.6499    13.0304 </r>
       <r>    28.3148     0.3318    13.0791 </r>
       <r>    28.4616     0.6700    13.1775 </r>
       <r>    28.6084     0.9838    13.3220 </r>
       <r>    28.7552     0.6737    13.4209 </r>
       <r>    28.9020     0.7639    13.5330 </r>
       <r>    29.0488     0.5253    13.6101 </r>
       <r>    29.1956     0.6141    13.7003 </r>
       <r>    29.3425     0.7981    13.8174 </r>
       <r>    29.4893     0.5276    13.8949 </r>
       <r>    29.6361     0.2758    13.9354 </r>
       <r>    29.7829     0.0018    13.9356 </r>
       <r>    29.9297     0.6507    14.0312 </r>
       <r>    30.0765     0.2757    14.0717 </r>
       <r>    30.2233     0.5364    14.1504 </r>
       <r>    30.3701     0.7008    14.2533 </r>
       <r>    30.5169     0.2582    14.2912 </r>
       <r>    30.6638     0.7037    14.3945 </r>
       <r>    30.8106     1.8286    14.6630 </r>
       <r>    30.9574     1.1601    14.8333 </r>
       <r>    31.1042     0.2691    14.8728 </r>
       <r>    31.2510     0.5513    14.9537 </r>
       <r>    31.3978     0.2545    14.9911 </r>
       <r>    31.5446     1.2294    15.1716 </r>
       <r>    31.6914     0.3626    15.2248 </r>
       <r>    31.8382     0.6887    15.3259 </r>
       <r>    31.9851     0.1806    15.3524 </r>
       <r>    32.1319     0.3380    15.4021 </r>
       <r>    32.2787     0.6363    15.4955 </r>
       <r>    32.4255     0.8287    15.6171 </r>
       <r>    32.5723     0.4371    15.6813 </r>
       <r>    32.7191     0.2478    15.7177 </r>
       <r>    32.8659     0.2554    15.7552 </r>
       <r>    33.0127     0.1272    15.7739 </r>
       <r>    33.1595     0.4246    15.8362 </r>
       <r>    33.3064     0.0104    15.8377 </r>
       <r>    33.4532     0.0000    15.8377 </r>
       <r>    33.6000     0.0189    15.8405 </r>
       <r>    33.7468     0.5305    15.9184 </r>
       <r>    33.8936     0.1876    15.9459 </r>
       <r>    34.0404     0.0695    15.9561 </r>
       <r>    34.1872     0.0124    15.9579 </r>
       <r>    34.3340     0.0000    15.9579 </r>
       <r>    34.4808     0.0000    15.9579 </r>
       <r>    34.6276     0.0226    15.9612 </r>
       <r>    34.7745     0.0592    15.9699 </r>
       <r>    34.9213     0.0000    15.9699 </r>
       <r>    35.0681     0.0000    15.9699 </r>
       <r>    35.2149     0.0000    15.9699 </r>
       <r>    35.3617     0.0000    15.9699 </r>
       <r>    35.5085     0.0183    15.9726 </r>
       <r>    35.6553     0.0431    15.9790 </r>
       <r>    35.8021     0.0282    15.9831 </r>
       <r>    35.9489     0.0386    15.9888 </r>
       <r>    36.0958     0.0762    16.0000 </r>
       <r>    36.2426     0.0003    16.0000 </r>
       <r>    36.3894     0.0000    16.0000 </r>
       <r>    36.5362     0.0000    16.0000 </r>
       <r>    36.6830     0.0000    16.0000 </r>
       <r>    36.8298     0.0000    16.0000 </r>
       <r>    36.9766     0.0000    16.0000 </r>
       <r>    37.1234     0.0000    16.0000 </r>
       <r>    37.2702     0.0000    16.0000 </r>
       <r>    37.4171     0.0000    16.0000 </r>
       <r>    37.5639     0.0000    16.0000 </r>
       <r>    37.7107     0.0000    16.0000 </r>
       <r>    37.8575     0.0000    16.0000 </r>
       <r>    38.0043     0.0000    16.0000 </r>
      </set>
     </set>
    </array>
   </total>
  </dos>
 </calculation>
 <structure name="finalpos" >
  <crystal>
   <varray name="basis" >
    <v>       1.50575900       1.50575900       1.50575900 </v>
    <v>       1.50575900      -1.50575900      -1.50575900 </v>
    <v>      -1.50575900       1.50575900      -1.50575900 </v>
   </varray>
   <i name="volume">     13.65609080 </i>
   <varray name="rec_basis" >
    <v>       0.33205845       0.33205845       0.00000000 </v>
    <v>       0.33205845       0.00000000      -0.33205845 </v>
    <v>       0.00000000       0.33205845      -0.33205845 </v>
   </varray>
  </crystal>
  <varray name="positions" >
   <v>       0.00000000       0.00000000       0.00000000 </v>
  </varray>
 </structure>
</modeling>
