unknown system                          
           1
     1.505759    1.505759    1.505759
     1.505759   -1.505759   -1.505759
    -1.505759    1.505759   -1.505759
   Si
     1
Direct configuration=     1
   0.00000000  0.00000000  0.00000000
