   2   2   0   0
  0.2016476E+02  0.3849278E-09  0.3849279E-09  0.3849278E-09  0.5000000E-15
  1.000000000000000E-004
  CAR 
 unknown system                          
     14.85580806     -6.98773192  301      5.61326021      1.00000000
     -6.988  0.0000E+00  0.0000E+00
     -6.915  0.0000E+00  0.0000E+00
     -6.842  0.0000E+00  0.0000E+00
     -6.769  0.0000E+00  0.0000E+00
     -6.696  0.0000E+00  0.0000E+00
     -6.624  0.0000E+00  0.0000E+00
     -6.551  0.0000E+00  0.0000E+00
     -6.478  0.0000E+00  0.0000E+00
     -6.405  0.0000E+00  0.0000E+00
     -6.332  0.0000E+00  0.0000E+00
     -6.260  0.2983E-15  0.2172E-16
     -6.187  0.2427E-09  0.1767E-10
     -6.114  0.3226E-05  0.2349E-06
     -6.041  0.8123E-03  0.5938E-04
     -5.968  0.5820E-02  0.4831E-03
     -5.896  0.1927E-02  0.6234E-03
     -5.823  0.2137E-04  0.6250E-03
     -5.750  0.4845E-08  0.6250E-03
     -5.677  0.3487E-10  0.6250E-03
     -5.604  0.1296E-05  0.6251E-03
     -5.531  0.8653E-03  0.6881E-03
     -5.459  0.1435E-01  0.1733E-02
     -5.386  0.1025E-01  0.2479E-02
     -5.313  0.2839E-03  0.2500E-02
     -5.240  0.1763E-06  0.2500E-02
     -5.167  0.2152E-09  0.2500E-02
     -5.095  0.4339E-05  0.2500E-02
     -5.022  0.1632E-02  0.2619E-02
     -4.949  0.1647E-01  0.3819E-02
     -4.876  0.7519E-02  0.4366E-02
     -4.803  0.1224E-03  0.4375E-02
     -4.731  0.4232E-07  0.4375E-02
     -4.658  0.2161E-05  0.4375E-02
     -4.585  0.6666E-03  0.4424E-02
     -4.512  0.6053E-02  0.4864E-02
     -4.439  0.1350E-01  0.5848E-02
     -4.367  0.1344E-01  0.6826E-02
     -4.294  0.6706E-03  0.6875E-02
     -4.221  0.8112E-06  0.6875E-02
     -4.148  0.7076E-05  0.6876E-02
     -4.075  0.2940E-02  0.7090E-02
     -4.002  0.3232E-01  0.9443E-02
     -3.930  0.1600E-01  0.1061E-01
     -3.857  0.5529E-02  0.1101E-01
     -3.784  0.1768E-01  0.1230E-01
     -3.711  0.2766E-02  0.1250E-01
     -3.638  0.1258E-04  0.1250E-01
     -3.566  0.1093E-08  0.1250E-01
     -3.493  0.6926E-07  0.1250E-01
     -3.420  0.1644E-03  0.1251E-01
     -3.347  0.8421E-02  0.1313E-01
     -3.274  0.1584E-01  0.1428E-01
     -3.202  0.1328E-02  0.1437E-01
     -3.129  0.2941E-05  0.1438E-01
     -3.056  0.1084E-03  0.1438E-01
     -2.983  0.7168E-02  0.1490E-01
     -2.910  0.1673E-01  0.1612E-01
     -2.837  0.7597E-02  0.1668E-01
     -2.765  0.3551E-01  0.1926E-01
     -2.692  0.1005E-01  0.1999E-01
     -2.619  0.9251E-04  0.2000E-01
     -2.546  0.1713E-07  0.2000E-01
     -2.473  0.5291E-13  0.2000E-01
     -2.401  0.0000E+00  0.2000E-01
     -2.328  0.0000E+00  0.2000E-01
     -2.255  0.0000E+00  0.2000E-01
     -2.182  0.0000E+00  0.2000E-01
     -2.109  0.0000E+00  0.2000E-01
     -2.037  0.0000E+00  0.2000E-01
     -1.964  0.0000E+00  0.2000E-01
     -1.891  0.0000E+00  0.2000E-01
     -1.818  0.0000E+00  0.2000E-01
     -1.745  0.0000E+00  0.2000E-01
     -1.672  0.0000E+00  0.2000E-01
     -1.600  0.0000E+00  0.2000E-01
     -1.527  0.2516E-15  0.2000E-01
     -1.454  0.3425E-09  0.2000E-01
     -1.381  0.7506E-05  0.2000E-01
     -1.308  0.3031E-02  0.2022E-01
     -1.236  0.3281E-01  0.2261E-01
     -1.163  0.2622E-01  0.2452E-01
     -1.090  0.1607E-01  0.2569E-01
     -1.017  0.1817E-01  0.2701E-01
     -0.944  0.2141E-01  0.2857E-01
     -0.872  0.1073E-01  0.2935E-01
     -0.799  0.3141E-03  0.2937E-01
     -0.726  0.2101E-06  0.2937E-01
     -0.653  0.2441E-11  0.2937E-01
     -0.580  0.0000E+00  0.2937E-01
     -0.507  0.1051E-14  0.2938E-01
     -0.435  0.6108E-09  0.2938E-01
     -0.362  0.5841E-05  0.2938E-01
     -0.289  0.1091E-02  0.2945E-01
     -0.216  0.9713E-02  0.3016E-01
     -0.143  0.3526E-01  0.3273E-01
     -0.071  0.1382E-01  0.3374E-01
      0.002  0.1973E-03  0.3375E-01
      0.075  0.5899E-07  0.3375E-01
      0.148  0.2982E-12  0.3375E-01
      0.221  0.0000E+00  0.3375E-01
      0.293  0.0000E+00  0.3375E-01
      0.366  0.0000E+00  0.3375E-01
      0.439  0.3016E-15  0.3375E-01
      0.512  0.3270E-09  0.3375E-01
      0.585  0.5745E-05  0.3375E-01
      0.658  0.1882E-02  0.3389E-01
      0.730  0.1687E-01  0.3512E-01
      0.803  0.6898E-02  0.3562E-01
      0.876  0.9850E-04  0.3563E-01
      0.949  0.1079E-03  0.3563E-01
      1.022  0.7153E-02  0.3615E-01
      1.094  0.1671E-01  0.3737E-01
      1.167  0.1775E-02  0.3750E-01
      1.240  0.5115E-05  0.3750E-01
      1.313  0.2739E-09  0.3750E-01
      1.386  0.1181E-14  0.3750E-01
      1.458  0.9069E-09  0.3750E-01
      1.531  0.1423E-04  0.3750E-01
      1.604  0.4217E-02  0.3781E-01
      1.677  0.3838E-01  0.4060E-01
      1.750  0.3080E-01  0.4285E-01
      1.822  0.3820E-02  0.4312E-01
      1.895  0.2275E-04  0.4312E-01
      1.968  0.2755E-08  0.4312E-01
      2.041  0.3798E-11  0.4313E-01
      2.114  0.2850E-06  0.4313E-01
      2.187  0.3738E-03  0.4315E-01
      2.259  0.1130E-01  0.4398E-01
      2.332  0.2214E-01  0.4559E-01
      2.405  0.4534E-01  0.4889E-01
      2.478  0.2260E-01  0.5053E-01
      2.551  0.1255E-02  0.5062E-01
      2.623  0.6601E-04  0.5063E-01
      2.696  0.8516E-02  0.5125E-01
      2.769  0.3584E-01  0.5386E-01
      2.842  0.7039E-02  0.5437E-01
      2.915  0.4467E-03  0.5440E-01
      2.987  0.1751E-01  0.5568E-01
      3.060  0.3094E-01  0.5793E-01
      3.133  0.2640E-02  0.5812E-01
      3.206  0.6798E-05  0.5813E-01
      3.279  0.4087E-03  0.5815E-01
      3.352  0.1671E-01  0.5937E-01
      3.424  0.3496E-01  0.6192E-01
      3.497  0.2113E-01  0.6346E-01
      3.570  0.4014E-02  0.6375E-01
      3.643  0.2481E-03  0.6377E-01
      3.716  0.1556E-01  0.6490E-01
      3.788  0.4886E-01  0.6846E-01
      3.861  0.1241E-01  0.6936E-01
      3.934  0.2196E-03  0.6938E-01
      4.007  0.2062E-02  0.6953E-01
      4.080  0.1499E-01  0.7062E-01
      4.152  0.1613E-01  0.7179E-01
      4.225  0.1152E-02  0.7188E-01
      4.298  0.3822E-02  0.7215E-01
      4.371  0.2330E-01  0.7385E-01
      4.444  0.2164E-01  0.7543E-01
      4.517  0.4924E-02  0.7579E-01
      4.589  0.1193E-01  0.7665E-01
      4.662  0.3002E-02  0.7687E-01
      4.735  0.2769E-04  0.7688E-01
      4.808  0.1498E-02  0.7698E-01
      4.881  0.1622E-01  0.7817E-01
      4.953  0.7895E-02  0.7874E-01
      5.026  0.1388E-03  0.7875E-01
      5.099  0.5206E-07  0.7875E-01
      5.172  0.1143E-07  0.7875E-01
      5.245  0.4729E-04  0.7875E-01
      5.317  0.4020E-02  0.7905E-01
      5.390  0.1156E-01  0.7989E-01
      5.463  0.1532E-02  0.8000E-01
      5.536  0.5727E-05  0.8000E-01
      5.609  0.4039E-09  0.8000E-01
      5.682  0.4651E-15  0.8000E-01
      5.754  0.0000E+00  0.8000E-01
      5.827  0.0000E+00  0.8000E-01
      5.900  0.0000E+00  0.8000E-01
      5.973  0.0000E+00  0.8000E-01
      6.046  0.0000E+00  0.8000E-01
      6.118  0.0000E+00  0.8000E-01
      6.191  0.0000E+00  0.8000E-01
      6.264  0.1429E-17  0.8000E-01
      6.337  0.7240E-11  0.8000E-01
      6.410  0.4448E-06  0.8000E-01
      6.482  0.4806E-03  0.8004E-01
      6.555  0.1216E-01  0.8092E-01
      6.628  0.1257E-01  0.8184E-01
      6.701  0.5357E-03  0.8187E-01
      6.774  0.5401E-06  0.8187E-01
      6.847  0.2738E-06  0.8188E-01
      6.919  0.3653E-03  0.8190E-01
      6.992  0.1115E-01  0.8271E-01
      7.065  0.1354E-01  0.8370E-01
      7.138  0.7613E-03  0.8375E-01
      7.211  0.3029E-02  0.8398E-01
      7.283  0.5108E-02  0.8435E-01
      7.356  0.3843E-03  0.8438E-01
      7.429  0.1701E-02  0.8450E-01
      7.502  0.1662E-01  0.8571E-01
      7.575  0.1119E-01  0.8652E-01
      7.647  0.1807E-01  0.8784E-01
      7.720  0.6392E-02  0.8830E-01
      7.793  0.2986E-01  0.9048E-01
      7.866  0.1865E-01  0.9184E-01
      7.939  0.1014E-02  0.9191E-01
      8.011  0.1977E-01  0.9335E-01
      8.084  0.3479E-01  0.9588E-01
      8.157  0.4977E-02  0.9625E-01
      8.230  0.1676E-02  0.9637E-01
      8.303  0.1643E-01  0.9756E-01
      8.376  0.7614E-02  0.9812E-01
      8.448  0.6030E-02  0.9856E-01
      8.521  0.4576E-01  0.1019E+00
      8.594  0.3213E-01  0.1042E+00
      8.667  0.1011E-01  0.1050E+00
      8.740  0.4819E-03  0.1050E+00
      8.812  0.6169E-06  0.1050E+00
      8.885  0.3165E-09  0.1050E+00
      8.958  0.4831E-05  0.1050E+00
      9.031  0.1600E-02  0.1051E+00
      9.104  0.2365E-01  0.1068E+00
      9.176  0.5295E-01  0.1107E+00
      9.249  0.3085E-01  0.1129E+00
      9.322  0.3172E-01  0.1152E+00
      9.395  0.5812E-02  0.1157E+00
      9.468  0.1353E-01  0.1167E+00
      9.541  0.1120E-01  0.1175E+00
      9.613  0.3994E-03  0.1175E+00
      9.686  0.4108E-02  0.1178E+00
      9.759  0.1794E-01  0.1191E+00
      9.832  0.5308E-02  0.1195E+00
      9.905  0.2838E-01  0.1216E+00
      9.977  0.2123E-01  0.1231E+00
     10.050  0.1152E-01  0.1239E+00
     10.123  0.1478E-01  0.1250E+00
     10.196  0.6674E-02  0.1255E+00
     10.269  0.1675E-02  0.1256E+00
     10.341  0.5969E-02  0.1261E+00
     10.414  0.1738E-01  0.1273E+00
     10.487  0.2358E-02  0.1275E+00
     10.560  0.4759E-02  0.1278E+00
     10.633  0.3482E-01  0.1304E+00
     10.706  0.1178E-01  0.1312E+00
     10.778  0.1953E-02  0.1314E+00
     10.851  0.2906E-01  0.1335E+00
     10.924  0.2012E-01  0.1350E+00
     10.997  0.5120E-02  0.1353E+00
     11.070  0.2972E-01  0.1375E+00
     11.142  0.1655E-01  0.1387E+00
     11.215  0.6131E-03  0.1387E+00
     11.288  0.6472E-06  0.1387E+00
     11.361  0.7473E-06  0.1388E+00
     11.434  0.9044E-03  0.1388E+00
     11.506  0.2812E-01  0.1409E+00
     11.579  0.4375E-01  0.1440E+00
     11.652  0.4457E-02  0.1444E+00
     11.725  0.5174E-04  0.1444E+00
     11.798  0.6211E-02  0.1448E+00
     11.871  0.3559E-01  0.1474E+00
     11.943  0.9583E-02  0.1481E+00
     12.016  0.8402E-04  0.1481E+00
     12.089  0.1497E-07  0.1481E+00
     12.162  0.4514E-13  0.1481E+00
     12.235  0.3431E-16  0.1481E+00
     12.307  0.6414E-10  0.1481E+00
     12.380  0.1952E-05  0.1481E+00
     12.453  0.1077E-02  0.1482E+00
     12.526  0.1513E-01  0.1493E+00
     12.599  0.9324E-02  0.1500E+00
     12.671  0.2169E-03  0.1500E+00
     12.744  0.1118E-06  0.1500E+00
     12.817  0.1120E-04  0.1500E+00
     12.890  0.2824E-02  0.1502E+00
     12.963  0.3187E-01  0.1525E+00
     13.036  0.3892E-01  0.1554E+00
     13.108  0.3615E-02  0.1556E+00
     13.181  0.1029E-04  0.1556E+00
     13.254  0.5609E-09  0.1556E+00
     13.327  0.3626E-06  0.1556E+00
     13.400  0.2624E-03  0.1556E+00
     13.472  0.4668E-02  0.1560E+00
     13.545  0.3548E-02  0.1562E+00
     13.618  0.1057E-03  0.1562E+00
     13.691  0.1379E-04  0.1563E+00
     13.764  0.2947E-02  0.1565E+00
     13.836  0.2352E-01  0.1582E+00
     13.909  0.2253E-01  0.1598E+00
     13.982  0.2484E-02  0.1600E+00
     14.055  0.9687E-05  0.1600E+00
     14.128  0.7281E-09  0.1600E+00
     14.201  0.8949E-15  0.1600E+00
     14.273  0.0000E+00  0.1600E+00
     14.346  0.0000E+00  0.1600E+00
     14.419  0.0000E+00  0.1600E+00
     14.492  0.0000E+00  0.1600E+00
     14.565  0.0000E+00  0.1600E+00
     14.637  0.0000E+00  0.1600E+00
     14.710  0.0000E+00  0.1600E+00
     14.783  0.0000E+00  0.1600E+00
     14.856  0.0000E+00  0.1600E+00
