    2    2  100    1
  0.2016476E+02  0.3849278E-09  0.3849279E-09  0.3849278E-09  0.5000000E-15
  1.000000000000000E-004
  CAR 
 unknown system                          
      8     10      8
 
  0.1250000E+00  0.1250000E+00  0.1250000E+00  0.3125000E-01
    1       -5.994844   1.000000
    2        4.034324   1.000000
    3        5.342781   1.000000
    4        5.342784   1.000000
    5        8.071328   0.000000
    6        8.599251   0.000000
    7        8.599258   0.000000
    8       10.164641   0.000000
 
  0.3750000E+00  0.1250000E+00  0.1250000E+00  0.9375000E-01
    1       -4.967874   1.000000
    2        1.041966   1.000000
    3        3.356986   1.000000
    4        4.863257   1.000000
    5        8.284155   0.000000
    6        9.288822   0.000000
    7        9.463235   0.000000
    8       11.841353   0.000000
 
 -0.3750000E+00  0.1250000E+00  0.1250000E+00  0.9375000E-01
    1       -3.827771   1.000000
    2       -1.036618   1.000000
    3        3.378231   1.000000
    4        4.092062   1.000000
    5        7.790748   0.000000
    6        9.116629   0.000000
    7        9.721235   0.000000
    8       12.934850   0.000000
 
 -0.1250000E+00  0.1250000E+00  0.1250000E+00  0.9375000E-01
    1       -5.466809   1.000000
    2        2.418661   1.000000
    3        4.335168   1.000000
    4        4.399382   1.000000
    5        7.771487   0.000000
    6        9.254115   0.000000
    7       10.055837   0.000000
    8       10.367143   0.000000
 
  0.3750000E+00  0.3750000E+00  0.1250000E+00  0.9375000E-01
    1       -4.435164   1.000000
    2        0.708832   1.000000
    3        3.008305   1.000000
    4        3.461500   1.000000
    5        6.996813   0.000000
    6        8.529792   0.000000
    7       11.539089   0.000000
    8       11.836890   0.000000
 
 -0.3750000E+00  0.3750000E+00  0.1250000E+00  0.1875000E+00
    1       -2.794785   1.000000
    2       -1.253140   1.000000
    3        1.653361   1.000000
    4        2.730453   1.000000
    5        8.021761   0.000000
    6        9.897217   0.000000
    7       10.842236   0.000000
    8       12.983146   0.000000
 
 -0.1250000E+00  0.3750000E+00  0.1250000E+00  0.1875000E+00
    1       -4.019450   1.000000
    2       -0.164886   1.000000
    3        2.366459   1.000000
    4        3.735873   1.000000
    5        8.491764   0.000000
    6        9.157813   0.000000
    7       10.606756   0.000000
    8       11.508727   0.000000
 
 -0.3750000E+00 -0.3750000E+00  0.1250000E+00  0.9375000E-01
    1       -2.962744   1.000000
    2       -1.155700   1.000000
    3        2.263727   1.000000
    4        2.994837   1.000000
    5        6.556054   0.000000
    6        7.611215   0.000000
    7       13.806535   0.000000
    8       13.862920   0.000000
 
  0.3750000E+00  0.3750000E+00  0.3750000E+00  0.3125000E-01
    1       -4.534756   1.000000
    2       -0.248622   1.000000
    3        4.556476   1.000000
    4        4.556479   1.000000
    5        7.223180   0.000000
    6        9.080175   0.000000
    7        9.080182   0.000000
    8       13.465753   0.000000
 
 -0.3750000E+00  0.3750000E+00  0.3750000E+00  0.9375000E-01
    1       -3.331919   1.000000
    2       -0.951115   1.000000
    3        1.711927   1.000000
    4        3.775014   1.000000
    5        7.482198   0.000000
    6       11.031600   0.000000
    7       11.071839   0.000000
    8       12.514146   0.000000
