 vasp.6.2.0 18Jan21 (build Aug 12 2022 13:00:08) complex                        
  
 executed on             LinuxIFC date 2024.11.03  21:52:42
 running on    4 total cores
 distrk:  each k-point on    4 cores,    1 groups
 distr:  one band on NCORE=   1 cores,    4 groups


--------------------------------------------------------------------------------------------------------


 INCAR:
   ISTART = 0            (Read existing wavefunction, if there)
   ISPIN = 1            (Non-Spin polarised DFT)
   LREAL = .FALSE.       (Projection operators: automatic)
   LWAVE = .FALSE.        (Write WAVECAR or not)
   LCHARG = .FALSE.        (Write CHGCAR or not)
   ADDGRID = .TRUE.        (Increase grid, helps GGA convergence)
   LASPH = .TRUE.        (Give more accurate total energies and band structure calculations)
   PREC = Accurate      (Accurate strictly avoids any aliasing or wrap around errors)
   ENCUT = 350          (Cut-off energy for plane wave basis set, in eV)
   ISMEAR = 0            (Gaussian smearing, metals:1)
   SIGMA = 0.05         (Smearing value in eV, metals:0.2)
   NELM = 90           (Max electronic SCF steps)
   NELMIN = 6            (Min electronic SCF steps)
   EDIFF = 1E-06        (SCF energy convergence, in eV)
   NSW = 100          (Max ionic steps)
   IBRION = 2            (Algorithm: 0-MD, 1-Quasi-New, 2-CG)
   ISIF = 3            (Stress/relaxation: 2-Ions, 3-Shape/Ions/V, 4-Shape/Ions)
   EDIFFG = -2E-03        (Ionic convergence, eV/AA)
   ISYM = 2              (Symmetry: 0\=none, 2\=GGA, 3\=hybrids)

 POTCAR:    PAW_PBE Si 05Jan2001                  
 POTCAR:    PAW_PBE Si 05Jan2001                  
   VRHFIN =Si: s2p2                                                                                 
   LEXCH  = PE                                                                                      
   EATOM  =   103.0669 eV,    7.5752 Ry                                                             
                                                                                                    
   TITEL  = PAW_PBE Si 05Jan2001                                                                    
   LULTRA =        F    use ultrasoft PP ?                                                          
   IUNSCR =        1    unscreen: 0-lin 1-nonlin 2-no                                               
   RPACOR =    1.500    partial core radius                                                         
   POMASS =   28.085; ZVAL   =    4.000    mass and valenz                                          
   RCORE  =    1.900    outmost cutoff radius                                                       
   RWIGS  =    2.480; RWIGS  =    1.312    wigner-seitz radius (au A)                               
   ENMAX  =  245.345; ENMIN  =  184.009 eV                                                          
   ICORE  =        2    local potential                                                             
   LCOR   =        T    correct aug charges                                                         
   LPAW   =        T    paw PP                                                                      
   EAUG   =  322.069                                                                                
   DEXC   =    0.000                                                                                
   RMAX   =    1.950    core radius for proj-oper                                                   
   RAUG   =    1.300    factor for augmentation sphere                                              
   RDEP   =    1.993    radius for radial grids                                                     
   RDEPT  =    1.837    core radius for aug-charge                                                  
                                                                                                    
   Atomic configuration                                                                             
    6 entries                                                                                       
     n  l   j            E        occ.                                                              
     1  0  0.50     -1785.8828   2.0000                                                             
     2  0  0.50      -139.4969   2.0000                                                             
     2  1  1.50       -95.5546   6.0000                                                             
     3  0  0.50       -10.8127   2.0000                                                             
     3  1  0.50        -4.0811   2.0000                                                             
     3  2  1.50        -4.0817   0.0000                                                             
   Description                                                                                      
     l       E           TYP  RCUT    TYP  RCUT                                                     
     0    -10.8127223     23  1.900                                                                 
     0     -7.6451159     23  1.900                                                                 
     1     -4.0811372     23  1.900                                                                 
     1      2.4879257     23  1.900                                                                 
     2     -4.0817478      7  1.900                                                                 
  local pseudopotential read in
  partial core-charges read in
  partial kinetic energy density read in
  atomic valenz-charges read in
  non local Contribution for L=           0  read in
    real space projection operators read in
  non local Contribution for L=           0  read in
    real space projection operators read in
  non local Contribution for L=           1  read in
    real space projection operators read in
  non local Contribution for L=           1  read in
    real space projection operators read in
    PAW grid and wavefunctions read in
 
   number of l-projection  operators is LMAX  =           4
   number of lm-projection operators is LMMAX =           8
 
  PAW_PBE Si 05Jan2001                  :
 energy of atom  1       EATOM= -103.0669
 kinetic energy error for atom=    0.0013 (will be added to EATOM!!)
 
 
 POSCAR: Si2
  positions in direct lattice
  No initial velocities read in
 exchange correlation table for  LEXCH =        8
   RHO(1)=    0.500       N(1)  =     2000
   RHO(2)=  100.500       N(2)  =     4000
 


--------------------------------------------------------------------------------------------------------


 ion  position               nearest neighbor table
   1  0.875  0.875  0.875-   2 2.36   2 2.36   2 2.36   2 2.36
   2  0.125  0.125  0.125-   1 2.36   1 2.36   1 2.36   1 2.36
 
  LATTYP: Found a face centered cubic cell.
 ALAT       =     5.4437031493
  
  Lattice vectors:
  
 A1 = (   3.3335730000,   0.0000000000,   1.9246390000)
 A2 = (   1.1111910000,   3.1429240000,   1.9246390000)
 A3 = (   0.0000000000,   0.0000000000,   3.8492780000)


Analysis of symmetry for initial positions (statically):
=====================================================================
 Subroutine PRICEL returns:
 Original cell was already a primitive cell.
 

 Routine SETGRP: Setting up the symmetry group for a 
 face centered cubic supercell.


 Subroutine GETGRP returns: Found 48 space group operations
 (whereof 12 operations were pure point group operations)
 out of a pool of 48 trial point group operations.


The static configuration has the point symmetry D_3d.
 The point group associated with its full space group is O_h .


Analysis of symmetry for dynamics (positions and initial velocities):
=====================================================================
 Subroutine PRICEL returns:
 Original cell was already a primitive cell.
 

 Routine SETGRP: Setting up the symmetry group for a 
 face centered cubic supercell.


 Subroutine GETGRP returns: Found 48 space group operations
 (whereof 12 operations were pure point group operations)
 out of a pool of 48 trial point group operations.


The dynamic configuration has the point symmetry D_3d.
 The point group associated with its full space group is O_h .


 Subroutine INISYM returns: Found 48 space group operations
 (whereof 12 operations are pure point group operations),
 and found     1 'primitive' translations


----------------------------------------------------------------------------------------

                                     Primitive cell                                     

  volume of cell :      40.3295

  direct lattice vectors                    reciprocal lattice vectors
     3.333573000  0.000000000  1.924639000     0.299978432 -0.106058350  0.000000000
     1.111191000  3.142924000  1.924639000     0.000000000  0.318175050  0.000000000
     0.000000000  0.000000000  3.849278000    -0.149989216 -0.106058350  0.259788979

  length of vectors
     3.849278403  3.849279412  3.849278000     0.318175161  0.318175050  0.318175190

  position of ions in fractional coordinates (direct lattice)
     0.875000000  0.875000000  0.875000000
     0.125000000  0.125000000  0.125000000

  ion indices of the primitive-cell ions
   primitive index   ion index
                 1           1
                 2           2

----------------------------------------------------------------------------------------

 
 
 KPOINTS: Automatic                               

Automatic generation of k-mesh.
 Grid dimensions read from file:
 generate k-points for:    4    4    4

 Generating k-lattice:

  Cartesian coordinates                     Fractional coordinates (reciprocal lattice)
     0.074994608 -0.026514587  0.000000000     0.250000000  0.000000000  0.000000000
     0.000000000  0.079543762  0.000000000     0.000000000  0.250000000  0.000000000
    -0.037497304 -0.026514587  0.064947245     0.000000000  0.000000000  0.250000000

  Length of vectors
     0.079543790  0.079543762  0.079543798

  Shift w.r.t. Gamma in fractional coordinates (k-lattice)
     0.500000000  0.500000000  0.500000000

 
 Subroutine IBZKPT returns following result:
 ===========================================
 
 Found     10 irreducible k-points:
 
 Following reciprocal coordinates:
            Coordinates               Weight
  0.125000  0.125000  0.125000      8.000000
  0.375000  0.125000  0.125000     24.000000
 -0.375000  0.125000  0.125000     24.000000
 -0.125000  0.125000  0.125000     24.000000
  0.375000  0.375000  0.125000     24.000000
 -0.375000  0.375000  0.125000     48.000000
 -0.125000  0.375000  0.125000     48.000000
 -0.375000 -0.375000  0.125000     24.000000
  0.375000  0.375000  0.375000      8.000000
 -0.375000  0.375000  0.375000     24.000000
 
 Following cartesian coordinates:
            Coordinates               Weight
  0.018749  0.013257  0.032474      8.000000
  0.093743 -0.013257  0.032474     24.000000
 -0.131241  0.066286  0.032474     24.000000
 -0.056246  0.039772  0.032474     24.000000
  0.093743  0.066286  0.032474     24.000000
 -0.131241  0.145830  0.032474     48.000000
 -0.056246  0.119316  0.032474     48.000000
 -0.131241 -0.092801  0.032474     24.000000
  0.056246  0.039772  0.097421      8.000000
 -0.168738  0.119316  0.097421     24.000000
 


--------------------------------------------------------------------------------------------------------




 Dimension of arrays:
   k-points           NKPTS =     10   k-points in BZ     NKDIM =     10   number of bands    NBANDS=      8
   number of dos      NEDOS =    301   number of ions     NIONS =      2
   non local maximal  LDIM  =      4   non local SUM 2l+1 LMDIM =      8
   total plane-waves  NPLWV =  13824
   max r-space proj   IRMAX =      1   max aug-charges    IRDMAX=  91874
   dimension x,y,z NGX =    24 NGY =   24 NGZ =   24
   dimension x,y,z NGXF=    48 NGYF=   48 NGZF=   48
   support grid    NGXF=    96 NGYF=   96 NGZF=   96
   ions per type =               2
   NGX,Y,Z   is equivalent  to a cutoff of  10.37, 10.37, 10.37 a.u.
   NGXF,Y,Z  is equivalent  to a cutoff of  20.73, 20.73, 20.73 a.u.

 SYSTEM =  unknown system                          
 POSCAR =  Si2                                     

 Startparameter for this run:
   NWRITE =      2    write-flag & timer
   PREC   = accura    normal or accurate (medium, high low for compatibility)
   ISTART =      0    job   : 0-new  1-cont  2-samecut
   ICHARG =      2    charge: 1-file 2-atom 10-const
   ISPIN  =      1    spin polarized calculation?
   LNONCOLLINEAR =      F non collinear calculations
   LSORBIT =      F    spin-orbit coupling
   INIWAV =      1    electr: 0-lowe 1-rand  2-diag
   LASPH  =      T    aspherical Exc in radial PAW
   METAGGA=      F    non-selfconsistent MetaGGA calc.

 Electronic Relaxation 1
   ENCUT  =  350.0 eV  25.72 Ry    5.07 a.u.   5.87  5.87  5.87*2*pi/ulx,y,z
   ENINI  =  350.0     initial cutoff
   ENAUG  =  322.1 eV  augmentation charge cutoff
   NELM   =     90;   NELMIN=  6; NELMDL= -5     # of ELM steps 
   EDIFF  = 0.1E-05   stopping-criterion for ELM
   LREAL  =      F    real-space projection
   NLSPLINE    = F    spline interpolate recip. space projectors
   LCOMPAT=      F    compatible to vasp.4.4
   GGA_COMPAT  = T    GGA compatible to vasp.4.4-vasp.4.6
   LMAXPAW     = -100 max onsite density
   LMAXMIX     =    2 max onsite mixed and CHGCAR
   VOSKOWN=      0    Vosko Wilk Nusair interpolation
   ROPT   =    0.00000
 Ionic relaxation
   EDIFFG = -.2E-02   stopping-criterion for IOM
   NSW    =    100    number of steps for IOM
   NBLOCK =      1;   KBLOCK =    100    inner block; outer block 
   IBRION =      2    ionic relax: 0-MD 1-quasi-New 2-CG
   NFREE  =      1    steps in history (QN), initial steepest desc. (CG)
   ISIF   =      3    stress and relaxation
   IWAVPR =     11    prediction:  0-non 1-charg 2-wave 3-comb
   ISYM   =      2    0-nonsym 1-usesym 2-fastsym
   LCORR  =      T    Harris-Foulkes like correction to forces

   POTIM  = 0.5000    time-step for ionic-motion
   TEIN   =    0.0    initial temperature
   TEBEG  =    0.0;   TEEND  =   0.0 temperature during run
   SMASS  =  -3.00    Nose mass-parameter (am)
   estimated Nose-frequenzy (Omega)   =  0.10E-29 period in steps = 0.13E+47 mass=  -0.339E-27a.u.
   SCALEE = 1.0000    scale energy and forces
   NPACO  =    256;   APACO  = 16.0  distance and # of slots for P.C.
   PSTRESS=    0.0 pullay stress

  Mass of Ions in am
   POMASS =  28.09
  Ionic Valenz
   ZVAL   =   4.00
  Atomic Wigner-Seitz radii
   RWIGS  =  -1.00
  virtual crystal weights 
   VCA    =   1.00
   NELECT =       8.0000    total number of electrons
   NUPDOWN=      -1.0000    fix difference up-down

 DOS related values:
   EMIN   =  10.00;   EMAX   =-10.00  energy-range for DOS
   EFERMI =   0.00
   ISMEAR =     0;   SIGMA  =   0.05  broadening in eV -4-tet -1-fermi 0-gaus

 Electronic relaxation 2 (details)
   IALGO  =     38    algorithm
   LDIAG  =      T    sub-space diagonalisation (order eigenvalues)
   LSUBROT=      F    optimize rotation matrix (better conditioning)
   TURBO    =      0    0=normal 1=particle mesh
   IRESTART =      0    0=no restart 2=restart with 2 vectors
   NREBOOT  =      0    no. of reboots
   NMIN     =      0    reboot dimension
   EREF     =   0.00    reference energy to select bands
   IMIX   =      4    mixing-type and parameters
     AMIX     =   0.40;   BMIX     =  1.00
     AMIX_MAG =   1.60;   BMIX_MAG =  1.00
     AMIN     =   0.10
     WC   =   100.;   INIMIX=   1;  MIXPRE=   1;  MAXMIX= -45

 Intra band minimization:
   WEIMIN = 0.0010     energy-eigenvalue tresh-hold
   EBREAK =  0.31E-07  absolut break condition
   DEPER  =   0.30     relativ break condition  

   TIME   =   0.40     timestep for ELM

  volume/ion in A,a.u.               =      20.16       136.08
  Fermi-wavevector in a.u.,A,eV,Ry     =   0.954766  1.804247 12.402783  0.911579
  Thomas-Fermi vector in A             =   2.083543
 
 Write flags
   LWAVE        =      F    write WAVECAR
   LDOWNSAMPLE  =      F    k-point downsampling of WAVECAR
   LCHARG       =      F    write CHGCAR
   LVTOT        =      F    write LOCPOT, total local potential
   LVHAR        =      F    write LOCPOT, Hartree potential only
   LELF         =      F    write electronic localiz. function (ELF)
   LORBIT       =      0    0 simple, 1 ext, 2 COOP (PROOUT), +10 PAW based schemes


 Dipole corrections
   LMONO  =      F    monopole corrections only (constant potential shift)
   LDIPOL =      F    correct potential (dipole corrections)
   IDIPOL =      0    1-x, 2-y, 3-z, 4-all directions 
   EPSILON=  1.0000000 bulk dielectric constant

 Exchange correlation treatment:
   GGA     =    --    GGA type
   LEXCH   =     8    internal setting for exchange type
   VOSKOWN=      0    Vosko Wilk Nusair interpolation
   LHFCALC =     F    Hartree Fock is set to
   LHFONE  =     F    Hartree Fock one center treatment
   AEXX    =    0.0000 exact exchange contribution

 Linear response parameters
   LEPSILON=     F    determine dielectric tensor
   LRPA    =     F    only Hartree local field effects (RPA)
   LNABLA  =     F    use nabla operator in PAW spheres
   LVEL    =     F    velocity operator in full k-point grid
   LINTERFAST=   F  fast interpolation
   KINTER  =     0    interpolate to denser k-point grid
   CSHIFT  =0.1000    complex shift for real part using Kramers Kronig
   OMEGAMAX=  -1.0    maximum frequency
   DEG_THRESHOLD= 0.2000000E-02 threshold for treating states as degnerate
   RTIME   =   -0.100 relaxation time in fs
  (WPLASMAI=    0.000 imaginary part of plasma frequency in eV, 0.658/RTIME)
   DFIELD  = 0.0000000 0.0000000 0.0000000 field for delta impulse in time
 
 Orbital magnetization related:
   ORBITALMAG=     F  switch on orbital magnetization
   LCHIMAG   =     F  perturbation theory with respect to B field
   DQ        =  0.001000  dq finite difference perturbation B field
   LLRAUG    =     F  two centre corrections for induced B field



--------------------------------------------------------------------------------------------------------


 conjugate gradient relaxation of ions
 charge density and potential will be updated during run
 non-spin polarized calculation
 Variant of blocked Davidson
 Davidson routine will perform the subspace rotation
 perform sub-space diagonalisation
    after iterative eigenvector-optimisation
 modified Broyden-mixing scheme, WC =      100.0
 initial mixing is a Kerker type mixing with AMIX =  0.4000 and BMIX =      1.0000
 Hartree-type preconditioning will be used
 using additional bands            4
 reciprocal scheme for non local part
 use partial core corrections
 calculate Harris-corrections to forces 
   (improved forces if not selfconsistent)
 use gradient corrections 
 use of overlap-Matrix (Vanderbilt PP)
 Gauss-broadening in eV      SIGMA  =   0.05


--------------------------------------------------------------------------------------------------------


  energy-cutoff  :      350.00
  volume of cell :       40.33
      direct lattice vectors                 reciprocal lattice vectors
     3.333573000  0.000000000  1.924639000     0.299978432 -0.106058350  0.000000000
     1.111191000  3.142924000  1.924639000     0.000000000  0.318175050  0.000000000
     0.000000000  0.000000000  3.849278000    -0.149989216 -0.106058350  0.259788979

  length of vectors
     3.849278403  3.849279412  3.849278000     0.318175161  0.318175050  0.318175190


 
 k-points in units of 2pi/SCALE and weight: Automatic                               
   0.01874865  0.01325729  0.03247362       0.031
   0.09374326 -0.01325729  0.03247362       0.094
  -0.13124056  0.06628647  0.03247362       0.094
  -0.05624596  0.03977188  0.03247362       0.094
   0.09374326  0.06628647  0.03247362       0.094
  -0.13124056  0.14583023  0.03247362       0.188
  -0.05624596  0.11931564  0.03247362       0.188
  -0.13124056 -0.09280106  0.03247362       0.094
   0.05624596  0.03977188  0.09742087       0.031
  -0.16873787  0.11931564  0.09742087       0.094
 
 k-points in reciprocal lattice and weights: Automatic                               
   0.12500000  0.12500000  0.12500000       0.031
   0.37500000  0.12500000  0.12500000       0.094
  -0.37500000  0.12500000  0.12500000       0.094
  -0.12500000  0.12500000  0.12500000       0.094
   0.37500000  0.37500000  0.12500000       0.094
  -0.37500000  0.37500000  0.12500000       0.188
  -0.12500000  0.37500000  0.12500000       0.188
  -0.37500000 -0.37500000  0.12500000       0.094
   0.37500000  0.37500000  0.37500000       0.031
  -0.37500000  0.37500000  0.37500000       0.094
 
 position of ions in fractional coordinates (direct lattice) 
   0.87500000  0.87500000  0.87500000
   0.12500000  0.12500000  0.12500000
 
 position of ions in cartesian coordinates  (Angst):
   3.88916850  2.75005850  6.73623650
   0.55559550  0.39286550  0.96231950
 


--------------------------------------------------------------------------------------------------------


 k-point   1 :   0.1250 0.1250 0.1250  plane waves:     585
 k-point   2 :   0.3750 0.1250 0.1250  plane waves:     598
 k-point   3 :  -0.3750 0.1250 0.1250  plane waves:     598
 k-point   4 :  -0.1250 0.1250 0.1250  plane waves:     593
 k-point   5 :   0.3750 0.3750 0.1250  plane waves:     603
 k-point   6 :  -0.3750 0.3750 0.1250  plane waves:     604
 k-point   7 :  -0.1250 0.3750 0.1250  plane waves:     599
 k-point   8 :  -0.3750-0.3750 0.1250  plane waves:     605
 k-point   9 :   0.3750 0.3750 0.3750  plane waves:     601
 k-point  10 :  -0.3750 0.3750 0.3750  plane waves:     595

 maximum and minimum number of plane-waves per node :       605      585

 maximum number of plane-waves:       605
 maximum index in each direction: 
   IXMAX=    6   IYMAX=    6   IZMAX=    5
   IXMIN=   -6   IYMIN=   -6   IZMIN=   -6


 serial   3D FFT for wavefunctions
 parallel 3D FFT for charge:
    minimum data exchange during FFTs selected (reduces bandwidth)


 total amount of memory used by VASP MPI-rank0    36716. kBytes
=======================================================================

   base      :      30000. kBytes
   nonl-proj :        408. kBytes
   fftplans  :       4177. kBytes
   grid      :       1926. kBytes
   one-center:          6. kBytes
   wavefun   :        199. kBytes
 
     INWAV:  cpu time    0.0000: real time    0.0007
 Broyden mixing: mesh for mixing (old mesh)
   NGX = 11   NGY = 11   NGZ = 11
  (NGX  = 48   NGY  = 48   NGZ  = 48)
  gives a total of   1331 points

 initial charge density was supplied:
 charge density of overlapping atoms calculated
 number of electron       8.0000000 magnetization 
 keeping initial charge density in first step


--------------------------------------------------------------------------------------------------------


 Maximum index for augmentation-charges        22271 (set IRDMAX)


--------------------------------------------------------------------------------------------------------


 First call to EWALD:  gamma=   0.517
 Maximum number of real-space cells 3x 3x 3
 Maximum number of reciprocal cells 3x 3x 3

    FEWALD:  cpu time    0.0030: real time    0.0035


--------------------------------------- Iteration      1(   1)  ---------------------------------------


    POTLOK:  cpu time    0.0310: real time    0.0340
    SETDIJ:  cpu time    0.1780: real time    0.1779
     EDDAV:  cpu time    0.0820: real time    0.0825
       DOS:  cpu time    0.0010: real time    0.0008
    --------------------------------------------
      LOOP:  cpu time    0.2920: real time    0.2955

 eigenvalue-minimisations  :   160
 total energy-change (2. order) : 0.1047652E+01  (-0.2540701E+03)
 number of electron       8.0000000 magnetization 
 augmentation part        8.0000000 magnetization 

 Free energy of the ion-electron system (eV)
  ---------------------------------------------------
  alpha Z        PSCENC =         3.33880741
  Ewald energy   TEWEN  =      -227.98820643
  -Hartree energ DENC   =       -11.11484531
  -exchange      EXHF   =         0.00000000
  -V(xc)+E(xc)   XCENC  =       -18.63153637
  PAW double counting   =       176.24759923     -141.06103558
  entropy T*S    EENTRO =        -0.00338338
  eigenvalues    EBANDS =        14.12899808
  atomic energy  EATOM  =       206.13125414
  Solvation  Ediel_sol  =         0.00000000
  ---------------------------------------------------
  free energy    TOTEN  =         1.04765178 eV

  energy without entropy =        1.05103516  energy(sigma->0) =        1.04934347


--------------------------------------------------------------------------------------------------------




--------------------------------------- Iteration      1(   2)  ---------------------------------------


     EDDAV:  cpu time    0.1210: real time    0.1294
       DOS:  cpu time    0.0010: real time    0.0005
    --------------------------------------------
      LOOP:  cpu time    0.1220: real time    0.1298

 eigenvalue-minimisations  :   256
 total energy-change (2. order) :-0.1193918E+02  (-0.1186190E+02)
 number of electron       8.0000000 magnetization 
 augmentation part        8.0000000 magnetization 

 Free energy of the ion-electron system (eV)
  ---------------------------------------------------
  alpha Z        PSCENC =         3.33880741
  Ewald energy   TEWEN  =      -227.98820643
  -Hartree energ DENC   =       -11.11484531
  -exchange      EXHF   =         0.00000000
  -V(xc)+E(xc)   XCENC  =       -18.63153637
  PAW double counting   =       176.24759923     -141.06103558
  entropy T*S    EENTRO =        -0.00000000
  eigenvalues    EBANDS =         2.18643574
  atomic energy  EATOM  =       206.13125414
  Solvation  Ediel_sol  =         0.00000000
  ---------------------------------------------------
  free energy    TOTEN  =       -10.89152718 eV

  energy without entropy =      -10.89152718  energy(sigma->0) =      -10.89152718


--------------------------------------------------------------------------------------------------------




--------------------------------------- Iteration      1(   3)  ---------------------------------------


     EDDAV:  cpu time    0.1090: real time    0.1157
       DOS:  cpu time    0.0010: real time    0.0005
    --------------------------------------------
      LOOP:  cpu time    0.1100: real time    0.1162

 eigenvalue-minimisations  :   224
 total energy-change (2. order) :-0.1272709E+00  (-0.1272709E+00)
 number of electron       8.0000000 magnetization 
 augmentation part        8.0000000 magnetization 

 Free energy of the ion-electron system (eV)
  ---------------------------------------------------
  alpha Z        PSCENC =         3.33880741
  Ewald energy   TEWEN  =      -227.98820643
  -Hartree energ DENC   =       -11.11484531
  -exchange      EXHF   =         0.00000000
  -V(xc)+E(xc)   XCENC  =       -18.63153637
  PAW double counting   =       176.24759923     -141.06103558
  entropy T*S    EENTRO =        -0.00000000
  eigenvalues    EBANDS =         2.05916482
  atomic energy  EATOM  =       206.13125414
  Solvation  Ediel_sol  =         0.00000000
  ---------------------------------------------------
  free energy    TOTEN  =       -11.01879809 eV

  energy without entropy =      -11.01879809  energy(sigma->0) =      -11.01879809


--------------------------------------------------------------------------------------------------------




--------------------------------------- Iteration      1(   4)  ---------------------------------------


     EDDAV:  cpu time    0.1110: real time    0.1210
       DOS:  cpu time    0.0010: real time    0.0005
    --------------------------------------------
      LOOP:  cpu time    0.1120: real time    0.1216

 eigenvalue-minimisations  :   232
 total energy-change (2. order) :-0.4714304E-03  (-0.4714303E-03)
 number of electron       8.0000000 magnetization 
 augmentation part        8.0000000 magnetization 

 Free energy of the ion-electron system (eV)
  ---------------------------------------------------
  alpha Z        PSCENC =         3.33880741
  Ewald energy   TEWEN  =      -227.98820643
  -Hartree energ DENC   =       -11.11484531
  -exchange      EXHF   =         0.00000000
  -V(xc)+E(xc)   XCENC  =       -18.63153637
  PAW double counting   =       176.24759923     -141.06103558
  entropy T*S    EENTRO =        -0.00000000
  eigenvalues    EBANDS =         2.05869339
  atomic energy  EATOM  =       206.13125414
  Solvation  Ediel_sol  =         0.00000000
  ---------------------------------------------------
  free energy    TOTEN  =       -11.01926952 eV

  energy without entropy =      -11.01926952  energy(sigma->0) =      -11.01926952


--------------------------------------------------------------------------------------------------------




--------------------------------------- Iteration      1(   5)  ---------------------------------------


     EDDAV:  cpu time    0.1170: real time    0.1251
       DOS:  cpu time    0.0010: real time    0.0006
    CHARGE:  cpu time    0.0300: real time    0.0309
    MIXING:  cpu time    0.0020: real time    0.0014
    --------------------------------------------
      LOOP:  cpu time    0.1500: real time    0.1582

 eigenvalue-minimisations  :   248
 total energy-change (2. order) :-0.6230925E-06  (-0.6230903E-06)
 number of electron       8.0000000 magnetization 
 augmentation part       -0.4702081 magnetization 

 Broyden mixing:
  rms(total) = 0.48617E+00    rms(broyden)= 0.48616E+00
  rms(prec ) = 0.94765E+00
  weight for this iteration     100.00

 Free energy of the ion-electron system (eV)
  ---------------------------------------------------
  alpha Z        PSCENC =         3.33880741
  Ewald energy   TEWEN  =      -227.98820643
  -Hartree energ DENC   =       -11.11484531
  -exchange      EXHF   =         0.00000000
  -V(xc)+E(xc)   XCENC  =       -18.63153637
  PAW double counting   =       176.24759923     -141.06103558
  entropy T*S    EENTRO =        -0.00000000
  eigenvalues    EBANDS =         2.05869277
  atomic energy  EATOM  =       206.13125414
  Solvation  Ediel_sol  =         0.00000000
  ---------------------------------------------------
  free energy    TOTEN  =       -11.01927014 eV

  energy without entropy =      -11.01927014  energy(sigma->0) =      -11.01927014


--------------------------------------------------------------------------------------------------------




--------------------------------------- Iteration      1(   6)  ---------------------------------------


    POTLOK:  cpu time    0.0320: real time    0.0389
    SETDIJ:  cpu time    0.1740: real time    0.1741
     EDDAV:  cpu time    0.0890: real time    0.0903
       DOS:  cpu time    0.0010: real time    0.0005
    CHARGE:  cpu time    0.0250: real time    0.0256
    MIXING:  cpu time    0.0020: real time    0.0015
    --------------------------------------------
      LOOP:  cpu time    0.3229: real time    0.3310

 eigenvalue-minimisations  :   184
 total energy-change (2. order) : 0.1218677E+00  (-0.8011023E-02)
 number of electron       8.0000000 magnetization 
 augmentation part       -0.4644279 magnetization 

 Broyden mixing:
  rms(total) = 0.29751E+00    rms(broyden)= 0.29751E+00
  rms(prec ) = 0.56379E+00
  weight for this iteration     100.00

 eigenvalues of (default mixing * dielectric matrix)
  average eigenvalue GAMMA=   2.5676
  2.5676

 Free energy of the ion-electron system (eV)
  ---------------------------------------------------
  alpha Z        PSCENC =         3.33880741
  Ewald energy   TEWEN  =      -227.98820643
  -Hartree energ DENC   =       -12.60238998
  -exchange      EXHF   =         0.00000000
  -V(xc)+E(xc)   XCENC  =       -18.39599028
  PAW double counting   =       378.82895612     -343.75053678
  entropy T*S    EENTRO =        -0.00000000
  eigenvalues    EBANDS =         3.54070339
  atomic energy  EATOM  =       206.13125414
  Solvation  Ediel_sol  =         0.00000000
  ---------------------------------------------------
  free energy    TOTEN  =       -10.89740241 eV

  energy without entropy =      -10.89740241  energy(sigma->0) =      -10.89740241


--------------------------------------------------------------------------------------------------------




--------------------------------------- Iteration      1(   7)  ---------------------------------------


    POTLOK:  cpu time    0.0310: real time    0.0431
    SETDIJ:  cpu time    0.1730: real time    0.1733
     EDDAV:  cpu time    0.0970: real time    0.0969
       DOS:  cpu time    0.0000: real time    0.0005
    CHARGE:  cpu time    0.0250: real time    0.0248
    MIXING:  cpu time    0.0010: real time    0.0014
    --------------------------------------------
      LOOP:  cpu time    0.3280: real time    0.3399

 eigenvalue-minimisations  :   200
 total energy-change (2. order) : 0.5571371E-01  (-0.1526711E-01)
 number of electron       8.0000000 magnetization 
 augmentation part       -0.4573736 magnetization 

 Broyden mixing:
  rms(total) = 0.18655E-01    rms(broyden)= 0.18654E-01
  rms(prec ) = 0.41409E-01
  weight for this iteration     100.00

 eigenvalues of (default mixing * dielectric matrix)
  average eigenvalue GAMMA=   2.0749
  1.7722  2.3775

 Free energy of the ion-electron system (eV)
  ---------------------------------------------------
  alpha Z        PSCENC =         3.33880741
  Ewald energy   TEWEN  =      -227.98820643
  -Hartree energ DENC   =       -15.03586235
  -exchange      EXHF   =         0.00000000
  -V(xc)+E(xc)   XCENC  =       -18.00311837
  PAW double counting   =       863.68095135     -828.74250760
  entropy T*S    EENTRO =        -0.00000000
  eigenvalues    EBANDS =         5.77699316
  atomic energy  EATOM  =       206.13125414
  Solvation  Ediel_sol  =         0.00000000
  ---------------------------------------------------
  free energy    TOTEN  =       -10.84168870 eV

  energy without entropy =      -10.84168870  energy(sigma->0) =      -10.84168870


--------------------------------------------------------------------------------------------------------




--------------------------------------- Iteration      1(   8)  ---------------------------------------


    POTLOK:  cpu time    0.0320: real time    0.0401
    SETDIJ:  cpu time    0.1730: real time    0.1733
     EDDAV:  cpu time    0.0810: real time    0.0809
       DOS:  cpu time    0.0000: real time    0.0005
    CHARGE:  cpu time    0.0240: real time    0.0247
    MIXING:  cpu time    0.0020: real time    0.0015
    --------------------------------------------
      LOOP:  cpu time    0.3110: real time    0.3211

 eigenvalue-minimisations  :   160
 total energy-change (2. order) :-0.1075325E-02  (-0.3907078E-03)
 number of electron       8.0000000 magnetization 
 augmentation part       -0.4583539 magnetization 

 Broyden mixing:
  rms(total) = 0.73836E-02    rms(broyden)= 0.73833E-02
  rms(prec ) = 0.13179E-01
  weight for this iteration     100.00

 eigenvalues of (default mixing * dielectric matrix)
  average eigenvalue GAMMA=   2.2620
  2.8484  1.9687  1.9687

 Free energy of the ion-electron system (eV)
  ---------------------------------------------------
  alpha Z        PSCENC =         3.33880741
  Ewald energy   TEWEN  =      -227.98820643
  -Hartree energ DENC   =       -14.96223392
  -exchange      EXHF   =         0.00000000
  -V(xc)+E(xc)   XCENC  =       -18.00335034
  PAW double counting   =       873.35695544     -838.39151955
  entropy T*S    EENTRO =        -0.00000000
  eigenvalues    EBANDS =         5.67552923
  atomic energy  EATOM  =       206.13125414
  Solvation  Ediel_sol  =         0.00000000
  ---------------------------------------------------
  free energy    TOTEN  =       -10.84276402 eV

  energy without entropy =      -10.84276402  energy(sigma->0) =      -10.84276402


--------------------------------------------------------------------------------------------------------




--------------------------------------- Iteration      1(   9)  ---------------------------------------


    POTLOK:  cpu time    0.0320: real time    0.0408
    SETDIJ:  cpu time    0.1740: real time    0.1740
     EDDAV:  cpu time    0.1160: real time    0.1167
       DOS:  cpu time    0.0010: real time    0.0005
    CHARGE:  cpu time    0.0250: real time    0.0250
    MIXING:  cpu time    0.0010: real time    0.0015
    --------------------------------------------
      LOOP:  cpu time    0.3499: real time    0.3583

 eigenvalue-minimisations  :   248
 total energy-change (2. order) :-0.1924303E-03  (-0.1918940E-04)
 number of electron       8.0000000 magnetization 
 augmentation part       -0.4584675 magnetization 

 Broyden mixing:
  rms(total) = 0.58462E-02    rms(broyden)= 0.58462E-02
  rms(prec ) = 0.67480E-02
  weight for this iteration     100.00

 eigenvalues of (default mixing * dielectric matrix)
  average eigenvalue GAMMA=   2.1378
  0.9493  2.6309  2.6309  2.3402

 Free energy of the ion-electron system (eV)
  ---------------------------------------------------
  alpha Z        PSCENC =         3.33880741
  Ewald energy   TEWEN  =      -227.98820643
  -Hartree energ DENC   =       -15.00716328
  -exchange      EXHF   =         0.00000000
  -V(xc)+E(xc)   XCENC  =       -17.99473381
  PAW double counting   =       875.78965174     -840.82213891
  entropy T*S    EENTRO =        -0.00000000
  eigenvalues    EBANDS =         5.70957268
  atomic energy  EATOM  =       206.13125414
  Solvation  Ediel_sol  =         0.00000000
  ---------------------------------------------------
  free energy    TOTEN  =       -10.84295645 eV

  energy without entropy =      -10.84295645  energy(sigma->0) =      -10.84295645


--------------------------------------------------------------------------------------------------------




--------------------------------------- Iteration      1(  10)  ---------------------------------------


    POTLOK:  cpu time    0.0320: real time    0.0430
    SETDIJ:  cpu time    0.1730: real time    0.1730
     EDDAV:  cpu time    0.0840: real time    0.0838
       DOS:  cpu time    0.0000: real time    0.0004
    CHARGE:  cpu time    0.0260: real time    0.0267
    MIXING:  cpu time    0.0010: real time    0.0014
    --------------------------------------------
      LOOP:  cpu time    0.3160: real time    0.3284

 eigenvalue-minimisations  :   168
 total energy-change (2. order) :-0.2684194E-04  (-0.3403967E-05)
 number of electron       8.0000000 magnetization 
 augmentation part       -0.4584449 magnetization 

 Broyden mixing:
  rms(total) = 0.12189E-02    rms(broyden)= 0.12188E-02
  rms(prec ) = 0.12777E-02
  weight for this iteration     100.00

 eigenvalues of (default mixing * dielectric matrix)
  average eigenvalue GAMMA=   1.9029
  2.8909  2.4302  2.0786  1.0574  1.0574

 Free energy of the ion-electron system (eV)
  ---------------------------------------------------
  alpha Z        PSCENC =         3.33880741
  Ewald energy   TEWEN  =      -227.98820643
  -Hartree energ DENC   =       -15.01453159
  -exchange      EXHF   =         0.00000000
  -V(xc)+E(xc)   XCENC  =       -17.99451553
  PAW double counting   =       863.43179964     -828.46404487
  entropy T*S    EENTRO =        -0.00000000
  eigenvalues    EBANDS =         5.71645393
  atomic energy  EATOM  =       206.13125414
  Solvation  Ediel_sol  =         0.00000000
  ---------------------------------------------------
  free energy    TOTEN  =       -10.84298330 eV

  energy without entropy =      -10.84298330  energy(sigma->0) =      -10.84298330


--------------------------------------------------------------------------------------------------------




--------------------------------------- Iteration      1(  11)  ---------------------------------------


    POTLOK:  cpu time    0.0330: real time    0.0393
    SETDIJ:  cpu time    0.1730: real time    0.1735
     EDDAV:  cpu time    0.1160: real time    0.1155
       DOS:  cpu time    0.0000: real time    0.0005
    --------------------------------------------
      LOOP:  cpu time    0.3209: real time    0.3287

 eigenvalue-minimisations  :   240
 total energy-change (2. order) : 0.4774763E-06  (-0.5110942E-07)
 number of electron       8.0000000 magnetization 
 augmentation part       -0.4584449 magnetization 

 Free energy of the ion-electron system (eV)
  ---------------------------------------------------
  alpha Z        PSCENC =         3.33880741
  Ewald energy   TEWEN  =      -227.98820643
  -Hartree energ DENC   =       -15.01298249
  -exchange      EXHF   =         0.00000000
  -V(xc)+E(xc)   XCENC  =       -17.99455396
  PAW double counting   =       865.24071334     -830.27251386
  entropy T*S    EENTRO =        -0.00000000
  eigenvalues    EBANDS =         5.71449903
  atomic energy  EATOM  =       206.13125414
  Solvation  Ediel_sol  =         0.00000000
  ---------------------------------------------------
  free energy    TOTEN  =       -10.84298282 eV

  energy without entropy =      -10.84298282  energy(sigma->0) =      -10.84298282


--------------------------------------------------------------------------------------------------------




 average (electrostatic) potential at core
  the test charge radii are     0.9892
  (the norm of the test charge is              1.0000)
       1 -83.3282       2 -83.3282
 
 
 
 E-fermi :   5.7505     XC(G=0):  -9.3809     alpha+bet :-11.8943

 Fermi energy:         5.7505184856

 k-point     1 :       0.1250    0.1250    0.1250
  band No.  band energies     occupation 
      1      -5.9513      2.00000
      2       4.1604      2.00000
      3       5.4686      2.00000
      4       5.4686      2.00000
      5       8.2399      0.00000
      6       8.7397      0.00000
      7       8.7397      0.00000
      8      10.4076      0.00000

 k-point     2 :       0.3750    0.1250    0.1250
  band No.  band energies     occupation 
      1      -4.9120      2.00000
      2       1.1464      2.00000
      3       3.4608      2.00000
      4       4.9859      2.00000
      5       8.4549      0.00000
      6       9.4294      0.00000
      7       9.6059      0.00000
      8      12.0265      0.00000

 k-point     3 :      -0.3750    0.1250    0.1250
  band No.  band energies     occupation 
      1      -3.7541      2.00000
      2      -0.9603      2.00000
      3       3.4882      2.00000
      4       4.2042      2.00000
      5       7.9409      0.00000
      6       9.2628      0.00000
      7       9.8556      0.00000
      8      13.1055      0.00000

 k-point     4 :      -0.1250    0.1250    0.1250
  band No.  band energies     occupation 
      1      -5.4171      2.00000
      2       2.5388      2.00000
      3       4.4475      2.00000
      4       4.5194      2.00000
      5       7.9039      0.00000
      6       9.4377      0.00000
      7      10.2113      0.00000
      8      10.5045      0.00000

 k-point     5 :       0.3750    0.3750    0.1250
  band No.  band energies     occupation 
      1      -4.3734      2.00000
      2       0.8248      2.00000
      3       3.1050      2.00000
      4       3.5641      2.00000
      5       7.1146      0.00000
      6       8.6546      0.00000
      7      11.7247      0.00000
      8      12.0051      0.00000

 k-point     6 :      -0.3750    0.3750    0.1250
  band No.  band energies     occupation 
      1      -2.7102      2.00000
      2      -1.1560      2.00000
      3       1.7280      2.00000
      4       2.8199      2.00000
      5       8.1476      0.00000
      6      10.0339      0.00000
      7      11.0126      0.00000
      8      13.1678      0.00000

 k-point     7 :      -0.1250    0.3750    0.1250
  band No.  band energies     occupation 
      1      -3.9513      2.00000
      2      -0.0661      2.00000
      3       2.4578      2.00000
      4       3.8412      2.00000
      5       8.6303      0.00000
      6       9.3031      0.00000
      7      10.7625      0.00000
      8      11.6740      0.00000

 k-point     8 :      -0.3750   -0.3750    0.1250
  band No.  band energies     occupation 
      1      -2.8834      2.00000
      2      -1.0557      2.00000
      3       2.3475      2.00000
      4       3.0925      2.00000
      5       6.6636      0.00000
      6       7.7302      0.00000
      7      13.9936      0.00000
      8      14.0707      0.00000

 k-point     9 :       0.3750    0.3750    0.3750
  band No.  band energies     occupation 
      1      -4.4724      2.00000
      2      -0.1640      2.00000
      3       4.6754      2.00000
      4       4.6754      2.00000
      5       7.3983      0.00000
      6       9.2092      0.00000
      7       9.2092      0.00000
      8      13.6243      0.00000

 k-point    10 :      -0.3750    0.3750    0.3750
  band No.  band energies     occupation 
      1      -3.2528      2.00000
      2      -0.8609      2.00000
      3       1.7923      2.00000
      4       3.8827      2.00000
      5       7.6054      0.00000
      6      11.2005      0.00000
      7      11.2253      0.00000
      8      12.6914      0.00000


--------------------------------------------------------------------------------------------------------


 soft charge-density along one line, spin component           1
         0         1         2         3         4         5         6         7         8         9
 total charge-density along one line
 
 pseudopotential strength for first ion, spin component:           1
 18.422  25.702   0.000   0.000   0.000   0.000   0.000   0.000
 25.702  35.863   0.000   0.000   0.000   0.000   0.000   0.000
  0.000   0.000   4.179  -0.000  -0.000   7.788  -0.000  -0.000
  0.000   0.000  -0.000   4.179  -0.000  -0.000   7.788  -0.000
  0.000   0.000  -0.000  -0.000   4.179  -0.000  -0.000   7.788
  0.000   0.000   7.788  -0.000  -0.000  14.523  -0.000  -0.000
  0.000   0.000  -0.000   7.788  -0.000  -0.000  14.523  -0.000
  0.000   0.000  -0.000  -0.000   7.788  -0.000  -0.000  14.523
 total augmentation occupancy for first ion, spin component:           1
  5.642  -2.126  -0.000   0.000   0.000   0.000   0.000   0.000
 -2.126   0.915  -0.000  -0.000   0.000  -0.000   0.000  -0.000
  0.000  -0.000   2.989   0.000   0.000  -0.677  -0.000  -0.000
 -0.000  -0.000   0.000   2.989   0.000  -0.000  -0.677  -0.000
  0.000  -0.000   0.000   0.000   2.989  -0.000  -0.000  -0.677
  0.000   0.000  -0.677  -0.000  -0.000   0.162   0.000   0.000
 -0.000  -0.000  -0.000  -0.677  -0.000   0.000   0.162   0.000
  0.000  -0.000  -0.000  -0.000  -0.677   0.000   0.000   0.162


------------------------ aborting loop because EDIFF is reached ----------------------------------------


    CHARGE:  cpu time    0.0240: real time    0.0249
    FORLOC:  cpu time    0.0010: real time    0.0017
    FORNL :  cpu time    0.0960: real time    0.0960
    STRESS:  cpu time    0.3519: real time    0.3521
    FORCOR:  cpu time    0.0300: real time    0.0312
    FORHAR:  cpu time    0.0060: real time    0.0059
    MIXING:  cpu time    0.0000: real time    0.0013
    OFIELD:  cpu time    0.0010: real time    0.0002

  FORCE on cell =-STRESS in cart. coord.  units (eV):
  Direction    XX          YY          ZZ          XY          YZ          ZX
  --------------------------------------------------------------------------------------
  Alpha Z     3.33881     3.33881     3.33881
  Ewald     -75.99608   -75.99616   -75.99607     0.00001     0.00000    -0.00000
  Hartree     5.00484     5.00483     5.00484     0.00000     0.00000     0.00000
  E(xc)     -25.32830   -25.32830   -25.32830    -0.00000    -0.00000    -0.00000
  Local     -29.34448   -29.34446   -29.34446    -0.00000     0.00001     0.00001
  n-local    75.82170    78.39071    78.91944    -0.26352    -1.89535     0.11127
  augment   -11.64633   -11.64633   -11.64635    -0.00000    -0.00001    -0.00001
  Kinetic    55.35697    57.49754    56.83998     0.05191    -0.08303    -1.09912
  Fock        0.00000     0.00000     0.00000     0.00000     0.00000     0.00000
  -------------------------------------------------------------------------------------
  Total       0.30388     0.30388     0.30388    -0.00000     0.00000     0.00000
  in kB      12.07236    12.07237    12.07236    -0.00000     0.00000     0.00000
  external pressure =       12.07 kB  Pullay stress =        0.00 kB


 VOLUME and BASIS-vectors are now :
 -----------------------------------------------------------------------------
  energy-cutoff  :      350.00
  volume of cell :       40.33
      direct lattice vectors                 reciprocal lattice vectors
     3.333573000  0.000000000  1.924639000     0.299978432 -0.106058350  0.000000000
     1.111191000  3.142924000  1.924639000     0.000000000  0.318175050  0.000000000
     0.000000000  0.000000000  3.849278000    -0.149989216 -0.106058350  0.259788979

  length of vectors
     3.849278403  3.849279412  3.849278000     0.318175161  0.318175050  0.318175190


 FORCES acting on ions
    electron-ion (+dipol)            ewald-force                    non-local-force                 convergence-correction
 -----------------------------------------------------------------------------------------------
   0.522E-05 0.243E-04 0.434E-07   -.892E-05 -.418E-04 0.782E-16   0.182E-16 -.382E-16 0.416E-16   0.683E-07 0.502E-07 0.117E-06
   -.522E-05 -.243E-04 -.434E-07   0.892E-05 0.418E-04 -.194E-15   -.954E-17 0.173E-16 -.798E-16   -.683E-07 -.502E-07 -.117E-06
 -----------------------------------------------------------------------------------------------
   0.564E-13 -.467E-13 0.118E-12   -.365E-15 -.270E-16 -.116E-15   0.867E-17 -.208E-16 -.382E-16   0.615E-16 0.137E-15 0.103E-16
 
 
 POSITION                                       TOTAL-FORCE (eV/Angst)
 -----------------------------------------------------------------------------------
      3.88917      2.75006      6.73624         0.000000      0.000000      0.000000
      0.55560      0.39287      0.96232        -0.000000     -0.000000     -0.000000
 -----------------------------------------------------------------------------------
    total drift:                                0.000000     -0.000000      0.000000


--------------------------------------------------------------------------------------------------------



  FREE ENERGIE OF THE ION-ELECTRON SYSTEM (eV)
  ---------------------------------------------------
  free  energy   TOTEN  =       -10.84298282 eV

  energy  without entropy=      -10.84298282  energy(sigma->0) =      -10.84298282
 


--------------------------------------------------------------------------------------------------------


    POTLOK:  cpu time    0.2050: real time    0.2161


--------------------------------------------------------------------------------------------------------




--------------------------------------------------------------------------------------------------------


    WAVPRE:  cpu time    0.0080: real time    0.0169
    FEWALD:  cpu time    0.0010: real time    0.0003
    GENKIN:  cpu time    0.0040: real time    0.0054
    ORTHCH:  cpu time    0.0030: real time    0.0026
     LOOP+:  cpu time    3.6514: real time    3.7913


--------------------------------------- Iteration      2(   1)  ---------------------------------------


    POTLOK:  cpu time    0.0300: real time    0.0337
    SETDIJ:  cpu time    0.1730: real time    0.1730
     EDDAV:  cpu time    0.0960: real time    0.0974
       DOS:  cpu time    0.0010: real time    0.0007
    CHARGE:  cpu time    0.0250: real time    0.0251
    MIXING:  cpu time    0.0020: real time    0.0014
    --------------------------------------------
      LOOP:  cpu time    0.3270: real time    0.3317

 eigenvalue-minimisations  :   200
 total energy-change (2. order) :-0.3736487E-02  (-0.1030771E-01)
 number of electron       8.0000000 magnetization 
 augmentation part       -0.4599136 magnetization 

 Broyden mixing:
  rms(total) = 0.30259E-01    rms(broyden)= 0.30258E-01
  rms(prec ) = 0.77285E-01
  weight for this iteration     100.00

 Free energy of the ion-electron system (eV)
  ---------------------------------------------------
  alpha Z        PSCENC =         3.26645001
  Ewald energy   TEWEN  =      -226.32920496
  -Hartree energ DENC   =       -14.90519825
  -exchange      EXHF   =         0.00000000
  -V(xc)+E(xc)   XCENC  =       -18.10163292
  PAW double counting   =       865.37900421     -830.41078096
  entropy T*S    EENTRO =        -0.00000000
  eigenvalues    EBANDS =         4.12338894
  atomic energy  EATOM  =       206.13125414
  Solvation  Ediel_sol  =         0.00000000
  ---------------------------------------------------
  free energy    TOTEN  =       -10.84671978 eV

  energy without entropy =      -10.84671978  energy(sigma->0) =      -10.84671978


--------------------------------------------------------------------------------------------------------




--------------------------------------- Iteration      2(   2)  ---------------------------------------


    POTLOK:  cpu time    0.0320: real time    0.0420
    SETDIJ:  cpu time    0.1720: real time    0.1727
     EDDAV:  cpu time    0.0970: real time    0.0974
       DOS:  cpu time    0.0010: real time    0.0005
    CHARGE:  cpu time    0.0240: real time    0.0247
    MIXING:  cpu time    0.0010: real time    0.0014
    --------------------------------------------
      LOOP:  cpu time    0.3280: real time    0.3387

 eigenvalue-minimisations  :   200
 total energy-change (2. order) : 0.1749323E-02  (-0.1446218E-03)
 number of electron       8.0000000 magnetization 
 augmentation part       -0.4592677 magnetization 

 Broyden mixing:
  rms(total) = 0.18138E-01    rms(broyden)= 0.18138E-01
  rms(prec ) = 0.44556E-01
  weight for this iteration     100.00

 eigenvalues of (default mixing * dielectric matrix)
  average eigenvalue GAMMA=   2.4628
  2.4628

 Free energy of the ion-electron system (eV)
  ---------------------------------------------------
  alpha Z        PSCENC =         3.26645001
  Ewald energy   TEWEN  =      -226.32920496
  -Hartree energ DENC   =       -15.06632433
  -exchange      EXHF   =         0.00000000
  -V(xc)+E(xc)   XCENC  =       -18.09646153
  PAW double counting   =       844.56103328     -809.58814377
  entropy T*S    EENTRO =        -0.00000000
  eigenvalues    EBANDS =         4.27642669
  atomic energy  EATOM  =       206.13125414
  Solvation  Ediel_sol  =         0.00000000
  ---------------------------------------------------
  free energy    TOTEN  =       -10.84497046 eV

  energy without entropy =      -10.84497046  energy(sigma->0) =      -10.84497046


--------------------------------------------------------------------------------------------------------




--------------------------------------- Iteration      2(   3)  ---------------------------------------


    POTLOK:  cpu time    0.0320: real time    0.0387
    SETDIJ:  cpu time    0.1730: real time    0.1730
     EDDAV:  cpu time    0.1000: real time    0.1004
       DOS:  cpu time    0.0010: real time    0.0006
    CHARGE:  cpu time    0.0240: real time    0.0248
    MIXING:  cpu time    0.0010: real time    0.0014
    --------------------------------------------
      LOOP:  cpu time    0.3309: real time    0.3388

 eigenvalue-minimisations  :   208
 total energy-change (2. order) : 0.9196314E-03  (-0.1892051E-03)
 number of electron       8.0000000 magnetization 
 augmentation part       -0.4579758 magnetization 

 Broyden mixing:
  rms(total) = 0.61366E-02    rms(broyden)= 0.61366E-02
  rms(prec ) = 0.68229E-02
  weight for this iteration     100.00

 eigenvalues of (default mixing * dielectric matrix)
  average eigenvalue GAMMA=   1.3374
  2.2492  0.4257

 Free energy of the ion-electron system (eV)
  ---------------------------------------------------
  alpha Z        PSCENC =         3.26645001
  Ewald energy   TEWEN  =      -226.32920496
  -Hartree energ DENC   =       -15.27914362
  -exchange      EXHF   =         0.00000000
  -V(xc)+E(xc)   XCENC  =       -18.09198735
  PAW double counting   =       814.48428341     -779.50190671
  entropy T*S    EENTRO =        -0.00000000
  eigenvalues    EBANDS =         4.47620424
  atomic energy  EATOM  =       206.13125414
  Solvation  Ediel_sol  =         0.00000000
  ---------------------------------------------------
  free energy    TOTEN  =       -10.84405083 eV

  energy without entropy =      -10.84405083  energy(sigma->0) =      -10.84405083


--------------------------------------------------------------------------------------------------------




--------------------------------------- Iteration      2(   4)  ---------------------------------------


    POTLOK:  cpu time    0.0320: real time    0.0455
    SETDIJ:  cpu time    0.1730: real time    0.1731
     EDDAV:  cpu time    0.1040: real time    0.1042
       DOS:  cpu time    0.0010: real time    0.0006
    CHARGE:  cpu time    0.0240: real time    0.0245
    MIXING:  cpu time    0.0000: real time    0.0014
    --------------------------------------------
      LOOP:  cpu time    0.3339: real time    0.3494

 eigenvalue-minimisations  :   216
 total energy-change (2. order) : 0.9771213E-07  (-0.1718879E-05)
 number of electron       8.0000000 magnetization 
 augmentation part       -0.4579804 magnetization 

 Broyden mixing:
  rms(total) = 0.53514E-02    rms(broyden)= 0.53514E-02
  rms(prec ) = 0.59068E-02
  weight for this iteration     100.00

 eigenvalues of (default mixing * dielectric matrix)
  average eigenvalue GAMMA=   2.0120
  1.2518  2.7332  2.0511

 Free energy of the ion-electron system (eV)
  ---------------------------------------------------
  alpha Z        PSCENC =         3.26645001
  Ewald energy   TEWEN  =      -226.32920496
  -Hartree energ DENC   =       -15.27570738
  -exchange      EXHF   =         0.00000000
  -V(xc)+E(xc)   XCENC  =       -18.09255005
  PAW double counting   =       816.81835614     -781.83515381
  entropy T*S    EENTRO =        -0.00000000
  eigenvalues    EBANDS =         4.47250517
  atomic energy  EATOM  =       206.13125414
  Solvation  Ediel_sol  =         0.00000000
  ---------------------------------------------------
  free energy    TOTEN  =       -10.84405073 eV

  energy without entropy =      -10.84405073  energy(sigma->0) =      -10.84405073


--------------------------------------------------------------------------------------------------------




--------------------------------------- Iteration      2(   5)  ---------------------------------------


    POTLOK:  cpu time    0.0330: real time    0.0413
    SETDIJ:  cpu time    0.1740: real time    0.1739
     EDDAV:  cpu time    0.0930: real time    0.0946
       DOS:  cpu time    0.0000: real time    0.0006
    CHARGE:  cpu time    0.0250: real time    0.0248
    MIXING:  cpu time    0.0010: real time    0.0015
    --------------------------------------------
      LOOP:  cpu time    0.3259: real time    0.3367

 eigenvalue-minimisations  :   184
 total energy-change (2. order) : 0.6591234E-05  (-0.5285276E-06)
 number of electron       8.0000000 magnetization 
 augmentation part       -0.4579649 magnetization 

 Broyden mixing:
  rms(total) = 0.10354E-02    rms(broyden)= 0.10354E-02
  rms(prec ) = 0.10584E-02
  weight for this iteration     100.00

 eigenvalues of (default mixing * dielectric matrix)
  average eigenvalue GAMMA=   1.7351
  2.6816  2.2308  1.0140  1.0140

 Free energy of the ion-electron system (eV)
  ---------------------------------------------------
  alpha Z        PSCENC =         3.26645001
  Ewald energy   TEWEN  =      -226.32920496
  -Hartree energ DENC   =       -15.27580350
  -exchange      EXHF   =         0.00000000
  -V(xc)+E(xc)   XCENC  =       -18.09448237
  PAW double counting   =       828.08653941     -793.09921021
  entropy T*S    EENTRO =        -0.00000000
  eigenvalues    EBANDS =         4.47041335
  atomic energy  EATOM  =       206.13125414
  Solvation  Ediel_sol  =         0.00000000
  ---------------------------------------------------
  free energy    TOTEN  =       -10.84404414 eV

  energy without entropy =      -10.84404414  energy(sigma->0) =      -10.84404414


--------------------------------------------------------------------------------------------------------




--------------------------------------- Iteration      2(   6)  ---------------------------------------


    POTLOK:  cpu time    0.0330: real time    0.0397
    SETDIJ:  cpu time    0.1740: real time    0.1745
     EDDAV:  cpu time    0.0550: real time    0.0556
       DOS:  cpu time    0.0000: real time    0.0006
    --------------------------------------------
      LOOP:  cpu time    0.2610: real time    0.2703

 eigenvalue-minimisations  :    80
 total energy-change (2. order) :-0.2293049E-06  (-0.5059423E-08)
 number of electron       8.0000000 magnetization 
 augmentation part       -0.4579649 magnetization 

 Free energy of the ion-electron system (eV)
  ---------------------------------------------------
  alpha Z        PSCENC =         3.26645001
  Ewald energy   TEWEN  =      -226.32920496
  -Hartree energ DENC   =       -15.27589883
  -exchange      EXHF   =         0.00000000
  -V(xc)+E(xc)   XCENC  =       -18.09440946
  PAW double counting   =       827.12338049     -792.13625436
  entropy T*S    EENTRO =        -0.00000000
  eigenvalues    EBANDS =         4.47063859
  atomic energy  EATOM  =       206.13125414
  Solvation  Ediel_sol  =         0.00000000
  ---------------------------------------------------
  free energy    TOTEN  =       -10.84404437 eV

  energy without entropy =      -10.84404437  energy(sigma->0) =      -10.84404437


--------------------------------------------------------------------------------------------------------




 average (electrostatic) potential at core
  the test charge radii are     0.9892
  (the norm of the test charge is              1.0000)
       1 -83.5710       2 -83.5710
 
 
 
 E-fermi :   5.5179     XC(G=0):  -9.2952     alpha+bet :-11.6365

 Fermi energy:         5.5178680620

 k-point     1 :       0.1250    0.1250    0.1250
  band No.  band energies     occupation 
      1      -6.0247      2.00000
      2       3.9481      2.00000
      3       5.2571      2.00000
      4       5.2571      2.00000
      5       7.9552      0.00000
      6       8.5036      0.00000
      7       8.5036      0.00000
      8      10.0006      0.00000

 k-point     2 :       0.3750    0.1250    0.1250
  band No.  band energies     occupation 
      1      -5.0061      2.00000
      2       0.9704      2.00000
      3       3.2863      2.00000
      4       4.7798      2.00000
      5       8.1672      0.00000
      6       9.1930      0.00000
      7       9.3658      0.00000
      8      11.7146      0.00000

 k-point     3 :      -0.3750    0.1250    0.1250
  band No.  band energies     occupation 
      1      -3.8780      2.00000
      2      -1.0890      2.00000
      3       3.3034      2.00000
      4       4.0157      2.00000
      5       7.6874      0.00000
      6       9.0175      0.00000
      7       9.6295      0.00000
      8      12.8182      0.00000

 k-point     4 :      -0.1250    0.1250    0.1250
  band No.  band energies     occupation 
      1      -5.5008      2.00000
      2       2.3364      2.00000
      3       4.2587      2.00000
      4       4.3178      2.00000
      5       7.6810      0.00000
      6       9.1285      0.00000
      7       9.9499      0.00000
      8      10.2725      0.00000

 k-point     5 :       0.3750    0.3750    0.1250
  band No.  band energies     occupation 
      1      -4.4774      2.00000
      2       0.6296      2.00000
      3       2.9425      2.00000
      4       3.3917      2.00000
      5       6.9162      0.00000
      6       8.4439      0.00000
      7      11.4127      0.00000
      8      11.7220      0.00000

 k-point     6 :      -0.3750    0.3750    0.1250
  band No.  band energies     occupation 
      1      -2.8525      2.00000
      2      -1.3195      2.00000
      3       1.6024      2.00000
      4       2.6695      2.00000
      5       7.9356      0.00000
      6       9.8035      0.00000
      7      10.7260      0.00000
      8      12.8566      0.00000

 k-point     7 :      -0.1250    0.3750    0.1250
  band No.  band energies     occupation 
      1      -4.0660      2.00000
      2      -0.2325      2.00000
      3       2.3043      2.00000
      4       3.6641      2.00000
      5       8.3966      0.00000
      6       9.0586      0.00000
      7      10.5003      0.00000
      8      11.3963      0.00000

 k-point     8 :      -0.3750   -0.3750    0.1250
  band No.  band energies     occupation 
      1      -3.0169      2.00000
      2      -1.2240      2.00000
      3       2.2066      2.00000
      4       2.9284      2.00000
      5       6.4823      0.00000
      6       7.5298      0.00000
      7      13.6786      0.00000
      8      13.7209      0.00000

 k-point     9 :       0.3750    0.3750    0.3750
  band No.  band energies     occupation 
      1      -4.5774      2.00000
      2      -0.3066      2.00000
      3       4.4756      2.00000
      4       4.4756      2.00000
      5       7.1035      0.00000
      6       8.9922      0.00000
      7       8.9922      0.00000
      8      13.3560      0.00000

 k-point    10 :      -0.3750    0.3750    0.3750
  band No.  band energies     occupation 
      1      -3.3859      2.00000
      2      -1.0129      2.00000
      3       1.6572      2.00000
      4       3.7017      2.00000
      5       7.3977      0.00000
      6      10.9156      0.00000
      7      10.9670      0.00000
      8      12.3938      0.00000


--------------------------------------------------------------------------------------------------------


 soft charge-density along one line, spin component           1
         0         1         2         3         4         5         6         7         8         9
 total charge-density along one line
 
 pseudopotential strength for first ion, spin component:           1
 18.446  25.736   0.000   0.000   0.000   0.000   0.000   0.000
 25.736  35.911   0.000   0.000   0.000   0.000   0.000   0.000
  0.000   0.000   4.182  -0.000  -0.000   7.792  -0.000  -0.000
  0.000   0.000  -0.000   4.182  -0.000  -0.000   7.792  -0.000
  0.000   0.000  -0.000  -0.000   4.182  -0.000  -0.000   7.792
  0.000   0.000   7.792  -0.000  -0.000  14.532  -0.000  -0.000
  0.000   0.000  -0.000   7.792  -0.000  -0.000  14.532  -0.000
  0.000   0.000  -0.000  -0.000   7.792  -0.000  -0.000  14.532
 total augmentation occupancy for first ion, spin component:           1
  5.457  -2.023  -0.000  -0.000  -0.000  -0.000  -0.000  -0.000
 -2.023   0.866   0.000  -0.000  -0.000   0.000  -0.000   0.000
 -0.000  -0.000   2.913   0.000   0.000  -0.655  -0.000  -0.000
 -0.000  -0.000   0.000   2.913   0.000  -0.000  -0.655  -0.000
 -0.000   0.000   0.000   0.000   2.913  -0.000  -0.000  -0.655
  0.000   0.000  -0.655  -0.000  -0.000   0.155   0.000   0.000
  0.000   0.000  -0.000  -0.655  -0.000   0.000   0.155   0.000
 -0.000   0.000  -0.000  -0.000  -0.655   0.000   0.000   0.155


------------------------ aborting loop because EDIFF is reached ----------------------------------------


    CHARGE:  cpu time    0.0250: real time    0.0259
    FORLOC:  cpu time    0.0010: real time    0.0019
    FORNL :  cpu time    0.0970: real time    0.0979
    STRESS:  cpu time    0.3529: real time    0.3533
    FORCOR:  cpu time    0.0310: real time    0.0310
    FORHAR:  cpu time    0.0060: real time    0.0059
    MIXING:  cpu time    0.0010: real time    0.0012
    OFIELD:  cpu time    0.0000: real time    0.0002

  FORCE on cell =-STRESS in cart. coord.  units (eV):
  Direction    XX          YY          ZZ          XY          YZ          ZX
  --------------------------------------------------------------------------------------
  Alpha Z     3.26645     3.26645     3.26645
  Ewald     -75.44308   -75.44316   -75.44307     0.00001    -0.00000    -0.00000
  Hartree     5.09216     5.09216     5.09216     0.00000     0.00000     0.00000
  E(xc)     -25.20287   -25.20287   -25.20287     0.00000     0.00000     0.00000
  Local     -29.65308   -29.65306   -29.65306    -0.00000     0.00001     0.00001
  n-local    75.46261    77.98304    78.50553    -0.27115    -1.88151     0.12357
  augment   -11.64115   -11.64115   -11.64116    -0.00000    -0.00001    -0.00001
  Kinetic    54.80173    56.99125    56.40389     0.02288    -0.18870    -1.03714
  Fock        0.00000     0.00000     0.00000     0.00000     0.00000     0.00000
  -------------------------------------------------------------------------------------
  Total      -0.19890    -0.19890    -0.19890    -0.00000     0.00000    -0.00000
  in kB      -7.73064    -7.73065    -7.73064    -0.00000     0.00000    -0.00000
  external pressure =       -7.73 kB  Pullay stress =        0.00 kB


 VOLUME and BASIS-vectors are now :
 -----------------------------------------------------------------------------
  energy-cutoff  :      350.00
  volume of cell :       41.22
      direct lattice vectors                 reciprocal lattice vectors
     3.358008210 -0.000000000  1.938746669     0.297795579 -0.105286595 -0.000000000
     1.119336070  3.165961764  1.938746669     0.000000000  0.315859784 -0.000000000
     0.000000000  0.000000000  3.877493338    -0.148897790 -0.105286595  0.257898573

  length of vectors
     3.877493750  3.877494781  3.877493338     0.315859896  0.315859784  0.315859926


 FORCES acting on ions
    electron-ion (+dipol)            ewald-force                    non-local-force                 convergence-correction
 -----------------------------------------------------------------------------------------------
   0.527E-05 0.246E-04 0.674E-07   -.892E-05 -.418E-04 -.341E-15   -.113E-16 0.208E-16 -.243E-16   0.957E-07 0.671E-07 0.166E-06
   -.527E-05 -.246E-04 -.674E-07   0.892E-05 0.418E-04 0.441E-15   0.868E-17 -.486E-16 0.347E-17   -.957E-07 -.671E-07 -.166E-06
 -----------------------------------------------------------------------------------------------
   0.382E-13 -.423E-13 0.135E-12   -.400E-16 -.103E-15 0.997E-16   -.260E-17 -.278E-16 -.208E-16   -.109E-14 0.242E-15 0.419E-16
 
 
 POSITION                                       TOTAL-FORCE (eV/Angst)
 -----------------------------------------------------------------------------------
      3.91768      2.77022      6.78561        -0.000000      0.000000      0.000000
      0.55967      0.39575      0.96937         0.000000     -0.000000     -0.000000
 -----------------------------------------------------------------------------------
    total drift:                                0.000000     -0.000000      0.000000


--------------------------------------------------------------------------------------------------------



  FREE ENERGIE OF THE ION-ELECTRON SYSTEM (eV)
  ---------------------------------------------------
  free  energy   TOTEN  =       -10.84404437 eV

  energy  without entropy=      -10.84404437  energy(sigma->0) =      -10.84404437
 
 d Force = 0.0000000E+00[ 0.000E+00, 0.000E+00]  d Energy = 0.1061550E-02-0.106E-02
 d Force = 0.0000000E+00[ 0.000E+00, 0.000E+00]  d Ewald  =-0.1659001E+01 0.166E+01


--------------------------------------------------------------------------------------------------------


    POTLOK:  cpu time    0.2110: real time    0.2216


--------------------------------------------------------------------------------------------------------


 Steepest descent step on ions:
 trial-energy change:   -0.001062  1 .order   -0.001154   -0.006682    0.004374
  (g-gl).g = 0.668E-02      g.g   = 0.668E-02  gl.gl    = 0.000E+00
 g(Force)  = 0.115E-42   g(Stress)= 0.668E-02 ortho     = 0.000E+00
 gamma     =   0.00000
 trial     =   1.00000
 opt step  =   0.59225  (harmonic =   0.60440) maximal distance =0.00000000
 next E    =   -10.844942   (d E  =  -0.00196)


--------------------------------------------------------------------------------------------------------


    WAVPRE:  cpu time    0.0080: real time    0.0242
    FEWALD:  cpu time    0.0000: real time    0.0003
    GENKIN:  cpu time    0.0060: real time    0.0055
    ORTHCH:  cpu time    0.0040: real time    0.0031
     LOOP+:  cpu time    2.8356: real time    2.9554


--------------------------------------- Iteration      3(   1)  ---------------------------------------


    POTLOK:  cpu time    0.0310: real time    0.0351
    SETDIJ:  cpu time    0.1770: real time    0.1766
     EDDAV:  cpu time    0.1040: real time    0.1041
       DOS:  cpu time    0.0000: real time    0.0005
    CHARGE:  cpu time    0.0250: real time    0.0259
    MIXING:  cpu time    0.0010: real time    0.0013
    --------------------------------------------
      LOOP:  cpu time    0.3389: real time    0.3438

 eigenvalue-minimisations  :   200
 total energy-change (2. order) :-0.1326181E-02  (-0.1734727E-02)
 number of electron       8.0000000 magnetization 
 augmentation part       -0.4573412 magnetization 

 Broyden mixing:
  rms(total) = 0.12539E-01    rms(broyden)= 0.12538E-01
  rms(prec ) = 0.31751E-01
  weight for this iteration     100.00

 Free energy of the ion-electron system (eV)
  ---------------------------------------------------
  alpha Z        PSCENC =         3.29569885
  Ewald energy   TEWEN  =      -227.00273990
  -Hartree energ DENC   =       -15.32201296
  -exchange      EXHF   =         0.00000000
  -V(xc)+E(xc)   XCENC  =       -18.05107988
  PAW double counting   =       825.97577358     -790.98877960
  entropy T*S    EENTRO =        -0.00000000
  eigenvalues    EBANDS =         5.11651544
  atomic energy  EATOM  =       206.13125414
  Solvation  Ediel_sol  =         0.00000000
  ---------------------------------------------------
  free energy    TOTEN  =       -10.84537032 eV

  energy without entropy =      -10.84537032  energy(sigma->0) =      -10.84537032


--------------------------------------------------------------------------------------------------------




--------------------------------------- Iteration      3(   2)  ---------------------------------------


    POTLOK:  cpu time    0.0510: real time    0.0609
    SETDIJ:  cpu time    0.1910: real time    0.1911
     EDDAV:  cpu time    0.0960: real time    0.0957
       DOS:  cpu time    0.0000: real time    0.0006
    CHARGE:  cpu time    0.0250: real time    0.0251
    MIXING:  cpu time    0.0010: real time    0.0014
    --------------------------------------------
      LOOP:  cpu time    0.3639: real time    0.3747

 eigenvalue-minimisations  :   192
 total energy-change (2. order) : 0.2890847E-03  (-0.2400837E-04)
 number of electron       8.0000000 magnetization 
 augmentation part       -0.4576111 magnetization 

 Broyden mixing:
  rms(total) = 0.74479E-02    rms(broyden)= 0.74478E-02
  rms(prec ) = 0.18264E-01
  weight for this iteration     100.00

 eigenvalues of (default mixing * dielectric matrix)
  average eigenvalue GAMMA=   2.4337
  2.4337

 Free energy of the ion-electron system (eV)
  ---------------------------------------------------
  alpha Z        PSCENC =         3.29569885
  Ewald energy   TEWEN  =      -227.00273990
  -Hartree energ DENC   =       -15.25514673
  -exchange      EXHF   =         0.00000000
  -V(xc)+E(xc)   XCENC  =       -18.05320304
  PAW double counting   =       834.48830364     -799.50314767
  entropy T*S    EENTRO =        -0.00000000
  eigenvalues    EBANDS =         5.05389947
  atomic energy  EATOM  =       206.13125414
  Solvation  Ediel_sol  =         0.00000000
  ---------------------------------------------------
  free energy    TOTEN  =       -10.84508124 eV

  energy without entropy =      -10.84508124  energy(sigma->0) =      -10.84508124


--------------------------------------------------------------------------------------------------------




--------------------------------------- Iteration      3(   3)  ---------------------------------------


    POTLOK:  cpu time    0.0420: real time    0.0497
    SETDIJ:  cpu time    0.1790: real time    0.1794
     EDDAV:  cpu time    0.1080: real time    0.1079
       DOS:  cpu time    0.0010: real time    0.0008
    CHARGE:  cpu time    0.0240: real time    0.0251
    MIXING:  cpu time    0.0010: real time    0.0014
    --------------------------------------------
      LOOP:  cpu time    0.3549: real time    0.3643

 eigenvalue-minimisations  :   208
 total energy-change (2. order) : 0.1456812E-03  (-0.3155370E-04)
 number of electron       8.0000000 magnetization 
 augmentation part       -0.4581371 magnetization 

 Broyden mixing:
  rms(total) = 0.25498E-02    rms(broyden)= 0.25498E-02
  rms(prec ) = 0.28307E-02
  weight for this iteration     100.00

 eigenvalues of (default mixing * dielectric matrix)
  average eigenvalue GAMMA=   1.3203
  2.2414  0.3991

 Free energy of the ion-electron system (eV)
  ---------------------------------------------------
  alpha Z        PSCENC =         3.29569885
  Ewald energy   TEWEN  =      -227.00273990
  -Hartree energ DENC   =       -15.16838980
  -exchange      EXHF   =         0.00000000
  -V(xc)+E(xc)   XCENC  =       -18.05488006
  PAW double counting   =       846.84364303     -811.86227197
  entropy T*S    EENTRO =        -0.00000000
  eigenvalues    EBANDS =         4.97275015
  atomic energy  EATOM  =       206.13125414
  Solvation  Ediel_sol  =         0.00000000
  ---------------------------------------------------
  free energy    TOTEN  =       -10.84493556 eV

  energy without entropy =      -10.84493556  energy(sigma->0) =      -10.84493556


--------------------------------------------------------------------------------------------------------




--------------------------------------- Iteration      3(   4)  ---------------------------------------


    POTLOK:  cpu time    0.0330: real time    0.0457
    SETDIJ:  cpu time    0.1730: real time    0.1734
     EDDAV:  cpu time    0.1050: real time    0.1052
       DOS:  cpu time    0.0010: real time    0.0006
    CHARGE:  cpu time    0.0250: real time    0.0254
    MIXING:  cpu time    0.0010: real time    0.0014
    --------------------------------------------
      LOOP:  cpu time    0.3369: real time    0.3518

 eigenvalue-minimisations  :   216
 total energy-change (2. order) :-0.5409382E-06  (-0.2846060E-06)
 number of electron       8.0000000 magnetization 
 augmentation part       -0.4581354 magnetization 

 Broyden mixing:
  rms(total) = 0.22464E-02    rms(broyden)= 0.22464E-02
  rms(prec ) = 0.24764E-02
  weight for this iteration     100.00

 eigenvalues of (default mixing * dielectric matrix)
  average eigenvalue GAMMA=   2.0307
  1.2546  2.7531  2.0843

 Free energy of the ion-electron system (eV)
  ---------------------------------------------------
  alpha Z        PSCENC =         3.29569885
  Ewald energy   TEWEN  =      -227.00273990
  -Hartree energ DENC   =       -15.16972974
  -exchange      EXHF   =         0.00000000
  -V(xc)+E(xc)   XCENC  =       -18.05465614
  PAW double counting   =       845.90427660     -810.92322887
  entropy T*S    EENTRO =        -0.00000000
  eigenvalues    EBANDS =         4.97418896
  atomic energy  EATOM  =       206.13125414
  Solvation  Ediel_sol  =         0.00000000
  ---------------------------------------------------
  free energy    TOTEN  =       -10.84493610 eV

  energy without entropy =      -10.84493610  energy(sigma->0) =      -10.84493610


--------------------------------------------------------------------------------------------------------




--------------------------------------- Iteration      3(   5)  ---------------------------------------


    POTLOK:  cpu time    0.0320: real time    0.0399
    SETDIJ:  cpu time    0.1720: real time    0.1726
     EDDAV:  cpu time    0.0850: real time    0.0853
       DOS:  cpu time    0.0010: real time    0.0005
    CHARGE:  cpu time    0.0250: real time    0.0255
    MIXING:  cpu time    0.0010: real time    0.0014
    --------------------------------------------
      LOOP:  cpu time    0.3170: real time    0.3253

 eigenvalue-minimisations  :   168
 total energy-change (2. order) :-0.1845722E-05  (-0.8529738E-07)
 number of electron       8.0000000 magnetization 
 augmentation part       -0.4581419 magnetization 

 Broyden mixing:
  rms(total) = 0.47335E-03    rms(broyden)= 0.47334E-03
  rms(prec ) = 0.48280E-03
  weight for this iteration     100.00

 eigenvalues of (default mixing * dielectric matrix)
  average eigenvalue GAMMA=   1.7328
  2.6751  2.2224  1.0169  1.0169

 Free energy of the ion-electron system (eV)
  ---------------------------------------------------
  alpha Z        PSCENC =         3.29569885
  Ewald energy   TEWEN  =      -227.00273990
  -Hartree energ DENC   =       -15.16980820
  -exchange      EXHF   =         0.00000000
  -V(xc)+E(xc)   XCENC  =       -18.05381805
  PAW double counting   =       841.04791873     -806.06857795
  entropy T*S    EENTRO =        -0.00000000
  eigenvalues    EBANDS =         4.97513443
  atomic energy  EATOM  =       206.13125414
  Solvation  Ediel_sol  =         0.00000000
  ---------------------------------------------------
  free energy    TOTEN  =       -10.84493794 eV

  energy without entropy =      -10.84493794  energy(sigma->0) =      -10.84493794


--------------------------------------------------------------------------------------------------------




--------------------------------------- Iteration      3(   6)  ---------------------------------------


    POTLOK:  cpu time    0.0330: real time    0.0392
    SETDIJ:  cpu time    0.1740: real time    0.1753
     EDDAV:  cpu time    0.0530: real time    0.0532
       DOS:  cpu time    0.0010: real time    0.0005
    --------------------------------------------
      LOOP:  cpu time    0.2600: real time    0.2681

 eigenvalue-minimisations  :    80
 total energy-change (2. order) : 0.9200005E-07  (-0.1050156E-08)
 number of electron       8.0000000 magnetization 
 augmentation part       -0.4581419 magnetization 

 Free energy of the ion-electron system (eV)
  ---------------------------------------------------
  alpha Z        PSCENC =         3.29569885
  Ewald energy   TEWEN  =      -227.00273990
  -Hartree energ DENC   =       -15.16974898
  -exchange      EXHF   =         0.00000000
  -V(xc)+E(xc)   XCENC  =       -18.05385046
  PAW double counting   =       841.49698008     -806.51755356
  entropy T*S    EENTRO =        -0.00000000
  eigenvalues    EBANDS =         4.97502198
  atomic energy  EATOM  =       206.13125414
  Solvation  Ediel_sol  =         0.00000000
  ---------------------------------------------------
  free energy    TOTEN  =       -10.84493785 eV

  energy without entropy =      -10.84493785  energy(sigma->0) =      -10.84493785


--------------------------------------------------------------------------------------------------------




 average (electrostatic) potential at core
  the test charge radii are     0.9892
  (the norm of the test charge is              1.0000)
       1 -83.4723       2 -83.4723
 
 
 
 E-fermi :   5.6133     XC(G=0):  -9.3297     alpha+bet :-11.7407

 Fermi energy:         5.6132602071

 k-point     1 :       0.1250    0.1250    0.1250
  band No.  band energies     occupation 
      1      -5.9948      2.00000
      2       4.0343      2.00000
      3       5.3428      2.00000
      4       5.3428      2.00000
      5       8.0713      0.00000
      6       8.5993      0.00000
      7       8.5993      0.00000
      8      10.1646      0.00000

 k-point     2 :       0.3750    0.1250    0.1250
  band No.  band energies     occupation 
      1      -4.9679      2.00000
      2       1.0420      2.00000
      3       3.3570      2.00000
      4       4.8633      2.00000
      5       8.2842      0.00000
      6       9.2888      0.00000
      7       9.4632      0.00000
      8      11.8414      0.00000

 k-point     3 :      -0.3750    0.1250    0.1250
  band No.  band energies     occupation 
      1      -3.8278      2.00000
      2      -1.0366      2.00000
      3       3.3782      2.00000
      4       4.0921      2.00000
      5       7.7907      0.00000
      6       9.1166      0.00000
      7       9.7212      0.00000
      8      12.9349      0.00000

 k-point     4 :      -0.1250    0.1250    0.1250
  band No.  band energies     occupation 
      1      -5.4668      2.00000
      2       2.4187      2.00000
      3       4.3352      2.00000
      4       4.3994      2.00000
      5       7.7715      0.00000
      6       9.2541      0.00000
      7      10.0558      0.00000
      8      10.3671      0.00000

 k-point     5 :       0.3750    0.3750    0.1250
  band No.  band energies     occupation 
      1      -4.4352      2.00000
      2       0.7088      2.00000
      3       3.0083      2.00000
      4       3.4615      2.00000
      5       6.9968      0.00000
      6       8.5298      0.00000
      7      11.5391      0.00000
      8      11.8369      0.00000

 k-point     6 :      -0.3750    0.3750    0.1250
  band No.  band energies     occupation 
      1      -2.7948      2.00000
      2      -1.2531      2.00000
      3       1.6534      2.00000
      4       2.7305      2.00000
      5       8.0218      0.00000
      6       9.8972      0.00000
      7      10.8422      0.00000
      8      12.9831      0.00000

 k-point     7 :      -0.1250    0.3750    0.1250
  band No.  band energies     occupation 
      1      -4.0195      2.00000
      2      -0.1649      2.00000
      3       2.3665      2.00000
      4       3.7359      2.00000
      5       8.4918      0.00000
      6       9.1578      0.00000
      7      10.6068      0.00000
      8      11.5087      0.00000

 k-point     8 :      -0.3750   -0.3750    0.1250
  band No.  band energies     occupation 
      1      -2.9627      2.00000
      2      -1.1557      2.00000
      3       2.2637      2.00000
      4       2.9948      2.00000
      5       6.5561      0.00000
      6       7.6112      0.00000
      7      13.8065      0.00000
      8      13.8629      0.00000

 k-point     9 :       0.3750    0.3750    0.3750
  band No.  band energies     occupation 
      1      -4.5348      2.00000
      2      -0.2486      2.00000
      3       4.5565      2.00000
      4       4.5565      2.00000
      5       7.2232      0.00000
      6       9.0802      0.00000
      7       9.0802      0.00000
      8      13.4658      0.00000

 k-point    10 :      -0.3750    0.3750    0.3750
  band No.  band energies     occupation 
      1      -3.3319      2.00000
      2      -0.9511      2.00000
      3       1.7119      2.00000
      4       3.7750      2.00000
      5       7.4822      0.00000
      6      11.0316      0.00000
      7      11.0718      0.00000
      8      12.5141      0.00000


--------------------------------------------------------------------------------------------------------


 soft charge-density along one line, spin component           1
         0         1         2         3         4         5         6         7         8         9
 total charge-density along one line
 
 pseudopotential strength for first ion, spin component:           1
 18.436  25.722   0.000  -0.000   0.000   0.000  -0.000   0.000
 25.722  35.892   0.000  -0.000   0.000   0.000  -0.000   0.000
  0.000   0.000   4.181  -0.000  -0.000   7.790  -0.000  -0.000
 -0.000  -0.000  -0.000   4.181  -0.000  -0.000   7.790  -0.000
  0.000   0.000  -0.000  -0.000   4.181  -0.000  -0.000   7.790
  0.000   0.000   7.790  -0.000  -0.000  14.528  -0.000  -0.000
 -0.000  -0.000  -0.000   7.790  -0.000  -0.000  14.528  -0.000
  0.000   0.000  -0.000  -0.000   7.790  -0.000  -0.000  14.528
 total augmentation occupancy for first ion, spin component:           1
  5.532  -2.065   0.000  -0.000   0.000  -0.000   0.000  -0.000
 -2.065   0.886   0.000  -0.000   0.000  -0.000  -0.000   0.000
  0.000  -0.000   2.944  -0.000   0.000  -0.664   0.000  -0.000
 -0.000  -0.000  -0.000   2.944  -0.000   0.000  -0.664   0.000
  0.000  -0.000   0.000  -0.000   2.944  -0.000   0.000  -0.664
  0.000  -0.000  -0.664   0.000  -0.000   0.158  -0.000   0.000
  0.000   0.000   0.000  -0.664   0.000  -0.000   0.158  -0.000
 -0.000  -0.000  -0.000   0.000  -0.664   0.000  -0.000   0.158


------------------------ aborting loop because EDIFF is reached ----------------------------------------


    CHARGE:  cpu time    0.0250: real time    0.0250
    FORLOC:  cpu time    0.0010: real time    0.0017
    FORNL :  cpu time    0.0950: real time    0.0946
    STRESS:  cpu time    0.3589: real time    0.3589
    FORCOR:  cpu time    0.0310: real time    0.0320
    FORHAR:  cpu time    0.0070: real time    0.0072
    MIXING:  cpu time    0.0010: real time    0.0014
    OFIELD:  cpu time    0.0000: real time    0.0001

  FORCE on cell =-STRESS in cart. coord.  units (eV):
  Direction    XX          YY          ZZ          XY          YZ          ZX
  --------------------------------------------------------------------------------------
  Alpha Z     3.29570     3.29570     3.29570
  Ewald     -75.66759   -75.66767   -75.66758     0.00001    -0.00000     0.00000
  Hartree     5.05651     5.05651     5.05651     0.00000     0.00000     0.00000
  E(xc)     -25.25382   -25.25381   -25.25382    -0.00000    -0.00000    -0.00000
  Local     -29.52644   -29.52642   -29.52642    -0.00000     0.00001     0.00001
  n-local    75.60470    78.14440    78.66963    -0.26813    -1.88690     0.11866
  augment   -11.64264   -11.64264   -11.64266    -0.00000    -0.00001    -0.00001
  Kinetic    55.02576    57.19546    56.58000     0.03457    -0.14591    -1.06212
  Fock        0.00000     0.00000     0.00000     0.00000     0.00000     0.00000
  -------------------------------------------------------------------------------------
  Total       0.00169     0.00169     0.00169    -0.00000     0.00000    -0.00000
  in kB       0.06622     0.06622     0.06622    -0.00000     0.00000    -0.00000
  external pressure =        0.07 kB  Pullay stress =        0.00 kB


 VOLUME and BASIS-vectors are now :
 -----------------------------------------------------------------------------
  energy-cutoff  :      350.00
  volume of cell :       40.86
      direct lattice vectors                 reciprocal lattice vectors
     3.348044738 -0.000000000  1.932994258     0.298681791 -0.105599918 -0.000000000
     1.116014913  3.156568101  1.932994258     0.000000000  0.316799755 -0.000000000
     0.000000000  0.000000000  3.865988516    -0.149340896 -0.105599918  0.258666055

  length of vectors
     3.865988925  3.865989946  3.865988516     0.316799866  0.316799755  0.316799896


 FORCES acting on ions
    electron-ion (+dipol)            ewald-force                    non-local-force                 convergence-correction
 -----------------------------------------------------------------------------------------------
   0.525E-05 0.245E-04 0.592E-07   -.892E-05 -.418E-04 0.313E-15   -.468E-16 -.139E-16 -.177E-15   -.414E-07 -.290E-07 -.719E-07
   -.525E-05 -.245E-04 -.592E-07   0.892E-05 0.418E-04 -.324E-15   0.503E-16 0.139E-16 0.798E-16   0.414E-07 0.290E-07 0.719E-07
 -----------------------------------------------------------------------------------------------
   0.525E-13 -.545E-13 0.130E-12   0.280E-15 0.286E-16 -.119E-16   0.347E-17 0.000E+00 -.971E-16   0.101E-14 -.194E-15 0.327E-15
 
 
 POSITION                                       TOTAL-FORCE (eV/Angst)
 -----------------------------------------------------------------------------------
      3.90605      2.76200      6.76548        -0.000000     -0.000000      0.000000
      0.55801      0.39457      0.96650         0.000000      0.000000     -0.000000
 -----------------------------------------------------------------------------------
    total drift:                                0.000000     -0.000000      0.000000


--------------------------------------------------------------------------------------------------------



  FREE ENERGIE OF THE ION-ELECTRON SYSTEM (eV)
  ---------------------------------------------------
  free  energy   TOTEN  =       -10.84493785 eV

  energy  without entropy=      -10.84493785  energy(sigma->0) =      -10.84493785
 
 d Force = 0.0000000E+00[ 0.000E+00, 0.000E+00]  d Energy = 0.8934809E-03-0.893E-03
 d Force = 0.0000000E+00[ 0.000E+00, 0.000E+00]  d Ewald  = 0.6735349E+00-0.674E+00


--------------------------------------------------------------------------------------------------------


    POTLOK:  cpu time    0.2130: real time    0.2201


--------------------------------------------------------------------------------------------------------




--------------------------------------------------------------------------------------------------------


  
 reached required accuracy - stopping structural energy minimisation
     LOOP+:  cpu time    2.8876: real time    3.0025
    4ORBIT:  cpu time    0.0000: real time    0.0000

 total amount of memory used by VASP MPI-rank0    36716. kBytes
=======================================================================

   base      :      30000. kBytes
   nonl-proj :        408. kBytes
   fftplans  :       4177. kBytes
   grid      :       1926. kBytes
   one-center:          6. kBytes
   wavefun   :        199. kBytes
 
  
  
 General timing and accounting informations for this job:
 ========================================================
  
                  Total CPU time used (sec):       10.033
                            User time (sec):        9.753
                          System time (sec):        0.281
                         Elapsed time (sec):       10.843
  
                   Maximum memory used (kb):       57480.
                   Average memory used (kb):          N/A
  
                          Minor page faults:        13382
                          Major page faults:            1
                 Voluntary context switches:         9078
