<?xml version="1.0" encoding="ISO-8859-1"?>
<modeling>
 <generator>
  <i name="program" type="string">vasp </i>
  <i name="version" type="string">6.2.0  </i>
  <i name="subversion" type="string">18Jan21 (build Aug 12 2022 13:00:08) complex                          parallel </i>
  <i name="platform" type="string">LinuxIFC </i>
  <i name="date" type="string">2024 11 03 </i>
  <i name="time" type="string">21:52:42 </i>
 </generator>
 <incar>
  <i type="int" name="ISTART">     0</i>
  <i type="string" name="PREC">Accurate      (Accurate strictly avoids</i>
  <i type="logical" name="ADDGRID"> T  </i>
  <i type="int" name="ISPIN">     1</i>
  <i type="int" name="NELM">    90</i>
  <i type="int" name="NELMIN">     6</i>
  <i type="int" name="IBRION">     2</i>
  <i name="EDIFF">      0.00000100</i>
  <i name="EDIFFG">     -0.00200000</i>
  <i type="int" name="NSW">   100</i>
  <i type="int" name="ISIF">     3</i>
  <i type="int" name="ISYM">     2</i>
  <i name="ENCUT">    350.00000000</i>
  <i type="logical" name="LREAL"> F  </i>
  <i type="int" name="ISMEAR">     0</i>
  <i name="SIGMA">      0.05000000</i>
  <i type="logical" name="LWAVE"> F  </i>
  <i type="logical" name="LCHARG"> F  </i>
  <i type="logical" name="LASPH"> T  </i>
 </incar>
 <primitive_cell>
  <structure name="primitive_cell" >
   <crystal>
    <varray name="basis" >
     <v>       3.33357300       0.00000000       1.92463900 </v>
     <v>       1.11119100       3.14292400       1.92463900 </v>
     <v>       0.00000000       0.00000000       3.84927800 </v>
    </varray>
    <i name="volume">     40.32952685 </i>
    <varray name="rec_basis" >
     <v>       0.29997843      -0.10605835       0.00000000 </v>
     <v>       0.00000000       0.31817505       0.00000000 </v>
     <v>      -0.14998922      -0.10605835       0.25978898 </v>
    </varray>
   </crystal>
   <varray name="positions" >
    <v>       0.87500000       0.87500000       0.87500000 </v>
    <v>       0.12500000       0.12500000       0.12500000 </v>
   </varray>
  </structure>
  <varray name="primitive_index" >
   <v type="int" >        1 </v>
   <v type="int" >        2 </v>
  </varray>
 </primitive_cell>
 <kpoints>
  <generation param="Monkhorst-Pack">
   <v type="int" name="divisions">       4        4        4 </v>
   <v name="usershift">      0.00000000       0.00000000       0.00000000 </v>
   <v name="genvec1">      0.25000000       0.00000000       0.00000000 </v>
   <v name="genvec2">      0.00000000       0.25000000       0.00000000 </v>
   <v name="genvec3">      0.00000000       0.00000000       0.25000000 </v>
   <v name="shift">      0.50000000       0.50000000       0.50000000 </v>
  </generation>
  <varray name="kpointlist" >
   <v>       0.12500000       0.12500000       0.12500000 </v>
   <v>       0.37500000       0.12500000       0.12500000 </v>
   <v>      -0.37500000       0.12500000       0.12500000 </v>
   <v>      -0.12500000       0.12500000       0.12500000 </v>
   <v>       0.37500000       0.37500000       0.12500000 </v>
   <v>      -0.37500000       0.37500000       0.12500000 </v>
   <v>      -0.12500000       0.37500000       0.12500000 </v>
   <v>      -0.37500000      -0.37500000       0.12500000 </v>
   <v>       0.37500000       0.37500000       0.37500000 </v>
   <v>      -0.37500000       0.37500000       0.37500000 </v>
  </varray>
  <varray name="weights" >
   <v>       0.03125000 </v>
   <v>       0.09375000 </v>
   <v>       0.09375000 </v>
   <v>       0.09375000 </v>
   <v>       0.09375000 </v>
   <v>       0.18750000 </v>
   <v>       0.18750000 </v>
   <v>       0.09375000 </v>
   <v>       0.03125000 </v>
   <v>       0.09375000 </v>
  </varray>
 </kpoints>
 <parameters>
  <separator name="general" >
   <i type="string" name="SYSTEM">unknown system</i>
   <i type="logical" name="LCOMPAT"> F  </i>
  </separator>
  <separator name="electronic" >
   <i type="string" name="PREC">accura</i>
   <i name="ENMAX">    350.00000000</i>
   <i name="ENAUG">    322.06900000</i>
   <i name="EDIFF">      0.00000100</i>
   <i type="int" name="IALGO">    38</i>
   <i type="int" name="IWAVPR">    11</i>
   <i type="int" name="NBANDS">     8</i>
   <i type="int" name="NBANDSLOW">    -1</i>
   <i type="int" name="NBANDSHIGH">    -1</i>
   <i name="NELECT">      8.00000000</i>
   <i type="int" name="TURBO">     0</i>
   <i type="int" name="IRESTART">     0</i>
   <i type="int" name="NREBOOT">     0</i>
   <i type="int" name="NMIN">     0</i>
   <i name="EREF">      0.00000000</i>
   <separator name="electronic smearing" >
    <i type="int" name="ISMEAR">     0</i>
    <i name="SIGMA">      0.05000000</i>
    <i name="KSPACING">      0.50000000</i>
    <i type="logical" name="KGAMMA"> T  </i>
    <i type="logical" name="KBLOWUP"> T  </i>
   </separator>
   <separator name="electronic projectors" >
    <i type="logical" name="LREAL"> F  </i>
    <v name="ROPT">      0.00000000</v>
    <i type="int" name="LMAXPAW">  -100</i>
    <i type="int" name="LMAXMIX">     2</i>
    <i type="logical" name="NLSPLINE"> F  </i>
   </separator>
   <separator name="electronic startup" >
    <i type="int" name="ISTART">     0</i>
    <i type="int" name="ICHARG">     2</i>
    <i type="int" name="INIWAV">     1</i>
   </separator>
   <separator name="electronic spin" >
    <i type="int" name="ISPIN">     1</i>
    <i type="logical" name="LNONCOLLINEAR"> F  </i>
    <v name="MAGMOM">      1.00000000      1.00000000</v>
    <i name="NUPDOWN">     -1.00000000</i>
    <i type="logical" name="LSORBIT"> F  </i>
    <v name="SAXIS">      0.00000000      0.00000000      1.00000000</v>
    <i type="logical" name="LSPIRAL"> F  </i>
    <v name="QSPIRAL">      0.00000000      0.00000000      0.00000000</v>
    <i type="logical" name="LZEROZ"> F  </i>
   </separator>
   <separator name="electronic exchange-correlation" >
    <i type="logical" name="LASPH"> T  </i>
    <i type="logical" name="LMETAGGA"> F  </i>
   </separator>
   <separator name="electronic convergence" >
    <i type="int" name="NELM">    90</i>
    <i type="int" name="NELMDL">    -5</i>
    <i type="int" name="NELMIN">     6</i>
    <i name="ENINI">    350.00000000</i>
    <separator name="electronic convergence detail" >
     <i type="logical" name="LDIAG"> T  </i>
     <i type="logical" name="LSUBROT"> F  </i>
     <i name="WEIMIN">      0.00100000</i>
     <i name="EBREAK">      0.00000003</i>
     <i name="DEPER">      0.30000000</i>
     <i type="int" name="NRMM">     4</i>
     <i name="TIME">      0.40000000</i>
    </separator>
   </separator>
   <separator name="electronic mixer" >
    <i name="AMIX">      0.40000000</i>
    <i name="BMIX">      1.00000000</i>
    <i name="AMIN">      0.10000000</i>
    <i name="AMIX_MAG">      1.60000000</i>
    <i name="BMIX_MAG">      1.00000000</i>
    <separator name="electronic mixer details" >
     <i type="int" name="IMIX">     4</i>
     <i type="logical" name="MIXFIRST"> F  </i>
     <i type="int" name="MAXMIX">   -45</i>
     <i name="WC">    100.00000000</i>
     <i type="int" name="INIMIX">     1</i>
     <i type="int" name="MIXPRE">     1</i>
     <i type="int" name="MREMOVE">     5</i>
    </separator>
   </separator>
   <separator name="electronic dipolcorrection" >
    <i type="logical" name="LDIPOL"> F  </i>
    <i type="logical" name="LMONO"> F  </i>
    <i type="int" name="IDIPOL">     0</i>
    <i name="EPSILON">      1.00000000</i>
    <v name="DIPOL">   -100.00000000   -100.00000000   -100.00000000</v>
    <i name="EFIELD">      0.00000000</i>
   </separator>
  </separator>
  <separator name="grids" >
   <i type="int" name="NGX">    24</i>
   <i type="int" name="NGY">    24</i>
   <i type="int" name="NGZ">    24</i>
   <i type="int" name="NGXF">    48</i>
   <i type="int" name="NGYF">    48</i>
   <i type="int" name="NGZF">    48</i>
   <i type="logical" name="ADDGRID"> T  </i>
  </separator>
  <separator name="ionic" >
   <i type="int" name="NSW">   100</i>
   <i type="int" name="IBRION">     2</i>
   <i type="int" name="MDALGO">     0</i>
   <i type="int" name="ISIF">     3</i>
   <i name="PSTRESS">      0.00000000</i>
   <i name="EDIFFG">     -0.00200000</i>
   <i type="int" name="NFREE">     1</i>
   <i name="POTIM">      0.50000000</i>
   <i name="SMASS">     -3.00000000</i>
   <i name="SCALEE">      1.00000000</i>
  </separator>
  <separator name="ionic md" >
   <i name="TEBEG">      0.00010000</i>
   <i name="TEEND">      0.00010000</i>
   <i type="int" name="NBLOCK">     1</i>
   <i type="int" name="KBLOCK">   100</i>
   <i type="int" name="NPACO">   256</i>
   <i name="APACO">     16.00000000</i>
  </separator>
  <separator name="symmetry" >
   <i type="int" name="ISYM">     2</i>
   <i name="SYMPREC">      0.00001000</i>
  </separator>
  <separator name="dos" >
   <i type="int" name="LORBIT">     0</i>
   <v name="RWIGS">     -1.00000000</v>
   <i type="int" name="NEDOS">   301</i>
   <i name="EMIN">     10.00000000</i>
   <i name="EMAX">    -10.00000000</i>
   <i name="EFERMI">      0.00000000</i>
  </separator>
  <separator name="writing" >
   <i type="int" name="NWRITE">     2</i>
   <i type="logical" name="LWAVE"> F  </i>
   <i type="logical" name="LDOWNSAMPLE"> F  </i>
   <i type="logical" name="LCHARG"> F  </i>
   <i type="logical" name="LPARD"> F  </i>
   <i type="logical" name="LVTOT"> F  </i>
   <i type="logical" name="LVHAR"> F  </i>
   <i type="logical" name="LELF"> F  </i>
   <i type="logical" name="LOPTICS"> F  </i>
   <v name="STM">      0.00000000      0.00000000      0.00000000      0.00000000      0.00000000      0.00000000      0.00000000</v>
  </separator>
  <separator name="performance" >
   <i type="int" name="NPAR">     4</i>
   <i type="int" name="NSIM">     4</i>
   <i type="int" name="NBLK">    -1</i>
   <i type="logical" name="LPLANE"> T  </i>
   <i type="logical" name="LSCALAPACK"> T  </i>
   <i type="logical" name="LSCAAWARE"> F  </i>
   <i type="logical" name="LSCALU"> F  </i>
   <i type="logical" name="LASYNC"> F  </i>
   <i type="logical" name="LORBITALREAL"> F  </i>
  </separator>
  <separator name="miscellaneous" >
   <i type="int" name="IDIOT">     3</i>
   <i type="int" name="PHON_NSTRUCT">    -1</i>
   <i type="logical" name="LMUSIC"> F  </i>
   <v name="POMASS">     28.08500000</v>
   <v name="DARWINR">      0.00000000</v>
   <v name="DARWINV">      1.00000000</v>
   <i type="logical" name="LCORR"> T  </i>
  </separator>
  <i type="logical" name="GGA_COMPAT"> T  </i>
  <i type="logical" name="LBERRY"> F  </i>
  <i type="int" name="ICORELEVEL">     0</i>
  <i type="logical" name="LDAU"> F  </i>
  <i type="int" name="I_CONSTRAINED_M">     0</i>
  <separator name="electronic exchange-correlation" >
   <i type="string" name="GGA">--</i>
   <i type="int" name="VOSKOWN">     0</i>
   <i type="logical" name="LHFCALC"> F  </i>
   <i type="string" name="PRECFOCK"></i>
   <i type="logical" name="LSYMGRAD"> F  </i>
   <i type="logical" name="LHFONE"> F  </i>
   <i type="logical" name="LRHFCALC"> F  </i>
   <i type="logical" name="LTHOMAS"> F  </i>
   <i type="logical" name="LMODELHF"> F  </i>
   <i type="logical" name="LFOCKACE"> F  </i>
   <i name="ENCUT4O">     -1.00000000</i>
   <i type="int" name="EXXOEP">     0</i>
   <i type="int" name="FOURORBIT">     0</i>
   <i name="AEXX">      0.00000000</i>
   <i name="HFALPHA">      0.00000000</i>
   <i name="MCALPHA">      0.00000000</i>
   <i name="ALDAX">      1.00000000</i>
   <i name="AGGAX">      1.00000000</i>
   <i name="ALDAC">      1.00000000</i>
   <i name="AGGAC">      1.00000000</i>
   <i type="int" name="NKREDX">     1</i>
   <i type="int" name="NKREDY">     1</i>
   <i type="int" name="NKREDZ">     1</i>
   <i type="logical" name="SHIFTRED"> F  </i>
   <i type="logical" name="ODDONLY"> F  </i>
   <i type="logical" name="EVENONLY"> F  </i>
   <i type="int" name="LMAXFOCK">     0</i>
   <i type="int" name="NMAXFOCKAE">     0</i>
   <i type="logical" name="LFOCKAEDFT"> F  </i>
   <i name="HFSCREEN">      0.00000000</i>
   <i name="HFSCREENC">      0.00000000</i>
   <i type="int" name="NBANDSGWLOW">     0</i>
  </separator>
  <separator name="vdW DFT" >
   <i type="logical" name="LUSE_VDW"> F  </i>
   <i name="Zab_VDW">     -0.84910000</i>
   <i name="PARAM1">      0.12340000</i>
   <i name="PARAM2">      1.00000000</i>
   <i name="PARAM3">      0.00000000</i>
  </separator>
  <separator name="model GW" >
   <i type="int" name="MODEL_GW">     0</i>
   <i name="MODEL_EPS0">     12.09885805</i>
   <i name="MODEL_ALPHA">      1.00000000</i>
  </separator>
  <separator name="linear response parameters" >
   <i type="logical" name="LEPSILON"> F  </i>
   <i type="logical" name="LRPA"> F  </i>
   <i type="logical" name="LNABLA"> F  </i>
   <i type="logical" name="LVEL"> F  </i>
   <i type="int" name="KINTER">     0</i>
   <i name="CSHIFT">      0.10000000</i>
   <i name="OMEGAMAX">     -1.00000000</i>
   <i name="DEG_THRESHOLD">      0.00200000</i>
   <i name="RTIME">     -0.10000000</i>
   <i name="WPLASMAI">      0.00000000</i>
   <v name="DFIELD">      0.00000000      0.00000000      0.00000000</v>
   <v name="WPLASMA">      0.00000000      0.00000000      0.00000000      0.00000000      0.00000000      0.00000000      0.00000000      0.00000000      0.00000000</v>
  </separator>
  <separator name="orbital magnetization" >
   <i type="logical" name="NUCIND"> F  </i>
   <v name="MAGPOS">      0.00000000      0.00000000      0.00000000</v>
   <i type="logical" name="LNICSALL"> T  </i>
   <i type="logical" name="ORBITALMAG"> F  </i>
   <i type="logical" name="LMAGBLOCH"> F  </i>
   <i type="logical" name="LCHIMAG"> F  </i>
   <i type="logical" name="LGAUGE"> T  </i>
   <i type="int" name="MAGATOM">     0</i>
   <v name="MAGDIPOL">      0.00000000      0.00000000      0.00000000</v>
   <v name="AVECCONST">      0.00000000      0.00000000      0.00000000</v>
  </separator>
  <separator name="response functions" >
   <i type="logical" name="LFINITE_TEMPERATURE"> F  </i>
   <i type="logical" name="LADDER"> F  </i>
   <i type="logical" name="LRPAFORCE"> F  </i>
   <i type="logical" name="LFXC"> F  </i>
   <i type="logical" name="LHARTREE"> T  </i>
   <i type="int" name="IBSE">     0</i>
   <v type="int" name="KPOINT">    -1     0     0     0</v>
   <i type="logical" name="LTCTC"> F  </i>
   <i type="logical" name="LTCTE"> F  </i>
   <i type="logical" name="LTETE"> F  </i>
   <i type="logical" name="LTRIPLET"> F  </i>
   <i type="logical" name="LFXCEPS"> F  </i>
   <i type="logical" name="LFXHEG"> F  </i>
   <i type="int" name="NATURALO">     2</i>
   <i type="logical" name="LHOLEGF"> F  </i>
   <i type="logical" name="L2ORDER"> F  </i>
   <i type="logical" name="LDMP1"> F  </i>
   <i type="logical" name="LMP2LT"> F  </i>
   <i type="logical" name="LSMP2LT"> F  </i>
   <i type="logical" name="LGWLF"> F  </i>
   <i name="ENCUTGW">     -2.00000000</i>
   <i name="ENCUTGWSOFT">     -2.00000000</i>
   <i name="ENCUTLF">     -1.00000000</i>
   <i type="logical" name="LESF_SPLINES"> F  </i>
   <i type="int" name="LMAXMP2">    -1</i>
   <i name="SCISSOR">      0.00000000</i>
   <i type="int" name="NOMEGA">     0</i>
   <i type="int" name="NOMEGAR">     0</i>
   <i type="int" name="NBANDSGW">    -1</i>
   <i type="int" name="NBANDSO">    -1</i>
   <i type="int" name="NBANDSV">    -1</i>
   <i type="int" name="NELM">    90</i>
   <i type="int" name="NELMHF">     1</i>
   <i type="int" name="DIM">     3</i>
   <i type="int" name="IESPILON">     4</i>
   <i type="int" name="ANTIRES">     0</i>
   <i name="OMEGAMAX">    -30.00000000</i>
   <i name="OMEGAMIN">    -30.00000000</i>
   <i name="OMEGATL">   -200.00000000</i>
   <i type="int" name="OMEGAGRID">     0</i>
   <i name="CSHIFT">     -0.10000000</i>
   <i type="logical" name="LSELFENERGY"> F  </i>
   <i type="logical" name="LSPECTRAL"> F  </i>
   <i type="logical" name="LSPECTRALGW"> F  </i>
   <i type="logical" name="LSINGLES"> F  </i>
   <i type="logical" name="LFERMIGW"> F  </i>
   <i type="logical" name="ODDONLYGW"> F  </i>
   <i type="logical" name="EVENONLYGW"> F  </i>
   <i type="int" name="NKREDLFX">     1</i>
   <i type="int" name="NKREDLFY">     1</i>
   <i type="int" name="NKREDLFZ">     1</i>
   <i type="int" name="MAXMEM">  2800</i>
   <i type="int" name="TELESCOPE">     0</i>
   <i type="int" name="NTAUPAR">    -1</i>
   <i type="int" name="NOMEGAPAR">    -1</i>
   <i name="DAMP_NEWTON">      0.80000001</i>
   <i name="LAMBDA">      1.00000000</i>
  </separator>
  <separator name="External order field" >
   <i name="OFIELD_KAPPA">      0.00000000</i>
   <v name="OFIELD_K">      0.00000000      0.00000000      0.00000000</v>
   <i name="OFIELD_Q6_NEAR">      0.00000000</i>
   <i name="OFIELD_Q6_FAR">      0.00000000</i>
   <i name="OFIELD_A">      0.00000000</i>
  </separator>
 </parameters>
 <atominfo>
  <atoms>       2 </atoms>
  <types>       1 </types>
  <array name="atoms" >
   <dimension dim="1">ion</dimension>
   <field type="string">element</field>
   <field type="int">atomtype</field>
   <set>
    <rc><c>Si</c><c>   1</c></rc>
    <rc><c>Si</c><c>   1</c></rc>
   </set>
  </array>
  <array name="atomtypes" >
   <dimension dim="1">type</dimension>
   <field type="int">atomspertype</field>
   <field type="string">element</field>
   <field>mass</field>
   <field>valence</field>
   <field type="string">pseudopotential</field>
   <set>
    <rc><c>   2</c><c>Si</c><c>     28.08500000</c><c>      4.00000000</c><c>  PAW_PBE Si 05Jan2001                  </c></rc>
   </set>
  </array>
 </atominfo>
 <structure name="initialpos" >
  <crystal>
   <varray name="basis" >
    <v>       3.33357300       0.00000000       1.92463900 </v>
    <v>       1.11119100       3.14292400       1.92463900 </v>
    <v>       0.00000000       0.00000000       3.84927800 </v>
   </varray>
   <i name="volume">     40.32952685 </i>
   <varray name="rec_basis" >
    <v>       0.29997843      -0.10605835       0.00000000 </v>
    <v>       0.00000000       0.31817505       0.00000000 </v>
    <v>      -0.14998922      -0.10605835       0.25978898 </v>
   </varray>
  </crystal>
  <varray name="positions" >
   <v>       0.87500000       0.87500000       0.87500000 </v>
   <v>       0.12500000       0.12500000       0.12500000 </v>
  </varray>
 </structure>
 <calculation>
  <scstep>
   <time name="dav">    0.08    0.08</time>
   <time name="total">    0.29    0.30</time>
   <energy>
    <i name="alphaZ">      3.33880741 </i>
    <i name="ewald">   -227.98820643 </i>
    <i name="hartreedc">    -11.11484531 </i>
    <i name="XCdc">    -18.63153637 </i>
    <i name="pawpsdc">    176.24759923 </i>
    <i name="pawaedc">   -141.06103558 </i>
    <i name="eentropy">     -0.00338338 </i>
    <i name="bandstr">     14.12899808 </i>
    <i name="atom">    206.13125414 </i>
    <i name="e_fr_energy">      1.04765178 </i>
    <i name="e_wo_entrp">      1.05103516 </i>
    <i name="e_0_energy">      1.04934347 </i>
   </energy>
  </scstep>
  <scstep>
   <time name="dav">    0.12    0.13</time>
   <time name="total">    0.12    0.13</time>
   <energy>
    <i name="e_fr_energy">    -10.89152718 </i>
    <i name="e_wo_entrp">    -10.89152718 </i>
    <i name="e_0_energy">    -10.89152718 </i>
   </energy>
  </scstep>
  <scstep>
   <time name="dav">    0.11    0.12</time>
   <time name="total">    0.11    0.12</time>
   <energy>
    <i name="e_fr_energy">    -11.01879809 </i>
    <i name="e_wo_entrp">    -11.01879809 </i>
    <i name="e_0_energy">    -11.01879809 </i>
   </energy>
  </scstep>
  <scstep>
   <time name="dav">    0.11    0.12</time>
   <time name="total">    0.11    0.12</time>
   <energy>
    <i name="e_fr_energy">    -11.01926952 </i>
    <i name="e_wo_entrp">    -11.01926952 </i>
    <i name="e_0_energy">    -11.01926952 </i>
   </energy>
  </scstep>
  <scstep>
   <time name="dav">    0.12    0.13</time>
   <time name="total">    0.15    0.16</time>
   <energy>
    <i name="e_fr_energy">    -11.01927014 </i>
    <i name="e_wo_entrp">    -11.01927014 </i>
    <i name="e_0_energy">    -11.01927014 </i>
   </energy>
  </scstep>
  <scstep>
   <time name="dav">    0.09    0.09</time>
   <time name="total">    0.32    0.33</time>
   <energy>
    <i name="e_fr_energy">    -10.89740241 </i>
    <i name="e_wo_entrp">    -10.89740241 </i>
    <i name="e_0_energy">    -10.89740241 </i>
   </energy>
  </scstep>
  <scstep>
   <time name="dav">    0.10    0.10</time>
   <time name="total">    0.33    0.34</time>
   <energy>
    <i name="e_fr_energy">    -10.84168870 </i>
    <i name="e_wo_entrp">    -10.84168870 </i>
    <i name="e_0_energy">    -10.84168870 </i>
   </energy>
  </scstep>
  <scstep>
   <time name="dav">    0.08    0.08</time>
   <time name="total">    0.31    0.32</time>
   <energy>
    <i name="e_fr_energy">    -10.84276402 </i>
    <i name="e_wo_entrp">    -10.84276402 </i>
    <i name="e_0_energy">    -10.84276402 </i>
   </energy>
  </scstep>
  <scstep>
   <time name="dav">    0.12    0.12</time>
   <time name="total">    0.35    0.36</time>
   <energy>
    <i name="e_fr_energy">    -10.84295645 </i>
    <i name="e_wo_entrp">    -10.84295645 </i>
    <i name="e_0_energy">    -10.84295645 </i>
   </energy>
  </scstep>
  <scstep>
   <time name="dav">    0.08    0.08</time>
   <time name="total">    0.32    0.33</time>
   <energy>
    <i name="e_fr_energy">    -10.84298330 </i>
    <i name="e_wo_entrp">    -10.84298330 </i>
    <i name="e_0_energy">    -10.84298330 </i>
   </energy>
  </scstep>
  <scstep>
   <time name="dav">    0.12    0.12</time>
   <time name="total">    0.32    0.33</time>
   <energy>
    <i name="alphaZ">      3.33880741 </i>
    <i name="ewald">   -227.98820643 </i>
    <i name="hartreedc">    -15.01298249 </i>
    <i name="XCdc">    -17.99455396 </i>
    <i name="pawpsdc">    865.24071334 </i>
    <i name="pawaedc">   -830.27251386 </i>
    <i name="eentropy">     -0.00000000 </i>
    <i name="bandstr">      5.71449903 </i>
    <i name="atom">    206.13125414 </i>
    <i name="e_fr_energy">    -10.84298282 </i>
    <i name="e_wo_entrp">    -10.84298282 </i>
    <i name="e_0_energy">    -10.84298282 </i>
   </energy>
  </scstep>
  <structure>
   <crystal>
    <varray name="basis" >
     <v>       3.33357300       0.00000000       1.92463900 </v>
     <v>       1.11119100       3.14292400       1.92463900 </v>
     <v>       0.00000000       0.00000000       3.84927800 </v>
    </varray>
    <i name="volume">     40.32952685 </i>
    <varray name="rec_basis" >
     <v>       0.29997843      -0.10605835       0.00000000 </v>
     <v>       0.00000000       0.31817505       0.00000000 </v>
     <v>      -0.14998922      -0.10605835       0.25978898 </v>
    </varray>
   </crystal>
   <varray name="positions" >
    <v>       0.87500000       0.87500000       0.87500000 </v>
    <v>       0.12500000       0.12500000       0.12500000 </v>
   </varray>
  </structure>
  <varray name="forces" >
   <v>       0.00000000       0.00000000       0.00000000 </v>
   <v>      -0.00000000      -0.00000000      -0.00000000 </v>
  </varray>
  <varray name="stress" >
   <v>      12.07236500      -0.00000000       0.00000000 </v>
   <v>      -0.00000000      12.07237448      -0.00000000 </v>
   <v>       0.00000000       0.00000000      12.07236162 </v>
  </varray>
  <energy>
   <i name="e_fr_energy">    -10.84298282 </i>
   <i name="e_wo_entrp">    -10.84298282 </i>
   <i name="e_0_energy">    -10.84298282 </i>
  </energy>
  <time name="totalsc">    3.65    3.79</time>
 </calculation>
 <calculation>
  <scstep>
   <time name="dav">    0.10    0.10</time>
   <time name="total">    0.33    0.33</time>
   <energy>
    <i name="alphaZ">      3.26645001 </i>
    <i name="ewald">   -226.32920496 </i>
    <i name="hartreedc">    -14.90519825 </i>
    <i name="XCdc">    -18.10163292 </i>
    <i name="pawpsdc">    865.37900421 </i>
    <i name="pawaedc">   -830.41078096 </i>
    <i name="eentropy">     -0.00000000 </i>
    <i name="bandstr">      4.12338894 </i>
    <i name="atom">    206.13125414 </i>
    <i name="e_fr_energy">    -10.84671978 </i>
    <i name="e_wo_entrp">    -10.84671978 </i>
    <i name="e_0_energy">    -10.84671978 </i>
   </energy>
  </scstep>
  <scstep>
   <time name="dav">    0.10    0.10</time>
   <time name="total">    0.33    0.34</time>
   <energy>
    <i name="e_fr_energy">    -10.84497046 </i>
    <i name="e_wo_entrp">    -10.84497046 </i>
    <i name="e_0_energy">    -10.84497046 </i>
   </energy>
  </scstep>
  <scstep>
   <time name="dav">    0.10    0.10</time>
   <time name="total">    0.33    0.34</time>
   <energy>
    <i name="e_fr_energy">    -10.84405083 </i>
    <i name="e_wo_entrp">    -10.84405083 </i>
    <i name="e_0_energy">    -10.84405083 </i>
   </energy>
  </scstep>
  <scstep>
   <time name="dav">    0.10    0.10</time>
   <time name="total">    0.33    0.35</time>
   <energy>
    <i name="e_fr_energy">    -10.84405073 </i>
    <i name="e_wo_entrp">    -10.84405073 </i>
    <i name="e_0_energy">    -10.84405073 </i>
   </energy>
  </scstep>
  <scstep>
   <time name="dav">    0.09    0.09</time>
   <time name="total">    0.33    0.34</time>
   <energy>
    <i name="e_fr_energy">    -10.84404414 </i>
    <i name="e_wo_entrp">    -10.84404414 </i>
    <i name="e_0_energy">    -10.84404414 </i>
   </energy>
  </scstep>
  <scstep>
   <time name="dav">    0.05    0.06</time>
   <time name="total">    0.26    0.27</time>
   <energy>
    <i name="alphaZ">      3.26645001 </i>
    <i name="ewald">   -226.32920496 </i>
    <i name="hartreedc">    -15.27589883 </i>
    <i name="XCdc">    -18.09440946 </i>
    <i name="pawpsdc">    827.12338049 </i>
    <i name="pawaedc">   -792.13625436 </i>
    <i name="eentropy">     -0.00000000 </i>
    <i name="bandstr">      4.47063859 </i>
    <i name="atom">    206.13125414 </i>
    <i name="e_fr_energy">    -10.84404437 </i>
    <i name="e_wo_entrp">    -10.84404437 </i>
    <i name="e_0_energy">    -10.84404437 </i>
   </energy>
  </scstep>
  <structure>
   <crystal>
    <varray name="basis" >
     <v>       3.35800821      -0.00000000       1.93874667 </v>
     <v>       1.11933607       3.16596176       1.93874667 </v>
     <v>       0.00000000       0.00000000       3.87749334 </v>
    </varray>
    <i name="volume">     41.22289416 </i>
    <varray name="rec_basis" >
     <v>       0.29779558      -0.10528659      -0.00000000 </v>
     <v>       0.00000000       0.31585978      -0.00000000 </v>
     <v>      -0.14889779      -0.10528659       0.25789857 </v>
    </varray>
   </crystal>
   <varray name="positions" >
    <v>       0.87500000       0.87500000       0.87500000 </v>
    <v>       0.12500000       0.12500000       0.12500000 </v>
   </varray>
  </structure>
  <varray name="forces" >
   <v>      -0.00000000       0.00000000       0.00000000 </v>
   <v>       0.00000000      -0.00000000      -0.00000000 </v>
  </varray>
  <varray name="stress" >
   <v>      -7.73064056      -0.00000000      -0.00000000 </v>
   <v>      -0.00000000      -7.73064672       0.00000000 </v>
   <v>      -0.00000000       0.00000000      -7.73063837 </v>
  </varray>
  <energy>
   <i name="e_fr_energy">    -10.84404437 </i>
   <i name="e_wo_entrp">    -10.84404437 </i>
   <i name="e_0_energy">    -10.84404437 </i>
  </energy>
  <time name="totalsc">    2.84    2.96</time>
 </calculation>
 <calculation>
  <scstep>
   <time name="dav">    0.10    0.10</time>
   <time name="total">    0.34    0.34</time>
   <energy>
    <i name="alphaZ">      3.29569885 </i>
    <i name="ewald">   -227.00273990 </i>
    <i name="hartreedc">    -15.32201296 </i>
    <i name="XCdc">    -18.05107988 </i>
    <i name="pawpsdc">    825.97577358 </i>
    <i name="pawaedc">   -790.98877960 </i>
    <i name="eentropy">     -0.00000000 </i>
    <i name="bandstr">      5.11651544 </i>
    <i name="atom">    206.13125414 </i>
    <i name="e_fr_energy">    -10.84537032 </i>
    <i name="e_wo_entrp">    -10.84537032 </i>
    <i name="e_0_energy">    -10.84537032 </i>
   </energy>
  </scstep>
  <scstep>
   <time name="dav">    0.10    0.10</time>
   <time name="total">    0.36    0.37</time>
   <energy>
    <i name="e_fr_energy">    -10.84508124 </i>
    <i name="e_wo_entrp">    -10.84508124 </i>
    <i name="e_0_energy">    -10.84508124 </i>
   </energy>
  </scstep>
  <scstep>
   <time name="dav">    0.11    0.11</time>
   <time name="total">    0.35    0.36</time>
   <energy>
    <i name="e_fr_energy">    -10.84493556 </i>
    <i name="e_wo_entrp">    -10.84493556 </i>
    <i name="e_0_energy">    -10.84493556 </i>
   </energy>
  </scstep>
  <scstep>
   <time name="dav">    0.10    0.11</time>
   <time name="total">    0.34    0.35</time>
   <energy>
    <i name="e_fr_energy">    -10.84493610 </i>
    <i name="e_wo_entrp">    -10.84493610 </i>
    <i name="e_0_energy">    -10.84493610 </i>
   </energy>
  </scstep>
  <scstep>
   <time name="dav">    0.08    0.09</time>
   <time name="total">    0.32    0.33</time>
   <energy>
    <i name="e_fr_energy">    -10.84493794 </i>
    <i name="e_wo_entrp">    -10.84493794 </i>
    <i name="e_0_energy">    -10.84493794 </i>
   </energy>
  </scstep>
  <scstep>
   <time name="dav">    0.05    0.05</time>
   <time name="total">    0.26    0.27</time>
   <energy>
    <i name="alphaZ">      3.29569885 </i>
    <i name="ewald">   -227.00273990 </i>
    <i name="hartreedc">    -15.16974898 </i>
    <i name="XCdc">    -18.05385046 </i>
    <i name="pawpsdc">    841.49698008 </i>
    <i name="pawaedc">   -806.51755356 </i>
    <i name="eentropy">     -0.00000000 </i>
    <i name="bandstr">      4.97502198 </i>
    <i name="atom">    206.13125414 </i>
    <i name="e_fr_energy">    -10.84493785 </i>
    <i name="e_wo_entrp">    -10.84493785 </i>
    <i name="e_0_energy">    -10.84493785 </i>
   </energy>
  </scstep>
  <structure>
   <crystal>
    <varray name="basis" >
     <v>       3.34804474      -0.00000000       1.93299426 </v>
     <v>       1.11601491       3.15656810       1.93299426 </v>
     <v>       0.00000000       0.00000000       3.86598852 </v>
    </varray>
    <i name="volume">     40.85704713 </i>
    <varray name="rec_basis" >
     <v>       0.29868179      -0.10559992      -0.00000000 </v>
     <v>       0.00000000       0.31679975      -0.00000000 </v>
     <v>      -0.14934090      -0.10559992       0.25866606 </v>
    </varray>
   </crystal>
   <varray name="positions" >
    <v>       0.87500000       0.87500000       0.87500000 </v>
    <v>       0.12500000       0.12500000       0.12500000 </v>
   </varray>
  </structure>
  <varray name="forces" >
   <v>      -0.00000000      -0.00000000       0.00000000 </v>
   <v>       0.00000000       0.00000000      -0.00000000 </v>
  </varray>
  <varray name="stress" >
   <v>       0.06621781       0.00000000      -0.00000000 </v>
   <v>      -0.00000000       0.06621786       0.00000000 </v>
   <v>       0.00000000       0.00000000       0.06621779 </v>
  </varray>
  <energy>
   <i name="e_fr_energy">    -10.84493785 </i>
   <i name="e_wo_entrp">    -10.84493785 </i>
   <i name="e_0_energy">    -10.84493785 </i>
  </energy>
  <time name="totalsc">    2.89    3.00</time>
  <eigenvalues>
   <array>
    <dimension dim="1">band</dimension>
    <dimension dim="2">kpoint</dimension>
    <dimension dim="3">spin</dimension>
    <field>eigene</field>
    <field>occ</field>
    <set>
     <set comment="spin 1">
      <set comment="kpoint 1">
       <r>   -5.9948    1.0000 </r>
       <r>    4.0343    1.0000 </r>
       <r>    5.3428    1.0000 </r>
       <r>    5.3428    1.0000 </r>
       <r>    8.0713    0.0000 </r>
       <r>    8.5993    0.0000 </r>
       <r>    8.5993    0.0000 </r>
       <r>   10.1646    0.0000 </r>
      </set>
      <set comment="kpoint 2">
       <r>   -4.9679    1.0000 </r>
       <r>    1.0420    1.0000 </r>
       <r>    3.3570    1.0000 </r>
       <r>    4.8633    1.0000 </r>
       <r>    8.2842    0.0000 </r>
       <r>    9.2888    0.0000 </r>
       <r>    9.4632    0.0000 </r>
       <r>   11.8414    0.0000 </r>
      </set>
      <set comment="kpoint 3">
       <r>   -3.8278    1.0000 </r>
       <r>   -1.0366    1.0000 </r>
       <r>    3.3782    1.0000 </r>
       <r>    4.0921    1.0000 </r>
       <r>    7.7907    0.0000 </r>
       <r>    9.1166    0.0000 </r>
       <r>    9.7212    0.0000 </r>
       <r>   12.9349    0.0000 </r>
      </set>
      <set comment="kpoint 4">
       <r>   -5.4668    1.0000 </r>
       <r>    2.4187    1.0000 </r>
       <r>    4.3352    1.0000 </r>
       <r>    4.3994    1.0000 </r>
       <r>    7.7715    0.0000 </r>
       <r>    9.2541    0.0000 </r>
       <r>   10.0558    0.0000 </r>
       <r>   10.3671    0.0000 </r>
      </set>
      <set comment="kpoint 5">
       <r>   -4.4352    1.0000 </r>
       <r>    0.7088    1.0000 </r>
       <r>    3.0083    1.0000 </r>
       <r>    3.4615    1.0000 </r>
       <r>    6.9968    0.0000 </r>
       <r>    8.5298    0.0000 </r>
       <r>   11.5391    0.0000 </r>
       <r>   11.8369    0.0000 </r>
      </set>
      <set comment="kpoint 6">
       <r>   -2.7948    1.0000 </r>
       <r>   -1.2531    1.0000 </r>
       <r>    1.6534    1.0000 </r>
       <r>    2.7305    1.0000 </r>
       <r>    8.0218    0.0000 </r>
       <r>    9.8972    0.0000 </r>
       <r>   10.8422    0.0000 </r>
       <r>   12.9831    0.0000 </r>
      </set>
      <set comment="kpoint 7">
       <r>   -4.0195    1.0000 </r>
       <r>   -0.1649    1.0000 </r>
       <r>    2.3665    1.0000 </r>
       <r>    3.7359    1.0000 </r>
       <r>    8.4918    0.0000 </r>
       <r>    9.1578    0.0000 </r>
       <r>   10.6068    0.0000 </r>
       <r>   11.5087    0.0000 </r>
      </set>
      <set comment="kpoint 8">
       <r>   -2.9627    1.0000 </r>
       <r>   -1.1557    1.0000 </r>
       <r>    2.2637    1.0000 </r>
       <r>    2.9948    1.0000 </r>
       <r>    6.5561    0.0000 </r>
       <r>    7.6112    0.0000 </r>
       <r>   13.8065    0.0000 </r>
       <r>   13.8629    0.0000 </r>
      </set>
      <set comment="kpoint 9">
       <r>   -4.5348    1.0000 </r>
       <r>   -0.2486    1.0000 </r>
       <r>    4.5565    1.0000 </r>
       <r>    4.5565    1.0000 </r>
       <r>    7.2232    0.0000 </r>
       <r>    9.0802    0.0000 </r>
       <r>    9.0802    0.0000 </r>
       <r>   13.4658    0.0000 </r>
      </set>
      <set comment="kpoint 10">
       <r>   -3.3319    1.0000 </r>
       <r>   -0.9511    1.0000 </r>
       <r>    1.7119    1.0000 </r>
       <r>    3.7750    1.0000 </r>
       <r>    7.4822    0.0000 </r>
       <r>   11.0316    0.0000 </r>
       <r>   11.0718    0.0000 </r>
       <r>   12.5141    0.0000 </r>
      </set>
     </set>
    </set>
   </array>
  </eigenvalues>
  <separator name="orbital magnetization" >
   <v name="MAGDIPOLOUT">      0.00000000      0.00000000      0.00000000</v>
  </separator>
  <dos>
   <i name="efermi">      5.61326021 </i>
   <total>
    <array>
     <dimension dim="1">gridpoints</dimension>
     <dimension dim="2">spin</dimension>
     <field>energy</field>
     <field>total</field>
     <field>integrated</field>
     <set>
      <set comment="spin 1">
       <r>    -6.9877     0.0000     0.0000 </r>
       <r>    -6.9149     0.0000     0.0000 </r>
       <r>    -6.8421     0.0000     0.0000 </r>
       <r>    -6.7693     0.0000     0.0000 </r>
       <r>    -6.6965     0.0000     0.0000 </r>
       <r>    -6.6237     0.0000     0.0000 </r>
       <r>    -6.5509     0.0000     0.0000 </r>
       <r>    -6.4780     0.0000     0.0000 </r>
       <r>    -6.4052     0.0000     0.0000 </r>
       <r>    -6.3324     0.0000     0.0000 </r>
       <r>    -6.2596     0.0000     0.0000 </r>
       <r>    -6.1868     0.0000     0.0000 </r>
       <r>    -6.1140     0.0003     0.0000 </r>
       <r>    -6.0412     0.0812     0.0059 </r>
       <r>    -5.9684     0.5820     0.0483 </r>
       <r>    -5.8956     0.1927     0.0623 </r>
       <r>    -5.8227     0.0021     0.0625 </r>
       <r>    -5.7499     0.0000     0.0625 </r>
       <r>    -5.6771     0.0000     0.0625 </r>
       <r>    -5.6043     0.0001     0.0625 </r>
       <r>    -5.5315     0.0865     0.0688 </r>
       <r>    -5.4587     1.4349     0.1733 </r>
       <r>    -5.3859     1.0251     0.2479 </r>
       <r>    -5.3131     0.0284     0.2500 </r>
       <r>    -5.2402     0.0000     0.2500 </r>
       <r>    -5.1674     0.0000     0.2500 </r>
       <r>    -5.0946     0.0004     0.2500 </r>
       <r>    -5.0218     0.1632     0.2619 </r>
       <r>    -4.9490     1.6473     0.3819 </r>
       <r>    -4.8762     0.7519     0.4366 </r>
       <r>    -4.8034     0.0122     0.4375 </r>
       <r>    -4.7306     0.0000     0.4375 </r>
       <r>    -4.6578     0.0002     0.4375 </r>
       <r>    -4.5849     0.0667     0.4424 </r>
       <r>    -4.5121     0.6053     0.4864 </r>
       <r>    -4.4393     1.3503     0.5848 </r>
       <r>    -4.3665     1.3438     0.6826 </r>
       <r>    -4.2937     0.0671     0.6875 </r>
       <r>    -4.2209     0.0001     0.6875 </r>
       <r>    -4.1481     0.0007     0.6876 </r>
       <r>    -4.0753     0.2940     0.7090 </r>
       <r>    -4.0024     3.2317     0.9443 </r>
       <r>    -3.9296     1.6004     1.0608 </r>
       <r>    -3.8568     0.5529     1.1011 </r>
       <r>    -3.7840     1.7678     1.2298 </r>
       <r>    -3.7112     0.2766     1.2499 </r>
       <r>    -3.6384     0.0013     1.2500 </r>
       <r>    -3.5656     0.0000     1.2500 </r>
       <r>    -3.4928     0.0000     1.2500 </r>
       <r>    -3.4200     0.0164     1.2512 </r>
       <r>    -3.3471     0.8421     1.3125 </r>
       <r>    -3.2743     1.5835     1.4278 </r>
       <r>    -3.2015     0.1328     1.4375 </r>
       <r>    -3.1287     0.0003     1.4375 </r>
       <r>    -3.0559     0.0108     1.4383 </r>
       <r>    -2.9831     0.7168     1.4905 </r>
       <r>    -2.9103     1.6729     1.6123 </r>
       <r>    -2.8375     0.7597     1.6676 </r>
       <r>    -2.7646     3.5506     1.9261 </r>
       <r>    -2.6918     1.0053     1.9993 </r>
       <r>    -2.6190     0.0093     2.0000 </r>
       <r>    -2.5462     0.0000     2.0000 </r>
       <r>    -2.4734     0.0000     2.0000 </r>
       <r>    -2.4006     0.0000     2.0000 </r>
       <r>    -2.3278     0.0000     2.0000 </r>
       <r>    -2.2550     0.0000     2.0000 </r>
       <r>    -2.1822     0.0000     2.0000 </r>
       <r>    -2.1093     0.0000     2.0000 </r>
       <r>    -2.0365     0.0000     2.0000 </r>
       <r>    -1.9637     0.0000     2.0000 </r>
       <r>    -1.8909     0.0000     2.0000 </r>
       <r>    -1.8181     0.0000     2.0000 </r>
       <r>    -1.7453     0.0000     2.0000 </r>
       <r>    -1.6725     0.0000     2.0000 </r>
       <r>    -1.5997     0.0000     2.0000 </r>
       <r>    -1.5268     0.0000     2.0000 </r>
       <r>    -1.4540     0.0000     2.0000 </r>
       <r>    -1.3812     0.0008     2.0001 </r>
       <r>    -1.3084     0.3031     2.0221 </r>
       <r>    -1.2356     3.2810     2.2610 </r>
       <r>    -1.1628     2.6216     2.4519 </r>
       <r>    -1.0900     1.6069     2.5689 </r>
       <r>    -1.0172     1.8170     2.7012 </r>
       <r>    -0.9444     2.1414     2.8571 </r>
       <r>    -0.8715     1.0725     2.9352 </r>
       <r>    -0.7987     0.0314     2.9375 </r>
       <r>    -0.7259     0.0000     2.9375 </r>
       <r>    -0.6531     0.0000     2.9375 </r>
       <r>    -0.5803     0.0000     2.9375 </r>
       <r>    -0.5075     0.0000     2.9375 </r>
       <r>    -0.4347     0.0000     2.9375 </r>
       <r>    -0.3619     0.0006     2.9375 </r>
       <r>    -0.2890     0.1091     2.9455 </r>
       <r>    -0.2162     0.9713     3.0162 </r>
       <r>    -0.1434     3.5260     3.2729 </r>
       <r>    -0.0706     1.3819     3.3736 </r>
       <r>     0.0022     0.0197     3.3750 </r>
       <r>     0.0750     0.0000     3.3750 </r>
       <r>     0.1478     0.0000     3.3750 </r>
       <r>     0.2206     0.0000     3.3750 </r>
       <r>     0.2934     0.0000     3.3750 </r>
       <r>     0.3663     0.0000     3.3750 </r>
       <r>     0.4391     0.0000     3.3750 </r>
       <r>     0.5119     0.0000     3.3750 </r>
       <r>     0.5847     0.0006     3.3750 </r>
       <r>     0.6575     0.1882     3.3887 </r>
       <r>     0.7303     1.6868     3.5116 </r>
       <r>     0.8031     0.6898     3.5618 </r>
       <r>     0.8759     0.0098     3.5625 </r>
       <r>     0.9488     0.0108     3.5633 </r>
       <r>     1.0216     0.7153     3.6154 </r>
       <r>     1.0944     1.6710     3.7370 </r>
       <r>     1.1672     0.1775     3.7500 </r>
       <r>     1.2400     0.0005     3.7500 </r>
       <r>     1.3128     0.0000     3.7500 </r>
       <r>     1.3856     0.0000     3.7500 </r>
       <r>     1.4584     0.0000     3.7500 </r>
       <r>     1.5312     0.0014     3.7501 </r>
       <r>     1.6041     0.4217     3.7808 </r>
       <r>     1.6769     3.8378     4.0603 </r>
       <r>     1.7497     3.0802     4.2845 </r>
       <r>     1.8225     0.3820     4.3123 </r>
       <r>     1.8953     0.0023     4.3125 </r>
       <r>     1.9681     0.0000     4.3125 </r>
       <r>     2.0409     0.0000     4.3125 </r>
       <r>     2.1137     0.0000     4.3125 </r>
       <r>     2.1866     0.0374     4.3152 </r>
       <r>     2.2594     1.1301     4.3975 </r>
       <r>     2.3322     2.2138     4.5587 </r>
       <r>     2.4050     4.5339     4.8888 </r>
       <r>     2.4778     2.2597     5.0533 </r>
       <r>     2.5506     0.1255     5.0625 </r>
       <r>     2.6234     0.0066     5.0630 </r>
       <r>     2.6962     0.8516     5.1250 </r>
       <r>     2.7690     3.5842     5.3859 </r>
       <r>     2.8419     0.7039     5.4372 </r>
       <r>     2.9147     0.0447     5.4404 </r>
       <r>     2.9875     1.7508     5.5679 </r>
       <r>     3.0603     3.0944     5.7932 </r>
       <r>     3.1331     0.2640     5.8125 </r>
       <r>     3.2059     0.0007     5.8125 </r>
       <r>     3.2787     0.0409     5.8155 </r>
       <r>     3.3515     1.6714     5.9372 </r>
       <r>     3.4244     3.4955     6.1917 </r>
       <r>     3.4972     2.1134     6.3456 </r>
       <r>     3.5700     0.4014     6.3748 </r>
       <r>     3.6428     0.0248     6.3766 </r>
       <r>     3.7156     1.5562     6.4899 </r>
       <r>     3.7884     4.8864     6.8457 </r>
       <r>     3.8612     1.2408     6.9360 </r>
       <r>     3.9340     0.0220     6.9376 </r>
       <r>     4.0068     0.2062     6.9527 </r>
       <r>     4.0797     1.4990     7.0618 </r>
       <r>     4.1525     1.6133     7.1793 </r>
       <r>     4.2253     0.1152     7.1877 </r>
       <r>     4.2981     0.3822     7.2155 </r>
       <r>     4.3709     2.3305     7.3852 </r>
       <r>     4.4437     2.1637     7.5427 </r>
       <r>     4.5165     0.4924     7.5786 </r>
       <r>     4.5893     1.1934     7.6655 </r>
       <r>     4.6622     0.3002     7.6873 </r>
       <r>     4.7350     0.0028     7.6875 </r>
       <r>     4.8078     0.1498     7.6984 </r>
       <r>     4.8806     1.6216     7.8165 </r>
       <r>     4.9534     0.7895     7.8740 </r>
       <r>     5.0262     0.0139     7.8750 </r>
       <r>     5.0990     0.0000     7.8750 </r>
       <r>     5.1718     0.0000     7.8750 </r>
       <r>     5.2447     0.0047     7.8753 </r>
       <r>     5.3175     0.4020     7.9046 </r>
       <r>     5.3903     1.1562     7.9888 </r>
       <r>     5.4631     0.1532     8.0000 </r>
       <r>     5.5359     0.0006     8.0000 </r>
       <r>     5.6087     0.0000     8.0000 </r>
       <r>     5.6815     0.0000     8.0000 </r>
       <r>     5.7543     0.0000     8.0000 </r>
       <r>     5.8271     0.0000     8.0000 </r>
       <r>     5.9000     0.0000     8.0000 </r>
       <r>     5.9728     0.0000     8.0000 </r>
       <r>     6.0456     0.0000     8.0000 </r>
       <r>     6.1184     0.0000     8.0000 </r>
       <r>     6.1912     0.0000     8.0000 </r>
       <r>     6.2640     0.0000     8.0000 </r>
       <r>     6.3368     0.0000     8.0000 </r>
       <r>     6.4096     0.0000     8.0000 </r>
       <r>     6.4825     0.0481     8.0035 </r>
       <r>     6.5553     1.2165     8.0921 </r>
       <r>     6.6281     1.2569     8.1836 </r>
       <r>     6.7009     0.0536     8.1875 </r>
       <r>     6.7737     0.0001     8.1875 </r>
       <r>     6.8465     0.0000     8.1875 </r>
       <r>     6.9193     0.0365     8.1902 </r>
       <r>     6.9921     1.1154     8.2714 </r>
       <r>     7.0649     1.3536     8.3699 </r>
       <r>     7.1378     0.0761     8.3755 </r>
       <r>     7.2106     0.3029     8.3975 </r>
       <r>     7.2834     0.5108     8.4347 </r>
       <r>     7.3562     0.0384     8.4375 </r>
       <r>     7.4290     0.1701     8.4499 </r>
       <r>     7.5018     1.6617     8.5709 </r>
       <r>     7.5746     1.1186     8.6524 </r>
       <r>     7.6474     1.8066     8.7839 </r>
       <r>     7.7203     0.6392     8.8304 </r>
       <r>     7.7931     2.9860     9.0479 </r>
       <r>     7.8659     1.8648     9.1836 </r>
       <r>     7.9387     0.1014     9.1910 </r>
       <r>     8.0115     1.9775     9.3350 </r>
       <r>     8.0843     3.4786     9.5883 </r>
       <r>     8.1571     0.4977     9.6245 </r>
       <r>     8.2299     0.1676     9.6367 </r>
       <r>     8.3027     1.6428     9.7563 </r>
       <r>     8.3756     0.7614     9.8118 </r>
       <r>     8.4484     0.6030     9.8557 </r>
       <r>     8.5212     4.5764    10.1889 </r>
       <r>     8.5940     3.2135    10.4229 </r>
       <r>     8.6668     1.0109    10.4965 </r>
       <r>     8.7396     0.0482    10.5000 </r>
       <r>     8.8124     0.0001    10.5000 </r>
       <r>     8.8852     0.0000    10.5000 </r>
       <r>     8.9581     0.0005    10.5000 </r>
       <r>     9.0309     0.1600    10.5117 </r>
       <r>     9.1037     2.3649    10.6839 </r>
       <r>     9.1765     5.2946    11.0694 </r>
       <r>     9.2493     3.0846    11.2940 </r>
       <r>     9.3221     3.1718    11.5249 </r>
       <r>     9.3949     0.5812    11.5672 </r>
       <r>     9.4677     1.3528    11.6657 </r>
       <r>     9.5405     1.1201    11.7473 </r>
       <r>     9.6134     0.0399    11.7502 </r>
       <r>     9.6862     0.4108    11.7801 </r>
       <r>     9.7590     1.7938    11.9107 </r>
       <r>     9.8318     0.5308    11.9494 </r>
       <r>     9.9046     2.8382    12.1560 </r>
       <r>     9.9774     2.1230    12.3106 </r>
       <r>    10.0502     1.1516    12.3945 </r>
       <r>    10.1230     1.4783    12.5021 </r>
       <r>    10.1959     0.6674    12.5507 </r>
       <r>    10.2687     0.1675    12.5629 </r>
       <r>    10.3415     0.5969    12.6064 </r>
       <r>    10.4143     1.7379    12.7329 </r>
       <r>    10.4871     0.2358    12.7501 </r>
       <r>    10.5599     0.4759    12.7847 </r>
       <r>    10.6327     3.4820    13.0383 </r>
       <r>    10.7055     1.1783    13.1240 </r>
       <r>    10.7783     0.1953    13.1383 </r>
       <r>    10.8512     2.9060    13.3499 </r>
       <r>    10.9240     2.0115    13.4963 </r>
       <r>    10.9968     0.5120    13.5336 </r>
       <r>    11.0696     2.9722    13.7500 </r>
       <r>    11.1424     1.6552    13.8705 </r>
       <r>    11.2152     0.0613    13.8750 </r>
       <r>    11.2880     0.0001    13.8750 </r>
       <r>    11.3608     0.0001    13.8750 </r>
       <r>    11.4337     0.0904    13.8816 </r>
       <r>    11.5065     2.8118    14.0863 </r>
       <r>    11.5793     4.3754    14.4049 </r>
       <r>    11.6521     0.4457    14.4374 </r>
       <r>    11.7249     0.0052    14.4377 </r>
       <r>    11.7977     0.6211    14.4830 </r>
       <r>    11.8705     3.5593    14.7421 </r>
       <r>    11.9433     0.9583    14.8119 </r>
       <r>    12.0161     0.0084    14.8125 </r>
       <r>    12.0890     0.0000    14.8125 </r>
       <r>    12.1618     0.0000    14.8125 </r>
       <r>    12.2346     0.0000    14.8125 </r>
       <r>    12.3074     0.0000    14.8125 </r>
       <r>    12.3802     0.0002    14.8125 </r>
       <r>    12.4530     0.1077    14.8204 </r>
       <r>    12.5258     1.5131    14.9305 </r>
       <r>    12.5986     0.9324    14.9984 </r>
       <r>    12.6715     0.0217    15.0000 </r>
       <r>    12.7443     0.0000    15.0000 </r>
       <r>    12.8171     0.0011    15.0001 </r>
       <r>    12.8899     0.2824    15.0206 </r>
       <r>    12.9627     3.1869    15.2527 </r>
       <r>    13.0355     3.8925    15.5361 </r>
       <r>    13.1083     0.3615    15.5624 </r>
       <r>    13.1811     0.0010    15.5625 </r>
       <r>    13.2539     0.0000    15.5625 </r>
       <r>    13.3268     0.0000    15.5625 </r>
       <r>    13.3996     0.0262    15.5644 </r>
       <r>    13.4724     0.4668    15.5984 </r>
       <r>    13.5452     0.3548    15.6242 </r>
       <r>    13.6180     0.0106    15.6250 </r>
       <r>    13.6908     0.0014    15.6251 </r>
       <r>    13.7636     0.2947    15.6466 </r>
       <r>    13.8364     2.3516    15.8178 </r>
       <r>    13.9093     2.2532    15.9818 </r>
       <r>    13.9821     0.2484    15.9999 </r>
       <r>    14.0549     0.0010    16.0000 </r>
       <r>    14.1277     0.0000    16.0000 </r>
       <r>    14.2005     0.0000    16.0000 </r>
       <r>    14.2733     0.0000    16.0000 </r>
       <r>    14.3461     0.0000    16.0000 </r>
       <r>    14.4189     0.0000    16.0000 </r>
       <r>    14.4917     0.0000    16.0000 </r>
       <r>    14.5646     0.0000    16.0000 </r>
       <r>    14.6374     0.0000    16.0000 </r>
       <r>    14.7102     0.0000    16.0000 </r>
       <r>    14.7830     0.0000    16.0000 </r>
       <r>    14.8558     0.0000    16.0000 </r>
      </set>
     </set>
    </array>
   </total>
  </dos>
 </calculation>
 <structure name="finalpos" >
  <crystal>
   <varray name="basis" >
    <v>       3.34804474      -0.00000000       1.93299426 </v>
    <v>       1.11601491       3.15656810       1.93299426 </v>
    <v>       0.00000000       0.00000000       3.86598852 </v>
   </varray>
   <i name="volume">     40.85704713 </i>
   <varray name="rec_basis" >
    <v>       0.29868179      -0.10559992      -0.00000000 </v>
    <v>       0.00000000       0.31679975      -0.00000000 </v>
    <v>      -0.14934090      -0.10559992       0.25866606 </v>
   </varray>
  </crystal>
  <varray name="positions" >
   <v>       0.87500000       0.87500000       0.87500000 </v>
   <v>       0.12500000       0.12500000       0.12500000 </v>
  </varray>
 </structure>
</modeling>
