   1   1   0   0
  0.1386300E+02  0.2621157E-09  0.2621157E-09  0.2621157E-09  0.5000000E-15
  1.000000000000000E-004
  CAR 
 unknown system                          
     35.27322064     -5.75988834  301      9.81065682      1.00000000
     -5.760  0.0000E+00  0.0000E+00
     -5.623  0.0000E+00  0.0000E+00
     -5.486  0.0000E+00  0.0000E+00
     -5.350  0.0000E+00  0.0000E+00
     -5.213  0.0000E+00  0.0000E+00
     -5.076  0.0000E+00  0.0000E+00
     -4.939  0.0000E+00  0.0000E+00
     -4.802  0.0000E+00  0.0000E+00
     -4.666  0.0000E+00  0.0000E+00
     -4.529  0.0000E+00  0.0000E+00
     -4.392  0.0000E+00  0.0000E+00
     -4.255  0.0000E+00  0.0000E+00
     -4.119  0.4963E-12  0.6788E-13
     -3.982  0.2807E-04  0.3839E-05
     -3.845  0.3710E-02  0.5113E-03
     -3.708  0.3239E-03  0.5556E-03
     -3.571  0.2690E-09  0.5556E-03
     -3.435  0.0000E+00  0.5556E-03
     -3.298  0.4304E-14  0.5556E-03
     -3.161  0.3750E-05  0.5561E-03
     -3.024  0.4052E-02  0.1110E-02
     -2.888  0.1360E-02  0.1296E-02
     -2.751  0.1527E-07  0.1296E-02
     -2.614  0.0000E+00  0.1296E-02
     -2.477  0.1055E-15  0.1296E-02
     -2.340  0.1011E-05  0.1296E-02
     -2.204  0.8326E-02  0.2435E-02
     -2.067  0.7920E-02  0.3518E-02
     -1.930  0.7815E-06  0.3519E-02
     -1.793  0.0000E+00  0.3519E-02
     -1.657  0.0000E+00  0.3519E-02
     -1.520  0.0000E+00  0.3519E-02
     -1.383  0.0000E+00  0.3519E-02
     -1.246  0.0000E+00  0.3519E-02
     -1.109  0.0000E+00  0.3519E-02
     -0.973  0.0000E+00  0.3519E-02
     -0.836  0.0000E+00  0.3519E-02
     -0.699  0.1486E-07  0.3519E-02
     -0.562  0.3486E-02  0.3995E-02
     -0.426  0.1679E-01  0.6291E-02
     -0.289  0.3544E-04  0.6296E-02
     -0.152  0.1143E-12  0.6296E-02
     -0.015  0.0000E+00  0.6296E-02
      0.122  0.2037E-08  0.6296E-02
      0.258  0.1605E-02  0.6516E-02
      0.395  0.1456E-01  0.8508E-02
      0.532  0.8022E-04  0.8519E-02
      0.669  0.9157E-12  0.8519E-02
      0.805  0.0000E+00  0.8519E-02
      0.942  0.7851E-09  0.8519E-02
      1.079  0.1163E-02  0.8678E-02
      1.216  0.1495E-01  0.1072E-01
      1.353  0.1316E-03  0.1074E-01
      1.489  0.2877E-11  0.1074E-01
      1.626  0.0000E+00  0.1074E-01
      1.763  0.0000E+00  0.1074E-01
      1.900  0.0000E+00  0.1074E-01
      2.036  0.0000E+00  0.1074E-01
      2.173  0.0000E+00  0.1074E-01
      2.310  0.0000E+00  0.1074E-01
      2.447  0.0000E+00  0.1074E-01
      2.584  0.6096E-09  0.1074E-01
      2.720  0.1661E-02  0.1097E-01
      2.857  0.3042E-01  0.1513E-01
      2.994  0.4143E-03  0.1519E-01
      3.131  0.1705E-10  0.1519E-01
      3.267  0.2179E-06  0.1519E-01
      3.404  0.3512E-02  0.1567E-01
      3.541  0.4611E-02  0.1630E-01
      3.678  0.1879E-05  0.1630E-01
      3.815  0.4710E-02  0.1694E-01
      3.951  0.3412E-02  0.1741E-01
      4.088  0.4830E-06  0.1741E-01
      4.225  0.6437E-02  0.1829E-01
      4.362  0.9807E-02  0.1963E-01
      4.498  0.2595E-04  0.1963E-01
      4.635  0.1318E-01  0.2144E-01
      4.772  0.3040E-02  0.2185E-01
      4.909  0.1594E-07  0.2185E-01
      5.045  0.0000E+00  0.2185E-01
      5.182  0.0000E+00  0.2185E-01
      5.319  0.0000E+00  0.2185E-01
      5.456  0.0000E+00  0.2185E-01
      5.593  0.0000E+00  0.2185E-01
      5.729  0.8771E-16  0.2185E-01
      5.866  0.4706E-06  0.2185E-01
      6.003  0.3750E-02  0.2236E-01
      6.140  0.1646E-01  0.2462E-01
      6.276  0.1099E-03  0.2463E-01
      6.413  0.1255E-02  0.2480E-01
      6.550  0.4054E-02  0.2536E-01
      6.687  0.1448E-02  0.2556E-01
      6.824  0.1599E-05  0.2556E-01
      6.960  0.6533E-02  0.2645E-01
      7.097  0.8188E-02  0.2757E-01
      7.234  0.1710E-03  0.2759E-01
      7.371  0.2112E-05  0.2759E-01
      7.507  0.9538E-02  0.2890E-01
      7.644  0.1999E-01  0.3163E-01
      7.781  0.4504E-02  0.3225E-01
      7.918  0.1462E-01  0.3425E-01
      8.055  0.8564E-04  0.3426E-01
      8.191  0.1063E-11  0.3426E-01
      8.328  0.0000E+00  0.3426E-01
      8.465  0.0000E+00  0.3426E-01
      8.602  0.0000E+00  0.3426E-01
      8.738  0.0000E+00  0.3426E-01
      8.875  0.0000E+00  0.3426E-01
      9.012  0.1005E-09  0.3426E-01
      9.149  0.6446E-03  0.3435E-01
      9.286  0.3008E-01  0.3846E-01
      9.422  0.1770E-02  0.3870E-01
      9.559  0.1482E-08  0.3870E-01
      9.696  0.7989E-04  0.3871E-01
      9.833  0.1365E-01  0.4058E-01
      9.969  0.1064E-01  0.4204E-01
     10.106  0.2225E-02  0.4234E-01
     10.243  0.1398E-01  0.4425E-01
     10.380  0.4502E-04  0.4426E-01
     10.517  0.2507E-12  0.4426E-01
     10.653  0.0000E+00  0.4426E-01
     10.790  0.0000E+00  0.4426E-01
     10.927  0.0000E+00  0.4426E-01
     11.064  0.1719E-12  0.4426E-01
     11.200  0.3791E-04  0.4426E-01
     11.337  0.1378E-01  0.4615E-01
     11.474  0.2426E-02  0.4648E-01
     11.611  0.1449E-07  0.4648E-01
     11.748  0.8926E-03  0.4660E-01
     11.884  0.3165E-02  0.4704E-01
     12.021  0.3988E-05  0.4704E-01
     12.158  0.7330E-07  0.4704E-01
     12.295  0.4621E-02  0.4767E-01
     12.431  0.2268E-01  0.5077E-01
     12.568  0.5197E-02  0.5148E-01
     12.705  0.2431E-02  0.5181E-01
     12.842  0.1423E-01  0.5376E-01
     12.979  0.3644E-02  0.5426E-01
     13.115  0.3182E-07  0.5426E-01
     13.252  0.3095E-09  0.5426E-01
     13.389  0.5351E-03  0.5433E-01
     13.526  0.8677E-02  0.5552E-01
     13.662  0.1503E-01  0.5757E-01
     13.799  0.6698E-02  0.5849E-01
     13.936  0.9678E-02  0.5981E-01
     14.073  0.3366E-05  0.5981E-01
     14.210  0.1044E-01  0.6124E-01
     14.346  0.2201E-01  0.6425E-01
     14.483  0.5141E-04  0.6426E-01
     14.620  0.1174E-09  0.6426E-01
     14.757  0.2425E-03  0.6429E-01
     14.893  0.3777E-02  0.6481E-01
     15.030  0.4227E-04  0.6481E-01
     15.167  0.1302E-11  0.6481E-01
     15.304  0.1137E-07  0.6481E-01
     15.441  0.1256E-02  0.6499E-01
     15.577  0.4155E-02  0.6555E-01
     15.714  0.6407E-02  0.6643E-01
     15.851  0.1364E-01  0.6830E-01
     15.988  0.3753E-02  0.6881E-01
     16.124  0.3887E-02  0.6934E-01
     16.261  0.2108E-02  0.6963E-01
     16.398  0.6405E-02  0.7051E-01
     16.535  0.4424E-02  0.7111E-01
     16.672  0.2266E-06  0.7111E-01
     16.808  0.1798E-02  0.7136E-01
     16.945  0.1438E-01  0.7332E-01
     17.082  0.2519E-02  0.7367E-01
     17.219  0.8368E-02  0.7481E-01
     17.355  0.1632E-03  0.7484E-01
     17.492  0.1505E-01  0.7689E-01
     17.629  0.5156E-02  0.7760E-01
     17.766  0.1212E-01  0.7926E-01
     17.903  0.1235E-04  0.7926E-01
     18.039  0.8776E-02  0.8046E-01
     18.176  0.1187E-01  0.8208E-01
     18.313  0.1184E-01  0.8370E-01
     18.450  0.1528E-04  0.8370E-01
     18.586  0.6144E-02  0.8454E-01
     18.723  0.1973E-02  0.8481E-01
     18.860  0.2022E-07  0.8481E-01
     18.997  0.0000E+00  0.8481E-01
     19.134  0.3508E-14  0.8481E-01
     19.270  0.5963E-05  0.8482E-01
     19.407  0.1118E-01  0.8635E-01
     19.544  0.5058E-02  0.8704E-01
     19.681  0.2213E-04  0.8704E-01
     19.817  0.6188E-02  0.8789E-01
     19.954  0.1406E-01  0.8981E-01
     20.091  0.3488E-04  0.8981E-01
     20.228  0.7550E-03  0.8992E-01
     20.365  0.1526E-01  0.9201E-01
     20.501  0.2326E-03  0.9204E-01
     20.638  0.2009E-02  0.9231E-01
     20.775  0.1431E-01  0.9427E-01
     20.912  0.1499E-01  0.9632E-01
     21.048  0.1198E-02  0.9648E-01
     21.185  0.1287E-01  0.9824E-01
     21.322  0.5267E-02  0.9896E-01
     21.459  0.1428E-01  0.1009E+00
     21.596  0.5973E-04  0.1009E+00
     21.732  0.7300E-06  0.1009E+00
     21.869  0.7813E-02  0.1020E+00
     22.006  0.8432E-02  0.1031E+00
     22.143  0.1081E-05  0.1031E+00
     22.279  0.0000E+00  0.1031E+00
     22.416  0.3653E-08  0.1031E+00
     22.553  0.1205E-02  0.1033E+00
     22.690  0.6900E-02  0.1043E+00
     22.827  0.6158E-02  0.1051E+00
     22.963  0.1013E-01  0.1065E+00
     23.100  0.2515E-01  0.1099E+00
     23.237  0.7320E-02  0.1109E+00
     23.374  0.8907E-03  0.1110E+00
     23.510  0.1517E-01  0.1131E+00
     23.647  0.2376E-03  0.1132E+00
     23.784  0.9648E-02  0.1145E+00
     23.921  0.1135E-02  0.1146E+00
     24.058  0.4018E-02  0.1152E+00
     24.194  0.2027E-01  0.1180E+00
     24.331  0.1259E-01  0.1197E+00
     24.468  0.3743E-02  0.1202E+00
     24.605  0.3331E-07  0.1202E+00
     24.741  0.0000E+00  0.1202E+00
     24.878  0.0000E+00  0.1202E+00
     25.015  0.0000E+00  0.1202E+00
     25.152  0.3361E-11  0.1202E+00
     25.288  0.1406E-03  0.1202E+00
     25.425  0.1515E-01  0.1223E+00
     25.562  0.1615E-01  0.1245E+00
     25.699  0.1106E-02  0.1246E+00
     25.836  0.1135E-01  0.1262E+00
     25.972  0.7279E-02  0.1272E+00
     26.109  0.1441E-01  0.1292E+00
     26.246  0.3458E-02  0.1296E+00
     26.383  0.8684E-05  0.1296E+00
     26.519  0.5703E-05  0.1296E+00
     26.656  0.1111E-01  0.1312E+00
     26.793  0.5319E-02  0.1319E+00
     26.930  0.3814E-02  0.1324E+00
     27.067  0.5762E-04  0.1324E+00
     27.203  0.2752E-11  0.1324E+00
     27.340  0.2468E-05  0.1324E+00
     27.477  0.9872E-02  0.1338E+00
     27.614  0.1032E-01  0.1352E+00
     27.750  0.1100E-03  0.1352E+00
     27.887  0.1176E-09  0.1352E+00
     28.024  0.5579E-03  0.1353E+00
     28.161  0.1573E-01  0.1374E+00
     28.298  0.1581E-01  0.1396E+00
     28.434  0.2876E-01  0.1435E+00
     28.571  0.4136E-02  0.1441E+00
     28.708  0.9077E-08  0.1441E+00
     28.845  0.1847E-06  0.1441E+00
     28.981  0.5794E-02  0.1449E+00
     29.118  0.1045E-01  0.1463E+00
     29.255  0.3263E-02  0.1467E+00
     29.392  0.1320E-01  0.1485E+00
     29.529  0.1530E-01  0.1506E+00
     29.665  0.1349E-01  0.1525E+00
     29.802  0.3485E-02  0.1530E+00
     29.939  0.2575E-07  0.1530E+00
     30.076  0.4851E-04  0.1530E+00
     30.212  0.1406E-01  0.1549E+00
     30.349  0.5049E-02  0.1556E+00
     30.486  0.5209E-02  0.1563E+00
     30.623  0.1846E-05  0.1563E+00
     30.760  0.2602E-10  0.1563E+00
     30.896  0.2142E-03  0.1563E+00
     31.033  0.8194E-02  0.1574E+00
     31.170  0.5034E-02  0.1581E+00
     31.307  0.9785E-04  0.1581E+00
     31.443  0.4291E-10  0.1581E+00
     31.580  0.0000E+00  0.1581E+00
     31.717  0.0000E+00  0.1581E+00
     31.854  0.0000E+00  0.1581E+00
     31.991  0.5772E-16  0.1581E+00
     32.127  0.3788E-06  0.1581E+00
     32.264  0.2244E-02  0.1585E+00
     32.401  0.1817E-02  0.1587E+00
     32.538  0.1283E-06  0.1587E+00
     32.674  0.2228E-04  0.1587E+00
     32.811  0.3663E-02  0.1592E+00
     32.948  0.3760E-03  0.1593E+00
     33.085  0.4187E-09  0.1593E+00
     33.222  0.3587E-09  0.1593E+00
     33.358  0.4319E-03  0.1593E+00
     33.495  0.4946E-02  0.1600E+00
     33.632  0.3743E-04  0.1600E+00
     33.769  0.6617E-12  0.1600E+00
     33.905  0.0000E+00  0.1600E+00
     34.042  0.0000E+00  0.1600E+00
     34.179  0.0000E+00  0.1600E+00
     34.316  0.0000E+00  0.1600E+00
     34.453  0.0000E+00  0.1600E+00
     34.589  0.0000E+00  0.1600E+00
     34.726  0.0000E+00  0.1600E+00
     34.863  0.0000E+00  0.1600E+00
     35.000  0.0000E+00  0.1600E+00
     35.136  0.0000E+00  0.1600E+00
     35.273  0.0000E+00  0.1600E+00
