    1    1  100    1
  0.1386300E+02  0.2621157E-09  0.2621157E-09  0.2621157E-09  0.5000000E-15
  1.000000000000000E-004
  CAR 
 unknown system                          
      4     14      8
 
  0.8333333E-01  0.8333333E-01  0.8333333E-01  0.3703704E-01
    1       -3.048066   1.000000
    2       15.466452   0.000000
    3       16.389810   0.000000
    4       16.389810   0.000000
    5       23.739590   0.000000
    6       23.739590   0.000000
    7       25.790093   0.000000
    8       25.790093   0.000000
 
  0.2500000E+00  0.8333333E-01  0.8333333E-01  0.1111111E+00
    1       -0.528985   1.000000
    2        9.237801   1.000000
    3       13.577443   0.000000
    4       14.208331   0.000000
    5       23.076688   0.000000
    6       23.430182   0.000000
    7       28.088404   0.000000
    8       28.395458   0.000000
 
  0.4166667E+00  0.8333333E-01  0.8333333E-01  0.5555556E-01
    1        3.410202   1.000000
    2        3.807373   1.000000
    3       12.817580   0.000000
    4       13.442186   0.000000
    5       22.589863   0.000000
    6       22.830177   0.000000
    7       30.362059   0.000000
    8       30.964844   0.000000
 
 -0.8333333E-01  0.8333333E-01  0.8333333E-01  0.2777778E-01
    1       -3.894747   1.000000
    2       18.561779   0.000000
    3       18.561779   0.000000
    4       19.770717   0.000000
    5       22.831399   0.000000
    6       22.863293   0.000000
    7       24.111634   0.000000
    8       24.111634   0.000000
 
  0.2500000E+00  0.2500000E+00  0.8333333E-01  0.1111111E+00
    1        2.778740   1.000000
    2        7.499832   1.000000
    3        7.827392   1.000000
    4       12.414857   0.000000
    5       25.508470   0.000000
    6       26.639303   0.000000
    7       29.469021   0.000000
    8       30.172897   0.000000
 
 -0.2500000E+00  0.2500000E+00  0.8333333E-01  0.1111111E+00
    1       -2.204793   1.000000
    2       12.314857   0.000000
    3       15.723621   0.000000
    4       18.197685   0.000000
    5       20.860123   0.000000
    6       21.363972   0.000000
    7       24.304981   0.000000
    8       29.284709   0.000000
 
 -0.4166667E+00  0.4166667E+00  0.8333333E-01  0.1111111E+00
    1        1.130733   1.000000
    2        6.050911   1.000000
    3       14.249631   0.000000
    4       16.851558   0.000000
    5       19.389687   0.000000
    6       21.156280   0.000000
    7       26.009027   0.000000
    8       29.637402   0.000000
 
 -0.2500000E+00  0.4166667E+00  0.8333333E-01  0.1111111E+00
    1        0.303855   1.000000
    2        9.843862   0.173820
    3       10.144957   0.000000
    4       18.035743   0.000000
    5       20.287148   0.000000
    6       20.678979   0.000000
    7       27.467859   0.000000
    8       28.231640   0.000000
 
 -0.4166667E+00 -0.4166667E+00  0.8333333E-01  0.1111111E+00
    1        4.234140   1.000000
    2        4.603748   1.000000
    3        9.213446   1.000000
    4       17.652480   0.000000
    5       19.853227   0.000000
    6       23.069843   0.000000
    7       24.085302   0.000000
    8       28.994471   0.000000
 
  0.2500000E+00  0.2500000E+00  0.2500000E+00  0.9259259E-02
    1        6.360087   1.000000
    2        7.036077   1.000000
    3        7.036077   1.000000
    4        7.036077   1.000000
    5       31.074657   0.000000
    6       31.074657   0.000000
    7       31.074664   0.000000
    8       31.115435   0.000000
 
 -0.2500000E+00  0.2500000E+00  0.2500000E+00  0.2777778E-01
    1       -0.528341   1.000000
    2       12.812261   0.000000
    3       12.812261   0.000000
    4       14.811725   0.000000
    5       16.126100   0.000000
    6       26.144925   0.000000
    7       26.852319   0.000000
    8       27.545594   0.000000
 
 -0.4166667E+00  0.4166667E+00  0.2500000E+00  0.1111111E+00
    1        2.777409   1.000000
    2        7.612202   1.000000
    3       11.300489   0.000000
    4       13.807801   0.000000
    5       17.438440   0.000000
    6       21.870763   0.000000
    7       25.372647   0.000000
    8       28.392652   0.000000
 
 -0.4166667E+00 -0.4166667E+00  0.2500000E+00  0.3703704E-01
    1        6.528097   1.000000
    2        6.951673   1.000000
    3        6.951673   1.000000
    4       15.832284   0.000000
    5       17.108410   0.000000
    6       17.108410   0.000000
    7       25.853792   0.000000
    8       33.408079   0.000000
 
 -0.4166667E+00  0.4166667E+00  0.4166667E+00  0.2777778E-01
    1        5.996353   1.000000
    2        9.778425   0.819028
    3        9.778425   0.819027
    4       11.774901   0.000000
    5       12.696522   0.000000
    6       15.985525   0.000000
    7       32.259459   0.000000
    8       32.764386   0.000000
