Automatically generated mesh
      14
Reciprocal lattice
    0.08333333333334    0.08333333333334    0.08333333333334             8
    0.25000000000000    0.08333333333334    0.08333333333334            24
    0.41666666666666    0.08333333333334    0.08333333333334            12
   -0.08333333333334    0.08333333333334    0.08333333333334             6
    0.25000000000000    0.25000000000000    0.08333333333334            24
   -0.25000000000000    0.25000000000000    0.08333333333334            24
   -0.41666666666666    0.41666666666666    0.08333333333334            24
   -0.25000000000000    0.41666666666666    0.08333333333334            24
   -0.41666666666666   -0.41666666666666    0.08333333333334            24
    0.25000000000000    0.25000000000000    0.25000000000000             2
   -0.25000000000000    0.25000000000000    0.25000000000000             6
   -0.41666666666666    0.41666666666666    0.25000000000000            24
   -0.41666666666666   -0.41666666666666    0.25000000000000             8
   -0.41666666666666    0.41666666666666    0.41666666666666             6
