   1   1   0   0
  0.1386300E+02  0.2621157E-09  0.2621157E-09  0.2621157E-09  0.5000000E-15
  1.000000000000000E-004
  CAR 
 unknown system                          
     36.33762916     -6.22029705  301      9.87799620      1.00000000
     -6.220  0.0000E+00  0.0000E+00
     -6.078  0.0000E+00  0.0000E+00
     -5.937  0.0000E+00  0.0000E+00
     -5.795  0.0000E+00  0.0000E+00
     -5.653  0.0000E+00  0.0000E+00
     -5.511  0.0000E+00  0.0000E+00
     -5.369  0.0000E+00  0.0000E+00
     -5.227  0.0000E+00  0.0000E+00
     -5.085  0.0000E+00  0.0000E+00
     -4.944  0.0000E+00  0.0000E+00
     -4.802  0.0000E+00  0.0000E+00
     -4.660  0.0000E+00  0.0000E+00
     -4.518  0.2057E-14  0.2917E-15
     -4.376  0.4245E-06  0.6023E-07
     -4.234  0.1180E-03  0.1680E-04
     -4.092  0.3940E-03  0.7269E-04
     -3.951  0.6429E-03  0.1639E-03
     -3.809  0.5160E-03  0.2371E-03
     -3.667  0.1023E-02  0.3822E-03
     -3.525  0.6631E-03  0.4763E-03
     -3.383  0.1257E-02  0.6546E-03
     -3.241  0.9558E-03  0.7902E-03
     -3.099  0.9152E-03  0.9200E-03
     -2.958  0.1457E-02  0.1127E-02
     -2.816  0.1162E-02  0.1292E-02
     -2.674  0.1399E-02  0.1490E-02
     -2.532  0.1099E-02  0.1646E-02
     -2.390  0.1848E-02  0.1908E-02
     -2.248  0.1419E-02  0.2109E-02
     -2.106  0.1707E-02  0.2352E-02
     -1.965  0.1117E-02  0.2510E-02
     -1.823  0.1765E-02  0.2760E-02
     -1.681  0.2121E-02  0.3061E-02
     -1.539  0.1342E-02  0.3252E-02
     -1.397  0.2233E-02  0.3568E-02
     -1.255  0.8764E-03  0.3693E-02
     -1.113  0.2912E-02  0.4106E-02
     -0.971  0.1928E-02  0.4379E-02
     -0.830  0.1669E-02  0.4616E-02
     -0.688  0.1915E-02  0.4888E-02
     -0.546  0.1826E-02  0.5147E-02
     -0.404  0.2236E-02  0.5464E-02
     -0.262  0.2462E-02  0.5813E-02
     -0.120  0.2603E-02  0.6183E-02
      0.022  0.1674E-02  0.6420E-02
      0.163  0.1978E-02  0.6701E-02
      0.305  0.2120E-02  0.7001E-02
      0.447  0.2662E-02  0.7379E-02
      0.589  0.3014E-02  0.7807E-02
      0.731  0.2351E-02  0.8140E-02
      0.873  0.2134E-02  0.8443E-02
      1.015  0.1913E-02  0.8714E-02
      1.156  0.3121E-02  0.9157E-02
      1.298  0.2246E-02  0.9476E-02
      1.440  0.2563E-02  0.9839E-02
      1.582  0.3688E-02  0.1036E-01
      1.724  0.1752E-02  0.1061E-01
      1.866  0.2663E-02  0.1099E-01
      2.008  0.2786E-02  0.1138E-01
      2.149  0.2287E-02  0.1171E-01
      2.291  0.3915E-02  0.1226E-01
      2.433  0.1753E-02  0.1251E-01
      2.575  0.3697E-02  0.1304E-01
      2.717  0.3008E-02  0.1346E-01
      2.859  0.2841E-02  0.1387E-01
      3.001  0.2733E-02  0.1425E-01
      3.142  0.2805E-02  0.1465E-01
      3.284  0.3392E-02  0.1513E-01
      3.426  0.3080E-02  0.1557E-01
      3.568  0.2247E-02  0.1589E-01
      3.710  0.3746E-02  0.1642E-01
      3.852  0.3505E-02  0.1692E-01
      3.994  0.2788E-02  0.1731E-01
      4.135  0.2800E-02  0.1771E-01
      4.277  0.2742E-02  0.1810E-01
      4.419  0.3850E-02  0.1865E-01
      4.561  0.3256E-02  0.1911E-01
      4.703  0.2986E-02  0.1953E-01
      4.845  0.3977E-02  0.2009E-01
      4.987  0.3555E-02  0.2060E-01
      5.128  0.2918E-02  0.2101E-01
      5.270  0.3984E-02  0.2158E-01
      5.412  0.2242E-02  0.2190E-01
      5.554  0.3577E-02  0.2240E-01
      5.696  0.3689E-02  0.2293E-01
      5.838  0.3616E-02  0.2344E-01
      5.980  0.4281E-02  0.2405E-01
      6.122  0.3131E-02  0.2449E-01
      6.263  0.4168E-02  0.2508E-01
      6.405  0.3852E-02  0.2563E-01
      6.547  0.3263E-02  0.2609E-01
      6.689  0.3269E-02  0.2656E-01
      6.831  0.3452E-02  0.2705E-01
      6.973  0.3460E-02  0.2754E-01
      7.115  0.5726E-02  0.2835E-01
      7.256  0.3002E-02  0.2877E-01
      7.398  0.4559E-02  0.2942E-01
      7.540  0.2967E-02  0.2984E-01
      7.682  0.4891E-02  0.3054E-01
      7.824  0.3656E-02  0.3105E-01
      7.966  0.2893E-02  0.3147E-01
      8.108  0.4530E-02  0.3211E-01
      8.249  0.4741E-02  0.3278E-01
      8.391  0.3885E-02  0.3333E-01
      8.533  0.3569E-02  0.3384E-01
      8.675  0.4980E-02  0.3454E-01
      8.817  0.4634E-02  0.3520E-01
      8.959  0.3455E-02  0.3569E-01
      9.101  0.5285E-02  0.3644E-01
      9.242  0.5100E-02  0.3717E-01
      9.384  0.2724E-02  0.3755E-01
      9.526  0.4558E-02  0.3820E-01
      9.668  0.4243E-02  0.3880E-01
      9.810  0.6219E-02  0.3968E-01
      9.952  0.4938E-02  0.4038E-01
     10.094  0.3810E-02  0.4092E-01
     10.235  0.4917E-02  0.4162E-01
     10.377  0.5014E-02  0.4233E-01
     10.519  0.3909E-02  0.4289E-01
     10.661  0.4576E-02  0.4354E-01
     10.803  0.4830E-02  0.4422E-01
     10.945  0.3020E-02  0.4465E-01
     11.087  0.4197E-02  0.4524E-01
     11.228  0.4572E-02  0.4589E-01
     11.370  0.4202E-02  0.4649E-01
     11.512  0.4632E-02  0.4715E-01
     11.654  0.4522E-02  0.4779E-01
     11.796  0.5481E-02  0.4857E-01
     11.938  0.3920E-02  0.4912E-01
     12.080  0.2531E-02  0.4948E-01
     12.221  0.4973E-02  0.5019E-01
     12.363  0.4679E-02  0.5085E-01
     12.505  0.3690E-02  0.5137E-01
     12.647  0.5299E-02  0.5212E-01
     12.789  0.4556E-02  0.5277E-01
     12.931  0.4159E-02  0.5336E-01
     13.073  0.5021E-02  0.5407E-01
     13.214  0.4984E-02  0.5478E-01
     13.356  0.4417E-02  0.5541E-01
     13.498  0.6014E-02  0.5626E-01
     13.640  0.4567E-02  0.5691E-01
     13.782  0.4811E-02  0.5759E-01
     13.924  0.3619E-02  0.5810E-01
     14.066  0.3934E-02  0.5866E-01
     14.208  0.5749E-02  0.5948E-01
     14.349  0.5469E-02  0.6025E-01
     14.491  0.5322E-02  0.6101E-01
     14.633  0.5248E-02  0.6175E-01
     14.775  0.6315E-02  0.6265E-01
     14.917  0.4396E-02  0.6327E-01
     15.059  0.3654E-02  0.6379E-01
     15.201  0.6208E-02  0.6467E-01
     15.342  0.5463E-02  0.6545E-01
     15.484  0.5913E-02  0.6629E-01
     15.626  0.5091E-02  0.6701E-01
     15.768  0.4682E-02  0.6767E-01
     15.910  0.3715E-02  0.6820E-01
     16.052  0.5890E-02  0.6903E-01
     16.194  0.5919E-02  0.6987E-01
     16.335  0.5464E-02  0.7065E-01
     16.477  0.5516E-02  0.7143E-01
     16.619  0.5256E-02  0.7218E-01
     16.761  0.5226E-02  0.7292E-01
     16.903  0.6493E-02  0.7384E-01
     17.045  0.6559E-02  0.7477E-01
     17.187  0.5756E-02  0.7559E-01
     17.328  0.6045E-02  0.7644E-01
     17.470  0.7857E-02  0.7756E-01
     17.612  0.5526E-02  0.7834E-01
     17.754  0.6131E-02  0.7921E-01
     17.896  0.6006E-02  0.8006E-01
     18.038  0.4756E-02  0.8074E-01
     18.180  0.5858E-02  0.8157E-01
     18.321  0.3978E-02  0.8213E-01
     18.463  0.2083E-02  0.8243E-01
     18.605  0.4732E-02  0.8310E-01
     18.747  0.3582E-02  0.8361E-01
     18.889  0.4472E-02  0.8424E-01
     19.031  0.1814E-02  0.8450E-01
     19.173  0.5021E-02  0.8521E-01
     19.314  0.4386E-02  0.8584E-01
     19.456  0.5065E-02  0.8655E-01
     19.598  0.6107E-02  0.8742E-01
     19.740  0.3843E-02  0.8797E-01
     19.882  0.4683E-02  0.8863E-01
     20.024  0.7479E-02  0.8969E-01
     20.166  0.5825E-02  0.9052E-01
     20.307  0.7157E-02  0.9153E-01
     20.449  0.6306E-02  0.9243E-01
     20.591  0.4175E-02  0.9302E-01
     20.733  0.4002E-02  0.9359E-01
     20.875  0.6372E-02  0.9449E-01
     21.017  0.5017E-02  0.9520E-01
     21.159  0.7642E-02  0.9629E-01
     21.300  0.5968E-02  0.9713E-01
     21.442  0.6245E-02  0.9802E-01
     21.584  0.8654E-02  0.9925E-01
     21.726  0.6764E-02  0.1002E+00
     21.868  0.1090E-01  0.1018E+00
     22.010  0.5221E-02  0.1025E+00
     22.152  0.4589E-02  0.1031E+00
     22.294  0.6426E-02  0.1041E+00
     22.435  0.8613E-02  0.1053E+00
     22.577  0.9285E-02  0.1066E+00
     22.719  0.7955E-02  0.1077E+00
     22.861  0.5908E-02  0.1086E+00
     23.003  0.5437E-02  0.1093E+00
     23.145  0.4578E-02  0.1100E+00
     23.287  0.5125E-02  0.1107E+00
     23.428  0.4202E-02  0.1113E+00
     23.570  0.6246E-02  0.1122E+00
     23.712  0.5423E-02  0.1130E+00
     23.854  0.5005E-02  0.1137E+00
     23.996  0.4327E-02  0.1143E+00
     24.138  0.6416E-02  0.1152E+00
     24.280  0.4655E-02  0.1159E+00
     24.421  0.6745E-02  0.1168E+00
     24.563  0.6843E-02  0.1178E+00
     24.705  0.5371E-02  0.1185E+00
     24.847  0.6628E-02  0.1195E+00
     24.989  0.6574E-02  0.1204E+00
     25.131  0.5111E-02  0.1211E+00
     25.273  0.7066E-02  0.1221E+00
     25.414  0.8230E-02  0.1233E+00
     25.556  0.4117E-02  0.1239E+00
     25.698  0.7604E-02  0.1250E+00
     25.840  0.6508E-02  0.1259E+00
     25.982  0.6283E-02  0.1268E+00
     26.124  0.5955E-02  0.1276E+00
     26.266  0.8461E-02  0.1288E+00
     26.407  0.5229E-02  0.1296E+00
     26.549  0.4845E-02  0.1303E+00
     26.691  0.6548E-02  0.1312E+00
     26.833  0.3666E-02  0.1317E+00
     26.975  0.6076E-02  0.1326E+00
     27.117  0.6211E-02  0.1335E+00
     27.259  0.7936E-02  0.1346E+00
     27.400  0.5330E-02  0.1353E+00
     27.542  0.4260E-02  0.1359E+00
     27.684  0.5246E-02  0.1367E+00
     27.826  0.7979E-02  0.1378E+00
     27.968  0.6430E-02  0.1387E+00
     28.110  0.7993E-02  0.1399E+00
     28.252  0.6800E-02  0.1408E+00
     28.393  0.9652E-02  0.1422E+00
     28.535  0.5652E-02  0.1430E+00
     28.677  0.5643E-02  0.1438E+00
     28.819  0.4436E-02  0.1444E+00
     28.961  0.6804E-02  0.1454E+00
     29.103  0.6134E-02  0.1463E+00
     29.245  0.6943E-02  0.1472E+00
     29.387  0.6576E-02  0.1482E+00
     29.528  0.6437E-02  0.1491E+00
     29.670  0.8410E-02  0.1503E+00
     29.812  0.7544E-02  0.1514E+00
     29.954  0.6331E-02  0.1523E+00
     30.096  0.4798E-02  0.1529E+00
     30.238  0.6113E-02  0.1538E+00
     30.380  0.6580E-02  0.1547E+00
     30.521  0.5082E-02  0.1555E+00
     30.663  0.5474E-02  0.1562E+00
     30.805  0.4423E-02  0.1569E+00
     30.947  0.3055E-02  0.1573E+00
     31.089  0.3871E-02  0.1578E+00
     31.231  0.2522E-02  0.1582E+00
     31.373  0.2364E-02  0.1585E+00
     31.514  0.1248E-02  0.1587E+00
     31.656  0.1036E-02  0.1589E+00
     31.798  0.8351E-03  0.1590E+00
     31.940  0.7073E-03  0.1591E+00
     32.082  0.7528E-03  0.1592E+00
     32.224  0.2626E-03  0.1592E+00
     32.366  0.9240E-03  0.1594E+00
     32.507  0.1191E-02  0.1595E+00
     32.649  0.7857E-03  0.1596E+00
     32.791  0.2305E-03  0.1597E+00
     32.933  0.1654E-03  0.1597E+00
     33.075  0.3351E-03  0.1597E+00
     33.217  0.4096E-04  0.1597E+00
     33.359  0.4433E-03  0.1598E+00
     33.500  0.3140E-03  0.1599E+00
     33.642  0.1940E-03  0.1599E+00
     33.784  0.5497E-03  0.1600E+00
     33.926  0.2078E-04  0.1600E+00
     34.068  0.5017E-11  0.1600E+00
     34.210  0.1587E-05  0.1600E+00
     34.352  0.1179E-03  0.1600E+00
     34.493  0.1447E-03  0.1600E+00
     34.635  0.5699E-06  0.1600E+00
     34.777  0.2742E-14  0.1600E+00
     34.919  0.0000E+00  0.1600E+00
     35.061  0.0000E+00  0.1600E+00
     35.203  0.0000E+00  0.1600E+00
     35.345  0.0000E+00  0.1600E+00
     35.486  0.0000E+00  0.1600E+00
     35.628  0.0000E+00  0.1600E+00
     35.770  0.0000E+00  0.1600E+00
     35.912  0.0000E+00  0.1600E+00
     36.054  0.0000E+00  0.1600E+00
     36.196  0.0000E+00  0.1600E+00
     36.338  0.0000E+00  0.1600E+00
