    1    1  100    1
  0.1386300E+02  0.2621157E-09  0.2621157E-09  0.2621157E-09  0.5000000E-15
  1.000000000000000E-004
  CAR 
 unknown system                          
      4    322      8
 
  0.2272727E-01  0.2272727E-01  0.2272727E-01  0.7513148E-03
    1       -4.222596   1.000000
    2       20.032625   0.000000
    3       20.695332   0.000000
    4       20.695332   0.000000
    5       22.641186   0.000000
    6       22.641186   0.000000
    7       23.631499   0.000000
    8       25.718300   0.000000
 
  0.6818182E-01  0.2272727E-01  0.2272727E-01  0.2253944E-02
    1       -4.032991   1.000000
    2       18.701350   0.000000
    3       19.497835   0.000000
    4       20.274493   0.000000
    5       22.263875   0.000000
    6       23.258013   0.000000
    7       24.664700   0.000000
    8       25.100625   0.000000
 
  0.1136364E+00  0.2272727E-01  0.2272727E-01  0.2253944E-02
    1       -3.717340   1.000000
    2       16.945311   0.000000
    3       18.516335   0.000000
    4       19.688560   0.000000
    5       21.788734   0.000000
    6       23.140322   0.000000
    7       25.121580   0.000000
    8       25.899928   0.000000
 
  0.1590909E+00  0.2272727E-01  0.2272727E-01  0.2253944E-02
    1       -3.276280   1.000000
    2       15.040668   0.000000
    3       17.698803   0.000000
    4       19.047334   0.000000
    5       21.272489   0.000000
    6       22.563587   0.000000
    7       25.724147   0.000000
    8       26.105268   0.000000
 
  0.2045455E+00  0.2272727E-01  0.2272727E-01  0.2253944E-02
    1       -2.710594   1.000000
    2       13.125725   0.000000
    3       16.998702   0.000000
    4       18.424249   0.000000
    5       20.755488   0.000000
    6       21.959607   0.000000
    7       26.434641   0.000000
    8       26.446981   0.000000
 
  0.2500000E+00  0.2272727E-01  0.2272727E-01  0.2253944E-02
    1       -2.021315   1.000000
    2       11.256560   0.000000
    3       16.407927   0.000000
    4       17.862067   0.000000
    5       20.273832   0.000000
    6       21.416282   0.000000
    7       26.927400   0.000000
    8       27.208103   0.000000
 
  0.2954545E+00  0.2272727E-01  0.2272727E-01  0.2253944E-02
    1       -1.209832   1.000000
    2        9.460967   1.000000
    3       15.924843   0.000000
    4       17.382401   0.000000
    5       19.854461   0.000000
    6       20.955819   0.000000
    7       27.538316   0.000000
    8       28.042337   0.000000
 
  0.3409091E+00  0.2272727E-01  0.2272727E-01  0.2253944E-02
    1       -0.277827   1.000000
    2        7.753060   1.000000
    3       15.549526   0.000000
    4       17.001990   0.000000
    5       19.516153   0.000000
    6       20.587511   0.000000
    7       28.251081   0.000000
    8       28.911498   0.000000
 
  0.3863636E+00  0.2272727E-01  0.2272727E-01  0.2253944E-02
    1        0.772216   1.000000
    2        6.145470   1.000000
    3       15.281459   0.000000
    4       16.725851   0.000000
    5       19.268235   0.000000
    6       20.320812   0.000000
    7       29.033921   0.000000
    8       29.771451   0.000000
 
  0.4318182E+00  0.2272727E-01  0.2272727E-01  0.2253944E-02
    1        1.934566   1.000000
    2        4.647024   1.000000
    3       15.120596   0.000000
    4       16.559050   0.000000
    5       19.117877   0.000000
    6       20.158046   0.000000
    7       29.790326   0.000000
    8       30.493229   0.000000
 
  0.4772727E+00  0.2272727E-01  0.2272727E-01  0.1126972E-02
    1        3.032345   1.000000
    2        3.437025   1.000000
    3       15.066964   0.000000
    4       16.502739   0.000000
    5       19.067234   0.000000
    6       20.104185   0.000000
    7       30.194897   0.000000
    8       30.808424   0.000000
 
 -0.2272727E-01  0.2272727E-01  0.2272727E-01  0.5634861E-03
    1       -4.285846   1.000000
    2       20.848605   0.000000
    3       20.848605   0.000000
    4       21.138706   0.000000
    5       22.492213   0.000000
    6       22.800395   0.000000
    7       22.800395   0.000000
    8       25.661904   0.000000
 
  0.6818182E-01  0.6818182E-01  0.2272727E-01  0.2253944E-02
    1       -3.780431   1.000000
    2       17.617811   0.000000
    3       18.318516   0.000000
    4       19.293277   0.000000
    5       22.522796   0.000000
    6       23.492271   0.000000
    7       24.815581   0.000000
    8       25.498087   0.000000
 
  0.1136364E+00  0.6818182E-01  0.2272727E-01  0.4507889E-02
    1       -3.402205   1.000000
    2       16.031596   0.000000
    3       17.211506   0.000000
    4       18.551666   0.000000
    5       22.309774   0.000000
    6       23.462957   0.000000
    7       24.973737   0.000000
    8       26.127366   0.000000
 
  0.1590909E+00  0.6818182E-01  0.2272727E-01  0.4507889E-02
    1       -2.898970   1.000000
    2       14.161700   0.000000
    3       16.405809   0.000000
    4       17.867490   0.000000
    5       21.925558   0.000000
    6       23.045149   0.000000
    7       25.442542   0.000000
    8       26.808479   0.000000
 
  0.2045455E+00  0.6818182E-01  0.2272727E-01  0.4507889E-02
    1       -2.271690   1.000000
    2       12.278427   0.000000
    3       15.738893   0.000000
    4       17.251354   0.000000
    5       21.480983   0.000000
    6       22.599111   0.000000
    7       25.953826   0.000000
    8       27.560268   0.000000
 
  0.2500000E+00  0.6818182E-01  0.2272727E-01  0.4507889E-02
    1       -1.521506   1.000000
    2       10.448375   0.000000
    3       15.185861   0.000000
    4       16.720242   0.000000
    5       21.048629   0.000000
    6       22.190638   0.000000
    7       26.550531   0.000000
    8       28.347637   0.000000
 
  0.2954545E+00  0.6818182E-01  0.2272727E-01  0.4507889E-02
    1       -0.649923   1.000000
    2        8.698025   1.000000
    3       14.743860   0.000000
    4       16.287404   0.000000
    5       20.674442   0.000000
    6       21.841745   0.000000
    7       27.256083   0.000000
    8       29.161570   0.000000
 
  0.3409091E+00  0.6818182E-01  0.2272727E-01  0.4507889E-02
    1        0.340961   1.000000
    2        7.040415   1.000000
    3       14.411675   0.000000
    4       15.958420   0.000000
    5       20.380254   0.000000
    6       21.566070   0.000000
    7       28.050346   0.000000
    8       29.941501   0.000000
 
  0.3863636E+00  0.6818182E-01  0.2272727E-01  0.4507889E-02
    1        1.447913   1.000000
    2        5.486819   1.000000
    3       14.190083   0.000000
    4       15.737806   0.000000
    5       20.180104   0.000000
    6       21.377851   0.000000
    7       28.909083   0.000000
    8       30.518820   0.000000
 
  0.4318182E+00  0.6818182E-01  0.2272727E-01  0.4507889E-02
    1        2.655578   1.000000
    2        4.055068   1.000000
    3       14.079138   0.000000
    4       15.626434   0.000000
    5       20.077753   0.000000
    6       21.282373   0.000000
    7       29.730948   0.000000
    8       30.525439   0.000000
 
 -0.6818182E-01  0.6818182E-01  0.2272727E-01  0.2253944E-02
    1       -4.159364   1.000000
    2       19.595798   0.000000
    3       19.966732   0.000000
    4       20.928885   0.000000
    5       22.153873   0.000000
    6       23.326862   0.000000
    7       23.817272   0.000000
    8       24.815196   0.000000
 
  0.1136364E+00  0.1136364E+00  0.2272727E-01  0.2253944E-02
    1       -2.961796   1.000000
    2       15.032333   0.000000
    3       15.581563   0.000000
    4       17.756765   0.000000
    5       22.447729   0.000000
    6       23.623260   0.000000
    7       25.197648   0.000000
    8       26.485138   0.000000
 
  0.1590909E+00  0.1136364E+00  0.2272727E-01  0.4507889E-02
    1       -2.396980   1.000000
    2       13.365206   0.000000
    3       14.637551   0.000000
    4       17.082172   0.000000
    5       22.300259   0.000000
    6       23.517540   0.000000
    7       25.594153   0.000000
    8       27.227194   0.000000
 
  0.2045455E+00  0.1136364E+00  0.2272727E-01  0.4507889E-02
    1       -1.708727   1.000000
    2       11.532244   0.000000
    3       13.996181   0.000000
    4       16.501602   0.000000
    5       21.965218   0.000000
    6       23.439770   0.000000
    7       25.898324   0.000000
    8       28.268694   0.000000
 
  0.2500000E+00  0.1136364E+00  0.2272727E-01  0.4507889E-02
    1       -0.898421   1.000000
    2        9.748937   0.999869
    3       13.482388   0.000000
    4       16.017826   0.000000
    5       21.595200   0.000000
    6       23.329843   0.000000
    7       26.340498   0.000000
    8       29.276949   0.000000
 
  0.2954545E+00  0.1136364E+00  0.2272727E-01  0.4507889E-02
    1        0.032213   1.000000
    2        8.048083   1.000000
    3       13.083797   0.000000
    4       15.636827   0.000000
    5       21.272827   0.000000
    6       23.184662   0.000000
    7       26.967072   0.000000
    8       30.111399   0.000000
 
  0.3409091E+00  0.1136364E+00  0.2272727E-01  0.4507889E-02
    1        1.080773   1.000000
    2        6.443899   1.000000
    3       12.798554   0.000000
    4       15.362344   0.000000
    5       21.029816   0.000000
    6       23.047563   0.000000
    7       27.745867   0.000000
    8       30.556739   0.000000
 
  0.3863636E+00  0.1136364E+00  0.2272727E-01  0.4507889E-02
    1        2.241630   1.000000
    2        4.948326   1.000000
    3       12.627655   0.000000
    4       15.197015   0.000000
    5       20.880799   0.000000
    6       22.954333   0.000000
    7       28.617928   0.000000
    8       30.321993   0.000000
 
  0.4318182E+00  0.1136364E+00  0.2272727E-01  0.2253944E-02
    1        3.341067   1.000000
    2        3.736958   1.000000
    3       12.570363   0.000000
    4       15.141459   0.000000
    5       20.830086   0.000000
    6       22.920801   0.000000
    7       29.355560   0.000000
    8       29.732375   0.000000
 
 -0.1136364E+00  0.1136364E+00  0.2272727E-01  0.2253944E-02
    1       -3.906673   1.000000
    2       17.875455   0.000000
    3       19.048088   0.000000
    4       20.620490   0.000000
    5       21.510246   0.000000
    6       23.245311   0.000000
    7       24.571139   0.000000
    8       25.149700   0.000000
 
 -0.6818182E-01  0.1136364E+00  0.2272727E-01  0.2253944E-02
    1       -3.969823   1.000000
    2       18.560154   0.000000
    3       18.920090   0.000000
    4       20.424019   0.000000
    5       22.090373   0.000000
    6       23.537495   0.000000
    7       24.140236   0.000000
    8       24.589031   0.000000
 
  0.1590909E+00  0.1590909E+00  0.2272727E-01  0.2253944E-02
    1       -1.771190   1.000000
    2       12.520752   0.000000
    3       12.946898   0.000000
    4       16.444929   0.000000
    5       22.517204   0.000000
    6       23.551897   0.000000
    7       26.323930   0.000000
    8       27.553528   0.000000
 
  0.2045455E+00  0.1590909E+00  0.2272727E-01  0.4507889E-02
    1       -1.022801   1.000000
    2       10.887195   0.000000
    3       12.192496   0.000000
    4       15.910110   0.000000
    5       22.439394   0.000000
    6       23.713191   0.000000
    7       26.666047   0.000000
    8       28.461906   0.000000
 
  0.2500000E+00  0.1590909E+00  0.2272727E-01  0.4507889E-02
    1       -0.153316   1.000000
    2        9.160112   1.000000
    3       11.717117   0.000000
    4       15.477054   0.000000
    5       22.185700   0.000000
    6       24.028781   0.000000
    7       26.810210   0.000000
    8       29.570067   0.000000
 
  0.2954545E+00  0.1590909E+00  0.2272727E-01  0.4507889E-02
    1        0.835296   1.000000
    2        7.513278   1.000000
    3       11.366401   0.000000
    4       15.149172   0.000000
    5       21.937500   0.000000
    6       24.292065   0.000000
    7       27.122301   0.000000
    8       30.241678   0.000000
 
  0.3409091E+00  0.1590909E+00  0.2272727E-01  0.4507889E-02
    1        1.939662   1.000000
    2        5.965578   1.000000
    3       11.133145   0.000000
    4       14.928996   0.000000
    5       21.755405   0.000000
    6       24.430999   0.000000
    7       27.687646   0.000000
    8       30.106881   0.000000
 
  0.3863636E+00  0.1590909E+00  0.2272727E-01  0.4507889E-02
    1        3.145262   1.000000
    2        4.537450   1.000000
    3       11.016692   0.000000
    4       14.818353   0.000000
    5       21.661063   0.000000
    6       24.479311   0.000000
    7       28.393281   0.000000
    8       29.469075   0.000000
 
 -0.1590909E+00  0.1590909E+00  0.2272727E-01  0.2253944E-02
    1       -3.528200   1.000000
    2       15.990299   0.000000
    3       18.208726   0.000000
    4       20.197930   0.000000
    5       20.787616   0.000000
    6       22.639927   0.000000
    7       24.884036   0.000000
    8       26.573830   0.000000
 
 -0.1136364E+00  0.1590909E+00  0.2272727E-01  0.4507889E-02
    1       -3.654265   1.000000
    2       16.947035   0.000000
    3       17.925380   0.000000
    4       19.931325   0.000000
    5       21.671308   0.000000
    6       23.042435   0.000000
    7       24.372694   0.000000
    8       25.672272   0.000000
 
  0.2045455E+00  0.2045455E+00  0.2272727E-01  0.2253944E-02
    1       -0.215189   1.000000
    2       10.217078   0.000000
    3       10.569795   0.000000
    4       15.425702   0.000000
    5       22.804464   0.000000
    6       23.765458   0.000000
    7       27.724649   0.000000
    8       28.582524   0.000000
 
  0.2500000E+00  0.2045455E+00  0.2272727E-01  0.4507889E-02
    1        0.712344   1.000000
    2        8.680536   1.000000
    3       10.006338   0.000142
    4       15.045396   0.000000
    5       22.822651   0.000000
    6       24.160627   0.000000
    7       27.960324   0.000000
    8       29.346228   0.000000
 
  0.2954545E+00  0.2045455E+00  0.2272727E-01  0.4507889E-02
    1        1.757366   1.000000
    2        7.094478   1.000000
    3        9.702953   1.000000
    4       14.771457   0.000000
    5       22.685951   0.000000
    6       24.757928   0.000000
    7       27.876642   0.000000
    8       29.788997   0.000000
 
  0.3409091E+00  0.2045455E+00  0.2272727E-01  0.4507889E-02
    1        2.914478   1.000000
    2        5.607516   1.000000
    3        9.524177   1.000000
    4       14.606128   0.000000
    5       22.574749   0.000000
    6       25.288556   0.000000
    7       27.824483   0.000000
    8       29.596311   0.000000
 
  0.3863636E+00  0.2045455E+00  0.2272727E-01  0.2253944E-02
    1        4.015580   1.000000
    2        4.395815   1.000000
    3        9.464482   1.000000
    4       14.550675   0.000000
    5       22.533977   0.000000
    6       25.512310   0.000000
    7       27.817214   0.000000
    8       29.410267   0.000000
 
 -0.2045455E+00  0.2045455E+00  0.2272727E-01  0.2253944E-02
    1       -3.024649   1.000000
    2       14.066007   0.000000
    3       17.466609   0.000000
    4       19.717698   0.000000
    5       20.080548   0.000000
    6       22.018119   0.000000
    7       25.299542   0.000000
    8       27.042932   0.000000
 
 -0.1590909E+00  0.2045455E+00  0.2272727E-01  0.4507889E-02
    1       -3.213328   1.000000
    2       15.075008   0.000000
    3       17.110379   0.000000
    4       19.383468   0.000000
    5       21.109764   0.000000
    6       22.573374   0.000000
    7       24.593341   0.000000
    8       26.941224   0.000000
 
 -0.1136364E+00  0.2045455E+00  0.2272727E-01  0.2253944E-02
    1       -3.276259   1.000000
    2       15.925559   0.000000
    3       16.379347   0.000000
    4       19.324630   0.000000
    5       21.601555   0.000000
    6       22.654569   0.000000
    7       24.881432   0.000000
    8       26.088292   0.000000
 
  0.2500000E+00  0.2500000E+00  0.2272727E-01  0.2253944E-02
    1        1.696462   1.000000
    2        8.187910   1.000000
    3        8.507079   1.000000
    4       14.718991   0.000000
    5       23.331577   0.000000
    6       24.306584   0.000000
    7       28.640896   0.000000
    8       29.361762   0.000000
 
  0.2954545E+00  0.2500000E+00  0.2272727E-01  0.4507889E-02
    1        2.795766   1.000000
    2        6.789079   1.000000
    3        8.130410   1.000000
    4       14.499708   0.000000
    5       23.461119   0.000000
    6       24.884844   0.000000
    7       27.957536   0.000000
    8       30.119434   0.000000
 
  0.3409091E+00  0.2500000E+00  0.2272727E-01  0.4507889E-02
    1        3.995955   1.000000
    2        5.375814   1.000000
    3        8.004011   1.000000
    4       14.389747   0.000000
    5       23.447076   0.000000
    6       25.581149   0.000000
    7       27.220626   0.000000
    8       30.389561   0.000000
 
 -0.2500000E+00  0.2500000E+00  0.2272727E-01  0.2253944E-02
    1       -2.397003   1.000000
    2       12.168011   0.000000
    3       16.827220   0.000000
    4       19.237767   0.000000
    5       19.435450   0.000000
    6       21.456274   0.000000
    7       25.799759   0.000000
    8       27.662861   0.000000
 
 -0.2045455E+00  0.2500000E+00  0.2272727E-01  0.4507889E-02
    1       -2.647813   1.000000
    2       13.172774   0.000000
    3       16.404809   0.000000
    4       18.823376   0.000000
    5       20.519094   0.000000
    6       22.182646   0.000000
    7       24.864512   0.000000
    8       27.981567   0.000000
 
 -0.1590909E+00  0.2500000E+00  0.2272727E-01  0.4507889E-02
    1       -2.773328   1.000000
    2       14.233530   0.000000
    3       15.433716   0.000000
    4       18.745825   0.000000
    5       21.281034   0.000000
    6       22.448815   0.000000
    7       25.105725   0.000000
    8       27.012042   0.000000
 
  0.2954545E+00  0.2954545E+00  0.2272727E-01  0.2253944E-02
    1        3.943921   1.000000
    2        6.479136   1.000000
    3        6.784562   1.000000
    4       14.335857   0.000000
    5       24.043187   0.000000
    6       25.178944   0.000000
    7       27.079946   0.000000
    8       31.210006   0.000000
 
  0.3409091E+00  0.2954545E+00  0.2272727E-01  0.2253944E-02
    1        5.028537   1.000000
    2        5.412577   1.000000
    3        6.597076   1.000000
    4       14.281132   0.000000
    5       24.201597   0.000000
    6       25.691799   0.000000
    7       26.365319   0.000000
    8       31.749765   0.000000
 
 -0.2954545E+00  0.2954545E+00  0.2272727E-01  0.2253944E-02
    1       -1.646385   1.000000
    2       10.333279   0.000000
    3       16.293713   0.000000
    4       18.799973   0.000000
    5       18.879577   0.000000
    6       20.971154   0.000000
    7       26.406998   0.000000
    8       28.378260   0.000000
 
 -0.2500000E+00  0.2954545E+00  0.2272727E-01  0.4507889E-02
    1       -1.958740   1.000000
    2       11.309310   0.000000
    3       15.805439   0.000000
    4       18.303682   0.000000
    5       19.969470   0.000000
    6       21.814911   0.000000
    7       25.289199   0.000000
    8       28.792723   0.000000
 
 -0.2045455E+00  0.2954545E+00  0.2272727E-01  0.4507889E-02
    1       -2.146411   1.000000
    2       12.376143   0.000000
    3       14.749921   0.000000
    4       18.197118   0.000000
    5       20.794779   0.000000
    6       22.480281   0.000000
    7       25.107750   0.000000
    8       28.249748   0.000000
 
 -0.1590909E+00  0.2954545E+00  0.2272727E-01  0.2253944E-02
    1       -2.209000   1.000000
    2       13.345302   0.000000
    3       13.748533   0.000000
    4       18.181547   0.000000
    5       21.366121   0.000000
    6       22.188167   0.000000
    7       25.964534   0.000000
    8       27.186107   0.000000
 
 -0.3409091E+00  0.3409091E+00  0.2272727E-01  0.2253944E-02
    1       -0.774275   1.000000
    2        8.580656   1.000000
    3       15.866292   0.000000
    4       18.425415   0.000000
    5       18.430135   0.000000
    6       20.571685   0.000000
    7       27.125613   0.000000
    8       29.153654   0.000000
 
 -0.2954545E+00  0.3409091E+00  0.2272727E-01  0.4507889E-02
    1       -1.147495   1.000000
    2        9.516911   1.000000
    3       15.313365   0.000000
    4       17.856157   0.000000
    5       19.496483   0.000000
    6       21.475457   0.000000
    7       25.876571   0.000000
    8       29.557368   0.000000
 
 -0.2500000E+00  0.3409091E+00  0.2272727E-01  0.4507889E-02
    1       -1.396664   1.000000
    2       10.556619   0.000000
    3       14.186485   0.000000
    4       17.710614   0.000000
    5       20.310289   0.000000
    6       22.530575   0.000000
    7       25.249615   0.000000
    8       29.390836   0.000000
 
 -0.2045455E+00  0.3409091E+00  0.2272727E-01  0.4507889E-02
    1       -1.521378   1.000000
    2       11.678759   0.000000
    3       12.953013   0.000000
    4       17.667356   0.000000
    5       21.134641   0.000000
    6       22.321728   0.000000
    7       26.149815   0.000000
    8       28.160626   0.000000
 
 -0.3863636E+00  0.3863636E+00  0.2272727E-01  0.2253944E-02
    1        0.217155   1.000000
    2        6.921140   1.000000
    3       15.544929   0.000000
    4       18.077447   0.000000
    5       18.142396   0.000000
    6       20.260124   0.000000
    7       27.930737   0.000000
    8       29.911102   0.000000
 
 -0.3409091E+00  0.3863636E+00  0.2272727E-01  0.4507889E-02
    1       -0.215776   1.000000
    2        7.811226   1.000000
    3       14.929675   0.000000
    4       17.497561   0.000000
    5       19.118207   0.000000
    6       21.186146   0.000000
    7       26.603098   0.000000
    8       30.225960   0.000000
 
 -0.2954545E+00  0.3863636E+00  0.2272727E-01  0.4507889E-02
    1       -0.525648   1.000000
    2        8.811548   1.000000
    3       13.735676   0.000000
    4       17.307090   0.000000
    5       19.895017   0.000000
    6       22.501185   0.000000
    7       25.645052   0.000000
    8       30.197279   0.000000
 
 -0.2500000E+00  0.3863636E+00  0.2272727E-01  0.4507889E-02
    1       -0.711791   1.000000
    2        9.913670   0.156485
    3       12.425279   0.000000
    4       17.224689   0.000000
    5       20.753716   0.000000
    6       22.723795   0.000000
    7       26.068282   0.000000
    8       29.344544   0.000000
 
 -0.2045455E+00  0.3863636E+00  0.2272727E-01  0.2253944E-02
    1       -0.773887   1.000000
    2       10.957206   0.000000
    3       11.302553   0.000000
    4       17.196876   0.000000
    5       21.433442   0.000000
    6       22.170658   0.000000
    7       27.272168   0.000000
    8       28.142795   0.000000
 
 -0.4318182E+00  0.4318182E+00  0.2272727E-01  0.2253944E-02
    1        1.324674   1.000000
    2        5.366427   1.000000
    3       15.331010   0.000000
    4       17.844950   0.000000
    5       17.946859   0.000000
    6       20.050998   0.000000
    7       28.801066   0.000000
    8       30.470774   0.000000
 
 -0.3863636E+00  0.4318182E+00  0.2272727E-01  0.4507889E-02
    1        0.833964   1.000000
    2        6.204500   1.000000
    3       14.655166   0.000000
    4       17.237038   0.000000
    5       18.843182   0.000000
    6       20.967818   0.000000
    7       27.448896   0.000000
    8       30.545112   0.000000
 
 -0.3409091E+00  0.4318182E+00  0.2272727E-01  0.4507889E-02
    1        0.464663   1.000000
    2        7.157148   1.000000
    3       13.396915   0.000000
    4       16.997966   0.000000
    5       19.573403   0.000000
    6       22.413066   0.000000
    7       26.279373   0.000000
    8       30.423653   0.000000
 
 -0.2954545E+00  0.4318182E+00  0.2272727E-01  0.4507889E-02
    1        0.217944   1.000000
    2        8.219700   1.000000
    3       12.019477   0.000000
    4       16.869092   0.000000
    5       20.409657   0.000000
    6       23.151986   0.000000
    7       26.097980   0.000000
    8       29.961440   0.000000
 
 -0.2500000E+00  0.4318182E+00  0.2272727E-01  0.4507889E-02
    1        0.094452   1.000000
    2        9.377821   1.000000
    3       10.686723   0.000000
    4       16.802100   0.000000
    5       21.316203   0.000000
    6       22.562746   0.000000
    7       27.377047   0.000000
    8       28.928146   0.000000
 
 -0.4772727E+00  0.4772727E+00  0.2272727E-01  0.2253944E-02
    1        2.532781   1.000000
    2        3.934028   1.000000
    3       15.224063   0.000000
    4       17.729248   0.000000
    5       17.847983   0.000000
    6       19.945492   0.000000
    7       29.648818   0.000000
    8       30.455267   0.000000
 
 -0.4318182E+00  0.4772727E+00  0.2272727E-01  0.4507889E-02
    1        1.995973   1.000000
    2        4.706943   1.000000
    3       14.490154   0.000000
    4       17.078930   0.000000
    5       18.676399   0.000000
    6       20.832238   0.000000
    7       28.371930   0.000000
    8       30.186489   0.000000
 
 -0.3863636E+00  0.4772727E+00  0.2272727E-01  0.4507889E-02
    1        1.570900   1.000000
    2        5.605656   1.000000
    3       13.170447   0.000000
    4       16.789090   0.000000
    5       19.354614   0.000000
    6       22.323553   0.000000
    7       27.089601   0.000000
    8       29.928264   0.000000
 
 -0.3409091E+00  0.4772727E+00  0.2272727E-01  0.4507889E-02
    1        1.265488   1.000000
    2        6.620172   1.000000
    3       11.730728   0.000000
    4       16.610593   0.000000
    5       20.151667   0.000000
    6       23.475843   0.000000
    7       26.387787   0.000000
    8       29.661973   0.000000
 
 -0.2954545E+00  0.4772727E+00  0.2272727E-01  0.4507889E-02
    1        1.081739   1.000000
    2        7.743433   1.000000
    3       10.326777   0.000000
    4       16.497068   0.000000
    5       21.071166   0.000000
    6       23.223507   0.000000
    7       27.133504   0.000000
    8       29.306768   0.000000
 
 -0.2500000E+00  0.4772727E+00  0.2272727E-01  0.2253944E-02
    1        1.020419   1.000000
    2        8.830377   1.000000
    3        9.143577   1.000000
    4       16.457730   0.000000
    5       21.803480   0.000000
    6       22.543546   0.000000
    7       28.085028   0.000000
    8       28.824940   0.000000
 
 -0.4772727E+00 -0.4772727E+00  0.2272727E-01  0.2253944E-02
    1        3.094321   1.000000
    2        3.496435   1.000000
    3       14.435020   0.000000
    4       17.025968   0.000000
    5       18.620795   0.000000
    6       20.786007   0.000000
    7       29.193150   0.000000
    8       29.475190   0.000000
 
 -0.4318182E+00 -0.4772727E+00  0.2272727E-01  0.4507889E-02
    1        2.778058   1.000000
    2        4.175015   1.000000
    3       13.057341   0.000000
    4       16.684144   0.000000
    5       19.244547   0.000000
    6       22.270592   0.000000
    7       28.003030   0.000000
    8       29.055387   0.000000
 
 -0.3863636E+00 -0.4772727E+00  0.2272727E-01  0.4507889E-02
    1        2.425269   1.000000
    2        5.127249   1.000000
    3       11.557314   0.000000
    4       16.453949   0.000000
    5       19.994139   0.000000
    6       23.645248   0.000000
    7       26.947286   0.000000
    8       28.880730   0.000000
 
 -0.3409091E+00 -0.4772727E+00  0.2272727E-01  0.4507889E-02
    1        2.184623   1.000000
    2        6.201442   1.000000
    3       10.090161   0.000000
    4       16.290294   0.000000
    5       20.883399   0.000000
    6       23.913427   0.000000
    7       26.865183   0.000000
    8       28.995400   0.000000
 
 -0.2954545E+00 -0.4772727E+00  0.2272727E-01  0.4507889E-02
    1        2.063556   1.000000
    2        7.379228   1.000000
    3        8.710347   1.000000
    4       16.204653   0.000000
    5       21.824368   0.000000
    6       23.135832   0.000000
    7       27.292423   0.000000
    8       29.535071   0.000000
 
 -0.4318182E+00 -0.4318182E+00  0.2272727E-01  0.2253944E-02
    1        3.526035   1.000000
    2        3.915020   1.000000
    3       11.499228   0.000000
    4       16.401202   0.000000
    5       19.940552   0.000000
    6       23.692060   0.000000
    7       27.452314   0.000000
    8       28.281930   0.000000
 
 -0.3863636E+00 -0.4318182E+00  0.2272727E-01  0.4507889E-02
    1        3.388884   1.000000
    2        4.776281   1.000000
    3        9.972301   0.003823
    4       16.186069   0.000000
    5       20.785578   0.000000
    6       24.426835   0.000000
    7       26.629915   0.000000
    8       28.648697   0.000000
 
 -0.3409091E+00 -0.4318182E+00  0.2272727E-01  0.4507889E-02
    1        3.218446   1.000000
    2        5.902221   1.000000
    3        8.525012   1.000000
    4       16.050328   0.000000
    5       21.728249   0.000000
    6       23.963402   0.000000
    7       26.364165   0.000000
    8       29.757457   0.000000
 
 -0.2954545E+00 -0.4318182E+00  0.2272727E-01  0.2253944E-02
    1        3.159836   1.000000
    2        7.008839   1.000000
    3        7.312047   1.000000
    4       16.004241   0.000000
    5       22.448912   0.000000
    6       23.283202   0.000000
    7       26.340698   0.000000
    8       30.613003   0.000000
 
 -0.3863636E+00 -0.3863636E+00  0.2272727E-01  0.2253944E-02
    1        4.319853   1.000000
    2        4.692032   1.000000
    3        8.464396   1.000000
    4       15.998518   0.000000
    5       21.689716   0.000000
    6       24.517523   0.000000
    7       25.776960   0.000000
    8       29.787778   0.000000
 
 -0.3409091E+00 -0.3863636E+00  0.2272727E-01  0.4507889E-02
    1        4.355783   1.000000
    2        5.725731   1.000000
    3        7.060756   1.000000
    4       15.902074   0.000000
    5       22.596514   0.000000
    6       23.988356   0.000000
    7       25.310936   0.000000
    8       31.225224   0.000000
 