Automatically generated mesh
     322
Reciprocal lattice
    0.02272727272727    0.02272727272727    0.02272727272727             8
    0.06818181818182    0.02272727272727    0.02272727272727            24
    0.11363636363637    0.02272727272727    0.02272727272727            24
    0.15909090909091    0.02272727272727    0.02272727272727            24
    0.20454545454545    0.02272727272727    0.02272727272727            24
    0.25000000000000    0.02272727272727    0.02272727272727            24
    0.29545454545455    0.02272727272727    0.02272727272727            24
    0.34090909090909    0.02272727272727    0.02272727272727            24
    0.38636363636363    0.02272727272727    0.02272727272727            24
    0.43181818181818    0.02272727272727    0.02272727272727            24
    0.47727272727273    0.02272727272727    0.02272727272727            12
   -0.02272727272727    0.02272727272727    0.02272727272727             6
    0.06818181818182    0.06818181818182    0.02272727272727            24
    0.11363636363637    0.06818181818182    0.02272727272727            48
    0.15909090909091    0.06818181818182    0.02272727272727            48
    0.20454545454545    0.06818181818182    0.02272727272727            48
    0.25000000000000    0.06818181818182    0.02272727272727            48
    0.29545454545455    0.06818181818182    0.02272727272727            48
    0.34090909090909    0.06818181818182    0.02272727272727            48
    0.38636363636363    0.06818181818182    0.02272727272727            48
    0.43181818181818    0.06818181818182    0.02272727272727            48
   -0.06818181818182    0.06818181818182    0.02272727272727            24
    0.11363636363637    0.11363636363637    0.02272727272727            24
    0.15909090909091    0.11363636363637    0.02272727272727            48
    0.20454545454545    0.11363636363637    0.02272727272727            48
    0.25000000000000    0.11363636363637    0.02272727272727            48
    0.29545454545455    0.11363636363637    0.02272727272727            48
    0.34090909090909    0.11363636363637    0.02272727272727            48
    0.38636363636363    0.11363636363637    0.02272727272727            48
    0.43181818181818    0.11363636363637    0.02272727272727            24
   -0.11363636363637    0.11363636363637    0.02272727272727            24
   -0.06818181818182    0.11363636363637    0.02272727272727            24
    0.15909090909091    0.15909090909091    0.02272727272727            24
    0.20454545454545    0.15909090909091    0.02272727272727            48
    0.25000000000000    0.15909090909091    0.02272727272727            48
    0.29545454545455    0.15909090909091    0.02272727272727            48
    0.34090909090909    0.15909090909091    0.02272727272727            48
    0.38636363636363    0.15909090909091    0.02272727272727            48
   -0.15909090909091    0.15909090909091    0.02272727272727            24
   -0.11363636363637    0.15909090909091    0.02272727272727            48
    0.20454545454545    0.20454545454545    0.02272727272727            24
    0.25000000000000    0.20454545454545    0.02272727272727            48
    0.29545454545455    0.20454545454545    0.02272727272727            48
    0.34090909090909    0.20454545454545    0.02272727272727            48
    0.38636363636363    0.20454545454545    0.02272727272727            24
   -0.20454545454545    0.20454545454545    0.02272727272727            24
   -0.15909090909091    0.20454545454545    0.02272727272727            48
   -0.11363636363637    0.20454545454545    0.02272727272727            24
    0.25000000000000    0.25000000000000    0.02272727272727            24
    0.29545454545455    0.25000000000000    0.02272727272727            48
    0.34090909090909    0.25000000000000    0.02272727272727            48
   -0.25000000000000    0.25000000000000    0.02272727272727            24
   -0.20454545454545    0.25000000000000    0.02272727272727            48
   -0.15909090909091    0.25000000000000    0.02272727272727            48
    0.29545454545455    0.29545454545455    0.02272727272727            24
    0.34090909090909    0.29545454545455    0.02272727272727            24
   -0.29545454545455    0.29545454545455    0.02272727272727            24
   -0.25000000000000    0.29545454545455    0.02272727272727            48
   -0.20454545454545    0.29545454545455    0.02272727272727            48
   -0.15909090909091    0.29545454545455    0.02272727272727            24
   -0.34090909090909    0.34090909090909    0.02272727272727            24
   -0.29545454545455    0.34090909090909    0.02272727272727            48
   -0.25000000000000    0.34090909090909    0.02272727272727            48
   -0.20454545454545    0.34090909090909    0.02272727272727            48
   -0.38636363636363    0.38636363636363    0.02272727272727            24
   -0.34090909090909    0.38636363636363    0.02272727272727            48
   -0.29545454545455    0.38636363636363    0.02272727272727            48
   -0.25000000000000    0.38636363636363    0.02272727272727            48
   -0.20454545454545    0.38636363636363    0.02272727272727            24
   -0.43181818181818    0.43181818181818    0.02272727272727            24
   -0.38636363636363    0.43181818181818    0.02272727272727            48
   -0.34090909090909    0.43181818181818    0.02272727272727            48
   -0.29545454545455    0.43181818181818    0.02272727272727            48
   -0.25000000000000    0.43181818181818    0.02272727272727            48
   -0.47727272727273    0.47727272727273    0.02272727272727            24
   -0.43181818181818    0.47727272727273    0.02272727272727            48
   -0.38636363636363    0.47727272727273    0.02272727272727            48
   -0.34090909090909    0.47727272727273    0.02272727272727            48
   -0.29545454545455    0.47727272727273    0.02272727272727            48
   -0.25000000000000    0.47727272727273    0.02272727272727            24
   -0.47727272727273   -0.47727272727273    0.02272727272727            24
   -0.43181818181818   -0.47727272727273    0.02272727272727            48
   -0.38636363636363   -0.47727272727273    0.02272727272727            48
   -0.34090909090909   -0.47727272727273    0.02272727272727            48
   -0.29545454545455   -0.47727272727273    0.02272727272727            48
   -0.43181818181818   -0.43181818181818    0.02272727272727            24
   -0.38636363636363   -0.43181818181818    0.02272727272727            48
   -0.34090909090909   -0.43181818181818    0.02272727272727            48
   -0.29545454545455   -0.43181818181818    0.02272727272727            24
   -0.38636363636363   -0.38636363636363    0.02272727272727            24
   -0.34090909090909   -0.38636363636363    0.02272727272727            48
   -0.34090909090909   -0.34090909090909    0.02272727272727             8
    0.06818181818182    0.06818181818182    0.06818181818182             8
    0.11363636363637    0.06818181818182    0.06818181818182            24
    0.15909090909091    0.06818181818182    0.06818181818182            24
    0.20454545454545    0.06818181818182    0.06818181818182            24
    0.25000000000000    0.06818181818182    0.06818181818182            24
    0.29545454545455    0.06818181818182    0.06818181818182            24
    0.34090909090909    0.06818181818182    0.06818181818182            24
    0.38636363636363    0.06818181818182    0.06818181818182            24
    0.43181818181818    0.06818181818182    0.06818181818182            12
   -0.06818181818182    0.06818181818182    0.06818181818182             6
    0.11363636363637    0.11363636363637    0.06818181818182            24
    0.15909090909091    0.11363636363637    0.06818181818182            48
    0.20454545454545    0.11363636363637    0.06818181818182            48
    0.25000000000000    0.11363636363637    0.06818181818182            48
    0.29545454545455    0.11363636363637    0.06818181818182            48
    0.34090909090909    0.11363636363637    0.06818181818182            48
    0.38636363636363    0.11363636363637    0.06818181818182            48
   -0.11363636363637    0.11363636363637    0.06818181818182            24
    0.15909090909091    0.15909090909091    0.06818181818182            24
    0.20454545454545    0.15909090909091    0.06818181818182            48
    0.25000000000000    0.15909090909091    0.06818181818182            48
    0.29545454545455    0.15909090909091    0.06818181818182            48
    0.34090909090909    0.15909090909091    0.06818181818182            48
    0.38636363636363    0.15909090909091    0.06818181818182            24
   -0.15909090909091    0.15909090909091    0.06818181818182            24
   -0.11363636363637    0.15909090909091    0.06818181818182            24
    0.20454545454545    0.20454545454545    0.06818181818182            24
    0.25000000000000    0.20454545454545    0.06818181818182            48
    0.29545454545455    0.20454545454545    0.06818181818182            48
    0.34090909090909    0.20454545454545    0.06818181818182            48
   -0.20454545454545    0.20454545454545    0.06818181818182            24
   -0.15909090909091    0.20454545454545    0.06818181818182            48
    0.25000000000000    0.25000000000000    0.06818181818182            24
    0.29545454545455    0.25000000000000    0.06818181818182            48
    0.34090909090909    0.25000000000000    0.06818181818182            24
   -0.25000000000000    0.25000000000000    0.06818181818182            24
   -0.20454545454545    0.25000000000000    0.06818181818182            48
   -0.15909090909091    0.25000000000000    0.06818181818182            24
    0.29545454545455    0.29545454545455    0.06818181818182            24
   -0.29545454545455    0.29545454545455    0.06818181818182            24
   -0.25000000000000    0.29545454545455    0.06818181818182            48
   -0.20454545454545    0.29545454545455    0.06818181818182            48
   -0.34090909090909    0.34090909090909    0.06818181818182            24
   -0.29545454545455    0.34090909090909    0.06818181818182            48
   -0.25000000000000    0.34090909090909    0.06818181818182            48
   -0.20454545454545    0.34090909090909    0.06818181818182            24
   -0.38636363636363    0.38636363636363    0.06818181818182            24
   -0.34090909090909    0.38636363636363    0.06818181818182            48
   -0.29545454545455    0.38636363636363    0.06818181818182            48
   -0.25000000000000    0.38636363636363    0.06818181818182            48
   -0.43181818181818    0.43181818181818    0.06818181818182            24
   -0.38636363636363    0.43181818181818    0.06818181818182            48
   -0.34090909090909    0.43181818181818    0.06818181818182            48
   -0.29545454545455    0.43181818181818    0.06818181818182            48
   -0.25000000000000    0.43181818181818    0.06818181818182            24
   -0.47727272727273    0.47727272727273    0.06818181818182            24
   -0.43181818181818    0.47727272727273    0.06818181818182            48
   -0.38636363636363    0.47727272727273    0.06818181818182            48
   -0.34090909090909    0.47727272727273    0.06818181818182            48
   -0.29545454545455    0.47727272727273    0.06818181818182            48
   -0.47727272727273   -0.47727272727273    0.06818181818182            24
   -0.43181818181818   -0.47727272727273    0.06818181818182            48
   -0.38636363636363   -0.47727272727273    0.06818181818182            48
   -0.34090909090909   -0.47727272727273    0.06818181818182            48
   -0.29545454545455   -0.47727272727273    0.06818181818182            24
   -0.43181818181818   -0.43181818181818    0.06818181818182            24
   -0.38636363636363   -0.43181818181818    0.06818181818182            48
   -0.34090909090909   -0.43181818181818    0.06818181818182            48
   -0.38636363636363   -0.38636363636363    0.06818181818182            24
   -0.34090909090909   -0.38636363636363    0.06818181818182            24
    0.11363636363637    0.11363636363637    0.11363636363637             8
    0.15909090909091    0.11363636363637    0.11363636363637            24
    0.20454545454545    0.11363636363637    0.11363636363637            24
    0.25000000000000    0.11363636363637    0.11363636363637            24
    0.29545454545455    0.11363636363637    0.11363636363637            24
    0.34090909090909    0.11363636363637    0.11363636363637            24
    0.38636363636363    0.11363636363637    0.11363636363637            12
   -0.11363636363637    0.11363636363637    0.11363636363637             6
    0.15909090909091    0.15909090909091    0.11363636363637            24
    0.20454545454545    0.15909090909091    0.11363636363637            48
    0.25000000000000    0.15909090909091    0.11363636363637            48
    0.29545454545455    0.15909090909091    0.11363636363637            48
    0.34090909090909    0.15909090909091    0.11363636363637            48
   -0.15909090909091    0.15909090909091    0.11363636363637            24
    0.20454545454545    0.20454545454545    0.11363636363637            24
    0.25000000000000    0.20454545454545    0.11363636363637            48
    0.29545454545455    0.20454545454545    0.11363636363637            48
    0.34090909090909    0.20454545454545    0.11363636363637            24
   -0.20454545454545    0.20454545454545    0.11363636363637            24
   -0.15909090909091    0.20454545454545    0.11363636363637            24
    0.25000000000000    0.25000000000000    0.11363636363637            24
    0.29545454545455    0.25000000000000    0.11363636363637            48
   -0.25000000000000    0.25000000000000    0.11363636363637            24
   -0.20454545454545    0.25000000000000    0.11363636363637            48
    0.29545454545455    0.29545454545455    0.11363636363637             8
   -0.29545454545455    0.29545454545455    0.11363636363637            24
   -0.25000000000000    0.29545454545455    0.11363636363637            48
   -0.20454545454545    0.29545454545455    0.11363636363637            24
   -0.34090909090909    0.34090909090909    0.11363636363637            24
   -0.29545454545455    0.34090909090909    0.11363636363637            48
   -0.25000000000000    0.34090909090909    0.11363636363637            48
   -0.38636363636363    0.38636363636363    0.11363636363637            24
   -0.34090909090909    0.38636363636363    0.11363636363637            48
   -0.29545454545455    0.38636363636363    0.11363636363637            48
   -0.25000000000000    0.38636363636363    0.11363636363637            24
   -0.43181818181818    0.43181818181818    0.11363636363637            24
   -0.38636363636363    0.43181818181818    0.11363636363637            48
   -0.34090909090909    0.43181818181818    0.11363636363637            48
   -0.29545454545455    0.43181818181818    0.11363636363637            48
   -0.47727272727273    0.47727272727273    0.11363636363637            24
   -0.43181818181818    0.47727272727273    0.11363636363637            48
   -0.38636363636363    0.47727272727273    0.11363636363637            48
   -0.34090909090909    0.47727272727273    0.11363636363637            48
   -0.29545454545455    0.47727272727273    0.11363636363637            24
   -0.47727272727273   -0.47727272727273    0.11363636363637            24
   -0.43181818181818   -0.47727272727273    0.11363636363637            48
   -0.38636363636363   -0.47727272727273    0.11363636363637            48
   -0.34090909090909   -0.47727272727273    0.11363636363637            48
   -0.43181818181818   -0.43181818181818    0.11363636363637            24
   -0.38636363636363   -0.43181818181818    0.11363636363637            48
   -0.34090909090909   -0.43181818181818    0.11363636363637            24
   -0.38636363636363   -0.38636363636363    0.11363636363637            24
    0.15909090909091    0.15909090909091    0.15909090909091             8
    0.20454545454545    0.15909090909091    0.15909090909091            24
    0.25000000000000    0.15909090909091    0.15909090909091            24
    0.29545454545455    0.15909090909091    0.15909090909091            24
    0.34090909090909    0.15909090909091    0.15909090909091            12
   -0.15909090909091    0.15909090909091    0.15909090909091             6
    0.20454545454545    0.20454545454545    0.15909090909091            24
    0.25000000000000    0.20454545454545    0.15909090909091            48
    0.29545454545455    0.20454545454545    0.15909090909091            48
   -0.20454545454545    0.20454545454545    0.15909090909091            24
    0.25000000000000    0.25000000000000    0.15909090909091            24
    0.29545454545455    0.25000000000000    0.15909090909091            24
   -0.25000000000000    0.25000000000000    0.15909090909091            24
   -0.20454545454545    0.25000000000000    0.15909090909091            24
   -0.29545454545455    0.29545454545455    0.15909090909091            24
   -0.25000000000000    0.29545454545455    0.15909090909091            48
   -0.34090909090909    0.34090909090909    0.15909090909091            24
   -0.29545454545455    0.34090909090909    0.15909090909091            48
   -0.25000000000000    0.34090909090909    0.15909090909091            24
   -0.38636363636363    0.38636363636363    0.15909090909091            24
   -0.34090909090909    0.38636363636363    0.15909090909091            48
   -0.29545454545455    0.38636363636363    0.15909090909091            48
   -0.43181818181818    0.43181818181818    0.15909090909091            24
   -0.38636363636363    0.43181818181818    0.15909090909091            48
   -0.34090909090909    0.43181818181818    0.15909090909091            48
   -0.29545454545455    0.43181818181818    0.15909090909091            24
   -0.47727272727273    0.47727272727273    0.15909090909091            24
   -0.43181818181818    0.47727272727273    0.15909090909091            48
   -0.38636363636363    0.47727272727273    0.15909090909091            48
   -0.34090909090909    0.47727272727273    0.15909090909091            48
   -0.47727272727273   -0.47727272727273    0.15909090909091            24
   -0.43181818181818   -0.47727272727273    0.15909090909091            48
   -0.38636363636363   -0.47727272727273    0.15909090909091            48
   -0.34090909090909   -0.47727272727273    0.15909090909091            24
   -0.43181818181818   -0.43181818181818    0.15909090909091            24
   -0.38636363636363   -0.43181818181818    0.15909090909091            48
   -0.38636363636363   -0.38636363636363    0.15909090909091             8
    0.20454545454545    0.20454545454545    0.20454545454545             8
    0.25000000000000    0.20454545454545    0.20454545454545            24
    0.29545454545455    0.20454545454545    0.20454545454545            12
   -0.20454545454545    0.20454545454545    0.20454545454545             6
    0.25000000000000    0.25000000000000    0.20454545454545            24
   -0.25000000000000    0.25000000000000    0.20454545454545            24
   -0.29545454545455    0.29545454545455    0.20454545454545            24
   -0.25000000000000    0.29545454545455    0.20454545454545            24
   -0.34090909090909    0.34090909090909    0.20454545454545            24
   -0.29545454545455    0.34090909090909    0.20454545454545            48
   -0.38636363636363    0.38636363636363    0.20454545454545            24
   -0.34090909090909    0.38636363636363    0.20454545454545            48
   -0.29545454545455    0.38636363636363    0.20454545454545            24
   -0.43181818181818    0.43181818181818    0.20454545454545            24
   -0.38636363636363    0.43181818181818    0.20454545454545            48
   -0.34090909090909    0.43181818181818    0.20454545454545            48
   -0.47727272727273    0.47727272727273    0.20454545454545            24
   -0.43181818181818    0.47727272727273    0.20454545454545            48
   -0.38636363636363    0.47727272727273    0.20454545454545            48
   -0.34090909090909    0.47727272727273    0.20454545454545            24
   -0.47727272727273   -0.47727272727273    0.20454545454545            24
   -0.43181818181818   -0.47727272727273    0.20454545454545            48
   -0.38636363636363   -0.47727272727273    0.20454545454545            48
   -0.43181818181818   -0.43181818181818    0.20454545454545            24
   -0.38636363636363   -0.43181818181818    0.20454545454545            24
    0.25000000000000    0.25000000000000    0.25000000000000             2
   -0.25000000000000    0.25000000000000    0.25000000000000             6
   -0.29545454545455    0.29545454545455    0.25000000000000            24
   -0.34090909090909    0.34090909090909    0.25000000000000            24
   -0.29545454545455    0.34090909090909    0.25000000000000            24
   -0.38636363636363    0.38636363636363    0.25000000000000            24
   -0.34090909090909    0.38636363636363    0.25000000000000            48
   -0.43181818181818    0.43181818181818    0.25000000000000            24
   -0.38636363636363    0.43181818181818    0.25000000000000            48
   -0.34090909090909    0.43181818181818    0.25000000000000            24
   -0.47727272727273    0.47727272727273    0.25000000000000            24
   -0.43181818181818    0.47727272727273    0.25000000000000            48
   -0.38636363636363    0.47727272727273    0.25000000000000            48
   -0.47727272727273   -0.47727272727273    0.25000000000000            24
   -0.43181818181818   -0.47727272727273    0.25000000000000            48
   -0.38636363636363   -0.47727272727273    0.25000000000000            24
   -0.43181818181818   -0.43181818181818    0.25000000000000            24
   -0.29545454545455    0.29545454545455    0.29545454545455             6
   -0.34090909090909    0.34090909090909    0.29545454545455            24
   -0.38636363636363    0.38636363636363    0.29545454545455            24
   -0.34090909090909    0.38636363636363    0.29545454545455            24
   -0.43181818181818    0.43181818181818    0.29545454545455            24
   -0.38636363636363    0.43181818181818    0.29545454545455            48
   -0.47727272727273    0.47727272727273    0.29545454545455            24
   -0.43181818181818    0.47727272727273    0.29545454545455            48
   -0.38636363636363    0.47727272727273    0.29545454545455            24
   -0.47727272727273   -0.47727272727273    0.29545454545455            24
   -0.43181818181818   -0.47727272727273    0.29545454545455            48
   -0.43181818181818   -0.43181818181818    0.29545454545455             8
   -0.34090909090909    0.34090909090909    0.34090909090909             6
   -0.38636363636363    0.38636363636363    0.34090909090909            24
   -0.43181818181818    0.43181818181818    0.34090909090909            24
   -0.38636363636363    0.43181818181818    0.34090909090909            24
   -0.47727272727273    0.47727272727273    0.34090909090909            24
   -0.43181818181818    0.47727272727273    0.34090909090909            48
   -0.47727272727273   -0.47727272727273    0.34090909090909            24
   -0.43181818181818   -0.47727272727273    0.34090909090909            24
   -0.38636363636363    0.38636363636363    0.38636363636363             6
   -0.43181818181818    0.43181818181818    0.38636363636363            24
   -0.47727272727273    0.47727272727273    0.38636363636363            24
   -0.43181818181818    0.47727272727273    0.38636363636363            24
   -0.47727272727273   -0.47727272727273    0.38636363636363            24
   -0.43181818181818    0.43181818181818    0.43181818181818             6
   -0.47727272727273    0.47727272727273    0.43181818181818            24
   -0.47727272727273   -0.47727272727273    0.43181818181818             8
   -0.47727272727273    0.47727272727273    0.47727272727273             6
