 vasp.6.2.0 18Jan21 (build Aug 12 2022 13:00:08) complex                        
  
 executed on             LinuxIFC date 2024.11.03  21:55:13
 running on    4 total cores
 distrk:  each k-point on    4 cores,    1 groups
 distr:  one band on NCORE=   1 cores,    4 groups


--------------------------------------------------------------------------------------------------------


 INCAR:
   ISTART = 0            (Read existing wavefunction, if there)
   ISPIN = 1            (Non-Spin polarised DFT)
   LREAL = .FALSE.       (Projection operators: automatic)
   LWAVE = .FALSE.        (Write WAVECAR or not)
   LCHARG = .FALSE.        (Write CHGCAR or not)
   ADDGRID = .TRUE.        (Increase grid, helps GGA convergence)
   LASPH = .TRUE.        (Give more accurate total energies and band structure calculations)
   PREC = Accurate      (Accurate strictly avoids any aliasing or wrap around errors)
   ENCUT = 350          (Cut-off energy for plane wave basis set, in eV)
   ISMEAR = 0            (Gaussian smearing, metals:1)
   SIGMA = 0.05         (Smearing value in eV, metals:0.2)
   NELM = 90           (Max electronic SCF steps)
   NELMIN = 6            (Min electronic SCF steps)
   EDIFF = 1E-06        (SCF energy convergence, in eV)
   NSW = 100          (Max ionic steps)
   IBRION = 2            (Algorithm: 0-MD, 1-Quasi-New, 2-CG)
   ISIF = 3            (Stress/relaxation: 2-Ions, 3-Shape/Ions/V, 4-Shape/Ions)
   EDIFFG = -2E-03        (Ionic convergence, eV/AA)
   ISYM = 2              (Symmetry: 0\=none, 2\=GGA, 3\=hybrids)

 POTCAR:    PAW_PBE Si 05Jan2001                  
 POTCAR:    PAW_PBE Si 05Jan2001                  
   VRHFIN =Si: s2p2                                                                                 
   LEXCH  = PE                                                                                      
   EATOM  =   103.0669 eV,    7.5752 Ry                                                             
                                                                                                    
   TITEL  = PAW_PBE Si 05Jan2001                                                                    
   LULTRA =        F    use ultrasoft PP ?                                                          
   IUNSCR =        1    unscreen: 0-lin 1-nonlin 2-no                                               
   RPACOR =    1.500    partial core radius                                                         
   POMASS =   28.085; ZVAL   =    4.000    mass and valenz                                          
   RCORE  =    1.900    outmost cutoff radius                                                       
   RWIGS  =    2.480; RWIGS  =    1.312    wigner-seitz radius (au A)                               
   ENMAX  =  245.345; ENMIN  =  184.009 eV                                                          
   ICORE  =        2    local potential                                                             
   LCOR   =        T    correct aug charges                                                         
   LPAW   =        T    paw PP                                                                      
   EAUG   =  322.069                                                                                
   DEXC   =    0.000                                                                                
   RMAX   =    1.950    core radius for proj-oper                                                   
   RAUG   =    1.300    factor for augmentation sphere                                              
   RDEP   =    1.993    radius for radial grids                                                     
   RDEPT  =    1.837    core radius for aug-charge                                                  
                                                                                                    
   Atomic configuration                                                                             
    6 entries                                                                                       
     n  l   j            E        occ.                                                              
     1  0  0.50     -1785.8828   2.0000                                                             
     2  0  0.50      -139.4969   2.0000                                                             
     2  1  1.50       -95.5546   6.0000                                                             
     3  0  0.50       -10.8127   2.0000                                                             
     3  1  0.50        -4.0811   2.0000                                                             
     3  2  1.50        -4.0817   0.0000                                                             
   Description                                                                                      
     l       E           TYP  RCUT    TYP  RCUT                                                     
     0    -10.8127223     23  1.900                                                                 
     0     -7.6451159     23  1.900                                                                 
     1     -4.0811372     23  1.900                                                                 
     1      2.4879257     23  1.900                                                                 
     2     -4.0817478      7  1.900                                                                 
  local pseudopotential read in
  partial core-charges read in
  partial kinetic energy density read in
  atomic valenz-charges read in
  non local Contribution for L=           0  read in
    real space projection operators read in
  non local Contribution for L=           0  read in
    real space projection operators read in
  non local Contribution for L=           1  read in
    real space projection operators read in
  non local Contribution for L=           1  read in
    real space projection operators read in
    PAW grid and wavefunctions read in
 
   number of l-projection  operators is LMAX  =           4
   number of lm-projection operators is LMMAX =           8
 
  PAW_PBE Si 05Jan2001                  :
 energy of atom  1       EATOM= -103.0669
 kinetic energy error for atom=    0.0013 (will be added to EATOM!!)
 
 
 POSCAR: Si1
  positions in direct lattice
  No initial velocities read in
 exchange correlation table for  LEXCH =        8
   RHO(1)=    0.500       N(1)  =     2000
   RHO(2)=  100.500       N(2)  =     4000
 


--------------------------------------------------------------------------------------------------------


 ion  position               nearest neighbor table
   1  0.000  0.000  0.000-
 
  LATTYP: Found a body centered cubic cell.
 ALAT       =     3.0266512600
  
  Lattice vectors:
  
 A1 = (   1.5133256300,   1.5133256300,   1.5133256300)
 A2 = (   1.5133256300,  -1.5133256300,  -1.5133256300)
 A3 = (  -1.5133256300,   1.5133256300,  -1.5133256300)


Analysis of symmetry for initial positions (statically):
=====================================================================
 Subroutine PRICEL returns:
 Original cell was already a primitive cell.
 

 Routine SETGRP: Setting up the symmetry group for a 
 body centered cubic supercell.


 Subroutine GETGRP returns: Found 48 space group operations
 (whereof 48 operations were pure point group operations)
 out of a pool of 48 trial point group operations.


The static configuration has the point symmetry O_h .


Analysis of symmetry for dynamics (positions and initial velocities):
=====================================================================
 Subroutine PRICEL returns:
 Original cell was already a primitive cell.
 

 Routine SETGRP: Setting up the symmetry group for a 
 body centered cubic supercell.


 Subroutine GETGRP returns: Found 48 space group operations
 (whereof 48 operations were pure point group operations)
 out of a pool of 48 trial point group operations.


The dynamic configuration has the point symmetry O_h .


 Subroutine INISYM returns: Found 48 space group operations
 (whereof 48 operations are pure point group operations),
 and found     1 'primitive' translations


----------------------------------------------------------------------------------------

                                     Primitive cell                                     

  volume of cell :      13.8630

  direct lattice vectors                    reciprocal lattice vectors
     1.513325630  1.513325630  1.513325630     0.330398158  0.330398158  0.000000000
     1.513325630 -1.513325630 -1.513325630     0.330398158  0.000000000 -0.330398158
    -1.513325630  1.513325630 -1.513325630     0.000000000  0.330398158 -0.330398158

  length of vectors
     2.621156880  2.621156880  2.621156880     0.467253555  0.467253555  0.467253555

  position of ions in fractional coordinates (direct lattice)
     0.000000000  0.000000000  0.000000000

  ion indices of the primitive-cell ions
   primitive index   ion index
                 1           1

----------------------------------------------------------------------------------------

 
 
 KPOINTS: Automatic                               

Automatic generation of k-mesh.
 Grid dimensions read from file:
 generate k-points for:   22   22   22

 Generating k-lattice:

  Cartesian coordinates                     Fractional coordinates (reciprocal lattice)
     0.015018098  0.015018098  0.000000000     0.045454545  0.000000000  0.000000000
     0.015018098  0.000000000 -0.015018098     0.000000000  0.045454545  0.000000000
     0.000000000  0.015018098 -0.015018098     0.000000000  0.000000000  0.045454545

  Length of vectors
     0.021238798  0.021238798  0.021238798

  Shift w.r.t. Gamma in fractional coordinates (k-lattice)
     0.500000000  0.500000000  0.500000000

 
 Subroutine IBZKPT returns following result:
 ===========================================
 
 Found    322 irreducible k-points:
 
 Following reciprocal coordinates:
            Coordinates               Weight
  0.022727  0.022727  0.022727      8.000000
  0.068182  0.022727  0.022727     24.000000
  0.113636  0.022727  0.022727     24.000000
  0.159091  0.022727  0.022727     24.000000
  0.204545  0.022727  0.022727     24.000000
  0.250000  0.022727  0.022727     24.000000
  0.295455  0.022727  0.022727     24.000000
  0.340909  0.022727  0.022727     24.000000
  0.386364  0.022727  0.022727     24.000000
  0.431818  0.022727  0.022727     24.000000
  0.477273  0.022727  0.022727     12.000000
 -0.022727  0.022727  0.022727      6.000000
  0.068182  0.068182  0.022727     24.000000
  0.113636  0.068182  0.022727     48.000000
  0.159091  0.068182  0.022727     48.000000
  0.204545  0.068182  0.022727     48.000000
  0.250000  0.068182  0.022727     48.000000
  0.295455  0.068182  0.022727     48.000000
  0.340909  0.068182  0.022727     48.000000
  0.386364  0.068182  0.022727     48.000000
  0.431818  0.068182  0.022727     48.000000
 -0.068182  0.068182  0.022727     24.000000
  0.113636  0.113636  0.022727     24.000000
  0.159091  0.113636  0.022727     48.000000
  0.204545  0.113636  0.022727     48.000000
  0.250000  0.113636  0.022727     48.000000
  0.295455  0.113636  0.022727     48.000000
  0.340909  0.113636  0.022727     48.000000
  0.386364  0.113636  0.022727     48.000000
  0.431818  0.113636  0.022727     24.000000
 -0.113636  0.113636  0.022727     24.000000
 -0.068182  0.113636  0.022727     24.000000
  0.159091  0.159091  0.022727     24.000000
  0.204545  0.159091  0.022727     48.000000
  0.250000  0.159091  0.022727     48.000000
  0.295455  0.159091  0.022727     48.000000
  0.340909  0.159091  0.022727     48.000000
  0.386364  0.159091  0.022727     48.000000
 -0.159091  0.159091  0.022727     24.000000
 -0.113636  0.159091  0.022727     48.000000
  0.204545  0.204545  0.022727     24.000000
  0.250000  0.204545  0.022727     48.000000
  0.295455  0.204545  0.022727     48.000000
  0.340909  0.204545  0.022727     48.000000
  0.386364  0.204545  0.022727     24.000000
 -0.204545  0.204545  0.022727     24.000000
 -0.159091  0.204545  0.022727     48.000000
 -0.113636  0.204545  0.022727     24.000000
  0.250000  0.250000  0.022727     24.000000
  0.295455  0.250000  0.022727     48.000000
  0.340909  0.250000  0.022727     48.000000
 -0.250000  0.250000  0.022727     24.000000
 -0.204545  0.250000  0.022727     48.000000
 -0.159091  0.250000  0.022727     48.000000
  0.295455  0.295455  0.022727     24.000000
  0.340909  0.295455  0.022727     24.000000
 -0.295455  0.295455  0.022727     24.000000
 -0.250000  0.295455  0.022727     48.000000
 -0.204545  0.295455  0.022727     48.000000
 -0.159091  0.295455  0.022727     24.000000
 -0.340909  0.340909  0.022727     24.000000
 -0.295455  0.340909  0.022727     48.000000
 -0.250000  0.340909  0.022727     48.000000
 -0.204545  0.340909  0.022727     48.000000
 -0.386364  0.386364  0.022727     24.000000
 -0.340909  0.386364  0.022727     48.000000
 -0.295455  0.386364  0.022727     48.000000
 -0.250000  0.386364  0.022727     48.000000
 -0.204545  0.386364  0.022727     24.000000
 -0.431818  0.431818  0.022727     24.000000
 -0.386364  0.431818  0.022727     48.000000
 -0.340909  0.431818  0.022727     48.000000
 -0.295455  0.431818  0.022727     48.000000
 -0.250000  0.431818  0.022727     48.000000
 -0.477273  0.477273  0.022727     24.000000
 -0.431818  0.477273  0.022727     48.000000
 -0.386364  0.477273  0.022727     48.000000
 -0.340909  0.477273  0.022727     48.000000
 -0.295455  0.477273  0.022727     48.000000
 -0.250000  0.477273  0.022727     24.000000
 -0.477273 -0.477273  0.022727     24.000000
 -0.431818 -0.477273  0.022727     48.000000
 -0.386364 -0.477273  0.022727     48.000000
 -0.340909 -0.477273  0.022727     48.000000
 -0.295455 -0.477273  0.022727     48.000000
 -0.431818 -0.431818  0.022727     24.000000
 -0.386364 -0.431818  0.022727     48.000000
 -0.340909 -0.431818  0.022727     48.000000
 -0.295455 -0.431818  0.022727     24.000000
 -0.386364 -0.386364  0.022727     24.000000
 -0.340909 -0.386364  0.022727     48.000000
 -0.340909 -0.340909  0.022727      8.000000
  0.068182  0.068182  0.068182      8.000000
  0.113636  0.068182  0.068182     24.000000
  0.159091  0.068182  0.068182     24.000000
  0.204545  0.068182  0.068182     24.000000
  0.250000  0.068182  0.068182     24.000000
  0.295455  0.068182  0.068182     24.000000
  0.340909  0.068182  0.068182     24.000000
  0.386364  0.068182  0.068182     24.000000
  0.431818  0.068182  0.068182     12.000000
 -0.068182  0.068182  0.068182      6.000000
  0.113636  0.113636  0.068182     24.000000
  0.159091  0.113636  0.068182     48.000000
  0.204545  0.113636  0.068182     48.000000
  0.250000  0.113636  0.068182     48.000000
  0.295455  0.113636  0.068182     48.000000
  0.340909  0.113636  0.068182     48.000000
  0.386364  0.113636  0.068182     48.000000
 -0.113636  0.113636  0.068182     24.000000
  0.159091  0.159091  0.068182     24.000000
  0.204545  0.159091  0.068182     48.000000
  0.250000  0.159091  0.068182     48.000000
  0.295455  0.159091  0.068182     48.000000
  0.340909  0.159091  0.068182     48.000000
  0.386364  0.159091  0.068182     24.000000
 -0.159091  0.159091  0.068182     24.000000
 -0.113636  0.159091  0.068182     24.000000
  0.204545  0.204545  0.068182     24.000000
  0.250000  0.204545  0.068182     48.000000
  0.295455  0.204545  0.068182     48.000000
  0.340909  0.204545  0.068182     48.000000
 -0.204545  0.204545  0.068182     24.000000
 -0.159091  0.204545  0.068182     48.000000
  0.250000  0.250000  0.068182     24.000000
  0.295455  0.250000  0.068182     48.000000
  0.340909  0.250000  0.068182     24.000000
 -0.250000  0.250000  0.068182     24.000000
 -0.204545  0.250000  0.068182     48.000000
 -0.159091  0.250000  0.068182     24.000000
  0.295455  0.295455  0.068182     24.000000
 -0.295455  0.295455  0.068182     24.000000
 -0.250000  0.295455  0.068182     48.000000
 -0.204545  0.295455  0.068182     48.000000
 -0.340909  0.340909  0.068182     24.000000
 -0.295455  0.340909  0.068182     48.000000
 -0.250000  0.340909  0.068182     48.000000
 -0.204545  0.340909  0.068182     24.000000
 -0.386364  0.386364  0.068182     24.000000
 -0.340909  0.386364  0.068182     48.000000
 -0.295455  0.386364  0.068182     48.000000
 -0.250000  0.386364  0.068182     48.000000
 -0.431818  0.431818  0.068182     24.000000
 -0.386364  0.431818  0.068182     48.000000
 -0.340909  0.431818  0.068182     48.000000
 -0.295455  0.431818  0.068182     48.000000
 -0.250000  0.431818  0.068182     24.000000
 -0.477273  0.477273  0.068182     24.000000
 -0.431818  0.477273  0.068182     48.000000
 -0.386364  0.477273  0.068182     48.000000
 -0.340909  0.477273  0.068182     48.000000
 -0.295455  0.477273  0.068182     48.000000
 -0.477273 -0.477273  0.068182     24.000000
 -0.431818 -0.477273  0.068182     48.000000
 -0.386364 -0.477273  0.068182     48.000000
 -0.340909 -0.477273  0.068182     48.000000
 -0.295455 -0.477273  0.068182     24.000000
 -0.431818 -0.431818  0.068182     24.000000
 -0.386364 -0.431818  0.068182     48.000000
 -0.340909 -0.431818  0.068182     48.000000
 -0.386364 -0.386364  0.068182     24.000000
 -0.340909 -0.386364  0.068182     24.000000
  0.113636  0.113636  0.113636      8.000000
  0.159091  0.113636  0.113636     24.000000
  0.204545  0.113636  0.113636     24.000000
  0.250000  0.113636  0.113636     24.000000
  0.295455  0.113636  0.113636     24.000000
  0.340909  0.113636  0.113636     24.000000
  0.386364  0.113636  0.113636     12.000000
 -0.113636  0.113636  0.113636      6.000000
  0.159091  0.159091  0.113636     24.000000
  0.204545  0.159091  0.113636     48.000000
  0.250000  0.159091  0.113636     48.000000
  0.295455  0.159091  0.113636     48.000000
  0.340909  0.159091  0.113636     48.000000
 -0.159091  0.159091  0.113636     24.000000
  0.204545  0.204545  0.113636     24.000000
  0.250000  0.204545  0.113636     48.000000
  0.295455  0.204545  0.113636     48.000000
  0.340909  0.204545  0.113636     24.000000
 -0.204545  0.204545  0.113636     24.000000
 -0.159091  0.204545  0.113636     24.000000
  0.250000  0.250000  0.113636     24.000000
  0.295455  0.250000  0.113636     48.000000
 -0.250000  0.250000  0.113636     24.000000
 -0.204545  0.250000  0.113636     48.000000
  0.295455  0.295455  0.113636      8.000000
 -0.295455  0.295455  0.113636     24.000000
 -0.250000  0.295455  0.113636     48.000000
 -0.204545  0.295455  0.113636     24.000000
 -0.340909  0.340909  0.113636     24.000000
 -0.295455  0.340909  0.113636     48.000000
 -0.250000  0.340909  0.113636     48.000000
 -0.386364  0.386364  0.113636     24.000000
 -0.340909  0.386364  0.113636     48.000000
 -0.295455  0.386364  0.113636     48.000000
 -0.250000  0.386364  0.113636     24.000000
 -0.431818  0.431818  0.113636     24.000000
 -0.386364  0.431818  0.113636     48.000000
 -0.340909  0.431818  0.113636     48.000000
 -0.295455  0.431818  0.113636     48.000000
 -0.477273  0.477273  0.113636     24.000000
 -0.431818  0.477273  0.113636     48.000000
 -0.386364  0.477273  0.113636     48.000000
 -0.340909  0.477273  0.113636     48.000000
 -0.295455  0.477273  0.113636     24.000000
 -0.477273 -0.477273  0.113636     24.000000
 -0.431818 -0.477273  0.113636     48.000000
 -0.386364 -0.477273  0.113636     48.000000
 -0.340909 -0.477273  0.113636     48.000000
 -0.431818 -0.431818  0.113636     24.000000
 -0.386364 -0.431818  0.113636     48.000000
 -0.340909 -0.431818  0.113636     24.000000
 -0.386364 -0.386364  0.113636     24.000000
  0.159091  0.159091  0.159091      8.000000
  0.204545  0.159091  0.159091     24.000000
  0.250000  0.159091  0.159091     24.000000
  0.295455  0.159091  0.159091     24.000000
  0.340909  0.159091  0.159091     12.000000
 -0.159091  0.159091  0.159091      6.000000
  0.204545  0.204545  0.159091     24.000000
  0.250000  0.204545  0.159091     48.000000
  0.295455  0.204545  0.159091     48.000000
 -0.204545  0.204545  0.159091     24.000000
  0.250000  0.250000  0.159091     24.000000
  0.295455  0.250000  0.159091     24.000000
 -0.250000  0.250000  0.159091     24.000000
 -0.204545  0.250000  0.159091     24.000000
 -0.295455  0.295455  0.159091     24.000000
 -0.250000  0.295455  0.159091     48.000000
 -0.340909  0.340909  0.159091     24.000000
 -0.295455  0.340909  0.159091     48.000000
 -0.250000  0.340909  0.159091     24.000000
 -0.386364  0.386364  0.159091     24.000000
 -0.340909  0.386364  0.159091     48.000000
 -0.295455  0.386364  0.159091     48.000000
 -0.431818  0.431818  0.159091     24.000000
 -0.386364  0.431818  0.159091     48.000000
 -0.340909  0.431818  0.159091     48.000000
 -0.295455  0.431818  0.159091     24.000000
 -0.477273  0.477273  0.159091     24.000000
 -0.431818  0.477273  0.159091     48.000000
 -0.386364  0.477273  0.159091     48.000000
 -0.340909  0.477273  0.159091     48.000000
 -0.477273 -0.477273  0.159091     24.000000
 -0.431818 -0.477273  0.159091     48.000000
 -0.386364 -0.477273  0.159091     48.000000
 -0.340909 -0.477273  0.159091     24.000000
 -0.431818 -0.431818  0.159091     24.000000
 -0.386364 -0.431818  0.159091     48.000000
 -0.386364 -0.386364  0.159091      8.000000
  0.204545  0.204545  0.204545      8.000000
  0.250000  0.204545  0.204545     24.000000
  0.295455  0.204545  0.204545     12.000000
 -0.204545  0.204545  0.204545      6.000000
  0.250000  0.250000  0.204545     24.000000
 -0.250000  0.250000  0.204545     24.000000
 -0.295455  0.295455  0.204545     24.000000
 -0.250000  0.295455  0.204545     24.000000
 -0.340909  0.340909  0.204545     24.000000
 -0.295455  0.340909  0.204545     48.000000
 -0.386364  0.386364  0.204545     24.000000
 -0.340909  0.386364  0.204545     48.000000
 -0.295455  0.386364  0.204545     24.000000
 -0.431818  0.431818  0.204545     24.000000
 -0.386364  0.431818  0.204545     48.000000
 -0.340909  0.431818  0.204545     48.000000
 -0.477273  0.477273  0.204545     24.000000
 -0.431818  0.477273  0.204545     48.000000
 -0.386364  0.477273  0.204545     48.000000
 -0.340909  0.477273  0.204545     24.000000
 -0.477273 -0.477273  0.204545     24.000000
 -0.431818 -0.477273  0.204545     48.000000
 -0.386364 -0.477273  0.204545     48.000000
 -0.431818 -0.431818  0.204545     24.000000
 -0.386364 -0.431818  0.204545     24.000000
  0.250000  0.250000  0.250000      2.000000
 -0.250000  0.250000  0.250000      6.000000
 -0.295455  0.295455  0.250000     24.000000
 -0.340909  0.340909  0.250000     24.000000
 -0.295455  0.340909  0.250000     24.000000
 -0.386364  0.386364  0.250000     24.000000
 -0.340909  0.386364  0.250000     48.000000
 -0.431818  0.431818  0.250000     24.000000
 -0.386364  0.431818  0.250000     48.000000
 -0.340909  0.431818  0.250000     24.000000
 -0.477273  0.477273  0.250000     24.000000
 -0.431818  0.477273  0.250000     48.000000
 -0.386364  0.477273  0.250000     48.000000
 -0.477273 -0.477273  0.250000     24.000000
 -0.431818 -0.477273  0.250000     48.000000
 -0.386364 -0.477273  0.250000     24.000000
 -0.431818 -0.431818  0.250000     24.000000
 -0.295455  0.295455  0.295455      6.000000
 -0.340909  0.340909  0.295455     24.000000
 -0.386364  0.386364  0.295455     24.000000
 -0.340909  0.386364  0.295455     24.000000
 -0.431818  0.431818  0.295455     24.000000
 -0.386364  0.431818  0.295455     48.000000
 -0.477273  0.477273  0.295455     24.000000
 -0.431818  0.477273  0.295455     48.000000
 -0.386364  0.477273  0.295455     24.000000
 -0.477273 -0.477273  0.295455     24.000000
 -0.431818 -0.477273  0.295455     48.000000
 -0.431818 -0.431818  0.295455      8.000000
 -0.340909  0.340909  0.340909      6.000000
 -0.386364  0.386364  0.340909     24.000000
 -0.431818  0.431818  0.340909     24.000000
 -0.386364  0.431818  0.340909     24.000000
 -0.477273  0.477273  0.340909     24.000000
 -0.431818  0.477273  0.340909     48.000000
 -0.477273 -0.477273  0.340909     24.000000
 -0.431818 -0.477273  0.340909     24.000000
 -0.386364  0.386364  0.386364      6.000000
 -0.431818  0.431818  0.386364     24.000000
 -0.477273  0.477273  0.386364     24.000000
 -0.431818  0.477273  0.386364     24.000000
 -0.477273 -0.477273  0.386364     24.000000
 -0.431818  0.431818  0.431818      6.000000
 -0.477273  0.477273  0.431818     24.000000
 -0.477273 -0.477273  0.431818      8.000000
 -0.477273  0.477273  0.477273      6.000000
 
 Following cartesian coordinates:
            Coordinates               Weight
  0.015018  0.015018 -0.015018      8.000000
  0.030036  0.030036 -0.015018     24.000000
  0.045054  0.045054 -0.015018     24.000000
  0.060072  0.060072 -0.015018     24.000000
  0.075090  0.075090 -0.015018     24.000000
  0.090109  0.090109 -0.015018     24.000000
  0.105127  0.105127 -0.015018     24.000000
  0.120145  0.120145 -0.015018     24.000000
  0.135163  0.135163 -0.015018     24.000000
  0.150181  0.150181 -0.015018     24.000000
  0.165199  0.165199 -0.015018     12.000000
  0.000000  0.000000 -0.015018      6.000000
  0.045054  0.030036 -0.030036     24.000000
  0.060072  0.045054 -0.030036     48.000000
  0.075090  0.060072 -0.030036     48.000000
  0.090109  0.075090 -0.030036     48.000000
  0.105127  0.090109 -0.030036     48.000000
  0.120145  0.105127 -0.030036     48.000000
  0.135163  0.120145 -0.030036     48.000000
  0.150181  0.135163 -0.030036     48.000000
  0.165199  0.150181 -0.030036     48.000000
  0.000000 -0.015018 -0.030036     24.000000
  0.075090  0.045054 -0.045054     24.000000
  0.090109  0.060072 -0.045054     48.000000
  0.105127  0.075090 -0.045054     48.000000
  0.120145  0.090109 -0.045054     48.000000
  0.135163  0.105127 -0.045054     48.000000
  0.150181  0.120145 -0.045054     48.000000
  0.165199  0.135163 -0.045054     48.000000
  0.180217  0.150181 -0.045054     24.000000
  0.000000 -0.030036 -0.045054     24.000000
  0.015018 -0.015018 -0.045054     24.000000
  0.105127  0.060072 -0.060072     24.000000
  0.120145  0.075090 -0.060072     48.000000
  0.135163  0.090109 -0.060072     48.000000
  0.150181  0.105127 -0.060072     48.000000
  0.165199  0.120145 -0.060072     48.000000
  0.180217  0.135163 -0.060072     48.000000
  0.000000 -0.045054 -0.060072     24.000000
  0.015018 -0.030036 -0.060072     48.000000
  0.135163  0.075090 -0.075090     24.000000
  0.150181  0.090109 -0.075090     48.000000
  0.165199  0.105127 -0.075090     48.000000
  0.180217  0.120145 -0.075090     48.000000
  0.195235  0.135163 -0.075090     24.000000
  0.000000 -0.060072 -0.075090     24.000000
  0.015018 -0.045054 -0.075090     48.000000
  0.030036 -0.030036 -0.075090     24.000000
  0.165199  0.090109 -0.090109     24.000000
  0.180217  0.105127 -0.090109     48.000000
  0.195235  0.120145 -0.090109     48.000000
  0.000000 -0.075090 -0.090109     24.000000
  0.015018 -0.060072 -0.090109     48.000000
  0.030036 -0.045054 -0.090109     48.000000
  0.195235  0.105127 -0.105127     24.000000
  0.210253  0.120145 -0.105127     24.000000
  0.000000 -0.090109 -0.105127     24.000000
  0.015018 -0.075090 -0.105127     48.000000
  0.030036 -0.060072 -0.105127     48.000000
  0.045054 -0.045054 -0.105127     24.000000
  0.000000 -0.105127 -0.120145     24.000000
  0.015018 -0.090109 -0.120145     48.000000
  0.030036 -0.075090 -0.120145     48.000000
  0.045054 -0.060072 -0.120145     48.000000
  0.000000 -0.120145 -0.135163     24.000000
  0.015018 -0.105127 -0.135163     48.000000
  0.030036 -0.090109 -0.135163     48.000000
  0.045054 -0.075090 -0.135163     48.000000
  0.060072 -0.060072 -0.135163     24.000000
  0.000000 -0.135163 -0.150181     24.000000
  0.015018 -0.120145 -0.150181     48.000000
  0.030036 -0.105127 -0.150181     48.000000
  0.045054 -0.090109 -0.150181     48.000000
  0.060072 -0.075090 -0.150181     48.000000
  0.000000 -0.150181 -0.165199     24.000000
  0.015018 -0.135163 -0.165199     48.000000
  0.030036 -0.120145 -0.165199     48.000000
  0.045054 -0.105127 -0.165199     48.000000
  0.060072 -0.090109 -0.165199     48.000000
  0.075090 -0.075090 -0.165199     24.000000
 -0.315380 -0.150181  0.150181     24.000000
 -0.300362 -0.135163  0.150181     48.000000
 -0.285344 -0.120145  0.150181     48.000000
 -0.270326 -0.105127  0.150181     48.000000
 -0.255308 -0.090109  0.150181     48.000000
 -0.285344 -0.135163  0.135163     24.000000
 -0.270326 -0.120145  0.135163     48.000000
 -0.255308 -0.105127  0.135163     48.000000
 -0.240290 -0.090109  0.135163     24.000000
 -0.255308 -0.120145  0.120145     24.000000
 -0.240290 -0.105127  0.120145     48.000000
 -0.225271 -0.105127  0.105127      8.000000
  0.045054  0.045054 -0.045054      8.000000
  0.060072  0.060072 -0.045054     24.000000
  0.075090  0.075090 -0.045054     24.000000
  0.090109  0.090109 -0.045054     24.000000
  0.105127  0.105127 -0.045054     24.000000
  0.120145  0.120145 -0.045054     24.000000
  0.135163  0.135163 -0.045054     24.000000
  0.150181  0.150181 -0.045054     24.000000
  0.165199  0.165199 -0.045054     12.000000
  0.000000  0.000000 -0.045054      6.000000
  0.075090  0.060072 -0.060072     24.000000
  0.090109  0.075090 -0.060072     48.000000
  0.105127  0.090109 -0.060072     48.000000
  0.120145  0.105127 -0.060072     48.000000
  0.135163  0.120145 -0.060072     48.000000
  0.150181  0.135163 -0.060072     48.000000
  0.165199  0.150181 -0.060072     48.000000
  0.000000 -0.015018 -0.060072     24.000000
  0.105127  0.075090 -0.075090     24.000000
  0.120145  0.090109 -0.075090     48.000000
  0.135163  0.105127 -0.075090     48.000000
  0.150181  0.120145 -0.075090     48.000000
  0.165199  0.135163 -0.075090     48.000000
  0.180217  0.150181 -0.075090     24.000000
  0.000000 -0.030036 -0.075090     24.000000
  0.015018 -0.015018 -0.075090     24.000000
  0.135163  0.090109 -0.090109     24.000000
  0.150181  0.105127 -0.090109     48.000000
  0.165199  0.120145 -0.090109     48.000000
  0.180217  0.135163 -0.090109     48.000000
  0.000000 -0.045054 -0.090109     24.000000
  0.015018 -0.030036 -0.090109     48.000000
  0.165199  0.105127 -0.105127     24.000000
  0.180217  0.120145 -0.105127     48.000000
  0.195235  0.135163 -0.105127     24.000000
  0.000000 -0.060072 -0.105127     24.000000
  0.015018 -0.045054 -0.105127     48.000000
  0.030036 -0.030036 -0.105127     24.000000
  0.195235  0.120145 -0.120145     24.000000
  0.000000 -0.075090 -0.120145     24.000000
  0.015018 -0.060072 -0.120145     48.000000
  0.030036 -0.045054 -0.120145     48.000000
  0.000000 -0.090109 -0.135163     24.000000
  0.015018 -0.075090 -0.135163     48.000000
  0.030036 -0.060072 -0.135163     48.000000
  0.045054 -0.045054 -0.135163     24.000000
  0.000000 -0.105127 -0.150181     24.000000
  0.015018 -0.090109 -0.150181     48.000000
  0.030036 -0.075090 -0.150181     48.000000
  0.045054 -0.060072 -0.150181     48.000000
  0.000000 -0.120145 -0.165199     24.000000
  0.015018 -0.105127 -0.165199     48.000000
  0.030036 -0.090109 -0.165199     48.000000
  0.045054 -0.075090 -0.165199     48.000000
  0.060072 -0.060072 -0.165199     24.000000
  0.000000 -0.135163 -0.180217     24.000000
  0.015018 -0.120145 -0.180217     48.000000
  0.030036 -0.105127 -0.180217     48.000000
  0.045054 -0.090109 -0.180217     48.000000
  0.060072 -0.075090 -0.180217     48.000000
 -0.315380 -0.135163  0.135163     24.000000
 -0.300362 -0.120145  0.135163     48.000000
 -0.285344 -0.105127  0.135163     48.000000
 -0.270326 -0.090109  0.135163     48.000000
 -0.255308 -0.075090  0.135163     24.000000
 -0.285344 -0.120145  0.120145     24.000000
 -0.270326 -0.105127  0.120145     48.000000
 -0.255308 -0.090109  0.120145     48.000000
 -0.255308 -0.105127  0.105127     24.000000
 -0.240290 -0.090109  0.105127     24.000000
  0.075090  0.075090 -0.075090      8.000000
  0.090109  0.090109 -0.075090     24.000000
  0.105127  0.105127 -0.075090     24.000000
  0.120145  0.120145 -0.075090     24.000000
  0.135163  0.135163 -0.075090     24.000000
  0.150181  0.150181 -0.075090     24.000000
  0.165199  0.165199 -0.075090     12.000000
  0.000000  0.000000 -0.075090      6.000000
  0.105127  0.090109 -0.090109     24.000000
  0.120145  0.105127 -0.090109     48.000000
  0.135163  0.120145 -0.090109     48.000000
  0.150181  0.135163 -0.090109     48.000000
  0.165199  0.150181 -0.090109     48.000000
  0.000000 -0.015018 -0.090109     24.000000
  0.135163  0.105127 -0.105127     24.000000
  0.150181  0.120145 -0.105127     48.000000
  0.165199  0.135163 -0.105127     48.000000
  0.180217  0.150181 -0.105127     24.000000
  0.000000 -0.030036 -0.105127     24.000000
  0.015018 -0.015018 -0.105127     24.000000
  0.165199  0.120145 -0.120145     24.000000
  0.180217  0.135163 -0.120145     48.000000
  0.000000 -0.045054 -0.120145     24.000000
  0.015018 -0.030036 -0.120145     48.000000
  0.195235  0.135163 -0.135163      8.000000
  0.000000 -0.060072 -0.135163     24.000000
  0.015018 -0.045054 -0.135163     48.000000
  0.030036 -0.030036 -0.135163     24.000000
  0.000000 -0.075090 -0.150181     24.000000
  0.015018 -0.060072 -0.150181     48.000000
  0.030036 -0.045054 -0.150181     48.000000
  0.000000 -0.090109 -0.165199     24.000000
  0.015018 -0.075090 -0.165199     48.000000
  0.030036 -0.060072 -0.165199     48.000000
  0.045054 -0.045054 -0.165199     24.000000
  0.000000 -0.105127 -0.180217     24.000000
  0.015018 -0.090109 -0.180217     48.000000
  0.030036 -0.075090 -0.180217     48.000000
  0.045054 -0.060072 -0.180217     48.000000
  0.000000 -0.120145 -0.195235     24.000000
  0.015018 -0.105127 -0.195235     48.000000
  0.030036 -0.090109 -0.195235     48.000000
  0.045054 -0.075090 -0.195235     48.000000
  0.060072 -0.060072 -0.195235     24.000000
 -0.315380 -0.120145  0.120145     24.000000
 -0.300362 -0.105127  0.120145     48.000000
 -0.285344 -0.090109  0.120145     48.000000
 -0.270326 -0.075090  0.120145     48.000000
 -0.285344 -0.105127  0.105127     24.000000
 -0.270326 -0.090109  0.105127     48.000000
 -0.255308 -0.075090  0.105127     24.000000
 -0.255308 -0.090109  0.090109     24.000000
  0.105127  0.105127 -0.105127      8.000000
  0.120145  0.120145 -0.105127     24.000000
  0.135163  0.135163 -0.105127     24.000000
  0.150181  0.150181 -0.105127     24.000000
  0.165199  0.165199 -0.105127     12.000000
  0.000000  0.000000 -0.105127      6.000000
  0.135163  0.120145 -0.120145     24.000000
  0.150181  0.135163 -0.120145     48.000000
  0.165199  0.150181 -0.120145     48.000000
  0.000000 -0.015018 -0.120145     24.000000
  0.165199  0.135163 -0.135163     24.000000
  0.180217  0.150181 -0.135163     24.000000
  0.000000 -0.030036 -0.135163     24.000000
  0.015018 -0.015018 -0.135163     24.000000
  0.000000 -0.045054 -0.150181     24.000000
  0.015018 -0.030036 -0.150181     48.000000
  0.000000 -0.060072 -0.165199     24.000000
  0.015018 -0.045054 -0.165199     48.000000
  0.030036 -0.030036 -0.165199     24.000000
  0.000000 -0.075090 -0.180217     24.000000
  0.015018 -0.060072 -0.180217     48.000000
  0.030036 -0.045054 -0.180217     48.000000
  0.000000 -0.090109 -0.195235     24.000000
  0.015018 -0.075090 -0.195235     48.000000
  0.030036 -0.060072 -0.195235     48.000000
  0.045054 -0.045054 -0.195235     24.000000
  0.000000 -0.105127 -0.210253     24.000000
  0.015018 -0.090109 -0.210253     48.000000
  0.030036 -0.075090 -0.210253     48.000000
  0.045054 -0.060072 -0.210253     48.000000
 -0.315380 -0.105127  0.105127     24.000000
 -0.300362 -0.090109  0.105127     48.000000
 -0.285344 -0.075090  0.105127     48.000000
 -0.270326 -0.060072  0.105127     24.000000
 -0.285344 -0.090109  0.090109     24.000000
 -0.270326 -0.075090  0.090109     48.000000
 -0.255308 -0.075090  0.075090      8.000000
  0.135163  0.135163 -0.135163      8.000000
  0.150181  0.150181 -0.135163     24.000000
  0.165199  0.165199 -0.135163     12.000000
  0.000000  0.000000 -0.135163      6.000000
  0.165199  0.150181 -0.150181     24.000000
  0.000000 -0.015018 -0.150181     24.000000
  0.000000 -0.030036 -0.165199     24.000000
  0.015018 -0.015018 -0.165199     24.000000
  0.000000 -0.045054 -0.180217     24.000000
  0.015018 -0.030036 -0.180217     48.000000
  0.000000 -0.060072 -0.195235     24.000000
  0.015018 -0.045054 -0.195235     48.000000
  0.030036 -0.030036 -0.195235     24.000000
  0.000000 -0.075090 -0.210253     24.000000
  0.015018 -0.060072 -0.210253     48.000000
  0.030036 -0.045054 -0.210253     48.000000
  0.000000 -0.090109 -0.225271     24.000000
  0.015018 -0.075090 -0.225271     48.000000
  0.030036 -0.060072 -0.225271     48.000000
  0.045054 -0.045054 -0.225271     24.000000
 -0.315380 -0.090109  0.090109     24.000000
 -0.300362 -0.075090  0.090109     48.000000
 -0.285344 -0.060072  0.090109     48.000000
 -0.285344 -0.075090  0.075090     24.000000
 -0.270326 -0.060072  0.075090     24.000000
  0.165199  0.165199 -0.165199      2.000000
  0.000000  0.000000 -0.165199      6.000000
  0.000000 -0.015018 -0.180217     24.000000
  0.000000 -0.030036 -0.195235     24.000000
  0.015018 -0.015018 -0.195235     24.000000
  0.000000 -0.045054 -0.210253     24.000000
  0.015018 -0.030036 -0.210253     48.000000
  0.000000 -0.060072 -0.225271     24.000000
  0.015018 -0.045054 -0.225271     48.000000
  0.030036 -0.030036 -0.225271     24.000000
  0.000000 -0.075090 -0.240290     24.000000
  0.015018 -0.060072 -0.240290     48.000000
  0.030036 -0.045054 -0.240290     48.000000
 -0.315380 -0.075090  0.075090     24.000000
 -0.300362 -0.060072  0.075090     48.000000
 -0.285344 -0.045054  0.075090     24.000000
 -0.285344 -0.060072  0.060072     24.000000
  0.000000  0.000000 -0.195235      6.000000
  0.000000 -0.015018 -0.210253     24.000000
  0.000000 -0.030036 -0.225271     24.000000
  0.015018 -0.015018 -0.225271     24.000000
  0.000000 -0.045054 -0.240290     24.000000
  0.015018 -0.030036 -0.240290     48.000000
  0.000000 -0.060072 -0.255308     24.000000
  0.015018 -0.045054 -0.255308     48.000000
  0.030036 -0.030036 -0.255308     24.000000
 -0.315380 -0.060072  0.060072     24.000000
 -0.300362 -0.045054  0.060072     48.000000
 -0.285344 -0.045054  0.045054      8.000000
  0.000000  0.000000 -0.225271      6.000000
  0.000000 -0.015018 -0.240290     24.000000
  0.000000 -0.030036 -0.255308     24.000000
  0.015018 -0.015018 -0.255308     24.000000
  0.000000 -0.045054 -0.270326     24.000000
  0.015018 -0.030036 -0.270326     48.000000
 -0.315380 -0.045054  0.045054     24.000000
 -0.300362 -0.030036  0.045054     24.000000
  0.000000  0.000000 -0.255308      6.000000
  0.000000 -0.015018 -0.270326     24.000000
  0.000000 -0.030036 -0.285344     24.000000
  0.015018 -0.015018 -0.285344     24.000000
 -0.315380 -0.030036  0.030036     24.000000
  0.000000  0.000000 -0.285344      6.000000
  0.000000 -0.015018 -0.300362     24.000000
 -0.315380 -0.015018  0.015018      8.000000
  0.000000  0.000000 -0.315380      6.000000
 


--------------------------------------------------------------------------------------------------------




 Dimension of arrays:
   k-points           NKPTS =    322   k-points in BZ     NKDIM =    322   number of bands    NBANDS=      8
   number of dos      NEDOS =    301   number of ions     NIONS =      1
   non local maximal  LDIM  =      4   non local SUM 2l+1 LMDIM =      8
   total plane-waves  NPLWV =   4096
   max r-space proj   IRMAX =      1   max aug-charges    IRDMAX=  79220
   dimension x,y,z NGX =    16 NGY =   16 NGZ =   16
   dimension x,y,z NGXF=    32 NGYF=   32 NGZF=   32
   support grid    NGXF=    64 NGYF=   64 NGZF=   64
   ions per type =               1
   NGX,Y,Z   is equivalent  to a cutoff of  10.15, 10.15, 10.15 a.u.
   NGXF,Y,Z  is equivalent  to a cutoff of  20.30, 20.30, 20.30 a.u.

 SYSTEM =  unknown system                          
 POSCAR =  Si1                                     

 Startparameter for this run:
   NWRITE =      2    write-flag & timer
   PREC   = accura    normal or accurate (medium, high low for compatibility)
   ISTART =      0    job   : 0-new  1-cont  2-samecut
   ICHARG =      2    charge: 1-file 2-atom 10-const
   ISPIN  =      1    spin polarized calculation?
   LNONCOLLINEAR =      F non collinear calculations
   LSORBIT =      F    spin-orbit coupling
   INIWAV =      1    electr: 0-lowe 1-rand  2-diag
   LASPH  =      T    aspherical Exc in radial PAW
   METAGGA=      F    non-selfconsistent MetaGGA calc.

 Electronic Relaxation 1
   ENCUT  =  350.0 eV  25.72 Ry    5.07 a.u.   4.00  4.00  4.00*2*pi/ulx,y,z
   ENINI  =  350.0     initial cutoff
   ENAUG  =  322.1 eV  augmentation charge cutoff
   NELM   =     90;   NELMIN=  6; NELMDL= -5     # of ELM steps 
   EDIFF  = 0.1E-05   stopping-criterion for ELM
   LREAL  =      F    real-space projection
   NLSPLINE    = F    spline interpolate recip. space projectors
   LCOMPAT=      F    compatible to vasp.4.4
   GGA_COMPAT  = T    GGA compatible to vasp.4.4-vasp.4.6
   LMAXPAW     = -100 max onsite density
   LMAXMIX     =    2 max onsite mixed and CHGCAR
   VOSKOWN=      0    Vosko Wilk Nusair interpolation
   ROPT   =    0.00000
 Ionic relaxation
   EDIFFG = -.2E-02   stopping-criterion for IOM
   NSW    =    100    number of steps for IOM
   NBLOCK =      1;   KBLOCK =    100    inner block; outer block 
   IBRION =      2    ionic relax: 0-MD 1-quasi-New 2-CG
   NFREE  =      1    steps in history (QN), initial steepest desc. (CG)
   ISIF   =      3    stress and relaxation
   IWAVPR =     11    prediction:  0-non 1-charg 2-wave 3-comb
   ISYM   =      2    0-nonsym 1-usesym 2-fastsym
   LCORR  =      T    Harris-Foulkes like correction to forces

   POTIM  = 0.5000    time-step for ionic-motion
   TEIN   =    0.0    initial temperature
   TEBEG  =    0.0;   TEEND  =   0.0 temperature during run
   SMASS  =  -3.00    Nose mass-parameter (am)
   estimated Nose-frequenzy (Omega)   =  0.10E-29 period in steps = 0.13E+47 mass=  -0.157E-27a.u.
   SCALEE = 1.0000    scale energy and forces
   NPACO  =    256;   APACO  = 16.0  distance and # of slots for P.C.
   PSTRESS=    0.0 pullay stress

  Mass of Ions in am
   POMASS =  28.09
  Ionic Valenz
   ZVAL   =   4.00
  Atomic Wigner-Seitz radii
   RWIGS  =  -1.00
  virtual crystal weights 
   VCA    =   1.00
   NELECT =       4.0000    total number of electrons
   NUPDOWN=      -1.0000    fix difference up-down

 DOS related values:
   EMIN   =  10.00;   EMAX   =-10.00  energy-range for DOS
   EFERMI =   0.00
   ISMEAR =     0;   SIGMA  =   0.05  broadening in eV -4-tet -1-fermi 0-gaus

 Electronic relaxation 2 (details)
   IALGO  =     38    algorithm
   LDIAG  =      T    sub-space diagonalisation (order eigenvalues)
   LSUBROT=      F    optimize rotation matrix (better conditioning)
   TURBO    =      0    0=normal 1=particle mesh
   IRESTART =      0    0=no restart 2=restart with 2 vectors
   NREBOOT  =      0    no. of reboots
   NMIN     =      0    reboot dimension
   EREF     =   0.00    reference energy to select bands
   IMIX   =      4    mixing-type and parameters
     AMIX     =   0.40;   BMIX     =  1.00
     AMIX_MAG =   1.60;   BMIX_MAG =  1.00
     AMIN     =   0.10
     WC   =   100.;   INIMIX=   1;  MIXPRE=   1;  MAXMIX= -45

 Intra band minimization:
   WEIMIN = 0.0010     energy-eigenvalue tresh-hold
   EBREAK =  0.31E-07  absolut break condition
   DEPER  =   0.30     relativ break condition  

   TIME   =   0.40     timestep for ELM

  volume/ion in A,a.u.               =      13.86        93.55
  Fermi-wavevector in a.u.,A,eV,Ry     =   1.081789  2.044284 15.922447  1.170267
  Thomas-Fermi vector in A             =   2.217814
 
 Write flags
   LWAVE        =      F    write WAVECAR
   LDOWNSAMPLE  =      F    k-point downsampling of WAVECAR
   LCHARG       =      F    write CHGCAR
   LVTOT        =      F    write LOCPOT, total local potential
   LVHAR        =      F    write LOCPOT, Hartree potential only
   LELF         =      F    write electronic localiz. function (ELF)
   LORBIT       =      0    0 simple, 1 ext, 2 COOP (PROOUT), +10 PAW based schemes


 Dipole corrections
   LMONO  =      F    monopole corrections only (constant potential shift)
   LDIPOL =      F    correct potential (dipole corrections)
   IDIPOL =      0    1-x, 2-y, 3-z, 4-all directions 
   EPSILON=  1.0000000 bulk dielectric constant

 Exchange correlation treatment:
   GGA     =    --    GGA type
   LEXCH   =     8    internal setting for exchange type
   VOSKOWN=      0    Vosko Wilk Nusair interpolation
   LHFCALC =     F    Hartree Fock is set to
   LHFONE  =     F    Hartree Fock one center treatment
   AEXX    =    0.0000 exact exchange contribution

 Linear response parameters
   LEPSILON=     F    determine dielectric tensor
   LRPA    =     F    only Hartree local field effects (RPA)
   LNABLA  =     F    use nabla operator in PAW spheres
   LVEL    =     F    velocity operator in full k-point grid
   LINTERFAST=   F  fast interpolation
   KINTER  =     0    interpolate to denser k-point grid
   CSHIFT  =0.1000    complex shift for real part using Kramers Kronig
   OMEGAMAX=  -1.0    maximum frequency
   DEG_THRESHOLD= 0.2000000E-02 threshold for treating states as degnerate
   RTIME   =   -0.100 relaxation time in fs
  (WPLASMAI=    0.000 imaginary part of plasma frequency in eV, 0.658/RTIME)
   DFIELD  = 0.0000000 0.0000000 0.0000000 field for delta impulse in time
 
 Orbital magnetization related:
   ORBITALMAG=     F  switch on orbital magnetization
   LCHIMAG   =     F  perturbation theory with respect to B field
   DQ        =  0.001000  dq finite difference perturbation B field
   LLRAUG    =     F  two centre corrections for induced B field



--------------------------------------------------------------------------------------------------------


 conjugate gradient relaxation of ions
 charge density and potential will be updated during run
 non-spin polarized calculation
 Variant of blocked Davidson
 Davidson routine will perform the subspace rotation
 perform sub-space diagonalisation
    after iterative eigenvector-optimisation
 modified Broyden-mixing scheme, WC =      100.0
 initial mixing is a Kerker type mixing with AMIX =  0.4000 and BMIX =      1.0000
 Hartree-type preconditioning will be used
 using additional bands            6
 reciprocal scheme for non local part
 use partial core corrections
 calculate Harris-corrections to forces 
   (improved forces if not selfconsistent)
 use gradient corrections 
 use of overlap-Matrix (Vanderbilt PP)
 Gauss-broadening in eV      SIGMA  =   0.05


--------------------------------------------------------------------------------------------------------


  energy-cutoff  :      350.00
  volume of cell :       13.86
      direct lattice vectors                 reciprocal lattice vectors
     1.513325630  1.513325630  1.513325630     0.330398158  0.330398158  0.000000000
     1.513325630 -1.513325630 -1.513325630     0.330398158  0.000000000 -0.330398158
    -1.513325630  1.513325630 -1.513325630     0.000000000  0.330398158 -0.330398158

  length of vectors
     2.621156880  2.621156880  2.621156880     0.467253555  0.467253555  0.467253555


 
 k-points in units of 2pi/SCALE and weight: Automatic                               
   0.01501810  0.01501810 -0.01501810       0.001
   0.03003620  0.03003620 -0.01501810       0.002
   0.04505429  0.04505429 -0.01501810       0.002
   0.06007239  0.06007239 -0.01501810       0.002
   0.07509049  0.07509049 -0.01501810       0.002
   0.09010859  0.09010859 -0.01501810       0.002
   0.10512669  0.10512669 -0.01501810       0.002
   0.12014478  0.12014478 -0.01501810       0.002
   0.13516288  0.13516288 -0.01501810       0.002
   0.15018098  0.15018098 -0.01501810       0.002
   0.16519908  0.16519908 -0.01501810       0.001
   0.00000000  0.00000000 -0.01501810       0.001
   0.04505429  0.03003620 -0.03003620       0.002
   0.06007239  0.04505429 -0.03003620       0.005
   0.07509049  0.06007239 -0.03003620       0.005
   0.09010859  0.07509049 -0.03003620       0.005
   0.10512669  0.09010859 -0.03003620       0.005
   0.12014478  0.10512669 -0.03003620       0.005
   0.13516288  0.12014478 -0.03003620       0.005
   0.15018098  0.13516288 -0.03003620       0.005
   0.16519908  0.15018098 -0.03003620       0.005
   0.00000000 -0.01501810 -0.03003620       0.002
   0.07509049  0.04505429 -0.04505429       0.002
   0.09010859  0.06007239 -0.04505429       0.005
   0.10512669  0.07509049 -0.04505429       0.005
   0.12014478  0.09010859 -0.04505429       0.005
   0.13516288  0.10512669 -0.04505429       0.005
   0.15018098  0.12014478 -0.04505429       0.005
   0.16519908  0.13516288 -0.04505429       0.005
   0.18021718  0.15018098 -0.04505429       0.002
   0.00000000 -0.03003620 -0.04505429       0.002
   0.01501810 -0.01501810 -0.04505429       0.002
   0.10512669  0.06007239 -0.06007239       0.002
   0.12014478  0.07509049 -0.06007239       0.005
   0.13516288  0.09010859 -0.06007239       0.005
   0.15018098  0.10512669 -0.06007239       0.005
   0.16519908  0.12014478 -0.06007239       0.005
   0.18021718  0.13516288 -0.06007239       0.005
   0.00000000 -0.04505429 -0.06007239       0.002
   0.01501810 -0.03003620 -0.06007239       0.005
   0.13516288  0.07509049 -0.07509049       0.002
   0.15018098  0.09010859 -0.07509049       0.005
   0.16519908  0.10512669 -0.07509049       0.005
   0.18021718  0.12014478 -0.07509049       0.005
   0.19523527  0.13516288 -0.07509049       0.002
   0.00000000 -0.06007239 -0.07509049       0.002
   0.01501810 -0.04505429 -0.07509049       0.005
   0.03003620 -0.03003620 -0.07509049       0.002
   0.16519908  0.09010859 -0.09010859       0.002
   0.18021718  0.10512669 -0.09010859       0.005
   0.19523527  0.12014478 -0.09010859       0.005
   0.00000000 -0.07509049 -0.09010859       0.002
   0.01501810 -0.06007239 -0.09010859       0.005
   0.03003620 -0.04505429 -0.09010859       0.005
   0.19523527  0.10512669 -0.10512669       0.002
   0.21025337  0.12014478 -0.10512669       0.002
   0.00000000 -0.09010859 -0.10512669       0.002
   0.01501810 -0.07509049 -0.10512669       0.005
   0.03003620 -0.06007239 -0.10512669       0.005
   0.04505429 -0.04505429 -0.10512669       0.002
   0.00000000 -0.10512669 -0.12014478       0.002
   0.01501810 -0.09010859 -0.12014478       0.005
   0.03003620 -0.07509049 -0.12014478       0.005
   0.04505429 -0.06007239 -0.12014478       0.005
   0.00000000 -0.12014478 -0.13516288       0.002
   0.01501810 -0.10512669 -0.13516288       0.005
   0.03003620 -0.09010859 -0.13516288       0.005
   0.04505429 -0.07509049 -0.13516288       0.005
   0.06007239 -0.06007239 -0.13516288       0.002
   0.00000000 -0.13516288 -0.15018098       0.002
   0.01501810 -0.12014478 -0.15018098       0.005
   0.03003620 -0.10512669 -0.15018098       0.005
   0.04505429 -0.09010859 -0.15018098       0.005
   0.06007239 -0.07509049 -0.15018098       0.005
   0.00000000 -0.15018098 -0.16519908       0.002
   0.01501810 -0.13516288 -0.16519908       0.005
   0.03003620 -0.12014478 -0.16519908       0.005
   0.04505429 -0.10512669 -0.16519908       0.005
   0.06007239 -0.09010859 -0.16519908       0.005
   0.07509049 -0.07509049 -0.16519908       0.002
  -0.31538006 -0.15018098  0.15018098       0.002
  -0.30036196 -0.13516288  0.15018098       0.005
  -0.28534386 -0.12014478  0.15018098       0.005
  -0.27032577 -0.10512669  0.15018098       0.005
  -0.25530767 -0.09010859  0.15018098       0.005
  -0.28534386 -0.13516288  0.13516288       0.002
  -0.27032577 -0.12014478  0.13516288       0.005
  -0.25530767 -0.10512669  0.13516288       0.005
  -0.24028957 -0.09010859  0.13516288       0.002
  -0.25530767 -0.12014478  0.12014478       0.002
  -0.24028957 -0.10512669  0.12014478       0.005
  -0.22527147 -0.10512669  0.10512669       0.001
   0.04505429  0.04505429 -0.04505429       0.001
   0.06007239  0.06007239 -0.04505429       0.002
   0.07509049  0.07509049 -0.04505429       0.002
   0.09010859  0.09010859 -0.04505429       0.002
   0.10512669  0.10512669 -0.04505429       0.002
   0.12014478  0.12014478 -0.04505429       0.002
   0.13516288  0.13516288 -0.04505429       0.002
   0.15018098  0.15018098 -0.04505429       0.002
   0.16519908  0.16519908 -0.04505429       0.001
   0.00000000  0.00000000 -0.04505429       0.001
   0.07509049  0.06007239 -0.06007239       0.002
   0.09010859  0.07509049 -0.06007239       0.005
   0.10512669  0.09010859 -0.06007239       0.005
   0.12014478  0.10512669 -0.06007239       0.005
   0.13516288  0.12014478 -0.06007239       0.005
   0.15018098  0.13516288 -0.06007239       0.005
   0.16519908  0.15018098 -0.06007239       0.005
   0.00000000 -0.01501810 -0.06007239       0.002
   0.10512669  0.07509049 -0.07509049       0.002
   0.12014478  0.09010859 -0.07509049       0.005
   0.13516288  0.10512669 -0.07509049       0.005
   0.15018098  0.12014478 -0.07509049       0.005
   0.16519908  0.13516288 -0.07509049       0.005
   0.18021718  0.15018098 -0.07509049       0.002
   0.00000000 -0.03003620 -0.07509049       0.002
   0.01501810 -0.01501810 -0.07509049       0.002
   0.13516288  0.09010859 -0.09010859       0.002
   0.15018098  0.10512669 -0.09010859       0.005
   0.16519908  0.12014478 -0.09010859       0.005
   0.18021718  0.13516288 -0.09010859       0.005
   0.00000000 -0.04505429 -0.09010859       0.002
   0.01501810 -0.03003620 -0.09010859       0.005
   0.16519908  0.10512669 -0.10512669       0.002
   0.18021718  0.12014478 -0.10512669       0.005
   0.19523527  0.13516288 -0.10512669       0.002
   0.00000000 -0.06007239 -0.10512669       0.002
   0.01501810 -0.04505429 -0.10512669       0.005
   0.03003620 -0.03003620 -0.10512669       0.002
   0.19523527  0.12014478 -0.12014478       0.002
   0.00000000 -0.07509049 -0.12014478       0.002
   0.01501810 -0.06007239 -0.12014478       0.005
   0.03003620 -0.04505429 -0.12014478       0.005
   0.00000000 -0.09010859 -0.13516288       0.002
   0.01501810 -0.07509049 -0.13516288       0.005
   0.03003620 -0.06007239 -0.13516288       0.005
   0.04505429 -0.04505429 -0.13516288       0.002
   0.00000000 -0.10512669 -0.15018098       0.002
   0.01501810 -0.09010859 -0.15018098       0.005
   0.03003620 -0.07509049 -0.15018098       0.005
   0.04505429 -0.06007239 -0.15018098       0.005
   0.00000000 -0.12014478 -0.16519908       0.002
   0.01501810 -0.10512669 -0.16519908       0.005
   0.03003620 -0.09010859 -0.16519908       0.005
   0.04505429 -0.07509049 -0.16519908       0.005
   0.06007239 -0.06007239 -0.16519908       0.002
   0.00000000 -0.13516288 -0.18021718       0.002
   0.01501810 -0.12014478 -0.18021718       0.005
   0.03003620 -0.10512669 -0.18021718       0.005
   0.04505429 -0.09010859 -0.18021718       0.005
   0.06007239 -0.07509049 -0.18021718       0.005
  -0.31538006 -0.13516288  0.13516288       0.002
  -0.30036196 -0.12014478  0.13516288       0.005
  -0.28534386 -0.10512669  0.13516288       0.005
  -0.27032577 -0.09010859  0.13516288       0.005
  -0.25530767 -0.07509049  0.13516288       0.002
  -0.28534386 -0.12014478  0.12014478       0.002
  -0.27032577 -0.10512669  0.12014478       0.005
  -0.25530767 -0.09010859  0.12014478       0.005
  -0.25530767 -0.10512669  0.10512669       0.002
  -0.24028957 -0.09010859  0.10512669       0.002
   0.07509049  0.07509049 -0.07509049       0.001
   0.09010859  0.09010859 -0.07509049       0.002
   0.10512669  0.10512669 -0.07509049       0.002
   0.12014478  0.12014478 -0.07509049       0.002
   0.13516288  0.13516288 -0.07509049       0.002
   0.15018098  0.15018098 -0.07509049       0.002
   0.16519908  0.16519908 -0.07509049       0.001
   0.00000000  0.00000000 -0.07509049       0.001
   0.10512669  0.09010859 -0.09010859       0.002
   0.12014478  0.10512669 -0.09010859       0.005
   0.13516288  0.12014478 -0.09010859       0.005
   0.15018098  0.13516288 -0.09010859       0.005
   0.16519908  0.15018098 -0.09010859       0.005
   0.00000000 -0.01501810 -0.09010859       0.002
   0.13516288  0.10512669 -0.10512669       0.002
   0.15018098  0.12014478 -0.10512669       0.005
   0.16519908  0.13516288 -0.10512669       0.005
   0.18021718  0.15018098 -0.10512669       0.002
   0.00000000 -0.03003620 -0.10512669       0.002
   0.01501810 -0.01501810 -0.10512669       0.002
   0.16519908  0.12014478 -0.12014478       0.002
   0.18021718  0.13516288 -0.12014478       0.005
   0.00000000 -0.04505429 -0.12014478       0.002
   0.01501810 -0.03003620 -0.12014478       0.005
   0.19523527  0.13516288 -0.13516288       0.001
   0.00000000 -0.06007239 -0.13516288       0.002
   0.01501810 -0.04505429 -0.13516288       0.005
   0.03003620 -0.03003620 -0.13516288       0.002
   0.00000000 -0.07509049 -0.15018098       0.002
   0.01501810 -0.06007239 -0.15018098       0.005
   0.03003620 -0.04505429 -0.15018098       0.005
   0.00000000 -0.09010859 -0.16519908       0.002
   0.01501810 -0.07509049 -0.16519908       0.005
   0.03003620 -0.06007239 -0.16519908       0.005
   0.04505429 -0.04505429 -0.16519908       0.002
   0.00000000 -0.10512669 -0.18021718       0.002
   0.01501810 -0.09010859 -0.18021718       0.005
   0.03003620 -0.07509049 -0.18021718       0.005
   0.04505429 -0.06007239 -0.18021718       0.005
   0.00000000 -0.12014478 -0.19523527       0.002
   0.01501810 -0.10512669 -0.19523527       0.005
   0.03003620 -0.09010859 -0.19523527       0.005
   0.04505429 -0.07509049 -0.19523527       0.005
   0.06007239 -0.06007239 -0.19523527       0.002
  -0.31538006 -0.12014478  0.12014478       0.002
  -0.30036196 -0.10512669  0.12014478       0.005
  -0.28534386 -0.09010859  0.12014478       0.005
  -0.27032577 -0.07509049  0.12014478       0.005
  -0.28534386 -0.10512669  0.10512669       0.002
  -0.27032577 -0.09010859  0.10512669       0.005
  -0.25530767 -0.07509049  0.10512669       0.002
  -0.25530767 -0.09010859  0.09010859       0.002
   0.10512669  0.10512669 -0.10512669       0.001
   0.12014478  0.12014478 -0.10512669       0.002
   0.13516288  0.13516288 -0.10512669       0.002
   0.15018098  0.15018098 -0.10512669       0.002
   0.16519908  0.16519908 -0.10512669       0.001
   0.00000000  0.00000000 -0.10512669       0.001
   0.13516288  0.12014478 -0.12014478       0.002
   0.15018098  0.13516288 -0.12014478       0.005
   0.16519908  0.15018098 -0.12014478       0.005
   0.00000000 -0.01501810 -0.12014478       0.002
   0.16519908  0.13516288 -0.13516288       0.002
   0.18021718  0.15018098 -0.13516288       0.002
   0.00000000 -0.03003620 -0.13516288       0.002
   0.01501810 -0.01501810 -0.13516288       0.002
   0.00000000 -0.04505429 -0.15018098       0.002
   0.01501810 -0.03003620 -0.15018098       0.005
   0.00000000 -0.06007239 -0.16519908       0.002
   0.01501810 -0.04505429 -0.16519908       0.005
   0.03003620 -0.03003620 -0.16519908       0.002
   0.00000000 -0.07509049 -0.18021718       0.002
   0.01501810 -0.06007239 -0.18021718       0.005
   0.03003620 -0.04505429 -0.18021718       0.005
   0.00000000 -0.09010859 -0.19523527       0.002
   0.01501810 -0.07509049 -0.19523527       0.005
   0.03003620 -0.06007239 -0.19523527       0.005
   0.04505429 -0.04505429 -0.19523527       0.002
   0.00000000 -0.10512669 -0.21025337       0.002
   0.01501810 -0.09010859 -0.21025337       0.005
   0.03003620 -0.07509049 -0.21025337       0.005
   0.04505429 -0.06007239 -0.21025337       0.005
  -0.31538006 -0.10512669  0.10512669       0.002
  -0.30036196 -0.09010859  0.10512669       0.005
  -0.28534386 -0.07509049  0.10512669       0.005
  -0.27032577 -0.06007239  0.10512669       0.002
  -0.28534386 -0.09010859  0.09010859       0.002
  -0.27032577 -0.07509049  0.09010859       0.005
  -0.25530767 -0.07509049  0.07509049       0.001
   0.13516288  0.13516288 -0.13516288       0.001
   0.15018098  0.15018098 -0.13516288       0.002
   0.16519908  0.16519908 -0.13516288       0.001
   0.00000000  0.00000000 -0.13516288       0.001
   0.16519908  0.15018098 -0.15018098       0.002
   0.00000000 -0.01501810 -0.15018098       0.002
   0.00000000 -0.03003620 -0.16519908       0.002
   0.01501810 -0.01501810 -0.16519908       0.002
   0.00000000 -0.04505429 -0.18021718       0.002
   0.01501810 -0.03003620 -0.18021718       0.005
   0.00000000 -0.06007239 -0.19523527       0.002
   0.01501810 -0.04505429 -0.19523527       0.005
   0.03003620 -0.03003620 -0.19523527       0.002
   0.00000000 -0.07509049 -0.21025337       0.002
   0.01501810 -0.06007239 -0.21025337       0.005
   0.03003620 -0.04505429 -0.21025337       0.005
   0.00000000 -0.09010859 -0.22527147       0.002
   0.01501810 -0.07509049 -0.22527147       0.005
   0.03003620 -0.06007239 -0.22527147       0.005
   0.04505429 -0.04505429 -0.22527147       0.002
  -0.31538006 -0.09010859  0.09010859       0.002
  -0.30036196 -0.07509049  0.09010859       0.005
  -0.28534386 -0.06007239  0.09010859       0.005
  -0.28534386 -0.07509049  0.07509049       0.002
  -0.27032577 -0.06007239  0.07509049       0.002
   0.16519908  0.16519908 -0.16519908       0.000
   0.00000000  0.00000000 -0.16519908       0.001
   0.00000000 -0.01501810 -0.18021718       0.002
   0.00000000 -0.03003620 -0.19523527       0.002
   0.01501810 -0.01501810 -0.19523527       0.002
   0.00000000 -0.04505429 -0.21025337       0.002
   0.01501810 -0.03003620 -0.21025337       0.005
   0.00000000 -0.06007239 -0.22527147       0.002
   0.01501810 -0.04505429 -0.22527147       0.005
   0.03003620 -0.03003620 -0.22527147       0.002
   0.00000000 -0.07509049 -0.24028957       0.002
   0.01501810 -0.06007239 -0.24028957       0.005
   0.03003620 -0.04505429 -0.24028957       0.005
  -0.31538006 -0.07509049  0.07509049       0.002
  -0.30036196 -0.06007239  0.07509049       0.005
  -0.28534386 -0.04505429  0.07509049       0.002
  -0.28534386 -0.06007239  0.06007239       0.002
   0.00000000  0.00000000 -0.19523527       0.001
   0.00000000 -0.01501810 -0.21025337       0.002
   0.00000000 -0.03003620 -0.22527147       0.002
   0.01501810 -0.01501810 -0.22527147       0.002
   0.00000000 -0.04505429 -0.24028957       0.002
   0.01501810 -0.03003620 -0.24028957       0.005
   0.00000000 -0.06007239 -0.25530767       0.002
   0.01501810 -0.04505429 -0.25530767       0.005
   0.03003620 -0.03003620 -0.25530767       0.002
  -0.31538006 -0.06007239  0.06007239       0.002
  -0.30036196 -0.04505429  0.06007239       0.005
  -0.28534386 -0.04505429  0.04505429       0.001
   0.00000000  0.00000000 -0.22527147       0.001
   0.00000000 -0.01501810 -0.24028957       0.002
   0.00000000 -0.03003620 -0.25530767       0.002
   0.01501810 -0.01501810 -0.25530767       0.002
   0.00000000 -0.04505429 -0.27032577       0.002
   0.01501810 -0.03003620 -0.27032577       0.005
  -0.31538006 -0.04505429  0.04505429       0.002
  -0.30036196 -0.03003620  0.04505429       0.002
   0.00000000  0.00000000 -0.25530767       0.001
   0.00000000 -0.01501810 -0.27032577       0.002
   0.00000000 -0.03003620 -0.28534386       0.002
   0.01501810 -0.01501810 -0.28534386       0.002
  -0.31538006 -0.03003620  0.03003620       0.002
   0.00000000  0.00000000 -0.28534386       0.001
   0.00000000 -0.01501810 -0.30036196       0.002
  -0.31538006 -0.01501810  0.01501810       0.001
   0.00000000  0.00000000 -0.31538006       0.001
 
 k-points in reciprocal lattice and weights: Automatic                               
   0.02272727  0.02272727  0.02272727       0.001
   0.06818182  0.02272727  0.02272727       0.002
   0.11363636  0.02272727  0.02272727       0.002
   0.15909091  0.02272727  0.02272727       0.002
   0.20454545  0.02272727  0.02272727       0.002
   0.25000000  0.02272727  0.02272727       0.002
   0.29545455  0.02272727  0.02272727       0.002
   0.34090909  0.02272727  0.02272727       0.002
   0.38636364  0.02272727  0.02272727       0.002
   0.43181818  0.02272727  0.02272727       0.002
   0.47727273  0.02272727  0.02272727       0.001
  -0.02272727  0.02272727  0.02272727       0.001
   0.06818182  0.06818182  0.02272727       0.002
   0.11363636  0.06818182  0.02272727       0.005
   0.15909091  0.06818182  0.02272727       0.005
   0.20454545  0.06818182  0.02272727       0.005
   0.25000000  0.06818182  0.02272727       0.005
   0.29545455  0.06818182  0.02272727       0.005
   0.34090909  0.06818182  0.02272727       0.005
   0.38636364  0.06818182  0.02272727       0.005
   0.43181818  0.06818182  0.02272727       0.005
  -0.06818182  0.06818182  0.02272727       0.002
   0.11363636  0.11363636  0.02272727       0.002
   0.15909091  0.11363636  0.02272727       0.005
   0.20454545  0.11363636  0.02272727       0.005
   0.25000000  0.11363636  0.02272727       0.005
   0.29545455  0.11363636  0.02272727       0.005
   0.34090909  0.11363636  0.02272727       0.005
   0.38636364  0.11363636  0.02272727       0.005
   0.43181818  0.11363636  0.02272727       0.002
  -0.11363636  0.11363636  0.02272727       0.002
  -0.06818182  0.11363636  0.02272727       0.002
   0.15909091  0.15909091  0.02272727       0.002
   0.20454545  0.15909091  0.02272727       0.005
   0.25000000  0.15909091  0.02272727       0.005
   0.29545455  0.15909091  0.02272727       0.005
   0.34090909  0.15909091  0.02272727       0.005
   0.38636364  0.15909091  0.02272727       0.005
  -0.15909091  0.15909091  0.02272727       0.002
  -0.11363636  0.15909091  0.02272727       0.005
   0.20454545  0.20454545  0.02272727       0.002
   0.25000000  0.20454545  0.02272727       0.005
   0.29545455  0.20454545  0.02272727       0.005
   0.34090909  0.20454545  0.02272727       0.005
   0.38636364  0.20454545  0.02272727       0.002
  -0.20454545  0.20454545  0.02272727       0.002
  -0.15909091  0.20454545  0.02272727       0.005
  -0.11363636  0.20454545  0.02272727       0.002
   0.25000000  0.25000000  0.02272727       0.002
   0.29545455  0.25000000  0.02272727       0.005
   0.34090909  0.25000000  0.02272727       0.005
  -0.25000000  0.25000000  0.02272727       0.002
  -0.20454545  0.25000000  0.02272727       0.005
  -0.15909091  0.25000000  0.02272727       0.005
   0.29545455  0.29545455  0.02272727       0.002
   0.34090909  0.29545455  0.02272727       0.002
  -0.29545455  0.29545455  0.02272727       0.002
  -0.25000000  0.29545455  0.02272727       0.005
  -0.20454545  0.29545455  0.02272727       0.005
  -0.15909091  0.29545455  0.02272727       0.002
  -0.34090909  0.34090909  0.02272727       0.002
  -0.29545455  0.34090909  0.02272727       0.005
  -0.25000000  0.34090909  0.02272727       0.005
  -0.20454545  0.34090909  0.02272727       0.005
  -0.38636364  0.38636364  0.02272727       0.002
  -0.34090909  0.38636364  0.02272727       0.005
  -0.29545455  0.38636364  0.02272727       0.005
  -0.25000000  0.38636364  0.02272727       0.005
  -0.20454545  0.38636364  0.02272727       0.002
  -0.43181818  0.43181818  0.02272727       0.002
  -0.38636364  0.43181818  0.02272727       0.005
  -0.34090909  0.43181818  0.02272727       0.005
  -0.29545455  0.43181818  0.02272727       0.005
  -0.25000000  0.43181818  0.02272727       0.005
  -0.47727273  0.47727273  0.02272727       0.002
  -0.43181818  0.47727273  0.02272727       0.005
  -0.38636364  0.47727273  0.02272727       0.005
  -0.34090909  0.47727273  0.02272727       0.005
  -0.29545455  0.47727273  0.02272727       0.005
  -0.25000000  0.47727273  0.02272727       0.002
  -0.47727273 -0.47727273  0.02272727       0.002
  -0.43181818 -0.47727273  0.02272727       0.005
  -0.38636364 -0.47727273  0.02272727       0.005
  -0.34090909 -0.47727273  0.02272727       0.005
  -0.29545455 -0.47727273  0.02272727       0.005
  -0.43181818 -0.43181818  0.02272727       0.002
  -0.38636364 -0.43181818  0.02272727       0.005
  -0.34090909 -0.43181818  0.02272727       0.005
  -0.29545455 -0.43181818  0.02272727       0.002
  -0.38636364 -0.38636364  0.02272727       0.002
  -0.34090909 -0.38636364  0.02272727       0.005
  -0.34090909 -0.34090909  0.02272727       0.001
   0.06818182  0.06818182  0.06818182       0.001
   0.11363636  0.06818182  0.06818182       0.002
   0.15909091  0.06818182  0.06818182       0.002
   0.20454545  0.06818182  0.06818182       0.002
   0.25000000  0.06818182  0.06818182       0.002
   0.29545455  0.06818182  0.06818182       0.002
   0.34090909  0.06818182  0.06818182       0.002
   0.38636364  0.06818182  0.06818182       0.002
   0.43181818  0.06818182  0.06818182       0.001
  -0.06818182  0.06818182  0.06818182       0.001
   0.11363636  0.11363636  0.06818182       0.002
   0.15909091  0.11363636  0.06818182       0.005
   0.20454545  0.11363636  0.06818182       0.005
   0.25000000  0.11363636  0.06818182       0.005
   0.29545455  0.11363636  0.06818182       0.005
   0.34090909  0.11363636  0.06818182       0.005
   0.38636364  0.11363636  0.06818182       0.005
  -0.11363636  0.11363636  0.06818182       0.002
   0.15909091  0.15909091  0.06818182       0.002
   0.20454545  0.15909091  0.06818182       0.005
   0.25000000  0.15909091  0.06818182       0.005
   0.29545455  0.15909091  0.06818182       0.005
   0.34090909  0.15909091  0.06818182       0.005
   0.38636364  0.15909091  0.06818182       0.002
  -0.15909091  0.15909091  0.06818182       0.002
  -0.11363636  0.15909091  0.06818182       0.002
   0.20454545  0.20454545  0.06818182       0.002
   0.25000000  0.20454545  0.06818182       0.005
   0.29545455  0.20454545  0.06818182       0.005
   0.34090909  0.20454545  0.06818182       0.005
  -0.20454545  0.20454545  0.06818182       0.002
  -0.15909091  0.20454545  0.06818182       0.005
   0.25000000  0.25000000  0.06818182       0.002
   0.29545455  0.25000000  0.06818182       0.005
   0.34090909  0.25000000  0.06818182       0.002
  -0.25000000  0.25000000  0.06818182       0.002
  -0.20454545  0.25000000  0.06818182       0.005
  -0.15909091  0.25000000  0.06818182       0.002
   0.29545455  0.29545455  0.06818182       0.002
  -0.29545455  0.29545455  0.06818182       0.002
  -0.25000000  0.29545455  0.06818182       0.005
  -0.20454545  0.29545455  0.06818182       0.005
  -0.34090909  0.34090909  0.06818182       0.002
  -0.29545455  0.34090909  0.06818182       0.005
  -0.25000000  0.34090909  0.06818182       0.005
  -0.20454545  0.34090909  0.06818182       0.002
  -0.38636364  0.38636364  0.06818182       0.002
  -0.34090909  0.38636364  0.06818182       0.005
  -0.29545455  0.38636364  0.06818182       0.005
  -0.25000000  0.38636364  0.06818182       0.005
  -0.43181818  0.43181818  0.06818182       0.002
  -0.38636364  0.43181818  0.06818182       0.005
  -0.34090909  0.43181818  0.06818182       0.005
  -0.29545455  0.43181818  0.06818182       0.005
  -0.25000000  0.43181818  0.06818182       0.002
  -0.47727273  0.47727273  0.06818182       0.002
  -0.43181818  0.47727273  0.06818182       0.005
  -0.38636364  0.47727273  0.06818182       0.005
  -0.34090909  0.47727273  0.06818182       0.005
  -0.29545455  0.47727273  0.06818182       0.005
  -0.47727273 -0.47727273  0.06818182       0.002
  -0.43181818 -0.47727273  0.06818182       0.005
  -0.38636364 -0.47727273  0.06818182       0.005
  -0.34090909 -0.47727273  0.06818182       0.005
  -0.29545455 -0.47727273  0.06818182       0.002
  -0.43181818 -0.43181818  0.06818182       0.002
  -0.38636364 -0.43181818  0.06818182       0.005
  -0.34090909 -0.43181818  0.06818182       0.005
  -0.38636364 -0.38636364  0.06818182       0.002
  -0.34090909 -0.38636364  0.06818182       0.002
   0.11363636  0.11363636  0.11363636       0.001
   0.15909091  0.11363636  0.11363636       0.002
   0.20454545  0.11363636  0.11363636       0.002
   0.25000000  0.11363636  0.11363636       0.002
   0.29545455  0.11363636  0.11363636       0.002
   0.34090909  0.11363636  0.11363636       0.002
   0.38636364  0.11363636  0.11363636       0.001
  -0.11363636  0.11363636  0.11363636       0.001
   0.15909091  0.15909091  0.11363636       0.002
   0.20454545  0.15909091  0.11363636       0.005
   0.25000000  0.15909091  0.11363636       0.005
   0.29545455  0.15909091  0.11363636       0.005
   0.34090909  0.15909091  0.11363636       0.005
  -0.15909091  0.15909091  0.11363636       0.002
   0.20454545  0.20454545  0.11363636       0.002
   0.25000000  0.20454545  0.11363636       0.005
   0.29545455  0.20454545  0.11363636       0.005
   0.34090909  0.20454545  0.11363636       0.002
  -0.20454545  0.20454545  0.11363636       0.002
  -0.15909091  0.20454545  0.11363636       0.002
   0.25000000  0.25000000  0.11363636       0.002
   0.29545455  0.25000000  0.11363636       0.005
  -0.25000000  0.25000000  0.11363636       0.002
  -0.20454545  0.25000000  0.11363636       0.005
   0.29545455  0.29545455  0.11363636       0.001
  -0.29545455  0.29545455  0.11363636       0.002
  -0.25000000  0.29545455  0.11363636       0.005
  -0.20454545  0.29545455  0.11363636       0.002
  -0.34090909  0.34090909  0.11363636       0.002
  -0.29545455  0.34090909  0.11363636       0.005
  -0.25000000  0.34090909  0.11363636       0.005
  -0.38636364  0.38636364  0.11363636       0.002
  -0.34090909  0.38636364  0.11363636       0.005
  -0.29545455  0.38636364  0.11363636       0.005
  -0.25000000  0.38636364  0.11363636       0.002
  -0.43181818  0.43181818  0.11363636       0.002
  -0.38636364  0.43181818  0.11363636       0.005
  -0.34090909  0.43181818  0.11363636       0.005
  -0.29545455  0.43181818  0.11363636       0.005
  -0.47727273  0.47727273  0.11363636       0.002
  -0.43181818  0.47727273  0.11363636       0.005
  -0.38636364  0.47727273  0.11363636       0.005
  -0.34090909  0.47727273  0.11363636       0.005
  -0.29545455  0.47727273  0.11363636       0.002
  -0.47727273 -0.47727273  0.11363636       0.002
  -0.43181818 -0.47727273  0.11363636       0.005
  -0.38636364 -0.47727273  0.11363636       0.005
  -0.34090909 -0.47727273  0.11363636       0.005
  -0.43181818 -0.43181818  0.11363636       0.002
  -0.38636364 -0.43181818  0.11363636       0.005
  -0.34090909 -0.43181818  0.11363636       0.002
  -0.38636364 -0.38636364  0.11363636       0.002
   0.15909091  0.15909091  0.15909091       0.001
   0.20454545  0.15909091  0.15909091       0.002
   0.25000000  0.15909091  0.15909091       0.002
   0.29545455  0.15909091  0.15909091       0.002
   0.34090909  0.15909091  0.15909091       0.001
  -0.15909091  0.15909091  0.15909091       0.001
   0.20454545  0.20454545  0.15909091       0.002
   0.25000000  0.20454545  0.15909091       0.005
   0.29545455  0.20454545  0.15909091       0.005
  -0.20454545  0.20454545  0.15909091       0.002
   0.25000000  0.25000000  0.15909091       0.002
   0.29545455  0.25000000  0.15909091       0.002
  -0.25000000  0.25000000  0.15909091       0.002
  -0.20454545  0.25000000  0.15909091       0.002
  -0.29545455  0.29545455  0.15909091       0.002
  -0.25000000  0.29545455  0.15909091       0.005
  -0.34090909  0.34090909  0.15909091       0.002
  -0.29545455  0.34090909  0.15909091       0.005
  -0.25000000  0.34090909  0.15909091       0.002
  -0.38636364  0.38636364  0.15909091       0.002
  -0.34090909  0.38636364  0.15909091       0.005
  -0.29545455  0.38636364  0.15909091       0.005
  -0.43181818  0.43181818  0.15909091       0.002
  -0.38636364  0.43181818  0.15909091       0.005
  -0.34090909  0.43181818  0.15909091       0.005
  -0.29545455  0.43181818  0.15909091       0.002
  -0.47727273  0.47727273  0.15909091       0.002
  -0.43181818  0.47727273  0.15909091       0.005
  -0.38636364  0.47727273  0.15909091       0.005
  -0.34090909  0.47727273  0.15909091       0.005
  -0.47727273 -0.47727273  0.15909091       0.002
  -0.43181818 -0.47727273  0.15909091       0.005
  -0.38636364 -0.47727273  0.15909091       0.005
  -0.34090909 -0.47727273  0.15909091       0.002
  -0.43181818 -0.43181818  0.15909091       0.002
  -0.38636364 -0.43181818  0.15909091       0.005
  -0.38636364 -0.38636364  0.15909091       0.001
   0.20454545  0.20454545  0.20454545       0.001
   0.25000000  0.20454545  0.20454545       0.002
   0.29545455  0.20454545  0.20454545       0.001
  -0.20454545  0.20454545  0.20454545       0.001
   0.25000000  0.25000000  0.20454545       0.002
  -0.25000000  0.25000000  0.20454545       0.002
  -0.29545455  0.29545455  0.20454545       0.002
  -0.25000000  0.29545455  0.20454545       0.002
  -0.34090909  0.34090909  0.20454545       0.002
  -0.29545455  0.34090909  0.20454545       0.005
  -0.38636364  0.38636364  0.20454545       0.002
  -0.34090909  0.38636364  0.20454545       0.005
  -0.29545455  0.38636364  0.20454545       0.002
  -0.43181818  0.43181818  0.20454545       0.002
  -0.38636364  0.43181818  0.20454545       0.005
  -0.34090909  0.43181818  0.20454545       0.005
  -0.47727273  0.47727273  0.20454545       0.002
  -0.43181818  0.47727273  0.20454545       0.005
  -0.38636364  0.47727273  0.20454545       0.005
  -0.34090909  0.47727273  0.20454545       0.002
  -0.47727273 -0.47727273  0.20454545       0.002
  -0.43181818 -0.47727273  0.20454545       0.005
  -0.38636364 -0.47727273  0.20454545       0.005
  -0.43181818 -0.43181818  0.20454545       0.002
  -0.38636364 -0.43181818  0.20454545       0.002
   0.25000000  0.25000000  0.25000000       0.000
  -0.25000000  0.25000000  0.25000000       0.001
  -0.29545455  0.29545455  0.25000000       0.002
  -0.34090909  0.34090909  0.25000000       0.002
  -0.29545455  0.34090909  0.25000000       0.002
  -0.38636364  0.38636364  0.25000000       0.002
  -0.34090909  0.38636364  0.25000000       0.005
  -0.43181818  0.43181818  0.25000000       0.002
  -0.38636364  0.43181818  0.25000000       0.005
  -0.34090909  0.43181818  0.25000000       0.002
  -0.47727273  0.47727273  0.25000000       0.002
  -0.43181818  0.47727273  0.25000000       0.005
  -0.38636364  0.47727273  0.25000000       0.005
  -0.47727273 -0.47727273  0.25000000       0.002
  -0.43181818 -0.47727273  0.25000000       0.005
  -0.38636364 -0.47727273  0.25000000       0.002
  -0.43181818 -0.43181818  0.25000000       0.002
  -0.29545455  0.29545455  0.29545455       0.001
  -0.34090909  0.34090909  0.29545455       0.002
  -0.38636364  0.38636364  0.29545455       0.002
  -0.34090909  0.38636364  0.29545455       0.002
  -0.43181818  0.43181818  0.29545455       0.002
  -0.38636364  0.43181818  0.29545455       0.005
  -0.47727273  0.47727273  0.29545455       0.002
  -0.43181818  0.47727273  0.29545455       0.005
  -0.38636364  0.47727273  0.29545455       0.002
  -0.47727273 -0.47727273  0.29545455       0.002
  -0.43181818 -0.47727273  0.29545455       0.005
  -0.43181818 -0.43181818  0.29545455       0.001
  -0.34090909  0.34090909  0.34090909       0.001
  -0.38636364  0.38636364  0.34090909       0.002
  -0.43181818  0.43181818  0.34090909       0.002
  -0.38636364  0.43181818  0.34090909       0.002
  -0.47727273  0.47727273  0.34090909       0.002
  -0.43181818  0.47727273  0.34090909       0.005
  -0.47727273 -0.47727273  0.34090909       0.002
  -0.43181818 -0.47727273  0.34090909       0.002
  -0.38636364  0.38636364  0.38636364       0.001
  -0.43181818  0.43181818  0.38636364       0.002
  -0.47727273  0.47727273  0.38636364       0.002
  -0.43181818  0.47727273  0.38636364       0.002
  -0.47727273 -0.47727273  0.38636364       0.002
  -0.43181818  0.43181818  0.43181818       0.001
  -0.47727273  0.47727273  0.43181818       0.002
  -0.47727273 -0.47727273  0.43181818       0.001
  -0.47727273  0.47727273  0.47727273       0.001
 
 position of ions in fractional coordinates (direct lattice) 
   0.00000000  0.00000000  0.00000000
 
 position of ions in cartesian coordinates  (Angst):
   0.00000000  0.00000000  0.00000000
 


[...]
      1       4.3571      2.00000
      2       5.7192      2.00000
      3      11.1323      0.00000
      4      13.6441      0.00000
      5      18.7076      0.00000
      6      20.3130      0.00000
      7      25.2215      0.00000
      8      28.3704      0.00000

 k-point   288 :      -0.4318    0.4773    0.2500
  band No.  band energies     occupation 
      1       4.1252      2.00000
      2       6.7702      2.00000
      3      10.3588      0.00000
      4      13.9268      0.00000
      5      17.4214      0.00000
      6      19.9873      0.00000
      7      25.8186      0.00000
      8      29.4764      0.00000

 k-point   289 :      -0.3864    0.4773    0.2500
  band No.  band energies     occupation 
      1       4.0066      2.00000
      2       7.9181      2.00000
      3       9.1651      2.00000
      4      14.7668      0.00000
      5      16.2344      0.00000
      6      19.8476      0.00000
      7      25.9678      0.00000
      8      30.9344      0.00000

 k-point   290 :      -0.4773   -0.4773    0.2500
  band No.  band energies     occupation 
      1       5.2334      2.00000
      2       5.5596      2.00000
      3      10.3010      0.00000
      4      13.8734      0.00000
      5      18.1758      0.00000
      6      19.1229      0.00000
      7      25.7677      0.00000
      8      29.4791      0.00000

 k-point   291 :      -0.4318   -0.4773    0.2500
  band No.  band energies     occupation 
      1       5.1956      2.00000
      2       6.5379      2.00000
      3       9.0445      2.00000
      4      14.7051      0.00000
      5      17.1833      0.00000
      6      18.6236      0.00000
      7      25.8883      0.00000
      8      31.0667      0.00000

 k-point   292 :      -0.3864   -0.4773    0.2500
  band No.  band energies     occupation 
      1       5.1419      2.00000
      2       7.6330      2.00000
      3       7.8751      2.00000
      4      15.4255      0.00000
      5      16.3677      0.00000
      6      18.5173      0.00000
      7      25.8992      0.00000
      8      32.1978      0.00000

 k-point   293 :      -0.4318   -0.4318    0.2500
  band No.  band energies     occupation 
      1       6.2345      2.00000
      2       6.5512      2.00000
      3       7.7125      2.00000
      4      15.5843      0.00000
      5      16.9967      0.00000
      6      17.5555      0.00000
      7      25.8710      0.00000
      8      32.6402      0.00000

 k-point   294 :      -0.2955    0.2955    0.2955
  band No.  band energies     occupation 
      1       0.9594      2.00000
      2      11.6976      0.00000
      3      11.6976      0.00000
      4      13.7328      0.00000
      5      14.8600      0.00000
      6      24.1121      0.00000
      7      27.5957      0.00000
      8      28.8235      0.00000

 k-point   295 :      -0.3409    0.3409    0.2955
  band No.  band energies     occupation 
      1       1.8194      2.00000
      2      10.6948      0.00000
      3      11.2460      0.00000
      4      13.5191      0.00000
      5      14.6539      0.00000
      6      22.6000      0.00000
      7      27.6621      0.00000
      8      29.3628      0.00000

 k-point   296 :      -0.3864    0.3864    0.2955
  band No.  band energies     occupation 
      1       2.7962      2.00000
      2       9.2649      2.00000
      3      10.9065      0.00000
      4      13.3365      0.00000
      5      15.1663      0.00000
      6      21.1262      0.00000
      7      27.4100      0.00000
      8      29.6510      0.00000

 k-point   297 :      -0.3409    0.3864    0.2955
  band No.  band energies     occupation 
      1       2.7354      2.00000
      2      10.2357      0.00000
      3      10.3552      0.00000
      4      13.4816      0.00000
      5      14.3932      0.00000
      6      21.0731      0.00000
      7      27.9346      0.00000
      8      30.2841      0.00000

 k-point   298 :      -0.4318    0.4318    0.2955
  band No.  band energies     occupation 
      1       3.8860      2.00000
      2       7.8060      2.00000
      3      10.6801      0.00000
      4      13.1443      0.00000
      5      16.0394      0.00000
      6      19.7363      0.00000
      7      27.2175      0.00000
      8      29.7689      0.00000

 k-point   299 :      -0.3864    0.4318    0.2955
  band No.  band energies     occupation 
      1       3.7658      2.00000
      2       8.9115      2.00000
      3      10.0156      0.00010
      4      13.4861      0.00000
      5      14.8433      0.00000
      6      19.6156      0.00000
      7      27.8176      0.00000
      8      30.7641      0.00000

 k-point   300 :      -0.4773    0.4773    0.2955
  band No.  band energies     occupation 
      1       5.0765      2.00000
      2       6.4203      2.00000
      3      10.5670      0.00000
      4      13.0384      0.00000
      5      17.0328      0.00000
      6      18.5040      0.00000
      7      27.1181      0.00000
      8      29.8086      0.00000

 k-point   301 :      -0.4318    0.4773    0.2955
  band No.  band energies     occupation 
      1       4.9046      2.00000
      2       7.5110      2.00000
      3       9.8414      1.69940
      4      13.3754      0.00000
      5      15.7506      0.00000
      6      18.2667      0.00000
      7      27.7053      0.00000
      8      30.9280      0.00000

 k-point   302 :      -0.3864    0.4773    0.2955
  band No.  band energies     occupation 
      1       4.8460      2.00000
      2       8.5830      2.00000
      3       8.7878      2.00000
      4      14.0369      0.00000
      5      14.8671      0.00000
      6      18.1960      0.00000
      7      27.8148      0.00000
      8      31.9540      0.00000

 k-point   303 :      -0.4773   -0.4773    0.2955
  band No.  band energies     occupation 
      1       6.0103      2.00000
      2       6.3125      2.00000
      3       9.7834      1.99255
      4      13.3286      0.00000
      5      16.5686      0.00000
      6      17.3150      0.00000
      7      27.6635      0.00000
      8      30.9705      0.00000

 k-point   304 :      -0.4318   -0.4773    0.2955
  band No.  band energies     occupation 
      1       6.0226      2.00000
      2       7.3353      2.00000
      3       8.5803      2.00000
      4      14.1769      0.00000
      5      15.6134      0.00000
      6      16.9259      0.00000
      7      27.7729      0.00000
      8      32.4406      0.00000

 k-point   305 :      -0.4318   -0.4318    0.2955
  band No.  band energies     occupation 
      1       7.0093      2.00000
      2       7.4005      2.00000
      3       7.4005      2.00000
      4      14.7474      0.00000
      5      15.8825      0.00000
      6      15.8825      0.00000
      7      27.7733      0.00000
      8      33.6904      0.00000

 k-point   306 :      -0.3409    0.3409    0.3409
  band No.  band energies     occupation 
      1       2.6745      2.00000
      2      10.7934      0.00000
      3      10.7934      0.00000
      4      12.8309      0.00000
      5      13.8380      0.00000
      6      21.0212      0.00000
      7      29.2384      0.00000
      8      30.2327      0.00000

 k-point   307 :      -0.3864    0.3864    0.3409
  band No.  band energies     occupation 
      1       3.6451      2.00000
      2       9.8904      0.72557
      3      10.4537      0.00000
      4      12.7153      0.00000
      5      13.7756      0.00000
      6      19.5002      0.00000
      7      29.3417      0.00000
      8      30.8219      0.00000

 k-point   308 :      -0.4318    0.4318    0.3409
  band No.  band energies     occupation 
      1       4.7267      2.00000
      2       8.5631      2.00000
      3      10.2269      0.00000
      4      12.6232      0.00000
      5      14.4407      0.00000
      6      18.0733      0.00000
      7      29.1792      0.00000
      8      31.1386      0.00000

 k-point   309 :      -0.3864    0.4318    0.3409
  band No.  band energies     occupation 
      1       4.6670      2.00000
      2       9.5465      2.00000
      3       9.6633      2.00000
      4      12.7956      0.00000
      5      13.6388      0.00000
      6      18.0109      0.00000
      7      29.6743      0.00000
      8      31.8075      0.00000

 k-point   310 :      -0.4773    0.4773    0.3409
  band No.  band energies     occupation 
      1       5.9058      2.00000
      2       7.2219      2.00000
      3      10.1134      0.00000
      4      12.5372      0.00000
      5      15.4126      0.00000
      6      16.7979      0.00000
      7      29.0856      0.00000
      8      31.2716      0.00000

 k-point   311 :      -0.4318    0.4773    0.3409
  band No.  band energies     occupation 
      1       5.7933      2.00000
      2       8.3271      2.00000
      3       9.4390      2.00000
      4      12.8937      0.00000
      5      14.2289      0.00000
      6      16.6379      0.00000
      7      29.6382      0.00000
      8      32.2924      0.00000

 k-point   312 :      -0.4773   -0.4773    0.3409
  band No.  band energies     occupation 
      1       6.8895      2.00000
      2       7.1630      2.00000
      3       9.3803      2.00000
      4      12.8768      0.00000
      5      15.0374      0.00000
      6      15.6390      0.00000
      7      29.6124      0.00000
      8      32.4120      0.00000

 k-point   313 :      -0.4318   -0.4773    0.3409
  band No.  band energies     occupation 
      1       6.9462      2.00000
      2       8.1271      2.00000
      3       8.3173      2.00000
      4      13.5208      0.00000
      5      14.3740      0.00000
      6      15.3646      0.00000
      7      29.6918      0.00000
      8      33.4488      0.00000

 k-point   314 :      -0.3864    0.3864    0.3864
  band No.  band energies     occupation 
      1       4.6072      2.00000
      2      10.1135      0.00000
      3      10.1135      0.00000
      4      12.1342      0.00000
      5      13.0711      0.00000
      6      17.9503      0.00000
      7      31.0397      0.00000
      8      31.7579      0.00000

 k-point   315 :      -0.4318    0.4318    0.3864
  band No.  band energies     occupation 
      1       5.6761      2.00000
      2       9.3142      2.00000
      3       9.8864      0.81149
      4      12.1211      0.00000
      5      13.1469      0.00000
      6      16.5050      0.00000
      7      31.1545      0.00000
      8      32.3581      0.00000

 k-point   316 :      -0.4773    0.4773    0.3864
  band No.  band energies     occupation 
      1       6.8354      2.00000
      2       8.0997      2.00000
      3       9.7729      1.99705
      4      12.1245      0.00000
      5      13.9279      0.00000
      6      15.2174      0.00000
      7      31.0770      0.00000
      8      32.6320      0.00000

 k-point   317 :      -0.4318    0.4773    0.3864
  band No.  band energies     occupation 
      1       6.7811      2.00000
      2       9.0861      2.00000
      3       9.2005      2.00000
      4      12.3057      0.00000
      5      13.1343      0.00000
      6      15.1317      0.00000
      7      31.5124      0.00000
      8      33.3050      0.00000

 k-point   318 :      -0.4773   -0.4773    0.3864
  band No.  band energies     occupation 
      1       7.8497      2.00000
      2       8.0819      2.00000
      3       9.0936      2.00000
      4      12.4574      0.00000
      5      13.6930      0.00000
      6      14.1277      0.00000
      7      31.5313      0.00000
      8      33.6420      0.00000

 k-point   319 :      -0.4318    0.4318    0.4318
  band No.  band energies     occupation 
      1       6.7239      2.00000
      2       9.6592      2.00000
      3       9.6592      2.00000
      4      11.6425      0.00000
      5      12.5576      0.00000
      6      15.0600      0.00000
      7      32.8583      0.00000
      8      33.2607      0.00000

 k-point   320 :      -0.4773    0.4773    0.4318
  band No.  band energies     occupation 
      1       7.8416      2.00000
      2       8.9695      2.00000
      3       9.5455      2.00000
      4      11.7089      0.00000
      5      12.7579      0.00000
      6      13.8036      0.00000
      7      32.9590      0.00000
      8      33.7303      0.00000

 k-point   321 :      -0.4773   -0.4773    0.4318
  band No.  band energies     occupation 
      1       8.7775      2.00000
      2       8.9691      2.00000
      3       8.9691      2.00000
      4      11.8062      0.00000
      5      12.8826      0.00000
      6      12.8826      0.00000
      7      33.2368      0.00000
      8      34.4032      0.00000

 k-point   322 :      -0.4773    0.4773    0.4773
  band No.  band energies     occupation 
      1       8.8417      2.00000
      2       9.4316      2.00000
      3       9.4316      2.00000
      4      11.2432      0.00000
      5      12.2988      0.00000
      6      12.6997      0.00000
      7      34.2824      0.00000
      8      34.3575      0.00000


--------------------------------------------------------------------------------------------------------


 soft charge-density along one line, spin component           1
         0         1         2         3         4         5         6         7         8         9
 total charge-density along one line
 
 pseudopotential strength for first ion, spin component:           1
 17.986  25.092   0.000   0.000   0.000   0.000   0.000   0.000
 25.092  35.009   0.000   0.000   0.000   0.000   0.000   0.000
  0.000   0.000   4.100  -0.000   0.000   7.637  -0.000   0.000
  0.000   0.000  -0.000   4.100  -0.000  -0.000   7.637  -0.000
  0.000   0.000   0.000  -0.000   4.100   0.000  -0.000   7.637
  0.000   0.000   7.637  -0.000   0.000  14.239  -0.000   0.000
  0.000   0.000  -0.000   7.637  -0.000  -0.000  14.239  -0.000
  0.000   0.000   0.000  -0.000   7.637   0.000  -0.000  14.239
 total augmentation occupancy for first ion, spin component:           1
  4.765  -1.925   0.000   0.000   0.000   0.000   0.000   0.000
 -1.925   1.204   0.000   0.000   0.000   0.000   0.000   0.000
  0.000   0.000   2.314  -0.000   0.000  -0.541  -0.000  -0.000
  0.000   0.000   0.000   2.314  -0.000   0.000  -0.541   0.000
  0.000   0.000   0.000  -0.000   2.314  -0.000   0.000  -0.541
  0.000   0.000  -0.541  -0.000  -0.000   0.141  -0.000  -0.000
  0.000   0.000  -0.000  -0.541   0.000  -0.000   0.141   0.000
  0.000   0.000   0.000   0.000  -0.541   0.000  -0.000   0.141


------------------------ aborting loop because EDIFF is reached ----------------------------------------


    CHARGE:  cpu time    0.0310: real time    0.0313
    FORLOC:  cpu time    0.0000: real time    0.0005
    FORNL :  cpu time    0.0500: real time    0.0501
    STRESS:  cpu time    0.6849: real time    0.6846
    FORCOR:  cpu time    0.0080: real time    0.0096
    FORHAR:  cpu time    0.0020: real time    0.0019
    MIXING:  cpu time    0.0000: real time    0.0006
    OFIELD:  cpu time    0.0000: real time    0.0002

  FORCE on cell =-STRESS in cart. coord.  units (eV):
  Direction    XX          YY          ZZ          XY          YZ          ZX
  --------------------------------------------------------------------------------------
  Alpha Z     2.30022     2.30022     2.30022
  Ewald     -45.34505   -45.34505   -45.34505    -0.00000    -0.00000     0.00000
  Hartree     0.14426     0.14426     0.14426    -0.00000     0.00000     0.00000
  E(xc)     -12.66963   -12.66963   -12.66963     0.00000    -0.00000    -0.00000
  Local      -5.11896    -5.11896    -5.11896    -0.00001     0.00001     0.00001
  n-local    39.07170    38.37526    38.07283    -0.91247    -1.38372     0.44560
  augment    -6.27659    -6.27659    -6.27659     0.00001    -0.00001    -0.00001
  Kinetic    22.22572    34.24725    28.90436    10.21565    15.20176    -5.40288
  Fock        0.00000     0.00000     0.00000     0.00000     0.00000     0.00000
  -------------------------------------------------------------------------------------
  Total      -0.00004    -0.00004    -0.00004    -0.00000    -0.00000     0.00000
  in kB      -0.00399    -0.00399    -0.00399    -0.00000    -0.00000     0.00000
  external pressure =       -0.00 kB  Pullay stress =        0.00 kB


 VOLUME and BASIS-vectors are now :
 -----------------------------------------------------------------------------
  energy-cutoff  :      350.00
  volume of cell :       14.63
      direct lattice vectors                 reciprocal lattice vectors
     1.540901271  1.540901271  1.540901271     0.324485423  0.324485423  0.000000000
     1.540901271 -1.540901271 -1.540901271     0.324485423  0.000000000 -0.324485423
    -1.540901271  1.540901271 -1.540901271     0.000000000  0.324485423 -0.324485423

  length of vectors
     2.668919290  2.668919290  2.668919290     0.458891685  0.458891685  0.458891685


 FORCES acting on ions
    electron-ion (+dipol)            ewald-force                    non-local-force                 convergence-correction
 -----------------------------------------------------------------------------------------------
   0.117E-14 0.115E-14 0.610E-15   -.424E-16 -.225E-15 -.517E-17   0.000E+00 0.000E+00 0.000E+00   -.176E-15 -.186E-15 0.435E-16
 -----------------------------------------------------------------------------------------------
   0.117E-14 0.115E-14 0.610E-15   -.424E-16 -.225E-15 -.517E-17   0.000E+00 0.000E+00 0.000E+00   -.176E-15 -.186E-15 0.435E-16
 
 
 POSITION                                       TOTAL-FORCE (eV/Angst)
 -----------------------------------------------------------------------------------
     -0.00000      0.00000      0.00000         0.000000      0.000000     -0.000000
 -----------------------------------------------------------------------------------
    total drift:                                0.000000      0.000000      0.000000


--------------------------------------------------------------------------------------------------------



  FREE ENERGIE OF THE ION-ELECTRON SYSTEM (eV)
  ---------------------------------------------------
  free  energy   TOTEN  =        -4.89816618 eV

  energy  without entropy=       -4.89756169  energy(sigma->0) =       -4.89786393
 
 d Force = 0.0000000E+00[ 0.000E+00, 0.000E+00]  d Energy = 0.2138825E-06-0.214E-06
 d Force = 0.0000000E+00[ 0.000E+00, 0.000E+00]  d Ewald  =-0.1168868E-01 0.117E-01


--------------------------------------------------------------------------------------------------------


    POTLOK:  cpu time    0.1760: real time    0.1828


--------------------------------------------------------------------------------------------------------




--------------------------------------------------------------------------------------------------------


  
 reached required accuracy - stopping structural energy minimisation
     LOOP+:  cpu time    6.2640: real time    6.6747
    4ORBIT:  cpu time    0.0000: real time    0.0000

 total amount of memory used by VASP MPI-rank0    38959. kBytes
=======================================================================

   base      :      30000. kBytes
   nonl-proj :       4702. kBytes
   fftplans  :       1246. kBytes
   grid      :        577. kBytes
   one-center:          3. kBytes
   wavefun   :       2431. kBytes
 
  
  
 General timing and accounting informations for this job:
 ========================================================
  
                  Total CPU time used (sec):       35.645
                            User time (sec):       34.565
                          System time (sec):        1.080
                         Elapsed time (sec):       38.664
  
                   Maximum memory used (kb):       63860.
                   Average memory used (kb):          N/A
  
                          Minor page faults:        11173
                          Major page faults:            1
                 Voluntary context switches:        55078
