unknown system                          
           1
     1.513326    1.513326    1.513326
     1.513326   -1.513326   -1.513326
    -1.513326    1.513326   -1.513326
   Si
     1
Direct configuration=     1
   0.00000000  0.00000000  0.00000000
unknown system                          
           1
     1.548460    1.548460    1.548460
     1.548460   -1.548460   -1.548460
    -1.548460    1.548460   -1.548460
   Si
     1
Direct configuration=     2
  -0.00000000 -0.00000000 -0.00000000
unknown system                          
           1
     1.540769    1.540769    1.540769
     1.540769   -1.540769   -1.540769
    -1.540769    1.540769   -1.540769
   Si
     1
Direct configuration=     3
  -0.00000000 -0.00000000 -0.00000000
unknown system                          
           1
     1.540901    1.540901    1.540901
     1.540901   -1.540901   -1.540901
    -1.540901    1.540901   -1.540901
   Si
     1
Direct configuration=     4
  -0.00000000 -0.00000000 -0.00000000
