   1   1   0   0
  0.1408159E+02  0.2710538E-09  0.2710538E-09  0.2710538E-09  0.5000000E-15
  1.000000000000000E-004
  CAR 
 unknown system                          
     38.23730020     -6.28558384  301     10.16501460      1.00000000
     -6.286  0.0000E+00  0.0000E+00
     -6.137  0.0000E+00  0.0000E+00
     -5.989  0.0000E+00  0.0000E+00
     -5.840  0.0000E+00  0.0000E+00
     -5.692  0.0000E+00  0.0000E+00
     -5.544  0.0000E+00  0.0000E+00
     -5.395  0.0000E+00  0.0000E+00
     -5.247  0.0000E+00  0.0000E+00
     -5.098  0.0000E+00  0.0000E+00
     -4.950  0.0000E+00  0.0000E+00
     -4.801  0.0000E+00  0.0000E+00
     -4.653  0.0000E+00  0.0000E+00
     -4.505  0.2129E-15  0.3159E-16
     -4.356  0.2488E-06  0.3692E-07
     -4.208  0.1150E-03  0.1710E-04
     -4.059  0.3948E-03  0.7570E-04
     -3.911  0.6172E-03  0.1673E-03
     -3.763  0.6581E-03  0.2650E-03
     -3.614  0.7723E-03  0.3796E-03
     -3.466  0.9790E-03  0.5249E-03
     -3.317  0.9987E-03  0.6731E-03
     -3.169  0.9764E-03  0.8180E-03
     -3.021  0.1285E-02  0.1009E-02
     -2.872  0.1153E-02  0.1180E-02
     -2.724  0.1045E-02  0.1335E-02
     -2.575  0.1731E-02  0.1592E-02
     -2.427  0.1245E-02  0.1777E-02
     -2.279  0.1417E-02  0.1987E-02
     -2.130  0.1626E-02  0.2228E-02
     -1.982  0.1333E-02  0.2426E-02
     -1.833  0.2115E-02  0.2740E-02
     -1.685  0.1323E-02  0.2936E-02
     -1.536  0.1479E-02  0.3156E-02
     -1.388  0.2199E-02  0.3482E-02
     -1.240  0.1878E-02  0.3761E-02
     -1.091  0.1648E-02  0.4005E-02
     -0.943  0.1905E-02  0.4288E-02
     -0.794  0.2125E-02  0.4604E-02
     -0.646  0.1832E-02  0.4875E-02
     -0.498  0.2172E-02  0.5198E-02
     -0.349  0.2421E-02  0.5557E-02
     -0.201  0.1575E-02  0.5791E-02
     -0.052  0.2034E-02  0.6093E-02
      0.096  0.2873E-02  0.6519E-02
      0.244  0.2040E-02  0.6822E-02
      0.393  0.2404E-02  0.7178E-02
      0.541  0.1862E-02  0.7455E-02
      0.690  0.2600E-02  0.7841E-02
      0.838  0.2715E-02  0.8244E-02
      0.986  0.2251E-02  0.8578E-02
      1.135  0.2664E-02  0.8973E-02
      1.283  0.2427E-02  0.9333E-02
      1.432  0.2641E-02  0.9725E-02
      1.580  0.2235E-02  0.1006E-01
      1.729  0.2579E-02  0.1044E-01
      1.877  0.3346E-02  0.1094E-01
      2.025  0.2860E-02  0.1136E-01
      2.174  0.2365E-02  0.1171E-01
      2.322  0.2888E-02  0.1214E-01
      2.471  0.2219E-02  0.1247E-01
      2.619  0.3483E-02  0.1299E-01
      2.767  0.3570E-02  0.1352E-01
      2.916  0.2815E-02  0.1393E-01
      3.064  0.2270E-02  0.1427E-01
      3.213  0.3033E-02  0.1472E-01
      3.361  0.2958E-02  0.1516E-01
      3.509  0.2677E-02  0.1556E-01
      3.658  0.3156E-02  0.1603E-01
      3.806  0.3054E-02  0.1648E-01
      3.955  0.2601E-02  0.1686E-01
      4.103  0.4146E-02  0.1748E-01
      4.251  0.2981E-02  0.1792E-01
      4.400  0.2845E-02  0.1834E-01
      4.548  0.2526E-02  0.1872E-01
      4.697  0.4013E-02  0.1932E-01
      4.845  0.4164E-02  0.1993E-01
      4.994  0.2579E-02  0.2032E-01
      5.142  0.3668E-02  0.2086E-01
      5.290  0.3480E-02  0.2138E-01
      5.439  0.2772E-02  0.2179E-01
      5.587  0.3377E-02  0.2229E-01
      5.736  0.3664E-02  0.2283E-01
      5.884  0.3146E-02  0.2330E-01
      6.032  0.3515E-02  0.2382E-01
      6.181  0.3400E-02  0.2433E-01
      6.329  0.4121E-02  0.2494E-01
      6.478  0.3465E-02  0.2545E-01
      6.626  0.3805E-02  0.2602E-01
      6.774  0.4699E-02  0.2671E-01
      6.923  0.2767E-02  0.2712E-01
      7.071  0.2534E-02  0.2750E-01
      7.220  0.3728E-02  0.2805E-01
      7.368  0.4372E-02  0.2870E-01
      7.517  0.3620E-02  0.2924E-01
      7.665  0.4659E-02  0.2993E-01
      7.813  0.3834E-02  0.3050E-01
      7.962  0.3331E-02  0.3100E-01
      8.110  0.3088E-02  0.3145E-01
      8.259  0.3801E-02  0.3202E-01
      8.407  0.4124E-02  0.3263E-01
      8.555  0.4776E-02  0.3334E-01
      8.704  0.4562E-02  0.3402E-01
      8.852  0.4035E-02  0.3461E-01
      9.001  0.3276E-02  0.3510E-01
      9.149  0.3243E-02  0.3558E-01
      9.297  0.4595E-02  0.3626E-01
      9.446  0.4260E-02  0.3690E-01
      9.594  0.4725E-02  0.3760E-01
      9.743  0.3671E-02  0.3814E-01
      9.891  0.4641E-02  0.3883E-01
     10.039  0.3344E-02  0.3933E-01
     10.188  0.5272E-02  0.4011E-01
     10.336  0.4593E-02  0.4079E-01
     10.485  0.3701E-02  0.4134E-01
     10.633  0.4936E-02  0.4207E-01
     10.782  0.4773E-02  0.4278E-01
     10.930  0.2081E-02  0.4309E-01
     11.078  0.5191E-02  0.4386E-01
     11.227  0.6516E-02  0.4483E-01
     11.375  0.3845E-02  0.4540E-01
     11.524  0.4117E-02  0.4601E-01
     11.672  0.4975E-02  0.4675E-01
     11.820  0.4700E-02  0.4745E-01
     11.969  0.4563E-02  0.4812E-01
     12.117  0.4586E-02  0.4880E-01
     12.266  0.4203E-02  0.4943E-01
     12.414  0.6048E-02  0.5032E-01
     12.562  0.4906E-02  0.5105E-01
     12.711  0.4173E-02  0.5167E-01
     12.859  0.4967E-02  0.5241E-01
     13.008  0.5786E-02  0.5327E-01
     13.156  0.5927E-02  0.5415E-01
     13.304  0.4850E-02  0.5487E-01
     13.453  0.4743E-02  0.5557E-01
     13.601  0.6118E-02  0.5648E-01
     13.750  0.6835E-02  0.5749E-01
     13.898  0.4644E-02  0.5818E-01
     14.047  0.4867E-02  0.5890E-01
     14.195  0.6859E-02  0.5992E-01
     14.343  0.3313E-02  0.6041E-01
     14.492  0.4777E-02  0.6112E-01
     14.640  0.6206E-02  0.6204E-01
     14.789  0.5873E-02  0.6292E-01
     14.937  0.4460E-02  0.6358E-01
     15.085  0.3859E-02  0.6415E-01
     15.234  0.4143E-02  0.6477E-01
     15.382  0.6344E-02  0.6571E-01
     15.531  0.4127E-02  0.6632E-01
     15.679  0.4080E-02  0.6693E-01
     15.827  0.4316E-02  0.6757E-01
     15.976  0.5519E-02  0.6838E-01
     16.124  0.4348E-02  0.6903E-01
     16.273  0.5035E-02  0.6978E-01
     16.421  0.5185E-02  0.7055E-01
     16.569  0.4473E-02  0.7121E-01
     16.718  0.3853E-02  0.7178E-01
     16.866  0.4331E-02  0.7243E-01
     17.015  0.5570E-02  0.7325E-01
     17.163  0.5628E-02  0.7409E-01
     17.312  0.4875E-02  0.7481E-01
     17.460  0.4665E-02  0.7550E-01
     17.608  0.5916E-02  0.7638E-01
     17.757  0.3524E-02  0.7690E-01
     17.905  0.5174E-02  0.7767E-01
     18.054  0.5839E-02  0.7854E-01
     18.202  0.5481E-02  0.7935E-01
     18.350  0.5993E-02  0.8024E-01
     18.499  0.5199E-02  0.8101E-01
     18.647  0.4131E-02  0.8163E-01
     18.796  0.4502E-02  0.8229E-01
     18.944  0.6665E-02  0.8328E-01
     19.092  0.5975E-02  0.8417E-01
     19.241  0.5415E-02  0.8497E-01
     19.389  0.5095E-02  0.8573E-01
     19.538  0.5606E-02  0.8656E-01
     19.686  0.3733E-02  0.8712E-01
     19.835  0.5228E-02  0.8789E-01
     19.983  0.7235E-02  0.8897E-01
     20.131  0.6540E-02  0.8994E-01
     20.280  0.5417E-02  0.9074E-01
     20.428  0.3909E-02  0.9132E-01
     20.577  0.5985E-02  0.9221E-01
     20.725  0.5358E-02  0.9300E-01
     20.873  0.5962E-02  0.9389E-01
     21.022  0.7564E-02  0.9501E-01
     21.170  0.7089E-02  0.9606E-01
     21.319  0.6851E-02  0.9708E-01
     21.467  0.4649E-02  0.9777E-01
     21.615  0.5720E-02  0.9862E-01
     21.764  0.5232E-02  0.9939E-01
     21.912  0.4154E-02  0.1000E+00
     22.061  0.6363E-02  0.1010E+00
     22.209  0.7933E-02  0.1021E+00
     22.357  0.5781E-02  0.1030E+00
     22.506  0.4093E-02  0.1036E+00
     22.654  0.5532E-02  0.1044E+00
     22.803  0.5753E-02  0.1053E+00
     22.951  0.6147E-02  0.1062E+00
     23.100  0.6074E-02  0.1071E+00
     23.248  0.4789E-02  0.1078E+00
     23.396  0.6951E-02  0.1088E+00
     23.545  0.6778E-02  0.1098E+00
     23.693  0.7892E-02  0.1110E+00
     23.842  0.6892E-02  0.1120E+00
     23.990  0.7440E-02  0.1131E+00
     24.138  0.5201E-02  0.1139E+00
     24.287  0.5590E-02  0.1147E+00
     24.435  0.6647E-02  0.1157E+00
     24.584  0.7780E-02  0.1169E+00
     24.732  0.7133E-02  0.1179E+00
     24.880  0.5695E-02  0.1188E+00
     25.029  0.5229E-02  0.1196E+00
     25.177  0.5524E-02  0.1204E+00
     25.326  0.5853E-02  0.1212E+00
     25.474  0.6785E-02  0.1223E+00
     25.622  0.7959E-02  0.1234E+00
     25.771  0.7982E-02  0.1246E+00
     25.919  0.5605E-02  0.1254E+00
     26.068  0.7245E-02  0.1265E+00
     26.216  0.5992E-02  0.1274E+00
     26.365  0.5256E-02  0.1282E+00
     26.513  0.5650E-02  0.1290E+00
     26.661  0.8322E-02  0.1303E+00
     26.810  0.8175E-02  0.1315E+00
     26.958  0.4745E-02  0.1322E+00
     27.107  0.5054E-02  0.1329E+00
     27.255  0.5611E-02  0.1338E+00
     27.403  0.5184E-02  0.1345E+00
     27.552  0.8259E-02  0.1358E+00
     27.700  0.5738E-02  0.1366E+00
     27.849  0.4796E-02  0.1373E+00
     27.997  0.4827E-02  0.1380E+00
     28.145  0.5182E-02  0.1388E+00
     28.294  0.7960E-02  0.1400E+00
     28.442  0.6470E-02  0.1410E+00
     28.591  0.2462E-02  0.1413E+00
     28.739  0.3676E-02  0.1419E+00
     28.887  0.5784E-02  0.1427E+00
     29.036  0.5878E-02  0.1436E+00
     29.184  0.6239E-02  0.1445E+00
     29.333  0.5574E-02  0.1453E+00
     29.481  0.1917E-02  0.1456E+00
     29.630  0.4862E-02  0.1464E+00
     29.778  0.7348E-02  0.1474E+00
     29.926  0.4810E-02  0.1482E+00
     30.075  0.6536E-02  0.1491E+00
     30.223  0.5123E-02  0.1499E+00
     30.372  0.4093E-02  0.1505E+00
     30.520  0.5356E-02  0.1513E+00
     30.668  0.3941E-02  0.1519E+00
     30.817  0.3048E-02  0.1523E+00
     30.965  0.3744E-02  0.1529E+00
     31.114  0.3289E-02  0.1534E+00
     31.262  0.2950E-02  0.1538E+00
     31.410  0.2768E-02  0.1542E+00
     31.559  0.2728E-02  0.1546E+00
     31.707  0.2503E-02  0.1550E+00
     31.856  0.2684E-02  0.1554E+00
     32.004  0.2419E-02  0.1558E+00
     32.153  0.2153E-02  0.1561E+00
     32.301  0.1322E-02  0.1563E+00
     32.449  0.2424E-02  0.1566E+00
     32.598  0.1402E-02  0.1568E+00
     32.746  0.1873E-02  0.1571E+00
     32.895  0.1748E-02  0.1574E+00
     33.043  0.2146E-02  0.1577E+00
     33.191  0.1614E-02  0.1579E+00
     33.340  0.1262E-02  0.1581E+00
     33.488  0.1096E-02  0.1583E+00
     33.637  0.1730E-02  0.1585E+00
     33.785  0.1359E-02  0.1587E+00
     33.933  0.6965E-03  0.1588E+00
     34.082  0.3273E-03  0.1589E+00
     34.230  0.1482E-02  0.1591E+00
     34.379  0.1324E-02  0.1593E+00
     34.527  0.9710E-03  0.1595E+00
     34.675  0.7933E-03  0.1596E+00
     34.824  0.4695E-03  0.1596E+00
     34.972  0.2512E-03  0.1597E+00
     35.121  0.7033E-04  0.1597E+00
     35.269  0.5234E-03  0.1598E+00
     35.418  0.2437E-03  0.1598E+00
     35.566  0.9340E-03  0.1599E+00
     35.714  0.5257E-05  0.1599E+00
     35.863  0.2550E-04  0.1599E+00
     36.011  0.1717E-03  0.1600E+00
     36.160  0.1274E-04  0.1600E+00
     36.308  0.1841E-03  0.1600E+00
     36.456  0.7459E-06  0.1600E+00
     36.605  0.6386E-15  0.1600E+00
     36.753  0.0000E+00  0.1600E+00
     36.902  0.0000E+00  0.1600E+00
     37.050  0.0000E+00  0.1600E+00
     37.198  0.0000E+00  0.1600E+00
     37.347  0.0000E+00  0.1600E+00
     37.495  0.0000E+00  0.1600E+00
     37.644  0.0000E+00  0.1600E+00
     37.792  0.0000E+00  0.1600E+00
     37.940  0.0000E+00  0.1600E+00
     38.089  0.0000E+00  0.1600E+00
     38.237  0.0000E+00  0.1600E+00
