    1    1  100    1
  0.1408159E+02  0.2710538E-09  0.2710538E-09  0.2710538E-09  0.5000000E-15
  1.000000000000000E-004
  CAR 
 unknown system                          
      4    408      8
 
  0.3125000E-01  0.3125000E-01  0.3125000E-01  0.4882812E-03
    1       -4.261816   1.000000
    2       20.512184   0.000000
    3       21.046882   0.000000
    4       21.046890   0.000000
    5       22.359881   0.000000
    6       22.359889   0.000000
    7       22.602994   0.000000
    8       27.650685   0.000000
 
  0.9375000E-01  0.3125000E-01  0.3125000E-01  0.1464844E-02
    1       -4.110292   1.000000
    2       18.885062   0.000000
    3       19.706067   0.000000
    4       21.111158   0.000000
    5       22.478380   0.000000
    6       23.186125   0.000000
    7       23.689496   0.000000
    8       27.777985   0.000000
 
  0.1562500E+00  0.3125000E-01  0.3125000E-01  0.1464844E-02
    1       -3.732024   1.000000
    2       16.242880   0.000000
    3       19.001957   0.000000
    4       20.459529   0.000000
    5       23.452994   0.000000
    6       23.517534   0.000000
    7       24.602239   0.000000
    8       26.674074   0.000000
 
  0.2187500E+00  0.3125000E-01  0.3125000E-01  0.1464844E-02
    1       -3.128371   1.000000
    2       13.599325   0.000000
    3       18.471108   0.000000
    4       19.905102   0.000000
    5       23.498839   0.000000
    6       23.712651   0.000000
    7       24.700929   0.000000
    8       26.570890   0.000000
 
  0.2812500E+00  0.3125000E-01  0.3125000E-01  0.1464844E-02
    1       -2.301537   1.000000
    2       11.063141   0.000000
    3       18.123436   0.000000
    4       19.496776   0.000000
    5       22.934575   0.000000
    6       23.419386   0.000000
    7       23.835092   0.000000
    8       27.848077   0.000000
 
  0.3437500E+00  0.3125000E-01  0.3125000E-01  0.1464844E-02
    1       -1.254806   1.000000
    2        8.679920   1.000000
    3       17.957268   0.000000
    4       19.211731   0.000000
    5       22.052703   0.000000
    6       22.830540   0.000000
    7       23.408389   0.000000
    8       27.872746   0.000000
 
  0.4062500E+00  0.3125000E-01  0.3125000E-01  0.1464844E-02
    1        0.006564   1.000000
    2        6.474403   1.000000
    3       17.963040   0.000000
    4       18.986933   0.000000
    5       21.406917   0.000000
    6       21.962027   0.000000
    7       23.474041   0.000000
    8       26.999065   0.000000
 
  0.4687500E+00  0.3125000E-01  0.3125000E-01  0.1464844E-02
    1        1.467384   1.000000
    2        4.470786   1.000000
    3       18.117395   0.000000
    4       18.741311   0.000000
    5       21.142094   0.000000
    6       21.300082   0.000000
    7       23.582326   0.000000
    8       26.402419   0.000000
 
 -0.4687500E+00  0.3125000E-01  0.3125000E-01  0.1464844E-02
    1        2.458360   1.000000
    2        3.344062   1.000000
    3       18.369658   0.000000
    4       18.466806   0.000000
    5       20.919365   0.000000
    6       21.284903   0.000000
    7       23.637385   0.000000
    8       26.226965   0.000000
 
 -0.4062500E+00  0.3125000E-01  0.3125000E-01  0.1464844E-02
    1        0.960767   1.000000
    2        5.113454   1.000000
    3       18.241229   0.000000
    4       18.634095   0.000000
    5       20.909771   0.000000
    6       21.758116   0.000000
    7       23.582300   0.000000
    8       26.535670   0.000000
 
 -0.3437500E+00  0.3125000E-01  0.3125000E-01  0.1464844E-02
    1       -0.437259   1.000000
    2        7.188574   1.000000
    3       18.135887   0.000000
    4       18.849777   0.000000
    5       21.324960   0.000000
    6       22.484929   0.000000
    7       23.497168   0.000000
    8       27.229855   0.000000
 
 -0.2812500E+00  0.3125000E-01  0.3125000E-01  0.1464844E-02
    1       -1.627883   1.000000
    2        9.455614   1.000000
    3       18.188478   0.000000
    4       19.068945   0.000000
    5       22.080913   0.000000
    6       23.391790   0.000000
    7       23.478583   0.000000
    8       28.097164   0.000000
 
 -0.2187500E+00  0.3125000E-01  0.3125000E-01  0.1464844E-02
    1       -2.601773   1.000000
    2       11.893224   0.000000
    3       18.416696   0.000000
    4       19.378332   0.000000
    5       22.951807   0.000000
    6       23.594721   0.000000
    7       24.363963   0.000000
    8       27.154821   0.000000
 
 -0.1562500E+00  0.3125000E-01  0.3125000E-01  0.1464844E-02
    1       -3.354522   1.000000
    2       14.472010   0.000000
    3       18.827486   0.000000
    4       19.825628   0.000000
    5       23.304878   0.000000
    6       23.938875   0.000000
    7       24.948600   0.000000
    8       26.217751   0.000000
 
 -0.9375000E-01  0.3125000E-01  0.3125000E-01  0.1464844E-02
    1       -3.883253   1.000000
    2       17.132543   0.000000
    3       19.422273   0.000000
    4       20.419376   0.000000
    5       22.829175   0.000000
    6       23.809332   0.000000
    7       24.371535   0.000000
    8       26.792711   0.000000
 
 -0.3125000E-01  0.3125000E-01  0.3125000E-01  0.1464844E-02
    1       -4.186035   1.000000
    2       19.700148   0.000000
    3       20.188771   0.000000
    4       21.062851   0.000000
    5       21.940315   0.000000
    6       23.291857   0.000000
    7       23.308819   0.000000
    8       27.987990   0.000000
 
  0.9375000E-01  0.9375000E-01  0.3125000E-01  0.1464844E-02
    1       -4.034579   1.000000
    2       18.848768   0.000000
    3       19.310878   0.000000
    4       20.738792   0.000000
    5       21.295036   0.000000
    6       24.271998   0.000000
    7       24.366177   0.000000
    8       26.678957   0.000000
 
  0.1562500E+00  0.9375000E-01  0.3125000E-01  0.2929688E-02
    1       -3.731983   1.000000
    2       17.197353   0.000000
    3       18.100791   0.000000
    4       20.544746   0.000000
    5       21.415925   0.000000
    6       24.973301   0.000000
    7       25.249280   0.000000
    8       25.426576   0.000000
 
  0.2187500E+00  0.9375000E-01  0.3125000E-01  0.2929688E-02
    1       -3.203632   1.000000
    2       14.587343   0.000000
    3       17.507455   0.000000
    4       19.938597   0.000000
    5       22.080403   0.000000
    6       24.351415   0.000000
    7       25.306116   0.000000
    8       25.906826   0.000000
 
  0.2812500E+00  0.9375000E-01  0.3125000E-01  0.2929688E-02
    1       -2.451404   1.000000
    2       12.023485   0.000000
    3       17.104748   0.000000
    4       19.396936   0.000000
    5       21.633277   0.000000
    6       24.465736   0.000000
    7       25.296629   0.000000
    8       25.978256   0.000000
 
  0.3437500E+00  0.9375000E-01  0.3125000E-01  0.2929688E-02
    1       -1.478183   1.000000
    2        9.592643   1.000000
    3       16.890513   0.000000
    4       18.865026   0.000000
    5       20.909333   0.000000
    6       24.175200   0.000000
    7       24.721060   0.000000
    8       27.419387   0.000000
 
  0.4062500E+00  0.9375000E-01  0.3125000E-01  0.2929688E-02
    1       -0.288355   1.000000
    2        7.329438   1.000000
    3       16.861055   0.000000
    4       18.271669   0.000000
    5       20.509494   0.000000
    6       23.298639   0.000000
    7       24.717332   0.000000
    8       28.344495   0.000000
 
  0.4687500E+00  0.9375000E-01  0.3125000E-01  0.2929688E-02
    1        1.108861   1.000000
    2        5.256684   1.000000
    3       16.983852   0.000000
    4       17.688092   0.000000
    5       20.484760   0.000000
    6       22.534582   0.000000
    7       24.753275   0.000000
    8       27.868704   0.000000
 
 -0.4687500E+00  0.9375000E-01  0.3125000E-01  0.2929688E-02
    1        2.607123   1.000000
    2        3.486979   1.000000
    3       16.941046   0.000000
    4       17.526641   0.000000
    5       20.739195   0.000000
    6       21.984107   0.000000
    7       24.739784   0.000000
    8       27.651364   0.000000
 
 -0.4062500E+00  0.9375000E-01  0.3125000E-01  0.2929688E-02
    1        1.615259   1.000000
    2        4.614383   1.000000
    3       16.603680   0.000000
    4       17.961271   0.000000
    5       21.113342   0.000000
    6       21.782927   0.000000
    7       24.641411   0.000000
    8       27.849734   0.000000
 
 -0.3437500E+00  0.9375000E-01  0.3125000E-01  0.2929688E-02
    1        0.155154   1.000000
    2        6.615916   1.000000
    3       16.384365   0.000000
    4       18.568348   0.000000
    5       21.294180   0.000000
    6       22.247117   0.000000
    7       24.521329   0.000000
    8       28.376681   0.000000
 
 -0.2812500E+00  0.9375000E-01  0.3125000E-01  0.2929688E-02
    1       -1.105384   1.000000
    2        8.817892   1.000000
    3       16.342152   0.000000
    4       19.228986   0.000000
    5       21.570829   0.000000
    6       23.109106   0.000000
    7       24.447603   0.000000
    8       28.332699   0.000000
 
 -0.2187500E+00  0.9375000E-01  0.3125000E-01  0.2929688E-02
    1       -2.151399   1.000000
    2       11.194888   0.000000
    3       16.489008   0.000000
    4       19.857313   0.000000
    5       22.143878   0.000000
    6       24.065555   0.000000
    7       24.495790   0.000000
    8       26.652262   0.000000
 
 -0.1562500E+00  0.9375000E-01  0.3125000E-01  0.2929688E-02
    1       -2.977656   1.000000
    2       13.718170   0.000000
    3       16.830228   0.000000
    4       20.450434   0.000000
    5       22.721722   0.000000
    6       24.406157   0.000000
    7       25.071518   0.000000
    8       25.485668   0.000000
 
 -0.9375000E-01  0.9375000E-01  0.3125000E-01  0.2929688E-02
    1       -3.580903   1.000000
    2       16.321610   0.000000
    3       17.373477   0.000000
    4       21.028055   0.000000
    5       22.345805   0.000000
    6       24.452827   0.000000
    7       25.220078   0.000000
    8       25.531752   0.000000
 
 -0.3125000E-01  0.9375000E-01  0.3125000E-01  0.2929688E-02
    1       -3.958903   1.000000
    2       18.029501   0.000000
    3       18.905527   0.000000
    4       20.978082   0.000000
    5       22.084914   0.000000
    6       23.936367   0.000000
    7       24.450091   0.000000
    8       26.711476   0.000000
 
  0.1562500E+00  0.1562500E+00  0.3125000E-01  0.1464844E-02
    1       -3.505298   1.000000
    2       17.243164   0.000000
    3       17.700656   0.000000
    4       19.503907   0.000000
    5       19.915060   0.000000
    6       23.593155   0.000000
    7       26.476159   0.000000
    8       26.569968   0.000000
 
  0.2187500E+00  0.1562500E+00  0.3125000E-01  0.2929688E-02
    1       -3.052733   1.000000
    2       15.676894   0.000000
    3       16.621258   0.000000
    4       19.180674   0.000000
    5       19.897256   0.000000
    6       22.397866   0.000000
    7       27.237454   0.000000
    8       27.380464   0.000000
 
  0.2812500E+00  0.1562500E+00  0.3125000E-01  0.2929688E-02
    1       -2.375956   1.000000
    2       13.156477   0.000000
    3       16.146249   0.000000
    4       18.390615   0.000000
    5       19.974080   0.000000
    6       22.655445   0.000000
    7       27.035106   0.000000
    8       27.557915   0.000000
 
  0.3437500E+00  0.1562500E+00  0.3125000E-01  0.2929688E-02
    1       -1.477457   1.000000
    2       10.699559   0.000000
    3       15.865477   0.000000
    4       17.492049   0.000000
    5       19.552160   0.000000
    6       24.023933   0.000000
    7       26.195828   0.000000
    8       27.647592   0.000000
 
  0.4062500E+00  0.1562500E+00  0.3125000E-01  0.2929688E-02
    1       -0.360988   1.000000
    2        8.389178   1.000000
    3       15.752406   0.000000
    4       16.589885   0.000000
    5       19.357541   0.000000
    6       25.003767   0.000000
    7       25.735371   0.000000
    8       28.012572   0.000000
 
  0.4687500E+00  0.1562500E+00  0.3125000E-01  0.2929688E-02
    1        0.966906   1.000000
    2        6.256699   1.000000
    3       15.521597   0.000000
    4       16.089615   0.000000
    5       19.427955   0.000000
    6       24.329723   0.000000
    7       26.345941   0.000000
    8       29.169774   0.000000
 
 -0.4687500E+00  0.1562500E+00  0.3125000E-01  0.2929688E-02
    1        2.476463   1.000000
    2        4.342249   1.000000
    3       14.911920   0.000000
    4       16.313887   0.000000
    5       19.733154   0.000000
    6       23.683822   0.000000
    7       26.422536   0.000000
    8       30.116146   0.000000
 
 -0.4062500E+00  0.1562500E+00  0.3125000E-01  0.2929688E-02
    1        2.476532   1.000000
    2        4.341681   1.000000
    3       14.407580   0.000000
    4       16.799730   0.000000
    5       20.251599   0.000000
    6       23.217719   0.000000
    7       26.265511   0.000000
    8       30.280369   0.000000
 
 -0.3437500E+00  0.1562500E+00  0.3125000E-01  0.2929688E-02
    1        0.966746   1.000000
    2        6.254938   1.000000
    3       14.087229   0.000000
    4       17.473668   0.000000
    5       20.963439   0.000000
    6       22.963741   0.000000
    7       26.051098   0.000000
    8       30.063359   0.000000
 
 -0.2812500E+00  0.1562500E+00  0.3125000E-01  0.2929688E-02
    1       -0.361235   1.000000
    2        8.384615   1.000000
    3       13.964954   0.000000
    4       18.307903   0.000000
    5       21.826085   0.000000
    6       22.957052   0.000000
    7       25.832957   0.000000
    8       28.119027   0.000000
 
 -0.2187500E+00  0.1562500E+00  0.3125000E-01  0.2929688E-02
    1       -1.477722   1.000000
    2       10.686563   0.000000
    3       14.050031   0.000000
    4       19.259498   0.000000
    5       22.675396   0.000000
    6       23.316789   0.000000
    7       25.479815   0.000000
    8       26.433891   0.000000
 
 -0.1562500E+00  0.1562500E+00  0.3125000E-01  0.2929688E-02
    1       -2.376196   1.000000
    2       13.095427   0.000000
    3       14.380796   0.000000
    4       20.229018   0.000000
    5       23.162897   0.000000
    6       23.929067   0.000000
    7       24.811196   0.000000
    8       25.655445   0.000000
 
 -0.9375000E-01  0.1562500E+00  0.3125000E-01  0.2929688E-02
    1       -3.052923   1.000000
    2       14.663153   0.000000
    3       15.846705   0.000000
    4       20.866243   0.000000
    5       22.703520   0.000000
    6       24.448872   0.000000
    7       25.033124   0.000000
    8       25.361726   0.000000
 
 -0.3125000E-01  0.1562500E+00  0.3125000E-01  0.2929688E-02
    1       -3.505417   1.000000
    2       15.390155   0.000000
    3       18.256140   0.000000
    4       20.371053   0.000000
    5       22.896921   0.000000
    6       24.180378   0.000000
    7       25.201997   0.000000
    8       25.738868   0.000000
 
  0.2187500E+00  0.2187500E+00  0.3125000E-01  0.1464844E-02
    1       -2.676246   1.000000
    2       15.854202   0.000000
    3       16.329966   0.000000
    4       17.939039   0.000000
    5       18.297163   0.000000
    6       20.896258   0.000000
    7       28.733650   0.000000
    8       28.747756   0.000000
 
  0.2812500E+00  0.2187500E+00  0.3125000E-01  0.2929688E-02
    1       -2.075472   1.000000
    2       14.388229   0.000000
    3       15.358473   0.000000
    4       17.013461   0.000000
    5       18.392682   0.000000
    6       20.439487   0.000000
    7       28.922014   0.000000
    8       29.630140   0.000000
 
  0.3437500E+00  0.2187500E+00  0.3125000E-01  0.2929688E-02
    1       -1.252666   1.000000
    2       11.977612   0.000000
    3       14.980054   0.000000
    4       15.852444   0.000000
    5       18.432865   0.000000
    6       21.491336   0.000000
    7       28.216502   0.000000
    8       29.855861   0.000000
 
  0.4062500E+00  0.2187500E+00  0.3125000E-01  0.2929688E-02
    1       -0.211070   1.000000
    2        9.641981   1.000000
    3       14.504726   0.000000
    4       15.054255   0.000000
    5       18.336825   0.000000
    6       23.220446   0.000000
    7       27.325285   0.000000
    8       29.816753   0.000000
 
  0.4687500E+00  0.2187500E+00  0.3125000E-01  0.2929688E-02
    1        1.044197   1.000000
    2        7.461820   1.000000
    3       13.613605   0.000000
    4       15.019773   0.000000
    5       18.408956   0.000000
    6       25.083932   0.000000
    7       26.538185   0.000000
    8       29.685727   0.000000
 
 -0.4687500E+00  0.2187500E+00  0.3125000E-01  0.2929688E-02
    1        2.498898   1.000000
    2        5.472929   1.000000
    3       12.823788   0.000000
    4       15.262538   0.000000
    5       18.686229   0.000000
    6       25.640123   0.000000
    7       27.027315   0.000000
    8       29.687397   0.000000
 
 -0.4062500E+00  0.2187500E+00  0.3125000E-01  0.2929688E-02
    1        3.496141   1.000000
    2        4.339782   1.000000
    3       12.219428   0.000000
    4       15.711194   0.000000
    5       19.170943   0.000000
    6       25.151287   0.000000
    7       27.788339   0.000000
    8       30.382968   0.000000
 
 -0.3437500E+00  0.2187500E+00  0.3125000E-01  0.2929688E-02
    1        1.993802   1.000000
    2        6.105406   1.000000
    3       11.817782   0.000000
    4       16.353242   0.000000
    5       19.857665   0.000000
    6       24.806260   0.000000
    7       27.678773   0.000000
    8       30.005266   0.000000
 
 -0.2812500E+00  0.2187500E+00  0.3125000E-01  0.2929688E-02
    1        0.601724   1.000000
    2        8.149131   1.000000
    3       11.632192   0.000000
    4       17.177045   0.000000
    5       20.733874   0.000000
    6       24.648700   0.000000
    7       27.112627   0.000000
    8       28.211755   0.000000
 
 -0.2187500E+00  0.2187500E+00  0.3125000E-01  0.2929688E-02
    1       -0.583186   1.000000
    2       10.308619   0.000024
    3       11.721334   0.000000
    4       18.160259   0.000000
    5       21.771519   0.000000
    6       24.664516   0.000000
    7       25.643323   0.000000
    8       27.239306   0.000000
 
 -0.1562500E+00  0.2187500E+00  0.3125000E-01  0.2929688E-02
    1       -1.552282   1.000000
    2       11.639754   0.000000
    3       13.000293   0.000000
    4       19.240549   0.000000
    5       22.876324   0.000000
    6       23.898209   0.000000
    7       24.986523   0.000000
    8       26.390176   0.000000
 
 -0.9375000E-01  0.2187500E+00  0.3125000E-01  0.2929688E-02
    1       -2.301236   1.000000
    2       12.145130   0.000000
    3       15.407339   0.000000
    4       20.123961   0.000000
    5       22.562822   0.000000
    6       24.111612   0.000000
    7       24.961408   0.000000
    8       25.774009   0.000000
 
 -0.3125000E-01  0.2187500E+00  0.3125000E-01  0.2929688E-02
    1       -2.827224   1.000000
    2       12.781376   0.000000
    3       17.789295   0.000000
    4       19.847545   0.000000
    5       22.809013   0.000000
    6       23.988396   0.000000
    7       24.879437   0.000000
    8       26.215791   0.000000
 
  0.2812500E+00  0.2812500E+00  0.3125000E-01  0.1464844E-02
    1       -1.551070   1.000000
    2       14.692973   0.000000
    3       15.211284   0.000000
    4       15.451909   0.000000
    5       16.984424   0.000000
    6       19.228434   0.000000
    7       30.546766   0.000000
    8       30.925356   0.000000
 
  0.3437500E+00  0.2812500E+00  0.3125000E-01  0.2929688E-02
    1       -0.804635   1.000000
    2       13.322016   0.000000
    3       13.993671   0.000000
    4       14.543642   0.000000
    5       17.295540   0.000000
    6       19.268993   0.000000
    7       30.311776   0.000000
    8       31.787030   0.000000
 
  0.4062500E+00  0.2812500E+00  0.3125000E-01  0.2929688E-02
    1        0.160885   1.000000
    2       11.051466   0.000000
    3       12.828129   0.000000
    4       14.228501   0.000000
    5       17.454214   0.000000
    6       20.642464   0.000000
    7       29.523384   0.000000
    8       31.900429   0.000000
 
  0.4687500E+00  0.2812500E+00  0.3125000E-01  0.2929688E-02
    1        1.340992   1.000000
    2        8.853637   1.000000
    3       11.747199   0.000000
    4       14.207414   0.000000
    5       17.536855   0.000000
    6       22.577527   0.000000
    7       28.695963   0.000000
    8       31.622449   0.000000
 
 -0.4687500E+00  0.2812500E+00  0.3125000E-01  0.2929688E-02
    1        2.726559   1.000000
    2        6.815000   1.000000
    3       10.852566   0.000000
    4       14.398219   0.000000
    5       17.774018   0.000000
    6       24.705960   0.000000
    7       27.975569   0.000000
    8       31.129401   0.000000
 
 -0.4062500E+00  0.2812500E+00  0.3125000E-01  0.2929688E-02
    1        4.228716   1.000000
    2        5.044715   1.000000
    3       10.162854   0.524364
    4       14.791020   0.000000
    5       18.208523   0.000000
    6       26.720717   0.000000
    7       27.545578   0.000000
    8       30.481408   0.000000
 
 -0.3437500E+00  0.2812500E+00  0.3125000E-01  0.2929688E-02
    1        3.230133   1.000000
    2        6.159714   1.000000
    3        9.693780   1.000000
    4       15.380700   0.000000
    5       18.844782   0.000000
    6       26.854776   0.000000
    7       28.824480   0.000000
    8       29.513372   0.000000
 
 -0.2812500E+00  0.2812500E+00  0.3125000E-01  0.2929688E-02
    1        1.779348   1.000000
    2        8.046012   1.000000
    3        9.512843   1.000000
    4       16.160297   0.000000
    5       19.675564   0.000000
    6       26.631338   0.000000
    7       27.585889   0.000000
    8       29.250453   0.000000
 
 -0.2187500E+00  0.2812500E+00  0.3125000E-01  0.2929688E-02
    1        0.528480   1.000000
    2        9.109150   1.000000
    3       10.555654   0.000000
    4       17.116257   0.000000
    5       20.680573   0.000000
    6       25.586725   0.000000
    7       26.531218   0.000000
    8       28.200007   0.000000
 
 -0.1562500E+00  0.2812500E+00  0.3125000E-01  0.2929688E-02
    1       -0.509160   1.000000
    2        9.352330   1.000000
    3       12.786270   0.000000
    4       18.211276   0.000000
    5       21.799694   0.000000
    6       23.765376   0.000000
    7       26.221753   0.000000
    8       27.264632   0.000000
 
 -0.9375000E-01  0.2812500E+00  0.3125000E-01  0.2929688E-02
    1       -1.328694   1.000000
    2        9.726546   1.000000
    3       15.192542   0.000000
    4       19.274650   0.000000
    5       22.104372   0.000000
    6       23.162171   0.000000
    7       25.067153   0.000000
    8       27.309133   0.000000
 
 -0.3125000E-01  0.2812500E+00  0.3125000E-01  0.2929688E-02
    1       -1.926854   1.000000
    2       10.295336   0.000114
    3       17.508758   0.000000
    4       19.427171   0.000000
    5       22.007122   0.000000
    6       23.824721   0.000000
    7       23.961431   0.000000
    8       27.672917   0.000000
 
  0.3437500E+00  0.3437500E+00  0.3125000E-01  0.1464844E-02
    1       -0.135113   1.000000
    2       12.495193   0.000000
    3       13.871325   0.000000
    4       14.352954   0.000000
    5       16.034434   0.000000
    6       18.220609   0.000000
    7       31.967220   0.000000
    8       32.908084   0.000000
 
  0.4062500E+00  0.3437500E+00  0.3125000E-01  0.2929688E-02
    1        0.753358   1.000000
    2       11.124998   0.000000
    3       12.648564   0.000000
    4       13.692277   0.000000
    5       16.503208   0.000000
    6       18.492300   0.000000
    7       31.712038   0.000000
    8       33.685851   0.000000
 
  0.4687500E+00  0.3437500E+00  0.3125000E-01  0.2929688E-02
    1        1.856063   1.000000
    2        9.867208   1.000000
    3       10.583023   0.000000
    4       13.601829   0.000000
    5       16.800433   0.000000
    6       20.055774   0.000000
    7       30.985033   0.000000
    8       33.570726   0.000000
 
 -0.4687500E+00  0.3437500E+00  0.3125000E-01  0.2929688E-02
    1        3.165209   1.000000
    2        8.272530   1.000000
    3        9.130589   1.000000
    4       13.729630   0.000000
    5       17.034265   0.000000
    6       22.153856   0.000000
    7       30.257994   0.000000
    8       32.962831   0.000000
 
 -0.4062500E+00  0.3437500E+00  0.3125000E-01  0.2929688E-02
    1        4.652433   1.000000
    2        6.439104   1.000000
    3        8.314223   1.000000
    4       14.060232   0.000000
    5       17.422434   0.000000
    6       24.453187   0.000000
    7       29.630665   0.000000
    8       31.877536   0.000000
 
 -0.3437500E+00  0.3437500E+00  0.3125000E-01  0.2929688E-02
    1        4.661579   1.000000
    2        6.347560   1.000000
    3        7.833670   1.000000
    4       14.589922   0.000000
    5       18.003034   0.000000
    6       26.792370   0.000000
    7       29.128955   0.000000
    8       30.081772   0.000000
 
 -0.2812500E+00  0.3437500E+00  0.3125000E-01  0.2929688E-02
    1        3.163025   1.000000
    2        7.122426   1.000000
    3        8.601173   1.000000
    4       15.314567   0.000000
    5       18.778753   0.000000
    6       27.736615   0.000000
    7       28.753178   0.000000
    8       29.107240   0.000000
 
 -0.2187500E+00  0.3437500E+00  0.3125000E-01  0.2929688E-02
    1        1.851068   1.000000
    2        7.082346   1.000000
    3       10.598597   0.000000
    4       16.224754   0.000000
    5       19.736325   0.000000
    6       25.697837   0.000000
    7       28.119312   0.000000
    8       29.195284   0.000000
 
 -0.1562500E+00  0.3437500E+00  0.3125000E-01  0.2929688E-02
    1        0.748017   1.000000
    2        7.175541   1.000000
    3       12.834735   0.000000
    4       17.297241   0.000000
    5       20.832622   0.000000
    6       23.766695   0.000000
    7       26.721973   0.000000
    8       29.047601   0.000000
 
 -0.9375000E-01  0.3437500E+00  0.3125000E-01  0.2929688E-02
    1       -0.139664   1.000000
    2        7.468962   1.000000
    3       15.179320   0.000000
    4       18.437551   0.000000
    5       21.708542   0.000000
    6       22.400272   0.000000
    7       25.182901   0.000000
    8       29.139080   0.000000
 
 -0.3125000E-01  0.3437500E+00  0.3125000E-01  0.2929688E-02
    1       -0.808087   1.000000
    2        7.970575   1.000000
    3       17.414119   0.000000
    4       19.048734   0.000000
    5       21.298208   0.000000
    6       22.937955   0.000000
    7       23.872967   0.000000
    8       27.963564   0.000000
 
  0.4062500E+00  0.4062500E+00  0.3125000E-01  0.1464844E-02
    1        1.563295   1.000000
    2        9.689668   1.000000
    3       13.250113   0.000000
    4       13.757185   0.000000
    5       15.373167   0.000000
    6       17.570387   0.000000
    7       33.277864   0.000000
    8       34.632188   0.000000
 
  0.4687500E+00  0.4062500E+00  0.3125000E-01  0.2929688E-02
    1        2.585750   1.000000
    2        8.425822   1.000000
    3       12.150170   0.000000
    4       13.212598   0.000000
    5       15.999527   0.000000
    6       18.007014   0.000000
    7       33.121313   0.000000
    8       35.162541   0.000000
 
 -0.4687500E+00  0.4062500E+00  0.3125000E-01  0.2929688E-02
    1        3.808550   1.000000
    2        7.366595   1.000000
    3       10.141439   0.747557
    4       13.261364   0.000000
    5       16.439462   0.000000
    6       19.727107   0.000000
    7       32.500607   0.000000
    8       34.479477   0.000000
 
 -0.4062500E+00  0.4062500E+00  0.3125000E-01  0.2929688E-02
    1        5.169053   1.000000
    2        6.555054   1.000000
    3        8.246733   1.000000
    4       13.526247   0.000000
    5       16.819860   0.000000
    6       21.968471   0.000000
    7       31.808812   0.000000
    8       32.900284   0.000000
 
 -0.3437500E+00  0.4062500E+00  0.3125000E-01  0.2929688E-02
    1        5.631956   1.000000
    2        6.283915   1.000000
    3        7.290269   1.000000
    4       13.992708   0.000000
    5       17.351943   0.000000
    6       24.399718   0.000000
    7       30.438243   0.000000
    8       31.468856   0.000000
 
 -0.2812500E+00  0.4062500E+00  0.3125000E-01  0.2929688E-02
    1        4.670242   1.000000
    2        5.445534   1.000000
    3        8.925535   1.000000
    4       14.656943   0.000000
    5       18.071711   0.000000
    6       26.791488   0.000000
    7       28.298668   0.000000
    8       30.576635   0.000000
 
 -0.2187500E+00  0.4062500E+00  0.3125000E-01  0.2929688E-02
    1        3.357540   1.000000
    2        5.192831   1.000000
    3       10.924580   0.000000
    4       15.512970   0.000000
    5       18.976085   0.000000
    6       25.980113   0.000000
    7       28.361646   0.000000
    8       30.043316   0.000000
 
 -0.1562500E+00  0.4062500E+00  0.3125000E-01  0.2929688E-02
    1        2.205098   1.000000
    2        5.185651   1.000000
    3       13.095485   0.000000
    4       16.545537   0.000000
    5       20.031949   0.000000
    6       23.976240   0.000000
    7       26.995347   0.000000
    8       30.966056   0.000000
 
 -0.9375000E-01  0.4062500E+00  0.3125000E-01  0.2929688E-02
    1        1.256732   1.000000
    2        5.399137   1.000000
    3       15.360303   0.000000
    4       17.699703   0.000000
    5       21.093326   0.000000
    6       22.271924   0.000000
    7       25.341452   0.000000
    8       29.192116   0.000000
 
 -0.3125000E-01  0.4062500E+00  0.3125000E-01  0.2929688E-02
    1        0.522394   1.000000
    2        5.829772   1.000000
    3       17.493800   0.000000
    4       18.635700   0.000000
    5       20.944334   0.000000
    6       22.123092   0.000000
    7       23.941114   0.000000
    8       27.239971   0.000000
 