       N       E                     dE             d eps       ncg     rms          rms(c)
DAV:   1    -0.333998416504E+01   -0.33400E+01   -0.14676E+03  7232   0.275E+02
DAV:   2    -0.489658637967E+01   -0.15566E+01   -0.15033E+01  9984   0.236E+01
DAV:   3    -0.490328056160E+01   -0.66942E-02   -0.66878E-02  7264   0.154E+00
DAV:   4    -0.490328600021E+01   -0.54386E-05   -0.54386E-05 10984   0.448E-02
DAV:   5    -0.490328600062E+01   -0.40299E-09   -0.61288E-09  7352   0.263E-04    0.280E+00
DAV:   6    -0.488980970366E+01    0.13476E-01   -0.38942E-03  7488   0.272E-01    0.155E+00
DAV:   7    -0.488205580374E+01    0.77539E-02   -0.78907E-03  7760   0.387E-01    0.133E-01
DAV:   8    -0.488201771160E+01    0.38092E-04   -0.24791E-05  9848   0.395E-02    0.145E-02
DAV:   9    -0.488201800945E+01   -0.29785E-06   -0.36667E-07  8224   0.339E-03
   1 F= -.48820180E+01 E0= -.48817435E+01  d E =-.488202E+01
       N       E                     dE             d eps       ncg     rms          rms(c)
DAV:   1    -0.488682090754E+01   -0.48032E-02   -0.10174E-01  7120   0.125E+00    0.302E-01
DAV:   2    -0.488569410207E+01    0.11268E-02   -0.55462E-04  9048   0.170E-01    0.169E-01
DAV:   3    -0.488503858452E+01    0.65552E-03   -0.75030E-04  7216   0.115E-01    0.510E-02
DAV:   4    -0.488503760672E+01    0.97780E-06   -0.13619E-06  9904   0.100E-02    0.429E-02
DAV:   5    -0.488503369338E+01    0.39133E-05   -0.26849E-07  5224   0.356E-03    0.844E-03
DAV:   6    -0.488503394146E+01   -0.24808E-06   -0.85158E-09  3672   0.771E-04
   2 F= -.48850339E+01 E0= -.48847039E+01  d E =-.301593E-02
       N       E                     dE             d eps       ncg     rms          rms(c)
DAV:   1    -0.488504792266E+01   -0.14229E-04   -0.29321E-04  7144   0.676E-02    0.157E-02
DAV:   2    -0.488504470776E+01    0.32149E-05   -0.15754E-06  8744   0.904E-03    0.879E-03
DAV:   3    -0.488504299607E+01    0.17117E-05   -0.21517E-06  6888   0.615E-03    0.279E-03
DAV:   4    -0.488504301619E+01   -0.20115E-07   -0.40745E-09  3432   0.558E-04    0.236E-03
DAV:   5    -0.488504313493E+01   -0.11874E-06   -0.11306E-09  3376   0.254E-04    0.372E-04
DAV:   6    -0.488504312132E+01    0.13606E-07   -0.37900E-11  3424   0.490E-05
   3 F= -.48850431E+01 E0= -.48847104E+01  d E =-.302511E-02
