unknown system                          
           1
     2.347395    0.000000    1.355268
     0.782465    2.213145    1.355268
     0.000000    0.000000    2.710538
   Si
     1
Direct configuration=     1
   0.00000000  0.00000000  0.00000000
unknown system                          
           1
     2.371393   -0.000000    1.369124
     0.790464    2.235771    1.369124
    -0.000000   -0.000000    2.738249
   Si
     1
Direct configuration=     2
  -0.00000000  0.00000000 -0.00000000
unknown system                          
           1
     2.370109   -0.000000    1.368382
     0.790036    2.234560    1.368382
    -0.000000   -0.000000    2.736766
   Si
     1
Direct configuration=     3
  -0.00000000  0.00000000 -0.00000000
