unknown system                          
   1.00000000000000     
     2.798630   -0.000000    0.000000
     0.000000    2.798630    0.000000
     0.000000   -0.000000    2.798630
   Fe
     2
Direct
  0.000000  0.000000  0.000000
  0.500000  0.500000  0.500000
 
   36   36   36
  199.01      194.04      179.83      158.32      132.27      104.68      78.330      55.339      37.015      23.782    
  15.287      10.572      8.3643      7.2836      6.5151      5.9942      5.6746      5.5122      5.4601      5.5122    
  5.6746      5.9942      6.5151      7.2836      8.3643      10.572      15.287      23.782      37.015      55.339    
  78.330      104.68      132.27      158.32      179.83      194.04      194.04      189.21      175.40      154.49    
  129.12      102.24      76.526      54.080      36.194      23.291      15.029      10.462      8.3286      7.2673    
  6.5050      5.9907      5.6747      5.5148      5.4632      5.5148      5.6747      5.9907      6.5050      7.2673    
  8.3286      10.462      15.029      23.291      36.194      54.080      76.526      102.24      129.12      154.49    
  175.40      189.21      179.83      175.40      162.73      143.48      120.08      95.182      71.312      50.443    
  33.824      21.881      14.295      10.153      8.2280      7.2178      6.4753      5.9801      5.6752      5.5221    
  5.4719      5.5221      5.6752      5.9801      6.4753      7.2178      8.2280      10.153      14.295      21.881    
  33.824      50.443      71.312      95.182      120.08      143.48      162.73      175.40      158.32      154.49    
  143.48      126.72      106.23      84.339      63.273      44.832      30.184      19.740      13.203      9.7079    
  8.0776      7.1337      6.4274      5.9620      5.6762      5.5329      5.4859      5.5329      5.6762      5.9620    
  6.4274      7.1337      8.0776      9.7079      13.203      19.740      30.184      44.832      63.273      84.339    
  106.23      126.72      143.48      154.49      132.27      129.12      120.08      106.23      89.218      70.954    
  53.323      37.901      25.725      17.167      11.931      9.2098      7.8913      7.0145      6.3642      5.9364    
  5.6774      5.5453      5.5039      5.5453      5.6774      5.9364      6.3642      7.0145      7.8913      9.2098    
  11.931      17.167      25.725      37.901      53.323      70.954      89.218      106.23      120.08      129.12    
  104.68      102.24      95.182      84.339      70.954      56.533      42.601      30.476      21.024      14.530    
  10.686      8.7345      7.6696      6.8658      6.2884      5.9050      5.6779      5.5581      5.5234      5.5581    
  5.6779      5.9050      6.2884      6.8658      7.6696      8.7345      10.686      14.530      21.024      30.476    
  42.601      56.533      70.954      84.339      95.182      102.24      78.330      76.526      71.312      63.273    
  53.323      42.601      32.294      23.433      16.674      12.189      9.6381      8.3075      7.4077      6.7004    
  6.2020      5.8714      5.6751      5.5709      5.5406      5.5709      5.6751      5.8714      6.2020      6.7004    
  7.4077      8.3075      9.6381      12.189      16.674      23.433      32.294      42.601      53.323      63.273    
  71.312      76.526      55.339      54.080      50.443      44.832      37.901      30.476      23.433      17.510    
  13.155      10.388      8.8509      7.8941      7.1190      6.5299      6.1103      5.8367      5.6686      5.5820    
  5.5537      5.5820      5.6686      5.8367      6.1103      6.5299      7.1190      7.8941      8.8509      10.388    
  13.155      17.510      23.433      30.476      37.901      44.832      50.443      54.080      37.015      36.194    
  33.824      30.184      25.725      21.024      16.674      13.155      10.685      9.1785      8.2346      7.4646    
  6.8346      6.3592      6.0231      5.7990      5.6609      5.5866      5.5636      5.5866      5.6609      5.7990    
  6.0231      6.3592      6.8346      7.4646      8.2346      9.1785      10.685      13.155      16.674      21.024    
  25.725      30.184      33.824      36.194      23.782      23.291      21.881      19.740      17.167      14.530    
  12.189      10.388      9.1785      8.3580      7.6602      7.0531      6.5681      6.2016      5.9399      5.7616    
  5.6488      5.5866      5.5670      5.5866      5.6488      5.7616      5.9399      6.2016      6.5681      7.0531    
  7.6602      8.3580      9.1785      10.388      12.189      14.530      17.167      19.740      21.881      23.291    
  15.287      15.029      14.295      13.203      11.931      10.686      9.6381      8.8509      8.2346      7.6602    
  7.1328      6.6881      6.3319      6.0615      5.8636      5.7249      5.6329      5.5808      5.5636      5.5808    
  5.6329      5.7249      5.8636      6.0615      6.3319      6.6881      7.1328      7.6602      8.2346      8.8509    
  9.6381      10.686      11.931      13.203      14.295      15.029      10.572      10.462      10.153      9.7079    
  9.2098      8.7345      8.3075      7.8941      7.4646      7.0531      6.6881      6.3799      6.1327      5.9404    
  5.7944      5.6864      5.6121      5.5681      5.5537      5.5681      5.6121      5.6864      5.7944      5.9404    
  6.1327      6.3799      6.6881      7.0531      7.4646      7.8941      8.3075      8.7345      9.2098      9.7079    
  10.153      10.462      8.3643      8.3286      8.2280      8.0776      7.8913      7.6696      7.4077      7.1190    
  6.8346      6.5681      6.3319      6.1327      5.9691      5.8363      5.7299      5.6482      5.5890      5.5529    
  5.5406      5.5529      5.5890      5.6482      5.7299      5.8363      5.9691      6.1327      6.3319      6.5681    
  6.8346      7.1190      7.4077      7.6696      7.8913      8.0776      8.2280      8.3286      7.2836      7.2673    
  7.2178      7.1337      7.0145      6.8658      6.7004      6.5299      6.3592      6.2016      6.0615      5.9404    
  5.8363      5.7468      5.6722      5.6107      5.5637      5.5337      5.5234      5.5337      5.5637      5.6107    
  5.6722      5.7468      5.8363      5.9404      6.0615      6.2016      6.3592      6.5299      6.7004      6.8658    
  7.0145      7.1337      7.2178      7.2673      6.5151      6.5050      6.4753      6.4274      6.3642      6.2884    
  6.2020      6.1103      6.0231      5.9399      5.8636      5.7944      5.7299      5.6722      5.6197      5.5734    
  5.5362      5.5123      5.5039      5.5123      5.5362      5.5734      5.6197      5.6722      5.7299      5.7944    
  5.8636      5.9399      6.0231      6.1103      6.2020      6.2884      6.3642      6.4274      6.4753      6.5050    
  5.9942      5.9907      5.9801      5.9620      5.9364      5.9050      5.8714      5.8367      5.7990      5.7616    
  5.7249      5.6864      5.6482      5.6107      5.5734      5.5386      5.5105      5.4923      5.4859      5.4923    
  5.5105      5.5386      5.5734      5.6107      5.6482      5.6864      5.7249      5.7616      5.7990      5.8367    
  5.8714      5.9050      5.9364      5.9620      5.9801      5.9907      5.6746      5.6747      5.6752      5.6762    
  5.6774      5.6779      5.6751      5.6686      5.6609      5.6488      5.6329      5.6121      5.5890      5.5637    
  5.5362      5.5105      5.4898      5.4766      5.4719      5.4766      5.4898      5.5105      5.5362      5.5637    
  5.5890      5.6121      5.6329      5.6488      5.6609      5.6686      5.6751      5.6779      5.6774      5.6762    
  5.6752      5.6747      5.5122      5.5148      5.5221      5.5329      5.5453      5.5581      5.5709      5.5820    
  5.5866      5.5866      5.5808      5.5681      5.5529      5.5337      5.5123      5.4923      5.4766      5.4665    
  5.4632      5.4665      5.4766      5.4923      5.5123      5.5337      5.5529      5.5681      5.5808      5.5866    
  5.5866      5.5820      5.5709      5.5581      5.5453      5.5329      5.5221      5.5148      5.4601      5.4632    
  5.4719      5.4859      5.5039      5.5234      5.5406      5.5537      5.5636      5.5670      5.5636      5.5537    
  5.5406      5.5234      5.5039      5.4859      5.4719      5.4632      5.4601      5.4632      5.4719      5.4859    
  5.5039      5.5234      5.5406      5.5537      5.5636      5.5670      5.5636      5.5537      5.5406      5.5234    
  5.5039      5.4859      5.4719      5.4632      5.5122      5.5148      5.5221      5.5329      5.5453      5.5581    
  5.5709      5.5820      5.5866      5.5866      5.5808      5.5681      5.5529      5.5337      5.5123      5.4923    
  5.4766      5.4665      5.4632      5.4665      5.4766      5.4923      5.5123      5.5337      5.5529      5.5681    
  5.5808      5.5866      5.5866      5.5820      5.5709      5.5581      5.5453      5.5329      5.5221      5.5148    
  5.6746      5.6747      5.6752      5.6762      5.6774      5.6779      5.6751      5.6686      5.6609      5.6488    
  5.6329      5.6121      5.5890      5.5637      5.5362      5.5105      5.4898      5.4766      5.4719      5.4766    
  5.4898      5.5105      5.5362      5.5637      5.5890      5.6121      5.6329      5.6488      5.6609      5.6686    
  5.6751      5.6779      5.6774      5.6762      5.6752      5.6747      5.9942      5.9907      5.9801      5.9620    
  5.9364      5.9050      5.8714      5.8367      5.7990      5.7616      5.7249      5.6864      5.6482      5.6107    
  5.5734      5.5386      5.5105      5.4923      5.4859      5.4923      5.5105      5.5386      5.5734      5.6107    
  5.6482      5.6864      5.7249      5.7616      5.7990      5.8367      5.8714      5.9050      5.9364      5.9620    
  5.9801      5.9907      6.5151      6.5050      6.4753      6.4274      6.3642      6.2884      6.2020      6.1103    
  6.0231      5.9399      5.8636      5.7944      5.7299      5.6722      5.6197      5.5734      5.5362      5.5123    
  5.5039      5.5123      5.5362      5.5734      5.6197      5.6722      5.7299      5.7944      5.8636      5.9399    
  6.0231      6.1103      6.2020      6.2884      6.3642      6.4274      6.4753      6.5050      7.2836      7.2673    
  7.2178      7.1337      7.0145      6.8658      6.7004      6.5299      6.3592      6.2016      6.0615      5.9404    
  5.8363      5.7468      5.6722      5.6107      5.5637      5.5337      5.5234      5.5337      5.5637      5.6107    
  5.6722      5.7468      5.8363      5.9404      6.0615      6.2016      6.3592      6.5299      6.7004      6.8658    
  7.0145      7.1337      7.2178      7.2673      8.3643      8.3286      8.2280      8.0776      7.8913      7.6696    
  7.4077      7.1190      6.8346      6.5681      6.3319      6.1327      5.9691      5.8363      5.7299      5.6482    
  5.5890      5.5529      5.5406      5.5529      5.5890      5.6482      5.7299      5.8363      5.9691      6.1327    
  6.3319      6.5681      6.8346      7.1190      7.4077      7.6696      7.8913      8.0776      8.2280      8.3286    
  10.572      10.462      10.153      9.7079      9.2098      8.7345      8.3075      7.8941      7.4646      7.0531    
  6.6881      6.3799      6.1327      5.9404      5.7944      5.6864      5.6121      5.5681      5.5537      5.5681    
  5.6121      5.6864      5.7944      5.9404      6.1327      6.3799      6.6881      7.0531      7.4646      7.8941    
  8.3075      8.7345      9.2098      9.7079      10.153      10.462      15.287      15.029      14.295      13.203    
  11.931      10.686      9.6381      8.8509      8.2346      7.6602      7.1328      6.6881      6.3319      6.0615    
  5.8636      5.7249      5.6329      5.5808      5.5636      5.5808      5.6329      5.7249      5.8636      6.0615    
  6.3319      6.6881      7.1328      7.6602      8.2346      8.8509      9.6381      10.686      11.931      13.203    
  14.295      15.029      23.782      23.291      21.881      19.740      17.167      14.530      12.189      10.388    
  9.1785      8.3580      7.6602      7.0531      6.5681      6.2016      5.9399      5.7616      5.6488      5.5866    
  5.5670      5.5866      5.6488      5.7616      5.9399      6.2016      6.5681      7.0531      7.6602      8.3580    
  9.1785      10.388      12.189      14.530      17.167      19.740      21.881      23.291      37.015      36.194    
  33.824      30.184      25.725      21.024      16.674      13.155      10.685      9.1785      8.2346      7.4646    
  6.8346      6.3592      6.0231      5.7990      5.6609      5.5866      5.5636      5.5866      5.6609      5.7990    
  6.0231      6.3592      6.8346      7.4646      8.2346      9.1785      10.685      13.155      16.674      21.024    
  25.725      30.184      33.824      36.194      55.339      54.080      50.443      44.832      37.901      30.476    
  23.433      17.510      13.155      10.388      8.8509      7.8941      7.1190      6.5299      6.1103      5.8367    
  5.6686      5.5820      5.5537      5.5820      5.6686      5.8367      6.1103      6.5299      7.1190      7.8941    
  8.8509      10.388      13.155      17.510      23.433      30.476      37.901      44.832      50.443      54.080    
  78.330      76.526      71.312      63.273      53.323      42.601      32.294      23.433      16.674      12.189    
  9.6381      8.3075      7.4077      6.7004      6.2020      5.8714      5.6751      5.5709      5.5406      5.5709    
  5.6751      5.8714      6.2020      6.7004      7.4077      8.3075      9.6381      12.189      16.674      23.433    
  32.294      42.601      53.323      63.273      71.312      76.526      104.68      102.24      95.182      84.339    
  70.954      56.533      42.601      30.476      21.024      14.530      10.686      8.7345      7.6696      6.8658    
  6.2884      5.9050      5.6779      5.5581      5.5234      5.5581      5.6779      5.9050      6.2884      6.8658    
  7.6696      8.7345      10.686      14.530      21.024      30.476      42.601      56.533      70.954      84.339    
  95.182      102.24      132.27      129.12      120.08      106.23      89.218      70.954      53.323      37.901    
  25.725      17.167      11.931      9.2098      7.8913      7.0145      6.3642      5.9364      5.6774      5.5453    
  5.5039      5.5453      5.6774      5.9364      6.3642      7.0145      7.8913      9.2098      11.931      17.167    
  25.725      37.901      53.323      70.954      89.218      106.23      120.08      129.12      158.32      154.49    
  143.48      126.72      106.23      84.339      63.273      44.832      30.184      19.740      13.203      9.7079    
  8.0776      7.1337      6.4274      5.9620      5.6762      5.5329      5.4859      5.5329      5.6762      5.9620    
  6.4274      7.1337      8.0776      9.7079      13.203      19.740      30.184      44.832      63.273      84.339    
  106.23      126.72      143.48      154.49      179.83      175.40      162.73      143.48      120.08      95.182    
  71.312      50.443      33.824      21.881      14.295      10.153      8.2280      7.2178      6.4753      5.9801    
  5.6752      5.5221      5.4719      5.5221      5.6752      5.9801      6.4753      7.2178      8.2280      10.153    
  14.295      21.881      33.824      50.443      71.312      95.182      120.08      143.48      162.73      175.40    
  194.04      189.21      175.40      154.49      129.12      102.24      76.526      54.080      36.194      23.291    
  15.029      10.462      8.3286      7.2673      6.5050      5.9907      5.6747      5.5148      5.4632      5.5148    
  5.6747      5.9907      6.5050      7.2673      8.3286      10.462      15.029      23.291      36.194      54.080    
  76.526      102.24      129.12      154.49      175.40      189.21      194.04      189.21      175.40      154.49    
  129.12      102.24      76.526      54.080      36.194      23.291      15.029      10.462      8.3286      7.2673    
  6.5050      5.9907      5.6747      5.5148      5.4632      5.5148      5.6747      5.9907      6.5050      7.2673    
  8.3286      10.462      15.029      23.291      36.194      54.080      76.526      102.24      129.12      154.49    
  175.40      189.21      189.21      184.52      171.10      150.75      126.06      99.849      74.762      52.849    
  35.392      22.812      14.779      10.357      8.2947      7.2515      6.4956      5.9877      5.6753      5.5178    
  5.4665      5.5178      5.6753      5.9877      6.4956      7.2515      8.2947      10.357      14.779      22.812    
  35.392      52.849      74.762      99.849      126.06      150.75      171.10      184.52      175.40      171.10    
  158.77      140.04      117.24      92.961      69.664      49.292      33.075      21.438      14.068      10.061    
  8.1991      7.2035      6.4676      5.9784      5.6772      5.5262      5.4766      5.5262      5.6772      5.9784    
  6.4676      7.2035      8.1991      10.061      14.068      21.438      33.075      49.292      69.664      92.961    
  117.24      140.04      158.77      171.10      154.49      150.75      140.04      123.70      103.73      82.372    
  61.807      43.807      29.521      19.354      13.012      9.6347      8.0552      7.1215      6.4226      5.9623    
  5.6802      5.5385      5.4923      5.5385      5.6802      5.9623      6.4226      7.1215      8.0552      9.6347    
  13.012      19.354      29.521      43.807      61.807      82.372      103.73      123.70      140.04      150.75    
  129.12      126.06      117.24      103.73      87.129      69.299      52.085      37.039      25.174      16.856    
  11.785      9.1590      7.8750      7.0054      6.3626      5.9393      5.6838      5.5528      5.5123      5.5528    
  5.6838      5.9393      6.3626      7.0054      7.8750      9.1590      11.785      16.856      25.174      37.039    
  52.085      69.299      87.129      103.73      117.24      126.06      102.24      99.849      92.961      82.372    
  69.299      55.214      41.617      29.797      20.599      14.302      10.587      8.7042      7.6575      6.8608    
  6.2902      5.9110      5.6865      5.5679      5.5337      5.5679      5.6865      5.9110      6.2902      6.8608    
  7.6575      8.7042      10.587      14.302      20.599      29.797      41.617      55.214      69.299      82.372    
  92.961      99.849      76.526      74.762      69.664      61.807      52.085      41.617      31.566      22.939    
  16.379      12.041      9.5829      8.2905      7.3997      6.7002      6.2071      5.8805      5.6860      5.5832    
  5.5529      5.5832      5.6860      5.8805      6.2071      6.7002      7.3997      8.2905      9.5829      12.041    
  16.379      22.939      31.566      41.617      52.085      61.807      69.664      74.762      54.080      52.849    
  49.292      43.807      37.039      29.797      22.939      17.189      12.976      10.309      8.8254      7.8837    
  7.1162      6.5339      6.1193      5.8488      5.6821      5.5963      5.5681      5.5963      5.6821      5.8488    
  6.1193      6.5339      7.1162      7.8837      8.8254      10.309      12.976      17.189      22.939      29.797    
  37.039      43.807      49.292      52.849      36.194      35.392      33.075      29.521      25.174      20.599    
  16.379      12.976      10.596      9.1458      8.2220      7.4595      6.8373      6.3676      6.0354      5.8138    
  5.6772      5.6035      5.5808      5.6035      5.6772      5.8138      6.0354      6.3676      6.8373      7.4595    
  8.2220      9.1458      10.596      12.976      16.379      20.599      25.174      29.521      33.075      35.392    
  23.291      22.812      21.438      19.354      16.856      14.302      12.041      10.309      9.1458      8.3444    
  7.6540      7.0547      6.5759      6.2143      5.9561      5.7799      5.6681      5.6062      5.5866      5.6062    
  5.6681      5.7799      5.9561      6.2143      6.5759      7.0547      7.6540      8.3444      9.1458      10.309    
  12.041      14.302      16.856      19.354      21.438      22.812      15.029      14.779      14.068      13.012    
  11.785      10.587      9.5829      8.8254      8.2220      7.6540      7.1340      6.6955      6.3448      6.0787    
  5.8830      5.7457      5.6549      5.6035      5.5866      5.6035      5.6549      5.7457      5.8830      6.0787    
  6.3448      6.6955      7.1340      7.6540      8.2220      8.8254      9.5829      10.587      11.785      13.012    
  14.068      14.779      10.462      10.357      10.061      9.6347      9.1590      8.7042      8.2905      7.8837    
  7.4595      7.0547      6.6955      6.3928      6.1502      5.9605      5.8174      5.7121      5.6395      5.5963    
  5.5820      5.5963      5.6395      5.7121      5.8174      5.9605      6.1502      6.3928      6.6955      7.0547    
  7.4595      7.8837      8.2905      8.7042      9.1590      9.6347      10.061      10.357      8.3286      8.2947    
  8.1991      8.0552      7.8750      7.6575      7.3997      7.1162      6.8373      6.5759      6.3448      6.1502    
  5.9895      5.8608      5.7582      5.6779      5.6191      5.5832      5.5709      5.5832      5.6191      5.6779    
  5.7582      5.8608      5.9895      6.1502      6.3448      6.5759      6.8373      7.1162      7.3997      7.6575    
  7.8750      8.0552      8.1991      8.2947      7.2673      7.2515      7.2035      7.1215      7.0054      6.8608    
  6.7002      6.5339      6.3676      6.2143      6.0787      5.9605      5.8608      5.7758      5.7025      5.6421    
  5.5965      5.5679      5.5581      5.5679      5.5965      5.6421      5.7025      5.7758      5.8608      5.9605    
  6.0787      6.2143      6.3676      6.5339      6.7002      6.8608      7.0054      7.1215      7.2035      7.2515    
  6.5050      6.4956      6.4676      6.4226      6.3626      6.2902      6.2071      6.1193      6.0354      5.9561    
  5.8830      5.8174      5.7582      5.7025      5.6518      5.6085      5.5747      5.5528      5.5453      5.5528    
  5.5747      5.6085      5.6518      5.7025      5.7582      5.8174      5.8830      5.9561      6.0354      6.1193    
  6.2071      6.2902      6.3626      6.4226      6.4676      6.4956      5.9907      5.9877      5.9784      5.9623    
  5.9393      5.9110      5.8805      5.8488      5.8138      5.7799      5.7457      5.7121      5.6779      5.6421    
  5.6085      5.5786      5.5545      5.5385      5.5329      5.5385      5.5545      5.5786      5.6085      5.6421    
  5.6779      5.7121      5.7457      5.7799      5.8138      5.8488      5.8805      5.9110      5.9393      5.9623    
  5.9784      5.9877      5.6747      5.6753      5.6772      5.6802      5.6838      5.6865      5.6860      5.6821    
  5.6772      5.6681      5.6549      5.6395      5.6191      5.5965      5.5747      5.5545      5.5376      5.5262    
  5.5221      5.5262      5.5376      5.5545      5.5747      5.5965      5.6191      5.6395      5.6549      5.6681    
  5.6772      5.6821      5.6860      5.6865      5.6838      5.6802      5.6772      5.6753      5.5148      5.5178    
  5.5262      5.5385      5.5528      5.5679      5.5832      5.5963      5.6035      5.6062      5.6035      5.5963    
  5.5832      5.5679      5.5528      5.5385      5.5262      5.5178      5.5148      5.5178      5.5262      5.5385    
  5.5528      5.5679      5.5832      5.5963      5.6035      5.6062      5.6035      5.5963      5.5832      5.5679    
  5.5528      5.5385      5.5262      5.5178      5.4632      5.4665      5.4766      5.4923      5.5123      5.5337    
  5.5529      5.5681      5.5808      5.5866      5.5866      5.5820      5.5709      5.5581      5.5453      5.5329    
  5.5221      5.5148      5.5122      5.5148      5.5221      5.5329      5.5453      5.5581      5.5709      5.5820    
  5.5866      5.5866      5.5808      5.5681      5.5529      5.5337      5.5123      5.4923      5.4766      5.4665    
  5.5148      5.5178      5.5262      5.5385      5.5528      5.5679      5.5832      5.5963      5.6035      5.6062    
  5.6035      5.5963      5.5832      5.5679      5.5528      5.5385      5.5262      5.5178      5.5148      5.5178    
  5.5262      5.5385      5.5528      5.5679      5.5832      5.5963      5.6035      5.6062      5.6035      5.5963    
  5.5832      5.5679      5.5528      5.5385      5.5262      5.5178      5.6747      5.6753      5.6772      5.6802    
  5.6838      5.6865      5.6860      5.6821      5.6772      5.6681      5.6549      5.6395      5.6191      5.5965    
  5.5747      5.5545      5.5376      5.5262      5.5221      5.5262      5.5376      5.5545      5.5747      5.5965    
  5.6191      5.6395      5.6549      5.6681      5.6772      5.6821      5.6860      5.6865      5.6838      5.6802    
  5.6772      5.6753      5.9907      5.9877      5.9784      5.9623      5.9393      5.9110      5.8805      5.8488    
  5.8138      5.7799      5.7457      5.7121      5.6779      5.6421      5.6085      5.5786      5.5545      5.5385    
  5.5329      5.5385      5.5545      5.5786      5.6085      5.6421      5.6779      5.7121      5.7457      5.7799    
  5.8138      5.8488      5.8805      5.9110      5.9393      5.9623      5.9784      5.9877      6.5050      6.4956    
  6.4676      6.4226      6.3626      6.2902      6.2071      6.1193      6.0354      5.9561      5.8830      5.8174    
  5.7582      5.7025      5.6518      5.6085      5.5747      5.5528      5.5453      5.5528      5.5747      5.6085    
  5.6518      5.7025      5.7582      5.8174      5.8830      5.9561      6.0354      6.1193      6.2071      6.2902    
  6.3626      6.4226      6.4676      6.4956      7.2673      7.2515      7.2035      7.1215      7.0054      6.8608    
  6.7002      6.5339      6.3676      6.2143      6.0787      5.9605      5.8608      5.7758      5.7025      5.6421    
  5.5965      5.5679      5.5581      5.5679      5.5965      5.6421      5.7025      5.7758      5.8608      5.9605    
  6.0787      6.2143      6.3676      6.5339      6.7002      6.8608      7.0054      7.1215      7.2035      7.2515    
  8.3286      8.2947      8.1991      8.0552      7.8750      7.6575      7.3997      7.1162      6.8373      6.5759    
  6.3448      6.1502      5.9895      5.8608      5.7582      5.6779      5.6191      5.5832      5.5709      5.5832    
  5.6191      5.6779      5.7582      5.8608      5.9895      6.1502      6.3448      6.5759      6.8373      7.1162    
  7.3997      7.6575      7.8750      8.0552      8.1991      8.2947      10.462      10.357      10.061      9.6347    
  9.1590      8.7042      8.2905      7.8837      7.4595      7.0547      6.6955      6.3928      6.1502      5.9605    
  5.8174      5.7121      5.6395      5.5963      5.5820      5.5963      5.6395      5.7121      5.8174      5.9605    
  6.1502      6.3928      6.6955      7.0547      7.4595      7.8837      8.2905      8.7042      9.1590      9.6347    
  10.061      10.357      15.029      14.779      14.068      13.012      11.785      10.587      9.5829      8.8254    
  8.2220      7.6540      7.1340      6.6955      6.3448      6.0787      5.8830      5.7457      5.6549      5.6035    
  5.5866      5.6035      5.6549      5.7457      5.8830      6.0787      6.3448      6.6955      7.1340      7.6540    
  8.2220      8.8254      9.5829      10.587      11.785      13.012      14.068      14.779      23.291      22.812    
  21.438      19.354      16.856      14.302      12.041      10.309      9.1458      8.3444      7.6540      7.0547    
  6.5759      6.2143      5.9561      5.7799      5.6681      5.6062      5.5866      5.6062      5.6681      5.7799    
  5.9561      6.2143      6.5759      7.0547      7.6540      8.3444      9.1458      10.309      12.041      14.302    
  16.856      19.354      21.438      22.812      36.194      35.392      33.075      29.521      25.174      20.599    
  16.379      12.976      10.596      9.1458      8.2220      7.4595      6.8373      6.3676      6.0354      5.8138    
  5.6772      5.6035      5.5808      5.6035      5.6772      5.8138      6.0354      6.3676      6.8373      7.4595    
  8.2220      9.1458      10.596      12.976      16.379      20.599      25.174      29.521      33.075      35.392    
  54.080      52.849      49.292      43.807      37.039      29.797      22.939      17.189      12.976      10.309    
  8.8254      7.8837      7.1162      6.5339      6.1193      5.8488      5.6821      5.5963      5.5681      5.5963    
  5.6821      5.8488      6.1193      6.5339      7.1162      7.8837      8.8254      10.309      12.976      17.189    
  22.939      29.797      37.039      43.807      49.292      52.849      76.526      74.762      69.664      61.807    
  52.085      41.617      31.566      22.939      16.379      12.041      9.5829      8.2905      7.3997      6.7002    
  6.2071      5.8805      5.6860      5.5832      5.5529      5.5832      5.6860      5.8805      6.2071      6.7002    
  7.3997      8.2905      9.5829      12.041      16.379      22.939      31.566      41.617      52.085      61.807    
  69.664      74.762      102.24      99.849      92.961      82.372      69.299      55.214      41.617      29.797    
  20.599      14.302      10.587      8.7042      7.6575      6.8608      6.2902      5.9110      5.6865      5.5679    
  5.5337      5.5679      5.6865      5.9110      6.2902      6.8608      7.6575      8.7042      10.587      14.302    
  20.599      29.797      41.617      55.214      69.299      82.372      92.961      99.849      129.12      126.06    