unknown system                          
   1.00000000000000     
     2.828092   -0.000000    0.000000
     0.000000    2.828092    0.000000
     0.000000   -0.000000    2.828092
   Fe
     2
Direct
 -0.000000  0.000000 -0.000000
  0.500000  0.500000  0.500000
 
   36   36   36
 0.19155435591E+03 0.18688615003E+03 0.17352758334E+03 0.15326337860E+03 0.12863632300E+03
 0.10244182917E+03 0.77265807356E+02 0.55127455390E+02 0.37293625567E+02 0.24229424477E+02
 0.15678347092E+02 0.10809515097E+02 0.84690300753E+01 0.73676511235E+01 0.66175146318E+01
 0.60966286549E+01 0.57769277321E+01 0.56110456493E+01 0.55595395749E+01 0.56110456493E+01
 0.57769277321E+01 0.60966286549E+01 0.66175146318E+01 0.73676511235E+01 0.84690300753E+01
 0.10809515097E+02 0.15678347092E+02 0.24229424477E+02 0.37293625567E+02 0.55127455390E+02
 0.77265807356E+02 0.10244182917E+03 0.12863632300E+03 0.15326337860E+03 0.17352758334E+03
 0.18688615003E+03 0.18688615003E+03 0.18234799498E+03 0.16935705499E+03 0.14963578266E+03
 0.12564578319E+03 0.10010154642E+03 0.75526613263E+02 0.53902204342E+02 0.36484990170E+02
 0.23738093084E+02 0.15413834358E+02 0.10692264286E+02 0.84301421394E+01 0.73523564151E+01
 0.66078645517E+01 0.60935432334E+01 0.57773484551E+01 0.56141014825E+01 0.55628747237E+01
 0.56141014825E+01 0.57773484551E+01 0.60935432334E+01 0.66078645517E+01 0.73523564151E+01
 0.84301421394E+01 0.10692264286E+02 0.15413834358E+02 0.23738093084E+02 0.36484990170E+02
 0.53902204342E+02 0.75526613263E+02 0.10010154642E+03 0.12564578319E+03 0.14963578266E+03
 0.16935705499E+03 0.18234799498E+03 0.17352758334E+03 0.16935705499E+03 0.15740512450E+03
 0.13922172704E+03 0.11703973898E+03 0.93348405717E+02 0.70497312196E+02 0.50360821600E+02
 0.34148854506E+02 0.22324864015E+02 0.14660529279E+02 0.10362577233E+02 0.83217396926E+01
 0.73060165966E+01 0.65794035564E+01 0.60839898121E+01 0.57785137282E+01 0.56224771511E+01
 0.55724984298E+01 0.56224771511E+01 0.57785137282E+01 0.60839898121E+01 0.65794035564E+01
 0.73060165966E+01 0.83217396926E+01 0.10362577233E+02 0.14660529279E+02 0.22324864015E+02
 0.34148854506E+02 0.50360821600E+02 0.70497312196E+02 0.93348405717E+02 0.11703973898E+03
 0.13922172704E+03 0.15740512450E+03 0.16935705499E+03 0.15326337860E+03 0.14963578266E+03
 0.13922172704E+03 0.12332486446E+03 0.10384993757E+03 0.82958047336E+02 0.62736413078E+02
 0.44890424873E+02 0.30554939991E+02 0.20172706301E+02 0.13533526775E+02 0.98843967627E+01
 0.81627850242E+01 0.72277994917E+01 0.65327326505E+01 0.60678012639E+01 0.57801555017E+01
 0.56351674966E+01 0.55875427434E+01 0.56351674966E+01 0.57801555017E+01 0.60678012639E+01
 0.65327326505E+01 0.72277994917E+01 0.81627850242E+01 0.98843967627E+01 0.13533526775E+02
 0.20172706301E+02 0.30554939991E+02 0.44890424873E+02 0.62736413078E+02 0.82958047336E+02
 0.10384993757E+03 0.12332486446E+03 0.13922172704E+03 0.14963578266E+03 0.12863632300E+03
 0.12564578319E+03 0.11703973898E+03 0.10384993757E+03 0.87608840802E+02 0.70103664388E+02
 0.53108112337E+02 0.38115993613E+02 0.26136856199E+02 0.17572188028E+02 0.12211409553E+02
 0.93466396347E+01 0.79727103333E+01 0.71155494496E+01 0.64709327358E+01 0.60441707098E+01
 0.57822260253E+01 0.56495189545E+01 0.56067467634E+01 0.56495189545E+01 0.57822260253E+01
 0.60441707098E+01 0.64709327358E+01 0.71155494496E+01 0.79727103333E+01 0.93466396347E+01
 0.12211409553E+02 0.17572188028E+02 0.26136856199E+02 0.38115993613E+02 0.53108112337E+02
 0.70103664388E+02 0.87608840802E+02 0.10384993757E+03 0.11703973898E+03 0.12564578319E+03
 0.10244182917E+03 0.10010154642E+03 0.93348405717E+02 0.82958047336E+02 0.70103664388E+02
 0.56200808223E+02 0.42690034655E+02 0.30822682837E+02 0.21447551878E+02 0.14884443946E+02
 0.10900683528E+02 0.88351630907E+01 0.77567064868E+01 0.69723429420E+01 0.63967497442E+01
 0.60139691948E+01 0.57838741355E+01 0.56639414941E+01 0.56279416985E+01 0.56639414941E+01
 0.57838741355E+01 0.60139691948E+01 0.63967497442E+01 0.69723429420E+01 0.77567064868E+01
 0.88351630907E+01 0.10900683528E+02 0.14884443946E+02 0.21447551878E+02 0.30822682837E+02
 0.42690034655E+02 0.56200808223E+02 0.70103664388E+02 0.82958047336E+02 0.93348405717E+02
 0.10010154642E+03 0.77265807356E+02 0.75526613263E+02 0.70497312196E+02 0.62736413078E+02
 0.53108112337E+02 0.42690034655E+02 0.32606778247E+02 0.23848194030E+02 0.17063837509E+02
 0.12465079514E+02 0.97831989342E+01 0.83899812463E+01 0.75070359075E+01 0.68092620464E+01
 0.63126179464E+01 0.59800195411E+01 0.57826974527E+01 0.56773320689E+01 0.56472292321E+01
 0.56773320689E+01 0.57826974527E+01 0.59800195411E+01 0.63126179464E+01 0.68092620464E+01
 0.75070359075E+01 0.83899812463E+01 0.97831989342E+01 0.12465079514E+02 0.17063837509E+02
 0.23848194030E+02 0.32606778247E+02 0.42690034655E+02 0.53108112337E+02 0.62736413078E+02
 0.70497312196E+02 0.75526613263E+02 0.55127455390E+02 0.53902204342E+02 0.50360821600E+02
 0.44890424873E+02 0.38115993613E+02 0.30822682837E+02 0.23848194030E+02 0.17908858922E+02
 0.13461647386E+02 0.10572212162E+02 0.89438891046E+01 0.79838791256E+01 0.72267808421E+01
 0.66404705428E+01 0.62213268686E+01 0.59454759636E+01 0.57768378453E+01 0.56893924914E+01
 0.56615069217E+01 0.56893924914E+01 0.57768378453E+01 0.59454759636E+01 0.62213268686E+01
 0.66404705428E+01 0.72267808421E+01 0.79838791256E+01 0.89438891046E+01 0.10572212162E+02
 0.13461647386E+02 0.17908858922E+02 0.23848194030E+02 0.30822682837E+02 0.38115993613E+02
 0.44890424873E+02 0.50360821600E+02 0.53902204342E+02 0.37293625567E+02 0.36484990170E+02
 0.34148854506E+02 0.30554939991E+02 0.26136856199E+02 0.21447551878E+02 0.17063837509E+02
 0.13461647386E+02 0.10883253132E+02 0.92830790915E+01 0.83192210960E+01 0.75691008441E+01
 0.69449983295E+01 0.64712240903E+01 0.61327776880E+01 0.59079205191E+01 0.57686849403E+01
 0.56948995938E+01 0.56714998836E+01 0.56948995938E+01 0.57686849403E+01 0.59079205191E+01
 0.61327776880E+01 0.64712240903E+01 0.69449983295E+01 0.75691008441E+01 0.83192210960E+01
 0.92830790915E+01 0.10883253132E+02 0.13461647386E+02 0.17063837509E+02 0.21447551878E+02
 0.26136856199E+02 0.30554939991E+02 0.34148854506E+02 0.36484990170E+02 0.24229424477E+02
 0.23738093084E+02 0.22324864015E+02 0.20172706301E+02 0.17572188028E+02 0.14884443946E+02
 0.12465079514E+02 0.10572212162E+02 0.92830790915E+01 0.84414041312E+01 0.77620723012E+01
 0.71632931355E+01 0.66804244721E+01 0.63121039982E+01 0.60488943598E+01 0.58695163780E+01
 0.57569695066E+01 0.56948146481E+01 0.56755943212E+01 0.56948146481E+01 0.57569695066E+01
 0.58695163780E+01 0.60488943598E+01 0.63121039982E+01 0.66804244721E+01 0.71632931355E+01
 0.77620723012E+01 0.84414041312E+01 0.92830790915E+01 0.10572212162E+02 0.12465079514E+02
 0.14884443946E+02 0.17572188028E+02 0.20172706301E+02 0.22324864015E+02 0.23738093084E+02
 0.15678347092E+02 0.15413834358E+02 0.14660529279E+02 0.13533526775E+02 0.12211409553E+02
 0.10900683528E+02 0.97831989342E+01 0.89438891046E+01 0.83192210960E+01 0.77620723012E+01
 0.72428406025E+01 0.68004111506E+01 0.64429436666E+01 0.61707466539E+01 0.59712820591E+01
 0.58320037735E+01 0.57401220620E+01 0.56885015569E+01 0.56714998836E+01 0.56885015569E+01
 0.57401220620E+01 0.58320037735E+01 0.59712820591E+01 0.61707466539E+01 0.64429436666E+01
 0.68004111506E+01 0.72428406025E+01 0.77620723012E+01 0.83192210960E+01 0.89438891046E+01
 0.97831989342E+01 0.10900683528E+02 0.12211409553E+02 0.13533526775E+02 0.14660529279E+02
 0.15413834358E+02 0.10809515097E+02 0.10692264286E+02 0.10362577233E+02 0.98843967627E+01
 0.93466396347E+01 0.88351630907E+01 0.83899812463E+01 0.79838791256E+01 0.75691008441E+01
 0.71632931355E+01 0.68004111506E+01 0.64910467780E+01 0.62420603773E+01 0.60477663965E+01
 0.59005186305E+01 0.57924804880E+01 0.57188787049E+01 0.56756103996E+01 0.56615069217E+01
 0.56756103996E+01 0.57188787049E+01 0.57924804880E+01 0.59005186305E+01 0.60477663965E+01
 0.62420603773E+01 0.64910467780E+01 0.68004111506E+01 0.71632931355E+01 0.75691008441E+01
 0.79838791256E+01 0.83899812463E+01 0.88351630907E+01 0.93466396347E+01 0.98843967627E+01
 0.10362577233E+02 0.10692264286E+02 0.84690300753E+01 0.84301421394E+01 0.83217396926E+01
 0.81627850242E+01 0.79727103333E+01 0.77567064868E+01 0.75070359075E+01 0.72267808421E+01
 0.69449983295E+01 0.66804244721E+01 0.64429436666E+01 0.62420603773E+01 0.60762764138E+01
 0.59418938728E+01 0.58353471792E+01 0.57539546100E+01 0.56952012043E+01 0.56594254343E+01
 0.56472292321E+01 0.56594254343E+01 0.56952012043E+01 0.57539546100E+01 0.58353471792E+01
 0.59418938728E+01 0.60762764138E+01 0.62420603773E+01 0.64429436666E+01 0.66804244721E+01
 0.69449983295E+01 0.72267808421E+01 0.75070359075E+01 0.77567064868E+01 0.79727103333E+01
 0.81627850242E+01 0.83217396926E+01 0.84301421394E+01 0.73676511235E+01 0.73523564151E+01
 0.73060165966E+01 0.72277994917E+01 0.71155494496E+01 0.69723429420E+01 0.68092620464E+01
 0.66404705428E+01 0.64712240903E+01 0.63121039982E+01 0.61707466539E+01 0.60477663965E+01
 0.59418938728E+01 0.58520261533E+01 0.57771683951E+01 0.57152932507E+01 0.56681472989E+01
 0.56381331512E+01 0.56279416985E+01 0.56381331512E+01 0.56681472989E+01 0.57152932507E+01
 0.57771683951E+01 0.58520261533E+01 0.59418938728E+01 0.60477663965E+01 0.61707466539E+01
 0.63121039982E+01 0.64712240903E+01 0.66404705428E+01 0.68092620464E+01 0.69723429420E+01
 0.71155494496E+01 0.72277994917E+01 0.73060165966E+01 0.73523564151E+01 0.66175146318E+01
 0.66078645517E+01 0.65794035564E+01 0.65327326505E+01 0.64709327358E+01 0.63967497442E+01
 0.63126179464E+01 0.62213268686E+01 0.61327776880E+01 0.60488943598E+01 0.59712820591E+01
 0.59005186305E+01 0.58353471792E+01 0.57771683951E+01 0.57236171719E+01 0.56766176823E+01
 0.56391486735E+01 0.56151803738E+01 0.56067467634E+01 0.56151803738E+01 0.56391486735E+01
 0.56766176823E+01 0.57236171719E+01 0.57771683951E+01 0.58353471792E+01 0.59005186305E+01
 0.59712820591E+01 0.60488943598E+01 0.61327776880E+01 0.62213268686E+01 0.63126179464E+01
 0.63967497442E+01 0.64709327358E+01 0.65327326505E+01 0.65794035564E+01 0.66078645517E+01
 0.60966286549E+01 0.60935432334E+01 0.60839898121E+01 0.60678012639E+01 0.60441707098E+01
 0.60139691948E+01 0.59800195411E+01 0.59454759636E+01 0.59079205191E+01 0.58695163780E+01
 0.58320037735E+01 0.57924804880E+01 0.57539546100E+01 0.57152932507E+01 0.56766176823E+01
 0.56409760119E+01 0.56124505877E+01 0.55938994643E+01 0.55875427434E+01 0.55938994643E+01
 0.56124505877E+01 0.56409760119E+01 0.56766176823E+01 0.57152932507E+01 0.57539546100E+01
 0.57924804880E+01 0.58320037735E+01 0.58695163780E+01 0.59079205191E+01 0.59454759636E+01
 0.59800195411E+01 0.60139691948E+01 0.60441707098E+01 0.60678012639E+01 0.60839898121E+01
 0.60935432334E+01 0.57769277321E+01 0.57773484551E+01 0.57785137282E+01 0.57801555017E+01
 0.57822260253E+01 0.57838741355E+01 0.57826974527E+01 0.57768378453E+01 0.57686849403E+01
 0.57569695066E+01 0.57401220620E+01 0.57188787049E+01 0.56952012043E+01 0.56681472989E+01
 0.56391486735E+01 0.56124505877E+01 0.55910429341E+01 0.55773026977E+01 0.55724984298E+01
 0.55773026977E+01 0.55910429341E+01 0.56124505877E+01 0.56391486735E+01 0.56681472989E+01
 0.56952012043E+01 0.57188787049E+01 0.57401220620E+01 0.57569695066E+01 0.57686849403E+01
 0.57768378453E+01 0.57826974527E+01 0.57838741355E+01 0.57822260253E+01 0.57801555017E+01
 0.57785137282E+01 0.57773484551E+01 0.56110456493E+01 0.56141014825E+01 0.56224771511E+01
 0.56351674966E+01 0.56495189545E+01 0.56639414941E+01 0.56773320689E+01 0.56893924914E+01
 0.56948995938E+01 0.56948146481E+01 0.56885015569E+01 0.56756103996E+01 0.56594254343E+01
 0.56381331512E+01 0.56151803738E+01 0.55938994643E+01 0.55773026977E+01 0.55664958041E+01
 0.55628747237E+01 0.55664958041E+01 0.55773026977E+01 0.55938994643E+01 0.56151803738E+01
 0.56381331512E+01 0.56594254343E+01 0.56756103996E+01 0.56885015569E+01 0.56948146481E+01
 0.56948995938E+01 0.56893924914E+01 0.56773320689E+01 0.56639414941E+01 0.56495189545E+01
 0.56351674966E+01 0.56224771511E+01 0.56141014825E+01 0.55595395749E+01 0.55628747237E+01
 0.55724984298E+01 0.55875427434E+01 0.56067467634E+01 0.56279416985E+01 0.56472292321E+01
 0.56615069217E+01 0.56714998836E+01 0.56755943212E+01 0.56714998836E+01 0.56615069217E+01
 0.56472292321E+01 0.56279416985E+01 0.56067467634E+01 0.55875427434E+01 0.55724984298E+01
 0.55628747237E+01 0.55595395749E+01 0.55628747237E+01 0.55724984298E+01 0.55875427434E+01
 0.56067467634E+01 0.56279416985E+01 0.56472292321E+01 0.56615069217E+01 0.56714998836E+01
 0.56755943212E+01 0.56714998836E+01 0.56615069217E+01 0.56472292321E+01 0.56279416985E+01
 0.56067467634E+01 0.55875427434E+01 0.55724984298E+01 0.55628747237E+01 0.56110456493E+01
 0.56141014825E+01 0.56224771511E+01 0.56351674966E+01 0.56495189545E+01 0.56639414941E+01
 0.56773320689E+01 0.56893924914E+01 0.56948995938E+01 0.56948146481E+01 0.56885015569E+01
 0.56756103996E+01 0.56594254343E+01 0.56381331512E+01 0.56151803738E+01 0.55938994643E+01
 0.55773026977E+01 0.55664958041E+01 0.55628747237E+01 0.55664958041E+01 0.55773026977E+01
 0.55938994643E+01 0.56151803738E+01 0.56381331512E+01 0.56594254343E+01 0.56756103996E+01
 0.56885015569E+01 0.56948146481E+01 0.56948995938E+01 0.56893924914E+01 0.56773320689E+01
 0.56639414941E+01 0.56495189545E+01 0.56351674966E+01 0.56224771511E+01 0.56141014825E+01
 0.57769277321E+01 0.57773484551E+01 0.57785137282E+01 0.57801555017E+01 0.57822260253E+01
 0.57838741355E+01 0.57826974527E+01 0.57768378453E+01 0.57686849403E+01 0.57569695066E+01
 0.57401220620E+01 0.57188787049E+01 0.56952012043E+01 0.56681472989E+01 0.56391486735E+01
 0.56124505877E+01 0.55910429341E+01 0.55773026977E+01 0.55724984298E+01 0.55773026977E+01
 0.55910429341E+01 0.56124505877E+01 0.56391486735E+01 0.56681472989E+01 0.56952012043E+01
 0.57188787049E+01 0.57401220620E+01 0.57569695066E+01 0.57686849403E+01 0.57768378453E+01
 0.57826974527E+01 0.57838741355E+01 0.57822260253E+01 0.57801555017E+01 0.57785137282E+01
 0.57773484551E+01 0.60966286549E+01 0.60935432334E+01 0.60839898121E+01 0.60678012639E+01
 0.60441707098E+01 0.60139691948E+01 0.59800195411E+01 0.59454759636E+01 0.59079205191E+01
 0.58695163780E+01 0.58320037735E+01 0.57924804880E+01 0.57539546100E+01 0.57152932507E+01
 0.56766176823E+01 0.56409760119E+01 0.56124505877E+01 0.55938994643E+01 0.55875427434E+01
 0.55938994643E+01 0.56124505877E+01 0.56409760119E+01 0.56766176823E+01 0.57152932507E+01
 0.57539546100E+01 0.57924804880E+01 0.58320037735E+01 0.58695163780E+01 0.59079205191E+01
 0.59454759636E+01 0.59800195411E+01 0.60139691948E+01 0.60441707098E+01 0.60678012639E+01
 0.60839898121E+01 0.60935432334E+01 0.66175146318E+01 0.66078645517E+01 0.65794035564E+01
 0.65327326505E+01 0.64709327358E+01 0.63967497442E+01 0.63126179464E+01 0.62213268686E+01
 0.61327776880E+01 0.60488943598E+01 0.59712820591E+01 0.59005186305E+01 0.58353471792E+01
 0.57771683951E+01 0.57236171719E+01 0.56766176823E+01 0.56391486735E+01 0.56151803738E+01
 0.56067467634E+01 0.56151803738E+01 0.56391486735E+01 0.56766176823E+01 0.57236171719E+01
 0.57771683951E+01 0.58353471792E+01 0.59005186305E+01 0.59712820591E+01 0.60488943598E+01
 0.61327776880E+01 0.62213268686E+01 0.63126179464E+01 0.63967497442E+01 0.64709327358E+01
 0.65327326505E+01 0.65794035564E+01 0.66078645517E+01 0.73676511235E+01 0.73523564151E+01
 0.73060165966E+01 0.72277994917E+01 0.71155494496E+01 0.69723429420E+01 0.68092620464E+01
 0.66404705428E+01 0.64712240903E+01 0.63121039982E+01 0.61707466539E+01 0.60477663965E+01
 0.59418938728E+01 0.58520261533E+01 0.57771683951E+01 0.57152932507E+01 0.56681472989E+01
 0.56381331512E+01 0.56279416985E+01 0.56381331512E+01 0.56681472989E+01 0.57152932507E+01
 0.57771683951E+01 0.58520261533E+01 0.59418938728E+01 0.60477663965E+01 0.61707466539E+01
 0.63121039982E+01 0.64712240903E+01 0.66404705428E+01 0.68092620464E+01 0.69723429420E+01
 0.71155494496E+01 0.72277994917E+01 0.73060165966E+01 0.73523564151E+01 0.84690300753E+01
 0.84301421394E+01 0.83217396926E+01 0.81627850242E+01 0.79727103333E+01 0.77567064868E+01
 0.75070359075E+01 0.72267808421E+01 0.69449983295E+01 0.66804244721E+01 0.64429436666E+01
 0.62420603773E+01 0.60762764138E+01 0.59418938728E+01 0.58353471792E+01 0.57539546100E+01
 0.56952012043E+01 0.56594254343E+01 0.56472292321E+01 0.56594254343E+01 0.56952012043E+01
 0.57539546100E+01 0.58353471792E+01 0.59418938728E+01 0.60762764138E+01 0.62420603773E+01
 0.64429436666E+01 0.66804244721E+01 0.69449983295E+01 0.72267808421E+01 0.75070359075E+01
 0.77567064868E+01 0.79727103333E+01 0.81627850242E+01 0.83217396926E+01 0.84301421394E+01
 0.10809515097E+02 0.10692264286E+02 0.10362577233E+02 0.98843967627E+01 0.93466396347E+01
 0.88351630907E+01 0.83899812463E+01 0.79838791256E+01 0.75691008441E+01 0.71632931355E+01
 0.68004111506E+01 0.64910467780E+01 0.62420603773E+01 0.60477663965E+01 0.59005186305E+01
 0.57924804880E+01 0.57188787049E+01 0.56756103996E+01 0.56615069217E+01 0.56756103996E+01
 0.57188787049E+01 0.57924804880E+01 0.59005186305E+01 0.60477663965E+01 0.62420603773E+01
 0.64910467780E+01 0.68004111506E+01 0.71632931355E+01 0.75691008441E+01 0.79838791256E+01
 0.83899812463E+01 0.88351630907E+01 0.93466396347E+01 0.98843967627E+01 0.10362577233E+02
 0.10692264286E+02 0.15678347092E+02 0.15413834358E+02 0.14660529279E+02 0.13533526775E+02
 0.12211409553E+02 0.10900683528E+02 0.97831989342E+01 0.89438891046E+01 0.83192210960E+01
 0.77620723012E+01 0.72428406025E+01 0.68004111506E+01 0.64429436666E+01 0.61707466539E+01
 0.59712820591E+01 0.58320037735E+01 0.57401220620E+01 0.56885015569E+01 0.56714998836E+01
 0.56885015569E+01 0.57401220620E+01 0.58320037735E+01 0.59712820591E+01 0.61707466539E+01
 0.64429436666E+01 0.68004111506E+01 0.72428406025E+01 0.77620723012E+01 0.83192210960E+01
 0.89438891046E+01 0.97831989342E+01 0.10900683528E+02 0.12211409553E+02 0.13533526775E+02
 0.14660529279E+02 0.15413834358E+02 0.24229424477E+02 0.23738093084E+02 0.22324864015E+02
 0.20172706301E+02 0.17572188028E+02 0.14884443946E+02 0.12465079514E+02 0.10572212162E+02
 0.92830790915E+01 0.84414041312E+01 0.77620723012E+01 0.71632931355E+01 0.66804244721E+01
 0.63121039982E+01 0.60488943598E+01 0.58695163780E+01 0.57569695066E+01 0.56948146481E+01
 0.56755943212E+01 0.56948146481E+01 0.57569695066E+01 0.58695163780E+01 0.60488943598E+01
 0.63121039982E+01 0.66804244721E+01 0.71632931355E+01 0.77620723012E+01 0.84414041312E+01
 0.92830790915E+01 0.10572212162E+02 0.12465079514E+02 0.14884443946E+02 0.17572188028E+02
 0.20172706301E+02 0.22324864015E+02 0.23738093084E+02 0.37293625567E+02 0.36484990170E+02
 0.34148854506E+02 0.30554939991E+02 0.26136856199E+02 0.21447551878E+02 0.17063837509E+02
 0.13461647386E+02 0.10883253132E+02 0.92830790915E+01 0.83192210960E+01 0.75691008441E+01
 0.69449983295E+01 0.64712240903E+01 0.61327776880E+01 0.59079205191E+01 0.57686849403E+01
 0.56948995938E+01 0.56714998836E+01 0.56948995938E+01 0.57686849403E+01 0.59079205191E+01
 0.61327776880E+01 0.64712240903E+01 0.69449983295E+01 0.75691008441E+01 0.83192210960E+01
 0.92830790915E+01 0.10883253132E+02 0.13461647386E+02 0.17063837509E+02 0.21447551878E+02
 0.26136856199E+02 0.30554939991E+02 0.34148854506E+02 0.36484990170E+02 0.55127455390E+02
 0.53902204342E+02 0.50360821600E+02 0.44890424873E+02 0.38115993613E+02 0.30822682837E+02
 0.23848194030E+02 0.17908858922E+02 0.13461647386E+02 0.10572212162E+02 0.89438891046E+01
 0.79838791256E+01 0.72267808421E+01 0.66404705428E+01 0.62213268686E+01 0.59454759636E+01
 0.57768378453E+01 0.56893924914E+01 0.56615069217E+01 0.56893924914E+01 0.57768378453E+01
 0.59454759636E+01 0.62213268686E+01 0.66404705428E+01 0.72267808421E+01 0.79838791256E+01
 0.89438891046E+01 0.10572212162E+02 0.13461647386E+02 0.17908858922E+02 0.23848194030E+02
 0.30822682837E+02 0.38115993613E+02 0.44890424873E+02 0.50360821600E+02 0.53902204342E+02
 0.77265807356E+02 0.75526613263E+02 0.70497312196E+02 0.62736413078E+02 0.53108112337E+02
 0.42690034655E+02 0.32606778247E+02 0.23848194030E+02 0.17063837509E+02 0.12465079514E+02
 0.97831989342E+01 0.83899812463E+01 0.75070359075E+01 0.68092620464E+01 0.63126179464E+01
 0.59800195411E+01 0.57826974527E+01 0.56773320689E+01 0.56472292321E+01 0.56773320689E+01
 0.57826974527E+01 0.59800195411E+01 0.63126179464E+01 0.68092620464E+01 0.75070359075E+01
 0.83899812463E+01 0.97831989342E+01 0.12465079514E+02 0.17063837509E+02 0.23848194030E+02
 0.32606778247E+02 0.42690034655E+02 0.53108112337E+02 0.62736413078E+02 0.70497312196E+02
 0.75526613263E+02 0.10244182917E+03 0.10010154642E+03 0.93348405717E+02 0.82958047336E+02
 0.70103664388E+02 0.56200808223E+02 0.42690034655E+02 0.30822682837E+02 0.21447551878E+02
 0.14884443946E+02 0.10900683528E+02 0.88351630907E+01 0.77567064868E+01 0.69723429420E+01
 0.63967497442E+01 0.60139691948E+01 0.57838741355E+01 0.56639414941E+01 0.56279416985E+01
 0.56639414941E+01 0.57838741355E+01 0.60139691948E+01 0.63967497442E+01 0.69723429420E+01
 0.77567064868E+01 0.88351630907E+01 0.10900683528E+02 0.14884443946E+02 0.21447551878E+02
 0.30822682837E+02 0.42690034655E+02 0.56200808223E+02 0.70103664388E+02 0.82958047336E+02
 0.93348405717E+02 0.10010154642E+03 0.12863632300E+03 0.12564578319E+03 0.11703973898E+03
 0.10384993757E+03 0.87608840802E+02 0.70103664388E+02 0.53108112337E+02 0.38115993613E+02
 0.26136856199E+02 0.17572188028E+02 0.12211409553E+02 0.93466396347E+01 0.79727103333E+01
 0.71155494496E+01 0.64709327358E+01 0.60441707098E+01 0.57822260253E+01 0.56495189545E+01
 0.56067467634E+01 0.56495189545E+01 0.57822260253E+01 0.60441707098E+01 0.64709327358E+01
 0.71155494496E+01 0.79727103333E+01 0.93466396347E+01 0.12211409553E+02 0.17572188028E+02
 0.26136856199E+02 0.38115993613E+02 0.53108112337E+02 0.70103664388E+02 0.87608840802E+02
 0.10384993757E+03 0.11703973898E+03 0.12564578319E+03 0.15326337860E+03 0.14963578266E+03
 0.13922172704E+03 0.12332486446E+03 0.10384993757E+03 0.82958047336E+02 0.62736413078E+02
 0.44890424873E+02 0.30554939991E+02 0.20172706301E+02 0.13533526775E+02 0.98843967627E+01
 0.81627850242E+01 0.72277994917E+01 0.65327326505E+01 0.60678012639E+01 0.57801555017E+01
 0.56351674966E+01 0.55875427434E+01 0.56351674966E+01 0.57801555017E+01 0.60678012639E+01
 0.65327326505E+01 0.72277994917E+01 0.81627850242E+01 0.98843967627E+01 0.13533526775E+02
 0.20172706301E+02 0.30554939991E+02 0.44890424873E+02 0.62736413078E+02 0.82958047336E+02
 0.10384993757E+03 0.12332486446E+03 0.13922172704E+03 0.14963578266E+03 0.17352758334E+03
 0.16935705499E+03 0.15740512450E+03 0.13922172704E+03 0.11703973898E+03 0.93348405717E+02
 0.70497312196E+02 0.50360821600E+02 0.34148854506E+02 0.22324864015E+02 0.14660529279E+02
 0.10362577233E+02 0.83217396926E+01 0.73060165966E+01 0.65794035564E+01 0.60839898121E+01
 0.57785137282E+01 0.56224771511E+01 0.55724984298E+01 0.56224771511E+01 0.57785137282E+01
 0.60839898121E+01 0.65794035564E+01 0.73060165966E+01 0.83217396926E+01 0.10362577233E+02
 0.14660529279E+02 0.22324864015E+02 0.34148854506E+02 0.50360821600E+02 0.70497312196E+02
 0.93348405717E+02 0.11703973898E+03 0.13922172704E+03 0.15740512450E+03 0.16935705499E+03
 0.18688615003E+03 0.18234799498E+03 0.16935705499E+03 0.14963578266E+03 0.12564578319E+03
 0.10010154642E+03 0.75526613263E+02 0.53902204342E+02 0.36484990170E+02 0.23738093084E+02
 0.15413834358E+02 0.10692264286E+02 0.84301421394E+01 0.73523564151E+01 0.66078645517E+01
 0.60935432334E+01 0.57773484551E+01 0.56141014825E+01 0.55628747237E+01 0.56141014825E+01
 0.57773484551E+01 0.60935432334E+01 0.66078645517E+01 0.73523564151E+01 0.84301421394E+01
 0.10692264286E+02 0.15413834358E+02 0.23738093084E+02 0.36484990170E+02 0.53902204342E+02
 0.75526613263E+02 0.10010154642E+03 0.12564578319E+03 0.14963578266E+03 0.16935705499E+03
 0.18234799498E+03 0.18688615003E+03 0.18234799498E+03 0.16935705499E+03 0.14963578266E+03
 0.12564578319E+03 0.10010154642E+03 0.75526613263E+02 0.53902204342E+02 0.36484990170E+02
 0.23738093084E+02 0.15413834358E+02 0.10692264286E+02 0.84301421394E+01 0.73523564151E+01
 0.66078645517E+01 0.60935432334E+01 0.57773484551E+01 0.56141014825E+01 0.55628747237E+01
 0.56141014825E+01 0.57773484551E+01 0.60935432334E+01 0.66078645517E+01 0.73523564151E+01
 0.84301421394E+01 0.10692264286E+02 0.15413834358E+02 0.23738093084E+02 0.36484990170E+02
 0.53902204342E+02 0.75526613263E+02 0.10010154642E+03 0.12564578319E+03 0.14963578266E+03
 0.16935705499E+03 0.18234799498E+03 0.18234799498E+03 0.17793532813E+03 0.16529928541E+03
 0.14610279218E+03 0.12272954547E+03 0.97816034724E+02 0.73825708577E+02 0.52703227857E+02
 0.35694208955E+02 0.23258610539E+02 0.15157104707E+02 0.10579671596E+02 0.83932641125E+01
 0.73376214684E+01 0.65988610926E+01 0.60909205671E+01 0.57781473550E+01 0.56174224529E+01
 0.55664958041E+01 0.56174224529E+01 0.57781473550E+01 0.60909205671E+01 0.65988610926E+01
 0.73376214684E+01 0.83932641125E+01 0.10579671596E+02 0.15157104707E+02 0.23258610539E+02
 0.35694208955E+02 0.52703227857E+02 0.73825708577E+02 0.97816034724E+02 0.12272954547E+03
 0.14610279218E+03 0.16529928541E+03 0.17793532813E+03 0.16935705499E+03 0.16529928541E+03
 0.15366657808E+03 0.13595697855E+03 0.11433460580E+03 0.91219875345E+02 0.68907567558E+02
 0.49238568306E+02 0.33410356572E+02 0.21880369294E+02 0.14426616612E+02 0.10263254201E+02
 0.82906460049E+01 0.72928516891E+01 0.65719901761E+01 0.60827049747E+01 0.57806476907E+01
 0.56269130771E+01 0.55773026977E+01 0.56269130771E+01 0.57806476907E+01 0.60827049747E+01
 0.65719901761E+01 0.72928516891E+01 0.82906460049E+01 0.10263254201E+02 0.14426616612E+02
 0.21880369294E+02 0.33410356572E+02 0.49238568306E+02 0.68907567558E+02 0.91219875345E+02
 0.11433460580E+03 0.13595697855E+03 0.15366657808E+03 0.16529928541E+03 0.14963578266E+03
 0.14610279218E+03 0.13595697855E+03 0.12046093763E+03 0.10146333743E+03 0.81068941540E+02
 0.61318541305E+02 0.43889361019E+02 0.29899666848E+02 0.19784008853E+02 0.13335425993E+02
 0.98051781352E+01 0.81392574741E+01 0.72167893793E+01 0.65280547088E+01 0.60684431446E+01
 0.57841641891E+01 0.56409555570E+01 0.55938994643E+01 0.56409555570E+01 0.57841641891E+01
 0.60684431446E+01 0.65280547088E+01 0.72167893793E+01 0.81392574741E+01 0.98051781352E+01
 0.13335425993E+02 0.19784008853E+02 0.29899666848E+02 0.43889361019E+02 0.61318541305E+02
 0.81068941540E+02 0.10146333743E+03 0.12046093763E+03 0.13595697855E+03 0.14610279218E+03
 0.12564578319E+03 0.12272954547E+03 0.11433460580E+03 0.10146333743E+03 0.85606169122E+02
 0.68508345776E+02 0.51906539211E+02 0.37270365361E+02 0.25588912795E+02 0.17255837230E+02
 0.12058186811E+02 0.92910037732E+01 0.79565578168E+01 0.71072019388E+01 0.64694614727E+01
 0.60471848857E+01 0.57886373434E+01 0.56571784546E+01 0.56151803738E+01 0.56571784546E+01
 0.57886373434E+01 0.60471848857E+01 0.64694614727E+01 0.71072019388E+01 0.79565578168E+01
 0.92910037732E+01 0.12058186811E+02 0.17255837230E+02 0.25588912795E+02 0.37270365361E+02
 0.51906539211E+02 0.68508345776E+02 0.85606169122E+02 0.10146333743E+03 0.11433460580E+03
 0.12272954547E+03 0.10010154642E+03 0.97816034724E+02 0.91219875345E+02 0.81068941540E+02
 0.68508345776E+02 0.54923792417E+02 0.41729245062E+02 0.30152384725E+02 0.21021857475E+02
 0.14649510481E+02 0.10795590418E+02 0.88019579191E+01 0.77457551698E+01 0.69676753034E+01
 0.63986974262E+01 0.60197812645E+01 0.57924592868E+01 0.56735395317E+01 0.56381331512E+01
 0.56735395317E+01 0.57924592868E+01 0.60197812645E+01 0.63986974262E+01 0.69676753034E+01
 0.77457551698E+01 0.88019579191E+01 0.10795590418E+02 0.14649510481E+02 0.21021857475E+02
 0.30152384725E+02 0.41729245062E+02 0.54923792417E+02 0.68508345776E+02 0.81068941540E+02
 0.91219875345E+02 0.97816034724E+02 0.75526613263E+02 0.73825708577E+02 0.68907567558E+02
 0.61318541305E+02 0.51906539211E+02 0.41729245062E+02 0.31890139473E+02 0.23356191634E+02
 0.16763698640E+02 0.12310439730E+02 0.97226127899E+01 0.83727510970E+01 0.74998546978E+01
 0.68090206669E+01 0.63176511421E+01 0.59888974451E+01 0.57935726099E+01 0.56893780753E+01
 0.56594254343E+01 0.56893780753E+01 0.57935726099E+01 0.59888974451E+01 0.63176511421E+01
 0.68090206669E+01 0.74998546978E+01 0.83727510970E+01 0.97226127899E+01 0.12310439730E+02
 0.16763698640E+02 0.23356191634E+02 0.31890139473E+02 0.41729245062E+02 0.51906539211E+02
 0.61318541305E+02 0.68907567558E+02 0.73825708577E+02 0.53902204342E+02 0.52703227857E+02
 0.49238568306E+02 0.43889361019E+02 0.37270365361E+02 0.30152384725E+02 0.23356191634E+02
 0.17583657971E+02 0.13275904065E+02 0.10486653795E+02 0.89161713550E+01 0.79745070406E+01
 0.72240785159E+01 0.66445671805E+01 0.62300069787E+01 0.59571889383E+01 0.57899953657E+01
 0.57033752386E+01 0.56756103996E+01 0.57033752386E+01 0.57899953657E+01 0.59571889383E+01
 0.62300069787E+01 0.66445671805E+01 0.72240785159E+01 0.79745070406E+01 0.89161713550E+01
 0.10486653795E+02 0.13275904065E+02 0.17583657971E+02 0.23356191634E+02 0.30152384725E+02
 0.37270365361E+02 0.43889361019E+02 0.49238568306E+02 0.52703227857E+02 0.36484990170E+02
 0.35694208955E+02 0.33410356572E+02 0.29899666848E+02 0.25588912795E+02 0.21021857475E+02
 0.16763698640E+02 0.13275904065E+02 0.10787705409E+02 0.92471076463E+01 0.83074521516E+01
 0.75645762938E+01 0.69478080400E+01 0.64793644031E+01 0.61448845701E+01 0.59224707083E+01
 0.57848311345E+01 0.57116271394E+01 0.56885015569E+01 0.57116271394E+01 0.57848311345E+01
 0.59224707083E+01 0.61448845701E+01 0.64793644031E+01 0.69478080400E+01 0.75645762938E+01
 0.83074521516E+01 0.92471076463E+01 0.10787705409E+02 0.13275904065E+02 0.16763698640E+02
 0.21021857475E+02 0.25588912795E+02 0.29899666848E+02 0.33410356572E+02 0.35694208955E+02
 0.23738093084E+02 0.23258610539E+02 0.21880369294E+02 0.19784008853E+02 0.17255837230E+02
 0.14649510481E+02 0.12310439730E+02 0.10486653795E+02 0.92471076463E+01 0.84284910365E+01