   2   2   1   0
  0.1173411E+02  0.2863036E-09  0.2863036E-09  0.2863036E-09  0.5000000E-15
  1.000000000000000E-004
  CAR 
 unknown system                          
     47.33631360     -4.96807369  301      5.86929794      1.00000000
     -4.968  0.0000E+00  0.0000E+00  0.0000E+00  0.0000E+00
     -4.794  0.0000E+00  0.0000E+00  0.0000E+00  0.0000E+00
     -4.619  0.0000E+00  0.0000E+00  0.0000E+00  0.0000E+00
     -4.445  0.0000E+00  0.0000E+00  0.0000E+00  0.0000E+00
     -4.271 -0.4108E-35  0.0000E+00 -0.7162E-36  0.0000E+00
     -4.096 -0.4119E-29 -0.7336E-35 -0.7181E-30 -0.1279E-35
     -3.922 -0.9101E-24 -0.6920E-29 -0.1587E-24 -0.1206E-29
     -3.748 -0.4352E-19 -0.1439E-23 -0.7588E-20 -0.2508E-24
     -3.573 -0.4743E-15 -0.6493E-19 -0.8270E-16 -0.1132E-19
     -3.399 -0.1171E-11 -0.6639E-15 -0.2043E-12 -0.1158E-15
     -3.225 -0.6570E-09 -0.1543E-11 -0.1147E-09 -0.2692E-12
     -3.050 -0.8261E-07 -0.8153E-09 -0.1452E-07 -0.1424E-09
     -2.876 -0.2139E-05 -0.9644E-07 -0.3875E-06 -0.1696E-07
     -2.702 -0.5671E-05 -0.2333E-05 -0.1376E-05 -0.4237E-06
     -2.527  0.6137E-04 -0.5148E-05  0.9324E-05 -0.1321E-05
     -2.353  0.2410E-03  0.6657E-04  0.5134E-04  0.1029E-04
     -2.179  0.3804E-03  0.2462E-03  0.1177E-03  0.5322E-04
     -2.004  0.4988E-03  0.3804E-03  0.2046E-03  0.1195E-03
     -1.830  0.5582E-03  0.4961E-03  0.3020E-03  0.2060E-03
     -1.655  0.6832E-03  0.5502E-03  0.4211E-03  0.3020E-03
     -1.481  0.7365E-03  0.6705E-03  0.5495E-03  0.4189E-03
     -1.307  0.7937E-03  0.7234E-03  0.6879E-03  0.5450E-03
     -1.132  0.9742E-03  0.7571E-03  0.8577E-03  0.6770E-03
     -0.958  0.9357E-03  0.9479E-03  0.1021E-02  0.8422E-03
     -0.784  0.1066E-02  0.8884E-03  0.1207E-02  0.9971E-03
     -0.609  0.1261E-02  0.9969E-03  0.1427E-02  0.1171E-02
     -0.435  0.1234E-02  0.1145E-02  0.1642E-02  0.1370E-02
     -0.261  0.1338E-02  0.1209E-02  0.1875E-02  0.1581E-02
     -0.086  0.1669E-02  0.1089E-02  0.2166E-02  0.1771E-02
      0.088  0.1659E-02  0.1473E-02  0.2455E-02  0.2028E-02
      0.262  0.1807E-02  0.1455E-02  0.2770E-02  0.2282E-02
      0.437  0.2291E-02  0.1443E-02  0.3170E-02  0.2533E-02
      0.611  0.2469E-02  0.1591E-02  0.3600E-02  0.2810E-02
      0.785  0.3026E-02  0.1885E-02  0.4128E-02  0.3139E-02
      0.960  0.5751E-02  0.1907E-02  0.5131E-02  0.3472E-02
      1.134  0.9538E-02  0.1895E-02  0.6793E-02  0.3802E-02
      1.308  0.1181E-01  0.2293E-02  0.8853E-02  0.4202E-02
      1.483  0.1406E-01  0.2603E-02  0.1130E-01  0.4656E-02
      1.657  0.1800E-01  0.2634E-02  0.1444E-01  0.5115E-02
      1.831  0.1793E-01  0.3062E-02  0.1757E-01  0.5649E-02
      2.006  0.1289E-01  0.3849E-02  0.1982E-01  0.6320E-02
      2.180  0.9658E-02  0.5040E-02  0.2150E-01  0.7198E-02
      2.355  0.9016E-02  0.6524E-02  0.2307E-01  0.8336E-02
      2.529  0.2277E-01  0.7212E-02  0.2704E-01  0.9593E-02
      2.703  0.2958E-01  0.7100E-02  0.3220E-01  0.1083E-01
      2.878  0.2207E-01  0.7742E-02  0.3605E-01  0.1218E-01
      3.052  0.2019E-01  0.9940E-02  0.3957E-01  0.1391E-01
      3.226  0.2482E-01  0.1245E-01  0.4389E-01  0.1608E-01
      3.401  0.2910E-01  0.1262E-01  0.4897E-01  0.1829E-01
      3.575  0.2238E-01  0.9711E-02  0.5287E-01  0.1998E-01
      3.749  0.1203E-01  0.6561E-02  0.5497E-01  0.2112E-01
      3.924  0.8445E-02  0.6620E-02  0.5644E-01  0.2228E-01
      4.098  0.8462E-02  0.1661E-01  0.5791E-01  0.2517E-01
      4.272  0.1054E-01  0.2559E-01  0.5975E-01  0.2963E-01
      4.447  0.1611E-01  0.2523E-01  0.6256E-01  0.3403E-01
      4.621  0.2758E-01  0.2315E-01  0.6737E-01  0.3807E-01
      4.795  0.3984E-01  0.2228E-01  0.7431E-01  0.4195E-01
      4.970  0.5054E-01  0.2396E-01  0.8312E-01  0.4613E-01
      5.144  0.3850E-01  0.2388E-01  0.8984E-01  0.5029E-01
      5.318  0.2015E-01  0.1933E-01  0.9335E-01  0.5366E-01
      5.493  0.1574E-01  0.1333E-01  0.9609E-01  0.5599E-01
      5.667  0.1480E-01  0.6953E-02  0.9867E-01  0.5720E-01
      5.841  0.1547E-01  0.4927E-02  0.1014E+00  0.5806E-01
      6.016  0.1413E-01  0.5047E-02  0.1038E+00  0.5894E-01
      6.190  0.8951E-02  0.5329E-02  0.1054E+00  0.5987E-01
      6.365  0.4455E-02  0.6444E-02  0.1062E+00  0.6099E-01
      6.539  0.2832E-02  0.9098E-02  0.1067E+00  0.6258E-01
      6.713  0.2836E-02  0.1285E-01  0.1072E+00  0.6482E-01
      6.888  0.2893E-02  0.1569E-01  0.1077E+00  0.6755E-01
      7.062  0.3126E-02  0.1896E-01  0.1082E+00  0.7086E-01
      7.236  0.2655E-02  0.2468E-01  0.1087E+00  0.7516E-01
      7.411  0.2814E-02  0.2653E-01  0.1092E+00  0.7979E-01
      7.585  0.3310E-02  0.2577E-01  0.1097E+00  0.8428E-01
      7.759  0.2486E-02  0.4172E-01  0.1102E+00  0.9155E-01
      7.934  0.2617E-02  0.4314E-01  0.1106E+00  0.9907E-01
      8.108  0.2952E-02  0.2136E-01  0.1111E+00  0.1028E+00
      8.282  0.2449E-02  0.1307E-01  0.1116E+00  0.1051E+00
      8.457  0.2710E-02  0.7421E-02  0.1120E+00  0.1064E+00
      8.631  0.2843E-02  0.5151E-02  0.1125E+00  0.1073E+00
      8.805  0.2257E-02  0.3760E-02  0.1129E+00  0.1079E+00
      8.980  0.2098E-02  0.4239E-02  0.1133E+00  0.1087E+00
      9.154  0.2758E-02  0.4099E-02  0.1138E+00  0.1094E+00
      9.328  0.2599E-02  0.3363E-02  0.1142E+00  0.1100E+00
      9.503  0.1990E-02  0.3429E-02  0.1146E+00  0.1106E+00
      9.677  0.1962E-02  0.3722E-02  0.1149E+00  0.1112E+00
      9.852  0.2215E-02  0.3214E-02  0.1153E+00  0.1118E+00
     10.026  0.2077E-02  0.3108E-02  0.1157E+00  0.1123E+00
     10.200  0.2081E-02  0.3149E-02  0.1160E+00  0.1129E+00
     10.375  0.2065E-02  0.2427E-02  0.1164E+00  0.1133E+00
     10.549  0.1744E-02  0.3433E-02  0.1167E+00  0.1139E+00
     10.723  0.1433E-02  0.2793E-02  0.1169E+00  0.1144E+00
     10.898  0.1629E-02  0.2027E-02  0.1172E+00  0.1147E+00
     11.072  0.1663E-02  0.2618E-02  0.1175E+00  0.1152E+00
     11.246  0.1489E-02  0.2618E-02  0.1178E+00  0.1156E+00
     11.421  0.1718E-02  0.2297E-02  0.1181E+00  0.1160E+00
     11.595  0.1369E-02  0.1966E-02  0.1183E+00  0.1164E+00
     11.769  0.9965E-03  0.2138E-02  0.1185E+00  0.1168E+00
     11.944  0.8777E-03  0.1832E-02  0.1186E+00  0.1171E+00
     12.118  0.8911E-03  0.1847E-02  0.1188E+00  0.1174E+00
     12.292  0.1043E-02  0.1774E-02  0.1190E+00  0.1177E+00
     12.467  0.1197E-02  0.1753E-02  0.1192E+00  0.1180E+00
     12.641  0.7895E-03  0.1473E-02  0.1193E+00  0.1183E+00
     12.815  0.5597E-03  0.1194E-02  0.1194E+00  0.1185E+00
     12.990  0.3757E-03  0.1100E-02  0.1195E+00  0.1187E+00
     13.164  0.3275E-03  0.1287E-02  0.1196E+00  0.1189E+00
     13.338  0.1423E-02  0.1224E-02  0.1198E+00  0.1191E+00
     13.513  0.4620E-02  0.1030E-02  0.1206E+00  0.1193E+00
     13.687  0.5501E-02  0.5601E-03  0.1216E+00  0.1194E+00
     13.862  0.4755E-02  0.4192E-03  0.1224E+00  0.1195E+00
     14.036  0.4600E-02  0.6564E-03  0.1232E+00  0.1196E+00
     14.210  0.3634E-02  0.6949E-03  0.1238E+00  0.1197E+00
     14.385  0.3062E-02  0.5213E-03  0.1244E+00  0.1198E+00
     14.559  0.3950E-02  0.1235E-02  0.1251E+00  0.1200E+00
     14.733  0.3966E-02  0.4528E-02  0.1257E+00  0.1208E+00
     14.908  0.3369E-02  0.7106E-02  0.1263E+00  0.1220E+00
     15.082  0.2452E-02  0.5558E-02  0.1268E+00  0.1230E+00
     15.256  0.2336E-02  0.4704E-02  0.1272E+00  0.1238E+00
     15.431  0.3736E-02  0.4635E-02  0.1278E+00  0.1246E+00
     15.605  0.4023E-02  0.3874E-02  0.1285E+00  0.1253E+00
     15.779  0.3382E-02  0.3638E-02  0.1291E+00  0.1259E+00
     15.954  0.3743E-02  0.3717E-02  0.1298E+00  0.1266E+00
     16.128  0.4043E-02  0.3184E-02  0.1305E+00  0.1271E+00
     16.302  0.3656E-02  0.3453E-02  0.1311E+00  0.1277E+00
     16.477  0.3925E-02  0.4173E-02  0.1318E+00  0.1285E+00
     16.651  0.4237E-02  0.4677E-02  0.1325E+00  0.1293E+00
     16.825  0.3719E-02  0.4032E-02  0.1332E+00  0.1300E+00
     17.000  0.3298E-02  0.4105E-02  0.1337E+00  0.1307E+00
     17.174  0.3771E-02  0.3744E-02  0.1344E+00  0.1313E+00
     17.348  0.3710E-02  0.4219E-02  0.1351E+00  0.1321E+00
     17.523  0.4000E-02  0.4284E-02  0.1357E+00  0.1328E+00
     17.697  0.3693E-02  0.3904E-02  0.1364E+00  0.1335E+00
     17.872  0.3290E-02  0.3622E-02  0.1370E+00  0.1341E+00
     18.046  0.4143E-02  0.4082E-02  0.1377E+00  0.1349E+00
     18.220  0.3548E-02  0.3729E-02  0.1383E+00  0.1355E+00
     18.395  0.3306E-02  0.3944E-02  0.1389E+00  0.1362E+00
     18.569  0.3290E-02  0.3620E-02  0.1395E+00  0.1368E+00
     18.743  0.3499E-02  0.4228E-02  0.1401E+00  0.1376E+00
     18.918  0.4602E-02  0.4212E-02  0.1409E+00  0.1383E+00
     19.092  0.3546E-02  0.3005E-02  0.1415E+00  0.1388E+00
     19.266  0.3279E-02  0.3407E-02  0.1421E+00  0.1394E+00
     19.441  0.2537E-02  0.3535E-02  0.1425E+00  0.1400E+00
     19.615  0.3191E-02  0.4770E-02  0.1431E+00  0.1409E+00
     19.789  0.4197E-02  0.4089E-02  0.1438E+00  0.1416E+00
     19.964  0.4149E-02  0.3328E-02  0.1445E+00  0.1422E+00
     20.138  0.3920E-02  0.2554E-02  0.1452E+00  0.1426E+00
     20.312  0.2650E-02  0.3090E-02  0.1457E+00  0.1431E+00
     20.487  0.2301E-02  0.4579E-02  0.1461E+00  0.1439E+00
     20.661  0.3017E-02  0.4636E-02  0.1466E+00  0.1447E+00
     20.835  0.4170E-02  0.3543E-02  0.1473E+00  0.1454E+00
     21.010  0.4539E-02  0.2772E-02  0.1481E+00  0.1458E+00
     21.184  0.3265E-02  0.2455E-02  0.1487E+00  0.1463E+00
     21.358  0.2803E-02  0.3473E-02  0.1492E+00  0.1469E+00
     21.533  0.2353E-02  0.4536E-02  0.1496E+00  0.1477E+00
     21.707  0.2698E-02  0.4389E-02  0.1500E+00  0.1484E+00
     21.882  0.4172E-02  0.3369E-02  0.1508E+00  0.1490E+00
     22.056  0.4976E-02  0.2239E-02  0.1516E+00  0.1494E+00
     22.230  0.4202E-02  0.2736E-02  0.1524E+00  0.1499E+00
     22.405  0.3128E-02  0.3547E-02  0.1529E+00  0.1505E+00
     22.579  0.3039E-02  0.4348E-02  0.1534E+00  0.1513E+00
     22.753  0.3529E-02  0.4280E-02  0.1541E+00  0.1520E+00
     22.928  0.4534E-02  0.3611E-02  0.1549E+00  0.1526E+00
     23.102  0.5434E-02  0.3053E-02  0.1558E+00  0.1532E+00
     23.276  0.5084E-02  0.3382E-02  0.1567E+00  0.1538E+00
     23.451  0.4467E-02  0.4541E-02  0.1575E+00  0.1546E+00
     23.625  0.3931E-02  0.5670E-02  0.1582E+00  0.1555E+00
     23.799  0.3802E-02  0.5182E-02  0.1588E+00  0.1564E+00
     23.974  0.4614E-02  0.5045E-02  0.1596E+00  0.1573E+00
     24.148  0.6620E-02  0.4958E-02  0.1608E+00  0.1582E+00
     24.322  0.6191E-02  0.4862E-02  0.1619E+00  0.1590E+00
     24.497  0.4828E-02  0.5029E-02  0.1627E+00  0.1599E+00
     24.671  0.4177E-02  0.5935E-02  0.1634E+00  0.1610E+00
     24.845  0.3532E-02  0.6600E-02  0.1640E+00  0.1621E+00
     25.020  0.4790E-02  0.4806E-02  0.1649E+00  0.1629E+00
     25.194  0.5598E-02  0.3633E-02  0.1658E+00  0.1636E+00
     25.368  0.6162E-02  0.4018E-02  0.1669E+00  0.1643E+00
     25.543  0.4910E-02  0.5378E-02  0.1678E+00  0.1652E+00
     25.717  0.5215E-02  0.6213E-02  0.1687E+00  0.1663E+00
     25.892  0.4490E-02  0.5204E-02  0.1695E+00  0.1672E+00
     26.066  0.4881E-02  0.4746E-02  0.1703E+00  0.1680E+00
     26.240  0.5720E-02  0.5745E-02  0.1713E+00  0.1690E+00
     26.415  0.5958E-02  0.4955E-02  0.1724E+00  0.1699E+00
     26.589  0.5212E-02  0.5626E-02  0.1733E+00  0.1709E+00
     26.763  0.3742E-02  0.5817E-02  0.1739E+00  0.1719E+00
     26.938  0.3446E-02  0.5076E-02  0.1745E+00  0.1728E+00
     27.112  0.4944E-02  0.4177E-02  0.1754E+00  0.1735E+00
     27.286  0.4679E-02  0.3683E-02  0.1762E+00  0.1741E+00
     27.461  0.3754E-02  0.4977E-02  0.1769E+00  0.1750E+00
     27.635  0.4424E-02  0.5636E-02  0.1776E+00  0.1760E+00
     27.809  0.3693E-02  0.3898E-02  0.1783E+00  0.1767E+00
     27.984  0.3370E-02  0.3073E-02  0.1789E+00  0.1772E+00
     28.158  0.3682E-02  0.3334E-02  0.1795E+00  0.1778E+00
     28.332  0.2784E-02  0.4157E-02  0.1800E+00  0.1785E+00
     28.507  0.3255E-02  0.4417E-02  0.1805E+00  0.1793E+00
     28.681  0.3374E-02  0.3083E-02  0.1811E+00  0.1798E+00
     28.855  0.2553E-02  0.3077E-02  0.1816E+00  0.1804E+00
     29.030  0.3526E-02  0.3306E-02  0.1822E+00  0.1809E+00
     29.204  0.3098E-02  0.2219E-02  0.1827E+00  0.1813E+00
     29.378  0.2226E-02  0.3220E-02  0.1831E+00  0.1819E+00
     29.553  0.2452E-02  0.3788E-02  0.1836E+00  0.1825E+00
     29.727  0.2379E-02  0.2568E-02  0.1840E+00  0.1830E+00
     29.902  0.3429E-02  0.2435E-02  0.1846E+00  0.1834E+00
     30.076  0.4344E-02  0.3037E-02  0.1853E+00  0.1839E+00
     30.250  0.4272E-02  0.3486E-02  0.1861E+00  0.1846E+00
     30.425  0.4307E-02  0.4079E-02  0.1868E+00  0.1853E+00
     30.599  0.4189E-02  0.4051E-02  0.1875E+00  0.1860E+00
     30.773  0.7180E-02  0.4372E-02  0.1888E+00  0.1867E+00
     30.948  0.7818E-02  0.5246E-02  0.1902E+00  0.1877E+00
     31.122  0.5615E-02  0.6260E-02  0.1911E+00  0.1887E+00
     31.296  0.4453E-02  0.7697E-02  0.1919E+00  0.1901E+00
     31.471  0.4792E-02  0.6220E-02  0.1928E+00  0.1912E+00
     31.645  0.4410E-02  0.5044E-02  0.1935E+00  0.1920E+00
     31.819  0.3335E-02  0.4163E-02  0.1941E+00  0.1928E+00
     31.994  0.2743E-02  0.3866E-02  0.1946E+00  0.1934E+00
     32.168  0.3742E-02  0.3607E-02  0.1952E+00  0.1941E+00
     32.342  0.3223E-02  0.3795E-02  0.1958E+00  0.1947E+00
     32.517  0.1573E-02  0.3811E-02  0.1961E+00  0.1954E+00
     32.691  0.1251E-02  0.2662E-02  0.1963E+00  0.1959E+00
     32.865  0.1364E-02  0.1776E-02  0.1965E+00  0.1962E+00
     33.040  0.1155E-02  0.1571E-02  0.1967E+00  0.1965E+00
     33.214  0.9733E-03  0.1061E-02  0.1969E+00  0.1966E+00
     33.388  0.1053E-02  0.1354E-02  0.1971E+00  0.1969E+00
     33.563  0.1151E-02  0.1324E-02  0.1973E+00  0.1971E+00
     33.737  0.1231E-02  0.1412E-02  0.1975E+00  0.1973E+00
     33.912  0.6640E-03  0.1203E-02  0.1976E+00  0.1976E+00
     34.086  0.5193E-03  0.5415E-03  0.1977E+00  0.1977E+00
     34.260  0.6417E-03  0.5836E-03  0.1978E+00  0.1978E+00
     34.435  0.3554E-03  0.4748E-03  0.1979E+00  0.1978E+00
     34.609  0.5761E-03  0.3975E-03  0.1980E+00  0.1979E+00
     34.783  0.7938E-03  0.8476E-03  0.1981E+00  0.1981E+00
     34.958  0.4771E-03  0.6590E-03  0.1982E+00  0.1982E+00
     35.132  0.6250E-03  0.5144E-03  0.1983E+00  0.1983E+00
     35.306  0.1247E-02  0.1221E-02  0.1985E+00  0.1985E+00
     35.481  0.6166E-03  0.8383E-03  0.1986E+00  0.1986E+00
     35.655  0.1166E-03  0.1712E-03  0.1987E+00  0.1986E+00
     35.829  0.3531E-03  0.2536E-03  0.1987E+00  0.1987E+00
     36.004  0.3439E-03  0.3722E-03  0.1988E+00  0.1988E+00
     36.178  0.1501E-03  0.2132E-03  0.1988E+00  0.1988E+00
     36.352  0.5358E-03  0.4247E-03  0.1989E+00  0.1989E+00
     36.527  0.5970E-03  0.6530E-03  0.1990E+00  0.1990E+00
     36.701  0.1586E-03  0.2616E-03  0.1990E+00  0.1990E+00
     36.875  0.4411E-03  0.4413E-03  0.1991E+00  0.1991E+00
     37.050  0.8328E-03  0.8595E-03  0.1992E+00  0.1993E+00
     37.224  0.3623E-03  0.3440E-03  0.1993E+00  0.1993E+00
     37.398  0.1240E-04 -0.7924E-05  0.1993E+00  0.1993E+00
     37.573  0.2109E-03  0.2384E-03  0.1994E+00  0.1994E+00
     37.747  0.2607E-03  0.2634E-03  0.1994E+00  0.1994E+00
     37.922  0.4406E-04  0.1017E-04  0.1994E+00  0.1994E+00
     38.096  0.2372E-03  0.2511E-03  0.1994E+00  0.1994E+00
     38.270  0.3417E-03  0.3507E-03  0.1995E+00  0.1995E+00
     38.445  0.1244E-03  0.2020E-03  0.1995E+00  0.1995E+00
     38.619  0.3137E-03  0.3659E-03  0.1996E+00  0.1996E+00
     38.793  0.4150E-03  0.3840E-03  0.1997E+00  0.1997E+00
     38.968  0.2591E-03  0.2008E-03  0.1997E+00  0.1997E+00
     39.142  0.1636E-03  0.1156E-03  0.1997E+00  0.1997E+00
     39.316  0.5857E-04  0.5049E-04  0.1997E+00  0.1997E+00
     39.491 -0.1655E-05  0.2246E-04  0.1997E+00  0.1997E+00
     39.665  0.8582E-04  0.1053E-03  0.1998E+00  0.1998E+00
     39.839  0.7415E-04  0.7430E-04  0.1998E+00  0.1998E+00
     40.014  0.8449E-04  0.1755E-03  0.1998E+00  0.1998E+00
     40.188  0.2234E-03  0.1299E-03  0.1998E+00  0.1998E+00
     40.362  0.4444E-04  0.9869E-05  0.1998E+00  0.1998E+00
     40.537  0.6571E-04  0.2182E-03  0.1998E+00  0.1999E+00
     40.711  0.2792E-03  0.2907E-03  0.1999E+00  0.1999E+00
     40.885  0.2085E-03  0.8834E-04  0.1999E+00  0.1999E+00
     41.060  0.5654E-04  0.7462E-05  0.1999E+00  0.1999E+00
     41.234 -0.3482E-05 -0.3452E-05  0.1999E+00  0.1999E+00
     41.408 -0.2290E-05 -0.1120E-05  0.1999E+00  0.1999E+00
     41.583 -0.3201E-05 -0.3287E-05  0.1999E+00  0.1999E+00
     41.757  0.1342E-04  0.3214E-04  0.1999E+00  0.1999E+00
     41.932  0.7292E-04  0.6984E-04  0.1999E+00  0.1999E+00
     42.106  0.2971E-04  0.3919E-04  0.2000E+00  0.2000E+00
     42.280  0.4628E-04  0.1096E-03  0.2000E+00  0.2000E+00
     42.455  0.1110E-03  0.4483E-04  0.2000E+00  0.2000E+00
     42.629  0.2012E-04 -0.4917E-05  0.2000E+00  0.2000E+00
     42.803 -0.6513E-06  0.4012E-04  0.2000E+00  0.2000E+00
     42.978  0.4958E-04  0.4580E-04  0.2000E+00  0.2000E+00
     43.152  0.3595E-04  0.1819E-05  0.2000E+00  0.2000E+00
     43.326 -0.1138E-05 -0.1518E-05  0.2000E+00  0.2000E+00
     43.501 -0.9880E-06 -0.7076E-07  0.2000E+00  0.2000E+00
     43.675 -0.3128E-07 -0.5371E-09  0.2000E+00  0.2000E+00
     43.849 -0.1718E-09 -0.8525E-12  0.2000E+00  0.2000E+00
     44.024 -0.1936E-12 -0.4292E-10  0.2000E+00  0.2000E+00
     44.198 -0.7455E-11 -0.6984E-08  0.2000E+00  0.2000E+00
     44.372 -0.1939E-08 -0.1933E-06  0.2000E+00  0.2000E+00
     44.547 -0.9188E-07 -0.5440E-07  0.2000E+00  0.2000E+00
     44.721 -0.4116E-06  0.6595E-05  0.2000E+00  0.2000E+00
     44.895  0.4034E-05  0.7868E-05  0.2000E+00  0.2000E+00
     45.070  0.9357E-05  0.4128E-06  0.2000E+00  0.2000E+00
     45.244  0.1894E-05 -0.2683E-06  0.2000E+00  0.2000E+00
     45.418 -0.4022E-06 -0.1334E-07  0.2000E+00  0.2000E+00
     45.593 -0.3848E-07 -0.1066E-09  0.2000E+00  0.2000E+00
     45.767 -0.5005E-09 -0.1668E-12  0.2000E+00  0.2000E+00
     45.942 -0.1237E-11 -0.5389E-16  0.2000E+00  0.2000E+00
     46.116 -0.6245E-15 -0.3184E-20  0.2000E+00  0.2000E+00
     46.290 -0.6368E-19  0.0000E+00  0.2000E+00  0.2000E+00
     46.465  0.0000E+00  0.0000E+00  0.2000E+00  0.2000E+00
     46.639  0.0000E+00  0.0000E+00  0.2000E+00  0.2000E+00
     46.813  0.0000E+00  0.0000E+00  0.2000E+00  0.2000E+00
     46.988  0.0000E+00  0.0000E+00  0.2000E+00  0.2000E+00
     47.162  0.0000E+00  0.0000E+00  0.2000E+00  0.2000E+00
     47.336  0.0000E+00  0.0000E+00  0.2000E+00  0.2000E+00
     47.33631360     -4.96807369  301      5.86929794      1.00000000
     -4.968  0.0000E+00  0.0000E+00  0.0000E+00  0.0000E+00  0.0000E+00  0.0000E+00  0.0000E+00  0.0000E+00  0.0000E+00  0.0000E+00  0.0000E+00  0.0000E+00  0.0000E+00  0.0000E+00  0.0000E+00  0.0000E+00  0.0000E+00  0.0000E+00
     -4.794  0.0000E+00  0.0000E+00  0.0000E+00  0.0000E+00  0.0000E+00  0.0000E+00  0.0000E+00  0.0000E+00  0.0000E+00  0.0000E+00  0.0000E+00  0.0000E+00  0.0000E+00  0.0000E+00  0.0000E+00  0.0000E+00  0.0000E+00  0.0000E+00
     -4.619  0.0000E+00  0.0000E+00  0.0000E+00  0.0000E+00  0.0000E+00  0.0000E+00  0.0000E+00  0.0000E+00  0.0000E+00  0.0000E+00  0.0000E+00  0.0000E+00  0.0000E+00  0.0000E+00  0.0000E+00  0.0000E+00  0.0000E+00  0.0000E+00
     -4.445  0.0000E+00  0.0000E+00  0.0000E+00  0.0000E+00  0.0000E+00  0.0000E+00  0.0000E+00  0.0000E+00  0.0000E+00  0.0000E+00  0.0000E+00  0.0000E+00  0.0000E+00  0.0000E+00  0.0000E+00  0.0000E+00  0.0000E+00  0.0000E+00
     -4.271 -0.1510E-33  0.0000E+00 -0.1718E-37  0.0000E+00 -0.1718E-37  0.0000E+00 -0.1718E-37  0.0000E+00 -0.1924E-46  0.0000E+00 -0.1924E-46  0.0000E+00 -0.1066E-39  0.0000E+00 -0.1924E-46  0.0000E+00 -0.1066E-39  0.0000E+00
     -4.096 -0.1514E-27 -0.2695E-33 -0.2791E-31 -0.3081E-37 -0.2791E-31 -0.3081E-37 -0.2791E-31 -0.3081E-37 -0.1495E-34 -0.1643E-45 -0.1495E-34 -0.1643E-45 -0.1677E-33 -0.1346E-39 -0.1495E-34 -0.1643E-45 -0.1677E-33 -0.1346E-39
     -3.922 -0.3343E-22 -0.2542E-27 -0.9518E-26 -0.4716E-31 -0.9518E-26 -0.4716E-31 -0.9518E-26 -0.4716E-31 -0.7890E-29 -0.1813E-34 -0.7890E-29 -0.1813E-34 -0.5617E-28 -0.1996E-33 -0.7890E-29 -0.1813E-34 -0.5617E-28 -0.1996E-33
     -3.748 -0.1598E-17 -0.5284E-22 -0.7129E-21 -0.1516E-25 -0.7129E-21 -0.1516E-25 -0.7129E-21 -0.1516E-25 -0.9059E-24 -0.9038E-29 -0.9059E-24 -0.9038E-29 -0.4095E-23 -0.6300E-28 -0.9059E-24 -0.9038E-29 -0.4095E-23 -0.6300E-28
     -3.573 -0.1741E-13 -0.2383E-17 -0.1137E-16 -0.1070E-20 -0.1137E-16 -0.1070E-20 -0.1137E-16 -0.1070E-20 -0.2189E-19 -0.9800E-24 -0.2189E-19 -0.9800E-24 -0.6273E-19 -0.4327E-23 -0.2189E-19 -0.9800E-24 -0.6273E-19 -0.4327E-23
     -3.399 -0.4293E-10 -0.2436E-13 -0.4118E-13 -0.1608E-16 -0.4118E-13 -0.1608E-16 -0.4118E-13 -0.1608E-16 -0.1175E-15 -0.2234E-19 -0.1175E-15 -0.2234E-19 -0.2149E-15 -0.6241E-19 -0.1175E-15 -0.2234E-19 -0.2149E-15 -0.6241E-19
     -3.225 -0.2406E-07 -0.5657E-10 -0.3309E-10 -0.5489E-13 -0.3309E-10 -0.5489E-13 -0.3309E-10 -0.5489E-13 -0.1367E-12 -0.1133E-15 -0.1367E-12 -0.1133E-15 -0.1624E-12 -0.2013E-15 -0.1367E-12 -0.1133E-15 -0.1624E-12 -0.2013E-15
     -3.050 -0.3020E-05 -0.2985E-07 -0.5891E-08 -0.4157E-10 -0.5891E-08 -0.4157E-10 -0.5891E-08 -0.4157E-10 -0.3459E-10 -0.1244E-12 -0.3459E-10 -0.1244E-12 -0.2870E-10 -0.1432E-12 -0.3459E-10 -0.1244E-12 -0.2870E-10 -0.1432E-12
     -2.876 -0.7797E-04 -0.3524E-05 -0.2298E-06 -0.6973E-08 -0.2298E-06 -0.6973E-08 -0.2298E-06 -0.6973E-08 -0.1960E-08 -0.2966E-10 -0.1960E-08 -0.2966E-10 -0.1415E-08 -0.2382E-10 -0.1960E-08 -0.2966E-10 -0.1415E-08 -0.2382E-10
     -2.702 -0.2032E-03 -0.8498E-04 -0.1763E-05 -0.2557E-06 -0.1763E-05 -0.2557E-06 -0.1763E-05 -0.2557E-06 -0.2698E-07 -0.1583E-08 -0.2698E-07 -0.1583E-08 -0.2186E-07 -0.1110E-08 -0.2698E-07 -0.1583E-08 -0.2186E-07 -0.1110E-08
     -2.527  0.2247E-02 -0.1837E-03  0.3363E-05 -0.1815E-05  0.3363E-05 -0.1815E-05  0.3363E-05 -0.1815E-05 -0.6205E-07 -0.2040E-07 -0.6205E-07 -0.2040E-07 -0.4069E-07 -0.1614E-07 -0.6205E-07 -0.2040E-07 -0.4069E-07 -0.1614E-07
     -2.353  0.8710E-02  0.2435E-02  0.5012E-04  0.4160E-05  0.5012E-04  0.4160E-05  0.5012E-04  0.4160E-05  0.5640E-06 -0.3923E-07  0.5640E-06 -0.3923E-07  0.4004E-06 -0.2327E-07  0.5640E-06 -0.3923E-07  0.4004E-06 -0.2327E-07
     -2.179  0.1354E-01  0.8893E-02  0.1462E-03  0.5273E-04  0.1462E-03  0.5273E-04  0.1462E-03  0.5273E-04  0.3328E-05  0.4451E-06  0.3328E-05  0.4451E-06  0.2595E-05  0.3073E-06  0.3328E-05  0.4451E-06  0.2595E-05  0.3073E-06
     -2.004  0.1743E-01  0.1353E-01  0.2946E-03  0.1493E-03  0.2946E-03  0.1493E-03  0.2946E-03  0.1493E-03  0.1038E-04  0.2446E-05  0.1038E-04  0.2446E-05  0.8346E-05  0.1854E-05  0.1038E-04  0.2446E-05  0.8346E-05  0.1854E-05
     -1.830  0.1916E-01  0.1732E-01  0.4337E-03  0.2970E-03  0.4337E-03  0.2970E-03  0.4337E-03  0.2970E-03  0.2243E-04  0.7363E-05  0.2243E-04  0.7363E-05  0.1578E-04  0.5738E-05  0.2243E-04  0.7363E-05  0.1578E-04  0.5738E-05
     -1.655  0.2294E-01  0.1888E-01  0.6804E-03  0.4319E-03  0.6804E-03  0.4319E-03  0.6804E-03  0.4319E-03  0.4326E-04  0.1551E-04  0.4326E-04  0.1551E-04  0.3948E-04  0.1041E-04  0.4326E-04  0.1551E-04  0.3948E-04  0.1041E-04
     -1.481  0.2432E-01  0.2252E-01  0.8462E-03  0.6745E-03  0.8462E-03  0.6745E-03  0.8462E-03  0.6745E-03  0.7386E-04  0.2902E-04  0.7386E-04  0.2902E-04  0.5064E-04  0.2571E-04  0.7386E-04  0.2902E-04  0.5064E-04  0.2571E-04
     -1.307  0.2552E-01  0.2392E-01  0.1092E-02  0.8384E-03  0.1092E-02  0.8384E-03  0.1092E-02  0.8384E-03  0.1160E-03  0.4871E-04  0.1160E-03  0.4871E-04  0.9556E-04  0.3213E-04  0.1160E-03  0.4871E-04  0.9556E-04  0.3213E-04
     -1.132  0.3070E-01  0.2442E-01  0.1493E-02  0.1051E-02  0.1493E-02  0.1051E-02  0.1493E-02  0.1051E-02  0.1770E-03  0.7366E-04  0.1770E-03  0.7366E-04  0.1636E-03  0.5636E-04  0.1770E-03  0.7366E-04  0.1636E-03  0.5636E-04
     -0.958  0.2875E-01  0.3001E-01  0.1590E-02  0.1470E-02  0.1590E-02  0.1470E-02  0.1590E-02  0.1470E-02  0.2690E-03  0.1104E-03  0.2690E-03  0.1104E-03  0.1794E-03  0.1000E-03  0.2690E-03  0.1104E-03  0.1794E-03  0.1000E-03
     -0.784  0.3187E-01  0.2752E-01  0.2009E-02  0.1530E-02  0.2009E-02  0.1530E-02  0.2009E-02  0.1530E-02  0.3562E-03  0.1596E-03  0.3562E-03  0.1596E-03  0.3145E-03  0.1023E-03  0.3562E-03  0.1596E-03  0.3145E-03  0.1023E-03
     -0.609  0.3658E-01  0.3014E-01  0.2579E-02  0.1904E-02  0.2579E-02  0.1904E-02  0.2579E-02  0.1904E-02  0.5399E-03  0.2138E-03  0.5399E-03  0.2138E-03  0.5049E-03  0.1633E-03  0.5399E-03  0.2138E-03  0.5049E-03  0.1633E-03
     -0.435  0.3488E-01  0.3374E-01  0.2655E-02  0.2394E-02  0.2655E-02  0.2394E-02  0.2655E-02  0.2394E-02  0.7294E-03  0.2840E-03  0.7294E-03  0.2840E-03  0.5211E-03  0.2720E-03  0.7294E-03  0.2840E-03  0.5211E-03  0.2720E-03
     -0.261  0.3621E-01  0.3489E-01  0.3113E-02  0.2679E-02  0.3113E-02  0.2679E-02  0.3113E-02  0.2679E-02  0.9867E-03  0.4176E-03  0.9867E-03  0.4176E-03  0.8298E-03  0.2885E-03  0.9867E-03  0.4176E-03  0.8298E-03  0.2885E-03
     -0.086  0.4368E-01  0.3053E-01  0.4073E-02  0.2606E-02  0.4073E-02  0.2606E-02  0.4073E-02  0.2606E-02  0.1380E-02  0.4649E-03  0.1380E-02  0.4649E-03  0.1363E-02  0.3273E-03  0.1380E-02  0.4649E-03  0.1363E-02  0.3273E-03
      0.088  0.4152E-01  0.4005E-01  0.4152E-02  0.3768E-02  0.4152E-02  0.3768E-02  0.4152E-02  0.3768E-02  0.1942E-02  0.6971E-03  0.1942E-02  0.6971E-03  0.1507E-02  0.6304E-03  0.1942E-02  0.6971E-03  0.1507E-02  0.6304E-03
      0.262  0.4284E-01  0.3859E-01  0.4642E-02  0.3894E-02  0.4642E-02  0.3894E-02  0.4642E-02  0.3894E-02  0.2602E-02  0.8103E-03  0.2602E-02  0.8103E-03  0.2141E-02  0.7034E-03  0.2602E-02  0.8103E-03  0.2141E-02  0.7034E-03
      0.437  0.5108E-01  0.3699E-01  0.6067E-02  0.4015E-02  0.6067E-02  0.4015E-02  0.6067E-02  0.4015E-02  0.3764E-02  0.1127E-02  0.3764E-02  0.1127E-02  0.3659E-02  0.7310E-03  0.3764E-02  0.1127E-02  0.3659E-02  0.7310E-03
      0.611  0.5185E-01  0.3936E-01  0.6412E-02  0.4653E-02  0.6412E-02  0.4653E-02  0.6412E-02  0.4653E-02  0.5277E-02  0.1331E-02  0.5277E-02  0.1331E-02  0.4368E-02  0.1095E-02  0.5277E-02  0.1331E-02  0.4368E-02  0.1095E-02
      0.785  0.5680E-01  0.4494E-01  0.7355E-02  0.5753E-02  0.7355E-02  0.5753E-02  0.7355E-02  0.5753E-02  0.9010E-02  0.1739E-02  0.9010E-02  0.1739E-02  0.6696E-02  0.1624E-02  0.9010E-02  0.1739E-02  0.6696E-02  0.1624E-02
      0.960  0.7930E-01  0.4383E-01  0.9663E-02  0.5871E-02  0.9663E-02  0.5871E-02  0.9663E-02  0.5871E-02  0.2619E-01  0.2290E-02  0.2619E-01  0.2290E-02  0.2477E-01  0.1777E-02  0.2619E-01  0.2290E-02  0.2477E-01  0.1777E-02
      1.134  0.9416E-01  0.4162E-01  0.1083E-01  0.5955E-02  0.1083E-01  0.5955E-02  0.1083E-01  0.5955E-02  0.4915E-01  0.2801E-02  0.4915E-01  0.2801E-02  0.6471E-01  0.1934E-02  0.4915E-01  0.2801E-02  0.6471E-01  0.1934E-02
      1.308  0.8931E-01  0.4775E-01  0.1260E-01  0.7358E-02  0.1260E-01  0.7358E-02  0.1260E-01  0.7358E-02  0.5548E-01  0.3630E-02  0.5548E-01  0.3630E-02  0.1057E+00  0.3236E-02  0.5548E-01  0.3630E-02  0.1057E+00  0.3236E-02
      1.483  0.8318E-01  0.5154E-01  0.1542E-01  0.8427E-02  0.1542E-01  0.8427E-02  0.1542E-01  0.8427E-02  0.5979E-01  0.4797E-02  0.5979E-01  0.4797E-02  0.1483E+00  0.4152E-02  0.5979E-01  0.4797E-02  0.1483E+00  0.4152E-02
      1.657  0.7768E-01  0.4906E-01  0.2053E-01  0.8157E-02  0.2053E-01  0.8157E-02  0.2053E-01  0.8157E-02  0.6664E-01  0.6305E-02  0.6664E-01  0.6305E-02  0.2205E+00  0.4631E-02  0.6664E-01  0.6305E-02  0.2205E+00  0.4631E-02
      1.831  0.6235E-01  0.5262E-01  0.2081E-01  0.9308E-02  0.2081E-01  0.9308E-02  0.2081E-01  0.9308E-02  0.7027E-01  0.8519E-02  0.7027E-01  0.8519E-02  0.2234E+00  0.6610E-02  0.7027E-01  0.8519E-02  0.2234E+00  0.6610E-02
      2.006  0.3559E-01  0.6056E-01  0.1351E-01  0.1107E-01  0.1351E-01  0.1107E-01  0.1351E-01  0.1107E-01  0.7057E-01  0.1226E-01  0.7057E-01  0.1226E-01  0.1410E+00  0.1050E-01  0.7057E-01  0.1226E-01  0.1410E+00  0.1050E-01
      2.180  0.1946E-01  0.6827E-01  0.9419E-02  0.1156E-01  0.9419E-02  0.1156E-01  0.9419E-02  0.1156E-01  0.6156E-01  0.2232E-01  0.6156E-01  0.2232E-01  0.9953E-01  0.1672E-01  0.6156E-01  0.2232E-01  0.9953E-01  0.1672E-01
      2.355  0.7017E-02  0.7577E-01  0.8995E-02  0.1191E-01  0.8995E-02  0.1191E-01  0.8995E-02  0.1191E-01  0.6252E-01  0.3482E-01  0.6252E-01  0.3482E-01  0.9278E-01  0.2621E-01  0.6252E-01  0.3482E-01  0.9278E-01  0.2621E-01
      2.529  0.3009E-02  0.7567E-01  0.1861E-01  0.1369E-01  0.1861E-01  0.1369E-01  0.1861E-01  0.1369E-01  0.2430E+00  0.3916E-01  0.2430E+00  0.3916E-01  0.1321E+00  0.3190E-01  0.2430E+00  0.3916E-01  0.1321E+00  0.3190E-01
      2.703  0.3970E-02  0.6742E-01  0.2113E-01  0.1359E-01  0.2113E-01  0.1359E-01  0.2113E-01  0.1359E-01  0.3326E+00  0.4047E-01  0.3326E+00  0.4047E-01  0.1546E+00  0.3277E-01  0.3326E+00  0.4047E-01  0.1546E+00  0.3277E-01
      2.878  0.6858E-02  0.6001E-01  0.1565E-01  0.1446E-01  0.1565E-01  0.1446E-01  0.1565E-01  0.1446E-01  0.2453E+00  0.4163E-01  0.2453E+00  0.4163E-01  0.1185E+00  0.4777E-01  0.2453E+00  0.4163E-01  0.1185E+00  0.4777E-01
      3.052  0.1013E-01  0.5475E-01  0.2004E-01  0.1680E-01  0.2004E-01  0.1680E-01  0.2004E-01  0.1680E-01  0.2230E+00  0.4402E-01  0.2230E+00  0.4402E-01  0.9838E-01  0.9053E-01  0.2230E+00  0.4402E-01  0.9838E-01  0.9053E-01
      3.226  0.1550E-01  0.4784E-01  0.3037E-01  0.1980E-01  0.3037E-01  0.1980E-01  0.3037E-01  0.1980E-01  0.2702E+00  0.4676E-01  0.2702E+00  0.4676E-01  0.1154E+00  0.1395E+00  0.2702E+00  0.4676E-01  0.1154E+00  0.1395E+00
      3.401  0.1971E-01  0.3705E-01  0.3413E-01  0.1844E-01  0.3413E-01  0.1844E-01  0.3413E-01  0.1844E-01  0.3189E+00  0.5115E-01  0.3189E+00  0.5115E-01  0.1361E+00  0.1462E+00  0.3189E+00  0.5115E-01  0.1361E+00  0.1462E+00
      3.575  0.1520E-01  0.2249E-01  0.2522E-01  0.1301E-01  0.2522E-01  0.1301E-01  0.2522E-01  0.1301E-01  0.2542E+00  0.5017E-01  0.2542E+00  0.5017E-01  0.9498E-01  0.1036E+00  0.2542E+00  0.5017E-01  0.9498E-01  0.1036E+00
      3.749  0.1021E-01  0.1045E-01  0.1742E-01  0.8850E-02  0.1742E-01  0.8850E-02  0.1742E-01  0.8850E-02  0.1302E+00  0.3318E-01  0.1302E+00  0.3318E-01  0.5221E-01  0.7384E-01  0.1302E+00  0.3318E-01  0.5221E-01  0.7384E-01