    2    2  100    2
  0.1173411E+02  0.2863035E-09  0.2863035E-09  0.2863035E-09  0.5000000E-15
  1.000000000000000E-004
  CAR 
 unknown system                          
     16    286     20
 
  0.0000000E+00  0.0000000E+00  0.0000000E+00  0.1250000E-03
    1       -2.590602     -2.423220   1.000000   1.000000
    2        0.998257      2.815368   1.000000   1.000000
    3        0.998257      2.815509   1.000000   1.000000
    4        3.563965      5.459248   1.000000   1.006774
    5        3.563966      5.459381   1.000000   1.006789
    6        3.563966      5.459391   1.000000   1.006790
    7        4.779608      7.528147   1.000000  -0.000000
    8        4.779610      7.528311   1.000000  -0.000000
    9        5.999447      8.167989   0.058512  -0.000000
   10        5.999449      8.168113   0.058508  -0.000000
   11        5.999449      8.168125   0.058508  -0.000000
   12       15.836293     16.105699   0.000000   0.000000
   13       15.836293     16.105700   0.000000   0.000000
   14       15.836293     16.105702   0.000000   0.000000
   15       21.565245     22.625239   0.000000   0.000000
   16       21.565247     22.625251   0.000000   0.000000
   17       26.732016     27.834443   0.000000   0.000000
   18       30.935606     30.686206   0.000000   0.000000
   19       30.935606     30.686206   0.000000   0.000000
   20       30.935606     30.686206   0.000000   0.000000
 
  0.5000000E-01  0.0000000E+00  0.0000000E+00  0.7500000E-03
    1       -2.538389     -2.370795   1.000000   1.000000
    2        1.020728      2.834763   1.000000   1.000000
    3        1.021831      2.842126   1.000000   1.000000
    4        3.563452      5.456783   1.000000   1.006497
    5        3.563453      5.456927   1.000000   1.006513
    6        3.578304      5.475166   1.000000   1.008780
    7        4.756220      7.497698   1.000000  -0.000000
    8        4.788871      7.539999   1.000000  -0.000000
    9        5.954989      8.109152   0.171688  -0.000000
   10        5.954990      8.109287   0.171683  -0.000000
   11        5.984086      8.150870   0.092022  -0.000000
   12       15.441191     15.782247   0.000000   0.000000
   13       15.935817     16.220085   0.000000   0.000000
   14       15.935817     16.220086   0.000000   0.000000
   15       21.580542     22.635785   0.000000   0.000000
   16       21.871211     22.869207   0.000000   0.000000
   17       26.897936     27.992382   0.000000   0.000000
   18       30.557105     30.359460   0.000000   0.000000
   19       30.893295     30.665468   0.000000   0.000000
   20       30.893295     30.665468   0.000000   0.000000
 
  0.1000000E+00  0.0000000E+00  0.0000000E+00  0.7500000E-03
    1       -2.382839     -2.214433   1.000000   1.000000
    2        1.087255      2.888198   1.000000   1.000000
    3        1.089725      2.921165   1.000000   1.000000
    4        3.562807      5.450514   1.000000   1.005833
    5        3.562808      5.450657   1.000000   1.005848
    6        3.621017      5.522201   1.000000   1.017029
    7        4.686571      7.406995   1.000000  -0.000000
    8        4.816287      7.574319   1.000000  -0.000000
    9        5.827343      7.942938   0.673267  -0.000000
   10        5.827345      7.943072   0.673260  -0.000000
   11        5.937665      8.098733   0.228600  -0.000000
   12       14.480869     14.967236   0.000000   0.000000
   13       16.227472     16.551482   0.000000   0.000000
   14       16.227472     16.551484   0.000000   0.000000
   15       21.625700     22.667212   0.000000   0.000000
   16       22.523645     23.412142   0.000000   0.000000
   17       27.437189     28.502903   0.000000   0.000000
   18       29.698839     29.596417   0.000000   0.000000
   19       30.727223     30.573301   0.000000   0.000000
   20       30.727223     30.573303   0.000000   0.000000
 
  0.1500000E+00 -0.3081488E-32  0.0000000E+00  0.7500000E-03
    1       -2.127511     -1.957072   1.000000   1.000000
    2        1.194837      2.964664   1.000000   1.000000
    3        1.196660      3.051422   1.000000   1.000000
    4        3.564372      5.443421   1.000000   1.005148
    5        3.564373      5.443564   1.000000   1.005161
    6        3.691202      5.599536   1.000000   1.033466
    7        4.572131      7.258153   1.000000  -0.000000
    8        4.861001      7.628975   1.000000  -0.000000
    9        5.633829      7.697465   1.035089  -0.000000
   10        5.633831      7.697597   1.035089  -0.000000
   11        5.861692      8.013448   0.532157  -0.000000
   12       13.275716     13.916796   0.000000   0.000000
   13       16.693270     17.071107   0.000000   0.000000
   14       16.693270     17.071110   0.000000   0.000000
   15       21.702728     22.721328   0.000000   0.000000
   16       23.144571     23.949853   0.000000   0.000000
   17       28.417147     28.692216   0.000000   0.000000
   18       28.701178     29.428090   0.000000   0.000000
   19       30.340432     30.326775   0.000000   0.000000
   20       30.340432     30.326779   0.000000   0.000000
 
  0.2000000E+00  0.0000000E+00  0.0000000E+00  0.7500000E-03
    1       -1.778882     -1.603981   1.000000   1.000000
    2        1.324801      3.044442   1.000000   1.000000
    3        1.346707      3.230636   1.000000   1.000000
    4        3.572291      5.440651   1.000000   1.004898
    5        3.572293      5.440793   1.000000   1.004911
    6        3.787340      5.705523   1.000000   0.994720
    7        4.415531      7.055084   1.000000  -0.000000
    8        4.921925      7.405337   1.000000  -0.000000
    9        5.396470      7.405468   1.002079  -0.000000
   10        5.396471      7.700056   1.002079  -0.000000
   11        5.758226      7.897385   0.898975  -0.000000
   12       11.999825     12.801282   0.000000   0.000000
   13       17.309663     17.744700   0.000000   0.000000
   14       17.309663     17.744704   0.000000   0.000000
   15       21.814105     22.800632   0.000000   0.000000
   16       23.597074     24.345488   0.000000   0.000000
   17       27.712033     27.792456   0.000000   0.000000
   18       29.664935     29.835225   0.000000   0.000000
   19       29.664935     29.835230   0.000000   0.000000
   20       29.815798     30.757541   0.000000   0.000000
 
  0.2500000E+00  0.0000000E+00  0.0000000E+00  0.7500000E-03
    1       -1.347006     -1.162837   1.000000   1.000000
    2        1.461101      3.098080   1.000000   1.000000
    3        1.534259      3.455550   1.000000   1.000000
    4        3.590623      5.447350   1.000000   1.005519
    5        3.590624      5.447491   1.000000   1.005533
    6        3.907343      5.837940   1.000000   0.630897
    7        4.220067      6.802389   1.000000  -0.000000
    8        4.999354      7.095052   1.000000  -0.000000
    9        5.136788      7.095182   1.000001  -0.000000
   10        5.136789      7.753693   1.000001  -0.000000
   11        5.630048      7.783435   1.035328  -0.000000
   12       10.737290     11.719017  -0.000000   0.000000
   13       18.052616     18.540999   0.000000   0.000000
   14       18.052616     18.541003   0.000000   0.000000
   15       21.963208     22.908622   0.000000   0.000000
   16       23.923351     24.621365   0.000000   0.000000
   17       26.785020     26.954456   0.000000   0.000000
   18       28.739919     29.078781   0.000000   0.000000
   19       28.739920     29.078787   0.000000   0.000000
   20       30.601830     31.031600   0.000000   0.000000
 
  0.3000000E+00 -0.6162976E-32  0.0000000E+00  0.7500000E-03
    1       -0.847016     -0.644504   1.000000   1.000000
    2        1.580941      3.089429   1.000000   1.000000
    3        1.755312      3.722062   1.000000   1.000000
    4        3.624925      5.470549   1.000000   1.008157
    5        3.624926      5.470689   1.000000   1.008176
    6        3.990960      5.993942   1.000000   0.069839
    7        4.048565      6.507644   1.000000  -0.000031
    8        4.873699      6.789286   1.000000  -0.000000
    9        4.873700      6.789417   1.000000  -0.000000
   10        5.097206      7.586461   1.000000  -0.000000
   11        5.480657      7.875983   1.009563  -0.000000
   12        9.537466     10.735513  -0.000000  -0.000000
   13       18.900734     19.434722   0.000000   0.000000
   14       18.900735     19.434726   0.000000   0.000000
   15       22.154579     23.049916   0.000000   0.000000
   16       24.204633     24.849340   0.000000   0.000000
   17       25.942071     26.201433   0.000000   0.000000
   18       27.663944     28.123888   0.000000   0.000000
   19       27.663945     28.123894   0.000000   0.000000
   20       29.429005     29.849665   0.000000   0.000000
 
  0.3500000E+00  0.0000000E+00  0.0000000E+00  0.7500000E-03
    1       -0.301779     -0.064235   1.000000   1.000000
    2        1.651718      2.974975   1.000000   1.000000
    3        2.004926      4.024838   1.000000   1.000000
    4        3.680103      5.516373   1.000000   1.015828
    5        3.680104      5.516511   1.000000   1.015856
    6        3.733741      6.170107   1.000000  -0.027471
    7        4.207838      6.178658   1.000000  -0.025526
    8        4.621327      6.503192   1.000000  -0.000035
    9        4.621328      6.503323   1.000000  -0.000035
   10        5.226101      7.400206   1.000027  -0.000000
   11        5.314019      7.977542   1.000309  -0.000000
   12        8.438519      9.900041  -0.000000  -0.000000
   13       19.836020     20.406219   0.000000   0.000000
   14       19.836021     20.406222   0.000000   0.000000
   15       22.393461     23.230094   0.000000   0.000000
   16       24.502425     25.091866   0.000000   0.000000
   17       25.189470     25.539676   0.000000   0.000000
   18       26.515242     27.052666   0.000000   0.000000
   19       26.515243     27.052672   0.000000   0.000000
   20       28.355660     28.769974   0.000000   0.000000
 
  0.4000000E+00  0.1232595E-31  0.0000000E+00  0.7500000E-03
    1        0.254885      0.556837   1.000000   1.000000
    2        1.635662      2.720802   1.000000   1.000000
    3        2.277315      4.357529   1.000000   1.000000
    4        3.455075      5.590664   1.000000   1.032019
    5        3.760750      5.590801   1.000000   1.032043
    6        3.760751      5.824662   1.000000   0.683755
    7        4.381527      6.246453   1.000000  -0.011359
    8        4.389499      6.246584   1.000000  -0.011337
    9        4.389500      6.362485   1.000000  -0.001346
   10        5.134437      7.199735   1.000001  -0.000000
   11        5.408318      8.094443   1.002647  -0.000000
   12        7.477334      9.244631  -0.000000  -0.000000
   13       20.843078     21.439467   0.000000   0.000000
   14       20.843079     21.439469   0.000000   0.000000
   15       22.685926     23.455718   0.000000   0.000000
   16       24.527238     24.968128   0.000000   0.000000
   17       24.861478     25.397458   0.000000   0.000000
   18       25.341605     25.925289   0.000000   0.000000
   19       25.341606     25.925294   0.000000   0.000000
   20       27.400189     27.815666   0.000000   0.000000
 
  0.4500000E+00  0.1232595E-31  0.0000000E+00  0.7500000E-03
    1        0.775418      1.188996   1.000000   1.000000
    2        1.494101      2.318303   1.000000   1.000000
    3        2.565933      4.712716   1.000000   1.000000
    4        3.162795      5.456155   1.000000   1.006428
    5        3.870610      5.698435   1.000000   1.002667
    6        3.870611      5.698571   1.000000   1.002525
    7        4.185001      6.025247   1.000000   0.015318
    8        4.185002      6.025379   1.000000   0.015136
    9        4.565665      6.566851   1.000000  -0.000005
   10        4.946641      6.990416   1.000000  -0.000000
   11        5.681374      8.243162   1.017673  -0.000000
   12        6.689081      8.772527  -0.000000  -0.000000
   13       21.909123     22.521243   0.000000   0.000000
   14       21.909124     22.521243   0.000000   0.000000
   15       23.038670     23.734231   0.000000   0.000000
   16       23.953398     24.482718   0.000000   0.000000
   17       24.171551     24.779585   0.000000   0.000000
   18       24.171552     24.779588   0.000000   0.000000
   19       25.313290     25.802201   0.000000   0.000000
   20       26.573763     27.001191   0.000000   0.000000
 
  0.5000000E+00  0.0000000E+00  0.0000000E+00  0.3750000E-03
    1        1.203603      1.792312   1.000000   1.000000
    2        1.203603      1.792312   1.000000   1.000000
    3        2.863683      5.082054   1.000000   1.000000
    4        2.863683      5.082054   1.000000   1.000000
    5        4.011857      5.842771   1.000000   0.611158
    6        4.011857      5.842771   1.000000   0.611158
    7        4.011858      5.842905   1.000000   0.610608
    8        4.011858      5.842905   1.000000   0.610608
    9        4.755631      6.777908   1.000000  -0.000000
   10        4.755631      6.777908   1.000000  -0.000000
   11        6.094285      8.454398  -0.033706  -0.000000
   12        6.094285      8.454398  -0.033706  -0.000000
   13       23.022912     23.639383   0.000000   0.000000
   14       23.022912     23.639383   0.000000   0.000000
   15       23.022913     23.639384   0.000000   0.000000
   16       23.022913     23.639384   0.000000   0.000000
   17       23.458873     24.073778   0.000000   0.000000
   18       23.458873     24.073778   0.000000   0.000000
   19       25.879695     26.331677   0.000000   0.000000
   20       25.879695     26.331677   0.000000   0.000000
 
  0.5000000E-01  0.5000000E-01  0.0000000E+00  0.1500000E-02
    1       -2.486353     -2.318518   1.000000   1.000000
    2        1.043032      2.858047   1.000000   1.000000
    3        1.045018      2.864083   1.000000   1.000000
    4        3.535308      5.424881   1.000000   1.003658
    5        3.562167      5.453547   1.000000   1.006147
    6        3.620197      5.520497   1.000000   1.016673
    7        4.750512      7.489700   1.000000  -0.000000
    8        4.781879      7.530795   1.000000  -0.000000
    9        5.874273      8.010717   0.478957  -0.000000
   10        5.910127      8.049938   0.331168  -0.000000
   11        6.006276      8.175722   0.045513  -0.000000
   12       15.449246     15.815780   0.000000   0.000000
   13       15.625353     15.970395   0.000000   0.000000
   14       16.033541     16.331463   0.000000   0.000000
   15       21.738818     22.760655   0.000000   0.000000
   16       22.047517     23.011437   0.000000   0.000000
   17       27.055807     28.143555   0.000000   0.000000
   18       30.227927     30.092418   0.000000   0.000000
   19       30.787474     30.570619   0.000000   0.000000
   20       30.860816     30.650940   0.000000   0.000000
 
  0.1000000E+00  0.5000000E-01  0.0000000E+00  0.3000000E-02
    1       -2.331515     -2.162762   1.000000   1.000000
    2        1.108300      2.913506   1.000000   1.000000
    3        1.113567      2.940473   1.000000   1.000000
    4        3.511873      5.394680   1.000000   1.002003
    5        3.559079      5.444801   1.000000   1.005276
    6        3.685455      5.591336   1.000000   1.032138
    7        4.690589      7.410723   1.000000  -0.000000
    8        4.803723      7.557885   1.000000  -0.000000
    9        5.721794      7.820055   0.972294  -0.000000
   10        5.782733      7.884423   0.831006  -0.000000
   11        5.989694      8.156027   0.079099  -0.000000
   12       14.550542     15.052599   0.000000   0.000000
   13       15.838536     16.232335   0.000000   0.000000
   14       16.320313     16.655039   0.000000   0.000000
   15       21.839919     22.837529   0.000000   0.000000
   16       22.682953     23.544613   0.000000   0.000000
   17       27.572117     28.634569   0.000000   0.000000
   18       29.380276     29.345436   0.000000   0.000000
   19       30.569821     30.420542   0.000000   0.000000
   20       30.722341     30.576800   0.000000   0.000000
 
  0.1500000E+00  0.5000000E-01  0.0000000E+00  0.3000000E-02
    1       -2.077405     -1.906415   1.000000   1.000000
    2        1.213645      2.990614   1.000000   1.000000
    3        1.221476      3.068598   1.000000   1.000000
    4        3.498285      5.372331   1.000000   1.001239
    5        3.556799      5.433985   1.000000   1.004338
    6        3.770339      5.683656   1.000000   1.015984
    7        4.582779      7.268760   1.000000  -0.000000
    8        4.848853      7.567035   1.000000  -0.000000
    9        5.517455      7.613120   1.016047  -0.000000
   10        5.590004      7.640948   1.031900  -0.000000
   11        5.931527      8.088800   0.250286  -0.000000
   12       13.344419     13.998460   0.000000   0.000000
   13       16.280297     16.729669   0.000000   0.000000
   14       16.779198     17.164259   0.000000   0.000000
   15       21.936007     22.907493   0.000000   0.000000
   16       23.338384     24.116038   0.000000   0.000000
   17       28.364883     28.426586   0.000000   0.000000
   18       28.520937     29.532428   0.000000   0.000000
   19       30.138787     30.121106   0.000000   0.000000
   20       30.369301     30.355162   0.000000   0.000000
 
  0.2000000E+00  0.5000000E-01  0.0000000E+00  0.3000000E-02
    1       -1.730655     -1.554820   1.000000   1.000000
    2        1.346011      3.070891   1.000000   1.000000
    3        1.367175      3.244849   1.000000   1.000000
    4        3.496018      5.359722   1.000000   1.000932
    5        3.558232      5.425413   1.000000   1.003695
    6        3.875975      5.799023   1.000000   0.777985
    7        4.435674      7.074358   1.000000  -0.000000
    8        4.910737      7.275570   1.000000  -0.000000
    9        5.277192      7.353522   1.000116  -0.000000
   10        5.354762      7.685754   1.000832  -0.000000
   11        5.839159      7.983473   0.625937  -0.000000
   12       12.066084     12.877639   0.000000   0.000000
   13       16.864105     17.372351   0.000000   0.000000
   14       17.387835     17.826995   0.000000   0.000000
   15       22.066175     23.002714   0.000000   0.000000
   16       23.830140     24.550866   0.000000   0.000000
   17       27.340012     27.496123   0.000000   0.000000
   18       29.434866     29.578091   0.000000   0.000000
   19       29.714025     29.883048   0.000000   0.000000
   20       29.892330     30.836326   0.000000   0.000000
 
  0.2500000E+00  0.5000000E-01  0.0000000E+00  0.3000000E-02
    1       -1.301505     -1.115752   1.000000   1.000000
    2        1.483297      3.124765   1.000000   1.000000
    3        1.551014      3.465668   1.000000   1.000000
    4        3.507403      5.359975   1.000000   1.000938
    5        3.565454      5.424183   1.000000   1.003609
    6        4.001957      5.937173   1.000000   0.230311
    7        4.256265      6.834140   1.000000  -0.000000
    8        4.989015      6.969375   1.000000  -0.000000
    9        5.018678      7.052305   1.000000  -0.000000
   10        5.099435      7.770838   1.000000  -0.000000
   11        5.718055      7.846460   0.977982  -0.000000
   12       10.800605     11.788683  -0.000000   0.000000
   13       17.561687     18.124961   0.000000   0.000000
   14       18.123094     18.613232   0.000000   0.000000
   15       22.239361     23.131364   0.000000   0.000000
   16       24.193314     24.865149   0.000000   0.000000
   17       26.357207     26.609781   0.000000   0.000000
   18       28.526617     28.802778   0.000000   0.000000
   19       28.792464     29.132676   0.000000   0.000000
   20       31.256735     31.670214   0.000000   0.000000
 
  0.3000000E+00  0.5000000E-01  0.0000000E+00  0.3000000E-02
    1       -0.805340     -0.600161   1.000000   1.000000
    2        1.602146      3.114586   1.000000   1.000000
    3        1.767977      3.726498   1.000000   1.000000
    4        3.536649      5.378606   1.000000   1.001422
    5        3.572808      5.433672   1.000000   1.004313
    6        4.060212      6.096735   1.000000  -0.034131
    7        4.146932      6.558239   1.000000  -0.000006
    8        4.758438      6.668555   1.000000  -0.000000
    9        4.843707      6.761234   1.000000  -0.000000
   10        5.087562      7.683549   1.000000  -0.000000
   11        5.573373      7.864960   1.028550  -0.000000
   12        9.596664     10.795826  -0.000000  -0.000000
   13       18.347760     18.958148   0.000000   0.000000
   14       18.964155     19.498321   0.000000   0.000000
   15       22.463324     23.301110   0.000000   0.000000
   16       24.511091     25.132490   0.000000   0.000000
   17       25.429181     25.781613   0.000000   0.000000
   18       27.528374     27.890298   0.000000   0.000000
   19       27.713282     28.175347   0.000000   0.000000
   20       30.104381     30.529975   0.000000   0.000000
 
  0.3500000E+00  0.5000000E-01  0.0000000E+00  0.3000000E-02
    1       -0.265275     -0.023412   1.000000   1.000000
    2        1.671067      2.998261   1.000000   1.000000
    3        2.012619      4.021461   1.000000   1.000000
    4        3.539090      5.420917   1.000000   1.003391
    5        3.587887      5.450769   1.000000   1.005859
    6        3.898639      6.263513   1.000000  -0.008768
    7        4.308372      6.274872   1.000000  -0.007299
    8        4.509362      6.387079   1.000000  -0.000771
    9        4.603029      6.496596   1.000000  -0.000043
   10        5.217666      7.500357   1.000021  -0.000000
   11        5.410076      7.968076   1.002742  -0.000000
   12        8.491492      9.947421  -0.000000  -0.000000
   13       19.199070     19.846297   0.000000   0.000000
   14       19.893098     20.462519   0.000000   0.000000
   15       22.747505     23.521809   0.000000   0.000000
   16       24.545527     24.999805   0.000000   0.000000
   17       24.849946     25.420146   0.000000   0.000000
   18       26.532734     26.946163   0.000000   0.000000
   19       26.561093     27.099958   0.000000   0.000000
   20       29.019042     29.450501   0.000000   0.000000
 
  0.4000000E+00  0.5000000E-01  0.0000000E+00  0.3000000E-02
    1        0.284845      0.593321   1.000000   1.000000
    2        1.652551      2.742883   1.000000   1.000000
    3        2.278752      4.342898   1.000000   1.000000
    4        3.376987      5.444363   1.000000   1.005235
    5        3.665187      5.492189   1.000000   1.011367
    6        3.868354      5.995312   1.000000   0.066948
    7        4.281140      6.134802   1.000000  -0.034048
    8        4.388494      6.267405   1.000000  -0.008242
    9        4.483103      6.468148   1.000000  -0.000096
   10        5.232980      7.302264   1.000033  -0.000000
   11        5.403204      8.087141   1.002388  -0.000000
   12        7.520788      9.276270  -0.000000  -0.000000
   13       20.093575     20.765381   0.000000   0.000000
   14       20.895084     21.490232   0.000000   0.000000
   15       23.104321     23.807236   0.000000   0.000000
   16       23.683689     24.233801   0.000000   0.000000
   17       25.256766     25.779433   0.000000   0.000000
   18       25.385548     25.969657   0.000000   0.000000
   19       25.604174     26.054950   0.000000   0.000000
   20       28.026092     28.460928   0.000000   0.000000
 
  0.4500000E+00  0.5000000E-01  0.0000000E+00  0.3000000E-02
    1        0.798291      1.220534   1.000000   1.000000
    2        1.509519      2.341437   1.000000   1.000000
    3        2.559099      4.680240   1.000000   1.000000
    4        3.125218      5.305587   1.000000   1.000248
    5        3.771858      5.596896   1.000000   1.033066
    6        3.938897      5.876201   1.000000   0.470810
    7        4.080295      5.917740   1.000000   0.301542
    8        4.205834      6.077579   1.000000  -0.028908
    9        4.667386      6.672497   1.000000  -0.000000
   10        5.046890      7.094586   1.000000  -0.000000
   11        5.683794      8.239773   1.015879  -0.000000
   12        6.719260      8.788588  -0.000000  -0.000000
   13       21.008899     21.689765   0.000000   0.000000
   14       21.957355     22.568114   0.000000   0.000000
   15       22.815291     23.440578   0.000000   0.000000
   16       23.549839     24.176937   0.000000   0.000000
   17       24.215173     24.822847   0.000000   0.000000
   18       24.788127     25.281750   0.000000   0.000000
   19       25.763503     26.247223   0.000000   0.000000
   20       27.145620     27.587010   0.000000   0.000000
 
  0.5000000E+00  0.5000000E-01  0.0000000E+00  0.1500000E-02
    1        1.220917      1.818987   1.000000   1.000000
    2        1.220917      1.818987   1.000000   1.000000
    3        2.845191      5.016065   1.000000   1.000000
    4        2.845191      5.016065   1.000000   1.000000
    5        3.910020      5.738230   1.000000   0.943305
    6        3.910020      5.738230   1.000000   0.943305
    7        4.055649      5.935227   1.000000   0.237126
    8        4.055649      5.935227   1.000000   0.237126
    9        4.856669      6.882777   1.000000  -0.000000
   10        4.856669      6.882777   1.000000  -0.000000
   11        6.109396      8.458452  -0.035364  -0.000000
   12        6.109396      8.458452  -0.035364  -0.000000
   13       21.922282     22.590492   0.000000   0.000000
   14       21.922282     22.590492   0.000000   0.000000
   15       23.067773     23.683284   0.000000   0.000000
   16       23.067773     23.683284   0.000000   0.000000
   17       24.104916     24.658738   0.000000   0.000000
   18       24.104916     24.658738   0.000000   0.000000
   19       26.390378     26.846941   0.000000   0.000000
   20       26.390378     26.846941   0.000000   0.000000
 
  0.1000000E+00  0.1000000E+00  0.0000000E+00  0.1500000E-02
    1       -2.178753     -2.008744   1.000000   1.000000
    2        1.168703      2.985109   1.000000   1.000000
    3        1.184797      2.998224   1.000000   1.000000
    4        3.452808      5.325746   1.000000   1.000414
    5        3.549378      5.429390   1.000000   1.003983
    6        3.785583      5.700489   1.000000   1.000473
    7        4.679460      7.391108   1.000000  -0.000000
    8        4.789083      7.539005   1.000000  -0.000000
    9        5.530886      7.590085   1.018895  -0.000000
   10        5.656060      7.721403   1.030703  -0.000000
   11        6.025395      8.197022   0.015115  -0.000000
   12       14.532192     15.086614   0.000000   0.000000
   13       15.134911     15.655911   0.000000   0.000000
   14       16.593589     16.957656   0.000000   0.000000
   15       22.110709     23.056044   0.000000   0.000000
   16       23.250988     24.030761   0.000000   0.000000
   17       28.018456     28.633214   0.000000   0.000000
   18       28.546924     29.066194   0.000000   0.000000
   19       30.263708     30.146452   0.000000   0.000000
   20       30.667460     30.557550   0.000000   0.000000
 
  0.1500000E+00  0.1000000E+00  0.0000000E+00  0.3000000E-02
    1       -1.928491     -1.755545   1.000000   1.000000
    2        1.265666      3.067171   1.000000   1.000000
    3        1.297374      3.116991   1.000000   1.000000
    4        3.406341      5.268085   1.000000   1.000090
    5        3.536568      5.407947   1.000000   1.002628
    6        3.901978      5.827282   1.000000   0.673509
    7        4.606681      7.289852   1.000000  -0.000000
    8        4.818973      7.312647   1.000000  -0.000000
    9        5.299348      7.485423   1.000211  -0.000000
   10        5.466654      7.574876   1.007658  -0.000000
   11        6.014557      8.183653   0.031281  -0.000000
   12       13.508065     14.194420   0.000000   0.000000
   13       15.348887     15.936994   0.000000   0.000000
   14       17.033164     17.438469   0.000000   0.000000
   15       22.273910     23.182694   0.000000   0.000000
   16       23.979035     24.676039   0.000000   0.000000
   17       27.501898     27.694285   0.000000   0.000000
   18       28.865705     29.765764   0.000000   0.000000
   19       29.795033     29.875966   0.000000   0.000000
   20       30.431400     30.418823   0.000000   0.000000
 
  0.2000000E+00  0.1000000E+00  0.0000000E+00  0.3000000E-02
    1       -1.587606     -1.408542   1.000000   1.000000
    2        1.390976      3.146123   1.000000   1.000000
    3        1.443766      3.286366   1.000000   1.000000
    4        3.375719      5.225756   1.000000   1.000026
    5        3.523308      5.384796   1.000000   1.001626
    6        4.033892      5.970999   1.000000   0.125266
    7        4.488181      7.010675   1.000000  -0.000000
    8        4.879793      7.125052   1.000000  -0.000000
    9        5.043649      7.212996   1.000000  -0.000000
   10        5.238534      7.646662   1.000039  -0.000000
   11        5.960359      8.120139   0.155429  -0.000000
   12       12.241747     13.077101   0.000000   0.000000
   13       15.864158     16.507503   0.000000   0.000000
   14       17.619790     18.070820   0.000000   0.000000
   15       22.427883     23.297765   0.000000   0.000000
   16       24.583163     25.224750   0.000000   0.000000
   17       26.416951     26.706017   0.000000   0.000000
   18       29.109221     29.194349   0.000000   0.000000
   19       29.855247     30.018372   0.000000   0.000000
   20       30.142341     31.092715   0.000000   0.000000
 
  0.2500000E+00  0.1000000E+00  0.0000000E+00  0.3000000E-02
    1       -1.167100     -0.975917   1.000000   1.000000
    2        1.526913      3.196988   1.000000   1.000000
    3        1.619567      3.497230   1.000000   1.000000
    4        3.363398      5.201723   1.000000   1.000012
    5        3.508937      5.363908   1.000000   1.001026
    6        4.180543      6.131131   1.000000  -0.034481