       N       E                     dE             d eps       ncg     rms          rms(c)
DAV:   1     0.641398372542E+02    0.64140E+02   -0.60731E+03 25448   0.816E+02
DAV:   2    -0.133530223805E+02   -0.77493E+02   -0.68813E+02 23260   0.167E+02
DAV:   3    -0.160661175315E+02   -0.27131E+01   -0.26651E+01 26032   0.403E+01
DAV:   4    -0.160862733645E+02   -0.20156E-01   -0.20151E-01 24764   0.325E+00
DAV:   5    -0.160865205280E+02   -0.24716E-03   -0.24716E-03 25608   0.344E-01    0.196E+01
DAV:   6    -0.165671916617E+02   -0.48067E+00   -0.51678E+00 25352   0.439E+01    0.614E+00
DAV:   7    -0.165074224852E+02    0.59769E-01   -0.37971E-01 27120   0.947E+00    0.438E+00
DAV:   8    -0.164905064483E+02    0.16916E-01   -0.10145E-02 29644   0.107E+00    0.161E+00
DAV:   9    -0.164792347534E+02    0.11272E-01   -0.30772E-03 33988   0.968E-01    0.426E-01
DAV:  10    -0.164788210227E+02    0.41373E-03   -0.16518E-03 27228   0.649E-01    0.625E-02
DAV:  11    -0.164788547533E+02   -0.33731E-04   -0.77463E-05 27632   0.723E-02    0.487E-02
DAV:  12    -0.164788424142E+02    0.12339E-04   -0.22390E-06 23324   0.130E-02    0.203E-02
DAV:  13    -0.164788430987E+02   -0.68447E-06   -0.13082E-06 18896   0.103E-02
   1 F= -.16478843E+02 E0= -.16478603E+02  d E =-.164788E+02  mag=     4.4745
       N       E                     dE             d eps       ncg     rms          rms(c)
DAV:   1    -0.172204652543E+02   -0.74162E+00   -0.69482E+00 25156   0.435E+01    0.820E+00
DAV:   2    -0.165304854133E+02    0.68998E+00   -0.12896E+00 25036   0.253E+01    0.667E+00
DAV:   3    -0.164960607289E+02    0.34425E-01   -0.93672E-02 27068   0.555E+00    0.234E+00
DAV:   4    -0.164885829551E+02    0.74778E-02   -0.49668E-03 28404   0.775E-01    0.543E-01
DAV:   5    -0.164826987929E+02    0.58842E-02   -0.37796E-03 28260   0.486E-01    0.919E-02
DAV:   6    -0.164827986428E+02   -0.99850E-04   -0.33304E-04 26132   0.214E-01    0.497E-02
DAV:   7    -0.164828056437E+02   -0.70009E-05   -0.14981E-05 23808   0.424E-02    0.240E-02
DAV:   8    -0.164828021319E+02    0.35118E-05   -0.16569E-06 22028   0.178E-02    0.944E-03
DAV:   9    -0.164828011951E+02    0.93677E-06   -0.35697E-07 11880   0.893E-03
   2 F= -.16482801E+02 E0= -.16482365E+02  d E =-.395810E-02  mag=     4.2604
       N       E                     dE             d eps       ncg     rms          rms(c)
DAV:   1    -0.166578167971E+02   -0.17501E+00   -0.15026E+00 25000   0.211E+01    0.394E+00
DAV:   2    -0.165142979103E+02    0.14352E+00   -0.40129E-01 25164   0.125E+01    0.362E+00
DAV:   3    -0.164996047990E+02    0.14693E-01   -0.27421E-02 26748   0.323E+00    0.108E+00
DAV:   4    -0.164978875738E+02    0.17172E-02   -0.18878E-03 30572   0.538E-01    0.310E-01
DAV:   5    -0.164965308386E+02    0.13567E-02   -0.10715E-03 26640   0.282E-01    0.502E-02
DAV:   6    -0.164965540110E+02   -0.23172E-04   -0.35307E-05 24188   0.483E-02    0.232E-02
DAV:   7    -0.164965590526E+02   -0.50416E-05   -0.26401E-06 23768   0.166E-02    0.138E-02
DAV:   8    -0.164965620090E+02   -0.29564E-05   -0.45120E-07 13376   0.713E-03    0.328E-03
DAV:   9    -0.164965620733E+02   -0.64272E-07   -0.78843E-08 11636   0.278E-03
   3 F= -.16496562E+02 E0= -.16495979E+02  d E =-.177190E-01  mag=     4.3598
