PROCAR lm decomposed
# of k-points:  286         # of bands:   20         # of ions:    2

 k-point     1 :    0.00000000 0.00000000 0.00000000     weight = 0.00012500

band     1 # energy   -2.59060154 # occ.  1.00000000
 
ion      s     py     pz     px    dxy    dyz    dz2    dxz  x2-y2    tot
    1  0.368  0.000  0.000  0.000  0.000  0.000  0.000  0.000  0.000  0.368
    2  0.368  0.000  0.000  0.000  0.000  0.000  0.000  0.000  0.000  0.368
tot    0.735  0.000  0.000  0.000  0.000  0.000  0.000  0.000  0.000  0.735
 
band     2 # energy    0.99825722 # occ.  1.00000000
 
ion      s     py     pz     px    dxy    dyz    dz2    dxz  x2-y2    tot
    1  0.000  0.000  0.000  0.000  0.000  0.000  0.279  0.000  0.159  0.438
    2  0.000  0.000  0.000  0.000  0.000  0.000  0.279  0.000  0.159  0.438
tot    0.000  0.000  0.000  0.000  0.000  0.000  0.559  0.000  0.318  0.877
 
band     3 # energy    0.99825738 # occ.  1.00000000
 
ion      s     py     pz     px    dxy    dyz    dz2    dxz  x2-y2    tot
    1  0.000  0.000  0.000  0.000  0.000  0.000  0.159  0.000  0.279  0.438
    2  0.000  0.000  0.000  0.000  0.000  0.000  0.159  0.000  0.279  0.438
tot    0.000  0.000  0.000  0.000  0.000  0.000  0.318  0.000  0.559  0.877
 
band     4 # energy    3.56396489 # occ.  1.00000000
 
ion      s     py     pz     px    dxy    dyz    dz2    dxz  x2-y2    tot
    1  0.000  0.000  0.000  0.000  0.489  0.000  0.000  0.000  0.000  0.489
    2  0.000  0.000  0.000  0.000  0.489  0.000  0.000  0.000  0.000  0.489
tot    0.000  0.000  0.000  0.000  0.979  0.000  0.000  0.000  0.000  0.979
 
band     5 # energy    3.56396593 # occ.  1.00000000
 
ion      s     py     pz     px    dxy    dyz    dz2    dxz  x2-y2    tot
    1  0.000  0.000  0.000  0.000  0.000  0.002  0.000  0.487  0.000  0.489
    2  0.000  0.000  0.000  0.000  0.000  0.002  0.000  0.487  0.000  0.489
tot    0.000  0.000  0.000  0.000  0.000  0.005  0.000  0.974  0.000  0.979
 
band     6 # energy    3.56396595 # occ.  1.00000000
 
ion      s     py     pz     px    dxy    dyz    dz2    dxz  x2-y2    tot
    1  0.000  0.000  0.000  0.000  0.000  0.487  0.000  0.002  0.000  0.489
    2  0.000  0.000  0.000  0.000  0.000  0.487  0.000  0.002  0.000  0.489
tot    0.000  0.000  0.000  0.000  0.000  0.974  0.000  0.005  0.000  0.979
 
band     7 # energy    4.77960843 # occ.  1.00000000
 
ion      s     py     pz     px    dxy    dyz    dz2    dxz  x2-y2    tot
    1  0.000  0.000  0.000  0.000  0.000  0.000  0.482  0.000  0.003  0.485
    2  0.000  0.000  0.000  0.000  0.000  0.000  0.482  0.000  0.003  0.485
tot    0.000  0.000  0.000  0.000  0.000  0.000  0.965  0.000  0.006  0.970
 
band     8 # energy    4.77960961 # occ.  1.00000000
 
ion      s     py     pz     px    dxy    dyz    dz2    dxz  x2-y2    tot
    1  0.000  0.000  0.000  0.000  0.000  0.000  0.003  0.000  0.482  0.485
    2  0.000  0.000  0.000  0.000  0.000  0.000  0.003  0.000  0.482  0.485
tot    0.000  0.000  0.000  0.000  0.000  0.000  0.006  0.000  0.965  0.970
 
band     9 # energy    5.99944720 # occ.  0.05851192
 
ion      s     py     pz     px    dxy    dyz    dz2    dxz  x2-y2    tot
    1  0.000  0.000  0.000  0.000  0.494  0.000  0.000  0.000  0.000  0.494
    2  0.000  0.000  0.000  0.000  0.494  0.000  0.000  0.000  0.000  0.494
tot    0.000  0.000  0.000  0.000  0.988  0.000  0.000  0.000  0.000  0.988
 
band    10 # energy    5.99944904 # occ.  0.05850827
 
ion      s     py     pz     px    dxy    dyz    dz2    dxz  x2-y2    tot
    1  0.000  0.000  0.000  0.000  0.000  0.080  0.000  0.414  0.000  0.494
    2  0.000  0.000  0.000  0.000  0.000  0.080  0.000  0.414  0.000  0.494
tot    0.000  0.000  0.000  0.000  0.000  0.161  0.000  0.827  0.000  0.988
 
band    11 # energy    5.99944907 # occ.  0.05850821
 
ion      s     py     pz     px    dxy    dyz    dz2    dxz  x2-y2    tot
    1  0.000  0.000  0.000  0.000  0.000  0.414  0.000  0.080  0.000  0.494
    2  0.000  0.000  0.000  0.000  0.000  0.414  0.000  0.080  0.000  0.494
tot    0.000  0.000  0.000  0.000  0.000  0.827  0.000  0.161  0.000  0.988
 
band    12 # energy   15.83629310 # occ.  0.00000000
 
ion      s     py     pz     px    dxy    dyz    dz2    dxz  x2-y2    tot
    1  0.000  0.041  0.000  0.336  0.000  0.000  0.000  0.000  0.000  0.377
    2  0.000  0.041  0.000  0.336  0.000  0.000  0.000  0.000  0.000  0.377
tot    0.000  0.082  0.000  0.672  0.000  0.000  0.000  0.000  0.000  0.753
 
band    13 # energy   15.83629323 # occ.  0.00000000
 
ion      s     py     pz     px    dxy    dyz    dz2    dxz  x2-y2    tot
    1  0.000  0.336  0.000  0.041  0.000  0.000  0.000  0.000  0.000  0.377
    2  0.000  0.336  0.000  0.041  0.000  0.000  0.000  0.000  0.000  0.377
tot    0.000  0.672  0.000  0.082  0.000  0.000  0.000  0.000  0.000  0.753
 
band    14 # energy   15.83629332 # occ.  0.00000000
 
ion      s     py     pz     px    dxy    dyz    dz2    dxz  x2-y2    tot
    1  0.000  0.000  0.377  0.000  0.000  0.000  0.000  0.000  0.000  0.377
    2  0.000  0.000  0.377  0.000  0.000  0.000  0.000  0.000  0.000  0.377
tot    0.000  0.000  0.753  0.000  0.000  0.000  0.000  0.000  0.000  0.753
 
band    15 # energy   21.56524484 # occ.  0.00000000
 
ion      s     py     pz     px    dxy    dyz    dz2    dxz  x2-y2    tot
    1  0.000  0.000  0.000  0.000  0.000  0.000  0.477  0.000  0.000  0.477
    2  0.000  0.000  0.000  0.000  0.000  0.000  0.477  0.000  0.000  0.477
tot    0.000  0.000  0.000  0.000  0.000  0.000  0.953  0.000  0.000  0.953
 
band    16 # energy   21.56524675 # occ.  0.00000000
 
ion      s     py     pz     px    dxy    dyz    dz2    dxz  x2-y2    tot
    1  0.000  0.000  0.000  0.000  0.000  0.000  0.000  0.000  0.477  0.477
    2  0.000  0.000  0.000  0.000  0.000  0.000  0.000  0.000  0.477  0.477
tot    0.000  0.000  0.000  0.000  0.000  0.000  0.000  0.000  0.953  0.953
 
band    17 # energy   26.73201627 # occ.  0.00000000
 
ion      s     py     pz     px    dxy    dyz    dz2    dxz  x2-y2    tot
    1  0.391  0.000  0.000  0.000  0.000  0.000  0.000  0.000  0.000  0.391
    2  0.391  0.000  0.000  0.000  0.000  0.000  0.000  0.000  0.000  0.391
tot    0.782  0.000  0.000  0.000  0.000  0.000  0.000  0.000  0.000  0.782
 
band    18 # energy   30.93560601 # occ.  0.00000000
 
ion      s     py     pz     px    dxy    dyz    dz2    dxz  x2-y2    tot
    1  0.000  0.000  0.000  0.000  0.000  0.000  0.000  0.000  0.000  0.000
    2  0.000  0.000  0.000  0.000  0.000  0.000  0.000  0.000  0.000  0.000
tot    0.000  0.000  0.000  0.000  0.000  0.000  0.000  0.000  0.000  0.000
 
band    19 # energy   30.93560601 # occ.  0.00000000
 
ion      s     py     pz     px    dxy    dyz    dz2    dxz  x2-y2    tot
    1  0.000  0.000  0.000  0.000  0.000  0.000  0.000  0.000  0.000  0.000
    2  0.000  0.000  0.000  0.000  0.000  0.000  0.000  0.000  0.000  0.000
tot    0.000  0.000  0.000  0.000  0.000  0.000  0.000  0.000  0.000  0.000
 
band    20 # energy   30.93560603 # occ.  0.00000000
 
ion      s     py     pz     px    dxy    dyz    dz2    dxz  x2-y2    tot
    1  0.000  0.000  0.000  0.000  0.000  0.000  0.000  0.000  0.000  0.000
    2  0.000  0.000  0.000  0.000  0.000  0.000  0.000  0.000  0.000  0.000
tot    0.000  0.000  0.000  0.000  0.000  0.000  0.000  0.000  0.000  0.000
 

 k-point     2 :    0.05000000 0.00000000 0.00000000     weight = 0.00075000

band     1 # energy   -2.53838869 # occ.  1.00000000
 
ion      s     py     pz     px    dxy    dyz    dz2    dxz  x2-y2    tot
    1  0.366  0.000  0.000  0.002  0.000  0.000  0.000  0.000  0.000  0.368
    2  0.366  0.000  0.000  0.002  0.000  0.000  0.000  0.000  0.000  0.368
tot    0.732  0.000  0.000  0.004  0.000  0.000  0.000  0.000  0.000  0.735
 
band     2 # energy    1.02072761 # occ.  1.00000000
 
ion      s     py     pz     px    dxy    dyz    dz2    dxz  x2-y2    tot
    1  0.000  0.000  0.000  0.000  0.000  0.000  0.329  0.000  0.110  0.438
    2  0.000  0.000  0.000  0.000  0.000  0.000  0.329  0.000  0.110  0.438
tot    0.000  0.000  0.000  0.000  0.000  0.000  0.658  0.000  0.219  0.877
 
band     3 # energy    1.02183096 # occ.  1.00000000
 
ion      s     py     pz     px    dxy    dyz    dz2    dxz  x2-y2    tot
    1  0.000  0.000  0.000  0.001  0.000  0.000  0.109  0.000  0.328  0.438
    2  0.000  0.000  0.000  0.001  0.000  0.000  0.109  0.000  0.328  0.438
tot    0.000  0.000  0.000  0.003  0.000  0.000  0.218  0.000  0.655  0.876
 
band     4 # energy    3.56345156 # occ.  1.00000000
 
ion      s     py     pz     px    dxy    dyz    dz2    dxz  x2-y2    tot
    1  0.000  0.000  0.000  0.000  0.489  0.000  0.000  0.000  0.000  0.489
    2  0.000  0.000  0.000  0.000  0.489  0.000  0.000  0.000  0.000  0.489
tot    0.000  0.000  0.000  0.000  0.978  0.000  0.000  0.000  0.000  0.978
 
band     5 # energy    3.56345260 # occ.  1.00000000
 
ion      s     py     pz     px    dxy    dyz    dz2    dxz  x2-y2    tot
    1  0.000  0.000  0.000  0.000  0.000  0.000  0.000  0.489  0.000  0.489
    2  0.000  0.000  0.000  0.000  0.000  0.000  0.000  0.489  0.000  0.489
tot    0.000  0.000  0.000  0.000  0.000  0.000  0.000  0.978  0.000  0.978
 
band     6 # energy    3.57830422 # occ.  1.00000000
 
ion      s     py     pz     px    dxy    dyz    dz2    dxz  x2-y2    tot
    1  0.000  0.000  0.000  0.000  0.000  0.489  0.000  0.000  0.000  0.489
    2  0.000  0.000  0.000  0.000  0.000  0.489  0.000  0.000  0.000  0.489
tot    0.000  0.000  0.000  0.000  0.000  0.978  0.000  0.000  0.000  0.978
 
band     7 # energy    4.75622021 # occ.  1.00000000
 
ion      s     py     pz     px    dxy    dyz    dz2    dxz  x2-y2    tot
    1  0.000  0.000  0.000  0.000  0.000  0.000  0.364  0.000  0.121  0.485
    2  0.000  0.000  0.000  0.000  0.000  0.000  0.364  0.000  0.121  0.485
tot    0.000  0.000  0.000  0.000  0.000  0.000  0.727  0.000  0.242  0.969
 
band     8 # energy    4.78887124 # occ.  1.00000000
 
ion      s     py     pz     px    dxy    dyz    dz2    dxz  x2-y2    tot
    1  0.000  0.000  0.000  0.000  0.000  0.000  0.121  0.000  0.364  0.485
    2  0.000  0.000  0.000  0.000  0.000  0.000  0.121  0.000  0.364  0.485
tot    0.000  0.000  0.000  0.000  0.000  0.000  0.243  0.000  0.728  0.971
 
band     9 # energy    5.95498853 # occ.  0.17168821
 
ion      s     py     pz     px    dxy    dyz    dz2    dxz  x2-y2    tot
    1  0.000  0.001  0.000  0.000  0.492  0.000  0.000  0.000  0.000  0.493
    2  0.000  0.001  0.000  0.000  0.492  0.000  0.000  0.000  0.000  0.493
tot    0.000  0.002  0.000  0.000  0.984  0.000  0.000  0.000  0.000  0.986
 
band    10 # energy    5.95499035 # occ.  0.17168258
 
ion      s     py     pz     px    dxy    dyz    dz2    dxz  x2-y2    tot
    1  0.000  0.000  0.001  0.000  0.000  0.000  0.000  0.492  0.000  0.493
    2  0.000  0.000  0.001  0.000  0.000  0.000  0.000  0.492  0.000  0.493
tot    0.000  0.000  0.002  0.000  0.000  0.000  0.000  0.984  0.000  0.986
 
band    11 # energy    5.98408644 # occ.  0.09202152
 
ion      s     py     pz     px    dxy    dyz    dz2    dxz  x2-y2    tot
    1  0.000  0.000  0.000  0.000  0.000  0.494  0.000  0.000  0.000  0.494
    2  0.000  0.000  0.000  0.000  0.000  0.494  0.000  0.000  0.000  0.494
tot    0.000  0.000  0.000  0.000  0.000  0.987  0.000  0.000  0.000  0.987
 
band    12 # energy   15.44119070 # occ.  0.00000000
 
ion      s     py     pz     px    dxy    dyz    dz2    dxz  x2-y2    tot
    1  0.010  0.000  0.000  0.354  0.000  0.000  0.005  0.000  0.014  0.383
    2  0.010  0.000  0.000  0.354  0.000  0.000  0.005  0.000  0.014  0.383
tot    0.019  0.000  0.000  0.708  0.000  0.000  0.010  0.000  0.029  0.766
 
band    13 # energy   15.93581707 # occ.  0.00000000
 
ion      s     py     pz     px    dxy    dyz    dz2    dxz  x2-y2    tot
    1  0.000  0.374  0.000  0.000  0.004  0.000  0.000  0.000  0.000  0.378
    2  0.000  0.374  0.000  0.000  0.004  0.000  0.000  0.000  0.000  0.378
tot    0.000  0.749  0.000  0.000  0.008  0.000  0.000  0.000  0.000  0.757
 
band    14 # energy   15.93581720 # occ.  0.00000000
 
ion      s     py     pz     px    dxy    dyz    dz2    dxz  x2-y2    tot
    1  0.000  0.000  0.374  0.000  0.000  0.000  0.000  0.004  0.000  0.378
    2  0.000  0.000  0.374  0.000  0.000  0.000  0.000  0.004  0.000  0.378
tot    0.000  0.000  0.749  0.000  0.000  0.000  0.000  0.008  0.000  0.757
 
band    15 # energy   21.58054243 # occ.  0.00000000
 
ion      s     py     pz     px    dxy    dyz    dz2    dxz  x2-y2    tot
    1  0.000  0.000  0.000  0.000  0.000  0.000  0.356  0.000  0.119  0.475
    2  0.000  0.000  0.000  0.000  0.000  0.000  0.356  0.000  0.119  0.475
tot    0.000  0.000  0.000  0.000  0.000  0.000  0.713  0.000  0.238  0.951
 
band    16 # energy   21.87121130 # occ.  0.00000000
 
ion      s     py     pz     px    dxy    dyz    dz2    dxz  x2-y2    tot
    1  0.002  0.000  0.000  0.010  0.000  0.000  0.114  0.000  0.342  0.468
    2  0.002  0.000  0.000  0.010  0.000  0.000  0.114  0.000  0.342  0.468
tot    0.004  0.000  0.000  0.020  0.000  0.000  0.228  0.000  0.683  0.935
 
band    17 # energy   26.89793635 # occ.  0.00000000
 
ion      s     py     pz     px    dxy    dyz    dz2    dxz  x2-y2    tot
    1  0.379  0.000  0.000  0.011  0.000  0.000  0.000  0.000  0.001  0.391
    2  0.379  0.000  0.000  0.011  0.000  0.000  0.000  0.000  0.001  0.391
tot    0.758  0.000  0.000  0.023  0.000  0.000  0.000  0.000  0.001  0.782
 
band    18 # energy   30.55710466 # occ.  0.00000000
 
ion      s     py     pz     px    dxy    dyz    dz2    dxz  x2-y2    tot
    1  0.000  0.000  0.000  0.000  0.000  0.000  0.030  0.000  0.010  0.039
    2  0.000  0.000  0.000  0.000  0.000  0.000  0.030  0.000  0.010  0.039
tot    0.000  0.000  0.000  0.000  0.000  0.000  0.059  0.000  0.020  0.079
 
band    19 # energy   30.89329455 # occ.  0.00000000
 
ion      s     py     pz     px    dxy    dyz    dz2    dxz  x2-y2    tot
    1  0.000  0.000  0.000  0.000  0.020  0.000  0.000  0.000  0.000  0.021
    2  0.000  0.000  0.000  0.000  0.020  0.000  0.000  0.000  0.000  0.021
tot    0.000  0.001  0.000  0.000  0.041  0.000  0.000  0.000  0.000  0.041
 
band    20 # energy   30.89329461 # occ.  0.00000000
 
ion      s     py     pz     px    dxy    dyz    dz2    dxz  x2-y2    tot
    1  0.000  0.000  0.000  0.000  0.000  0.000  0.000  0.020  0.000  0.021
    2  0.000  0.000  0.000  0.000  0.000  0.000  0.000  0.020  0.000  0.021
tot    0.000  0.000  0.001  0.000  0.000  0.000  0.000  0.041  0.000  0.041
 

 k-point     3 :    0.10000000 0.00000000 0.00000000     weight = 0.00075000

band     1 # energy   -2.38283904 # occ.  1.00000000
 
ion      s     py     pz     px    dxy    dyz    dz2    dxz  x2-y2    tot
    1  0.360  0.000  0.000  0.007  0.000  0.000  0.000  0.000  0.000  0.368
    2  0.360  0.000  0.000  0.007  0.000  0.000  0.000  0.000  0.000  0.368
tot    0.721  0.000  0.000  0.015  0.000  0.000  0.000  0.000  0.000  0.736
 
band     2 # energy    1.08725510 # occ.  1.00000000
 
ion      s     py     pz     px    dxy    dyz    dz2    dxz  x2-y2    tot
    1  0.000  0.000  0.000  0.000  0.000  0.000  0.329  0.000  0.110  0.439
    2  0.000  0.000  0.000  0.000  0.000  0.000  0.329  0.000  0.110  0.439
tot    0.000  0.000  0.000  0.000  0.000  0.000  0.658  0.000  0.219  0.877
 
band     3 # energy    1.08972496 # occ.  1.00000000
 
ion      s     py     pz     px    dxy    dyz    dz2    dxz  x2-y2    tot
    1  0.000  0.000  0.000  0.006  0.000  0.000  0.108  0.000  0.324  0.438
    2  0.000  0.000  0.000  0.006  0.000  0.000  0.108  0.000  0.324  0.438
tot    0.000  0.000  0.000  0.011  0.000  0.000  0.216  0.000  0.648  0.876
 
band     4 # energy    3.56280692 # occ.  1.00000000
 
ion      s     py     pz     px    dxy    dyz    dz2    dxz  x2-y2    tot
    1  0.000  0.001  0.000  0.000  0.488  0.000  0.000  0.000  0.000  0.489
    2  0.000  0.001  0.000  0.000  0.488  0.000  0.000  0.000  0.000  0.489
tot    0.000  0.001  0.000  0.000  0.976  0.000  0.000  0.000  0.000  0.977
 
band     5 # energy    3.56280796 # occ.  1.00000000
 
ion      s     py     pz     px    dxy    dyz    dz2    dxz  x2-y2    tot
    1  0.000  0.000  0.001  0.000  0.000  0.000  0.000  0.488  0.000  0.489
    2  0.000  0.000  0.001  0.000  0.000  0.000  0.000  0.488  0.000  0.489
tot    0.000  0.000  0.001  0.000  0.000  0.000  0.000  0.976  0.000  0.977
 
band     6 # energy    3.62101712 # occ.  1.00000000
 
ion      s     py     pz     px    dxy    dyz    dz2    dxz  x2-y2    tot
    1  0.000  0.000  0.000  0.000  0.000  0.489  0.000  0.000  0.000  0.489
    2  0.000  0.000  0.000  0.000  0.000  0.489  0.000  0.000  0.000  0.489
tot    0.000  0.000  0.000  0.000  0.000  0.978  0.000  0.000  0.000  0.978
 
band     7 # energy    4.68657072 # occ.  1.00000000
 
ion      s     py     pz     px    dxy    dyz    dz2    dxz  x2-y2    tot
    1  0.000  0.000  0.000  0.000  0.000  0.000  0.362  0.000  0.121  0.483
    2  0.000  0.000  0.000  0.000  0.000  0.000  0.362  0.000  0.121  0.483
tot    0.000  0.000  0.000  0.000  0.000  0.000  0.725  0.000  0.242  0.966
 
band     8 # energy    4.81628709 # occ.  1.00000000
 
ion      s     py     pz     px    dxy    dyz    dz2    dxz  x2-y2    tot
    1  0.000  0.000  0.000  0.000  0.000  0.000  0.121  0.000  0.364  0.486
    2  0.000  0.000  0.000  0.000  0.000  0.000  0.121  0.000  0.364  0.486
tot    0.000  0.000  0.000  0.000  0.000  0.000  0.243  0.000  0.729  0.972
 
band     9 # energy    5.82734327 # occ.  0.67326702
 
ion      s     py     pz     px    dxy    dyz    dz2    dxz  x2-y2    tot
    1  0.000  0.005  0.000  0.000  0.487  0.000  0.000  0.000  0.000  0.491
    2  0.000  0.005  0.000  0.000  0.487  0.000  0.000  0.000  0.000  0.491
tot    0.000  0.009  0.000  0.000  0.973  0.000  0.000  0.000  0.000  0.982
 
band    10 # energy    5.82734503 # occ.  0.67326010
 
ion      s     py     pz     px    dxy    dyz    dz2    dxz  x2-y2    tot
    1  0.000  0.000  0.005  0.000  0.000  0.000  0.000  0.487  0.000  0.491
    2  0.000  0.000  0.005  0.000  0.000  0.000  0.000  0.487  0.000  0.491
tot    0.000  0.000  0.009  0.000  0.000  0.000  0.000  0.973  0.000  0.982
 
band    11 # energy    5.93766524 # occ.  0.22859966
 
ion      s     py     pz     px    dxy    dyz    dz2    dxz  x2-y2    tot
    1  0.000  0.000  0.000  0.000  0.000  0.493  0.000  0.000  0.000  0.493
    2  0.000  0.000  0.000  0.000  0.000  0.493  0.000  0.000  0.000  0.493
tot    0.000  0.000  0.000  0.000  0.000  0.987  0.000  0.000  0.000  0.987
 
band    12 # energy   14.48086899 # occ.  0.00000000
 
ion      s     py     pz     px    dxy    dyz    dz2    dxz  x2-y2    tot
    1  0.030  0.000  0.000  0.313  0.000  0.000  0.012  0.000  0.037  0.393
    2  0.030  0.000  0.000  0.313  0.000  0.000  0.012  0.000  0.037  0.393
tot    0.061  0.000  0.000  0.626  0.000  0.000  0.025  0.000  0.075  0.787
 
band    13 # energy   16.22747219 # occ.  0.00000000
 
ion      s     py     pz     px    dxy    dyz    dz2    dxz  x2-y2    tot
    1  0.000  0.368  0.000  0.000  0.015  0.000  0.000  0.000  0.000  0.383
    2  0.000  0.368  0.000  0.000  0.015  0.000  0.000  0.000  0.000  0.383
tot    0.000  0.735  0.000  0.000  0.030  0.000  0.000  0.000  0.000  0.766
 
band    14 # energy   16.22747239 # occ.  0.00000000
 
ion      s     py     pz     px    dxy    dyz    dz2    dxz  x2-y2    tot
    1  0.000  0.000  0.368  0.000  0.000  0.000  0.000  0.015  0.000  0.383
    2  0.000  0.000  0.368  0.000  0.000  0.000  0.000  0.015  0.000  0.383
tot    0.000  0.000  0.735  0.000  0.000  0.000  0.000  0.030  0.000  0.766
 
band    15 # energy   21.62569965 # occ.  0.00000000
 
ion      s     py     pz     px    dxy    dyz    dz2    dxz  x2-y2    tot
    1  0.000  0.000  0.000  0.000  0.000  0.000  0.354  0.000  0.118  0.472
    2  0.000  0.000  0.000  0.000  0.000  0.000  0.354  0.000  0.118  0.472
tot    0.000  0.000  0.000  0.000  0.000  0.000  0.708  0.000  0.236  0.944
 
band    16 # energy   22.52364477 # occ.  0.00000000
 
ion      s     py     pz     px    dxy    dyz    dz2    dxz  x2-y2    tot
    1  0.020  0.000  0.000  0.016  0.000  0.000  0.103  0.000  0.309  0.447
    2  0.020  0.000  0.000  0.016  0.000  0.000  0.103  0.000  0.309  0.447
tot    0.039  0.000  0.000  0.032  0.000  0.000  0.206  0.000  0.617  0.895
 
band    17 # energy   27.43718867 # occ.  0.00000000
 
ion      s     py     pz     px    dxy    dyz    dz2    dxz  x2-y2    tot
    1  0.339  0.000  0.000  0.044  0.000  0.000  0.003  0.000  0.008  0.394
    2  0.339  0.000  0.000  0.044  0.000  0.000  0.003  0.000  0.008  0.394
tot    0.678  0.000  0.000  0.088  0.000  0.000  0.006  0.000  0.017  0.788
 
band    18 # energy   29.69883896 # occ.  0.00000000
 
ion      s     py     pz     px    dxy    dyz    dz2    dxz  x2-y2    tot
    1  0.000  0.000  0.000  0.000  0.000  0.000  0.078  0.000  0.026  0.104
    2  0.000  0.000  0.000  0.000  0.000  0.000  0.078  0.000  0.026  0.104
tot    0.000  0.000  0.000  0.000  0.000  0.000  0.155  0.000  0.052  0.207
 
band    19 # energy   30.72722271 # occ.  0.00000000
 
ion      s     py     pz     px    dxy    dyz    dz2    dxz  x2-y2    tot
    1  0.000  0.005  0.000  0.000  0.082  0.000  0.000  0.000  0.000  0.087
    2  0.000  0.005  0.000  0.000  0.082  0.000  0.000  0.000  0.000  0.087
tot    0.000  0.010  0.000  0.000  0.164  0.000  0.000  0.000  0.000  0.174
 
band    20 # energy   30.72722291 # occ.  0.00000000
 
ion      s     py     pz     px    dxy    dyz    dz2    dxz  x2-y2    tot
    1  0.000  0.000  0.005  0.000  0.000  0.000  0.000  0.082  0.000  0.087
    2  0.000  0.000  0.005  0.000  0.000  0.000  0.000  0.082  0.000  0.087
tot    0.000  0.000  0.010  0.000  0.000  0.000  0.000  0.164  0.000  0.174
 

 k-point     4 :    0.15000000-0.00000000 0.00000000     weight = 0.00075000

band     1 # energy   -2.12751122 # occ.  1.00000000
 
ion      s     py     pz     px    dxy    dyz    dz2    dxz  x2-y2    tot
    1  0.351  0.000  0.000  0.016  0.000  0.000  0.000  0.000  0.000  0.368
    2  0.351  0.000  0.000  0.016  0.000  0.000  0.000  0.000  0.000  0.368
tot    0.702  0.000  0.000  0.033  0.000  0.000  0.000  0.000  0.001  0.736
 
band     2 # energy    1.19483744 # occ.  1.00000000
 
ion      s     py     pz     px    dxy    dyz    dz2    dxz  x2-y2    tot
    1  0.001  0.000  0.000  0.012  0.000  0.000  0.106  0.000  0.318  0.437
    2  0.001  0.000  0.000  0.012  0.000  0.000  0.106  0.000  0.318  0.437
tot    0.002  0.000  0.000  0.025  0.000  0.000  0.212  0.000  0.636  0.875
 
band     3 # energy    1.19666027 # occ.  1.00000000
 
ion      s     py     pz     px    dxy    dyz    dz2    dxz  x2-y2    tot
    1  0.000  0.000  0.000  0.000  0.000  0.000  0.329  0.000  0.110  0.439
    2  0.000  0.000  0.000  0.000  0.000  0.000  0.329  0.000  0.110  0.439
tot    0.000  0.000  0.000  0.000  0.000  0.000  0.659  0.000  0.220  0.878
 
band     4 # energy    3.56437224 # occ.  1.00000000
 
ion      s     py     pz     px    dxy    dyz    dz2    dxz  x2-y2    tot
    1  0.000  0.002  0.000  0.000  0.486  0.000  0.000  0.000  0.000  0.488
    2  0.000  0.002  0.000  0.000  0.486  0.000  0.000  0.000  0.000  0.488
tot    0.000  0.003  0.000  0.000  0.972  0.000  0.000  0.000  0.000  0.975
 
band     5 # energy    3.56437327 # occ.  1.00000000
 
ion      s     py     pz     px    dxy    dyz    dz2    dxz  x2-y2    tot
    1  0.000  0.000  0.002  0.000  0.000  0.000  0.000  0.486  0.000  0.488
    2  0.000  0.000  0.002  0.000  0.000  0.000  0.000  0.486  0.000  0.488
tot    0.000  0.000  0.003  0.000  0.000  0.000  0.000  0.972  0.000  0.975
 
band     6 # energy    3.69120218 # occ.  1.00000000
 
ion      s     py     pz     px    dxy    dyz    dz2    dxz  x2-y2    tot
    1  0.000  0.000  0.000  0.000  0.000  0.489  0.000  0.000  0.000  0.489
    2  0.000  0.000  0.000  0.000  0.000  0.489  0.000  0.000  0.000  0.489
tot    0.000  0.000  0.000  0.000  0.000  0.977  0.000  0.000  0.000  0.977
 
band     7 # energy    4.57213100 # occ.  1.00000000
 
ion      s     py     pz     px    dxy    dyz    dz2    dxz  x2-y2    tot
    1  0.000  0.000  0.000  0.000  0.000  0.000  0.361  0.000  0.120  0.481
    2  0.000  0.000  0.000  0.000  0.000  0.000  0.361  0.000  0.120  0.481
tot    0.000  0.000  0.000  0.000  0.000  0.000  0.721  0.000  0.240  0.962
 
band     8 # energy    4.86100055 # occ.  1.00000000
 
ion      s     py     pz     px    dxy    dyz    dz2    dxz  x2-y2    tot
    1  0.000  0.000  0.000  0.000  0.000  0.000  0.122  0.000  0.365  0.487
    2  0.000  0.000  0.000  0.000  0.000  0.000  0.122  0.000  0.365  0.487
tot    0.001  0.000  0.000  0.000  0.000  0.000  0.243  0.000  0.729  0.973
 
band     9 # energy    5.63382929 # occ.  1.03508875
 
ion      s     py     pz     px    dxy    dyz    dz2    dxz  x2-y2    tot
    1  0.000  0.009  0.000  0.000  0.480  0.000  0.000  0.000  0.000  0.489
    2  0.000  0.009  0.000  0.000  0.480  0.000  0.000  0.000  0.000  0.489
tot    0.000  0.017  0.000  0.000  0.960  0.000  0.000  0.000  0.000  0.977
 
band    10 # energy    5.63383097 # occ.  1.03508862
 
ion      s     py     pz     px    dxy    dyz    dz2    dxz  x2-y2    tot
    1  0.000  0.000  0.009  0.000  0.000  0.000  0.000  0.480  0.000  0.489
    2  0.000  0.000  0.009  0.000  0.000  0.000  0.000  0.480  0.000  0.489
tot    0.000  0.000  0.017  0.000  0.000  0.000  0.000  0.960  0.000  0.977
 
band    11 # energy    5.86169219 # occ.  0.53215730
 
ion      s     py     pz     px    dxy    dyz    dz2    dxz  x2-y2    tot
    1  0.000  0.000  0.000  0.000  0.000  0.493  0.000  0.000  0.000  0.493
    2  0.000  0.000  0.000  0.000  0.000  0.493  0.000  0.000  0.000  0.493
tot    0.000  0.000  0.000  0.000  0.000  0.985  0.000  0.000  0.000  0.985
 
band    12 # energy   13.27571601 # occ.  0.00000000
 
ion      s     py     pz     px    dxy    dyz    dz2    dxz  x2-y2    tot
    1  0.053  0.000  0.000  0.275  0.000  0.000  0.018  0.000  0.055  0.402
    2  0.053  0.000  0.000  0.275  0.000  0.000  0.018  0.000  0.055  0.402
tot    0.106  0.000  0.000  0.550  0.000  0.000  0.037  0.000  0.111  0.804
 
band    13 # energy   16.69326977 # occ.  0.00000000
 
ion      s     py     pz     px    dxy    dyz    dz2    dxz  x2-y2    tot
    1  0.000  0.358  0.000  0.000  0.032  0.000  0.000  0.000  0.000  0.390
    2  0.000  0.358  0.000  0.000  0.032  0.000  0.000  0.000  0.000  0.390
tot    0.000  0.716  0.000  0.000  0.064  0.000  0.000  0.000  0.000  0.780
 
band    14 # energy   16.69327006 # occ.  0.00000000
 
ion      s     py     pz     px    dxy    dyz    dz2    dxz  x2-y2    tot
    1  0.000  0.000  0.358  0.000  0.000  0.000  0.000  0.032  0.000  0.390
    2  0.000  0.000  0.358  0.000  0.000  0.000  0.000  0.032  0.000  0.390
tot    0.000  0.000  0.716  0.000  0.000  0.000  0.000  0.064  0.000  0.780
 
band    15 # energy   21.70272770 # occ.  0.00000000
 
ion      s     py     pz     px    dxy    dyz    dz2    dxz  x2-y2    tot
    1  0.000  0.000  0.000  0.000  0.000  0.000  0.350  0.000  0.117  0.466
    2  0.000  0.000  0.000  0.000  0.000  0.000  0.350  0.000  0.117  0.466
tot    0.000  0.000  0.000  0.000  0.000  0.000  0.700  0.000  0.233  0.933
 
band    16 # energy   23.14457057 # occ.  0.00000000
 
ion      s     py     pz     px    dxy    dyz    dz2    dxz  x2-y2    tot
    1  0.060  0.000  0.000  0.008  0.000  0.000  0.088  0.000  0.265  0.421
    2  0.060  0.000  0.000  0.008  0.000  0.000  0.088  0.000  0.265  0.421
tot    0.121  0.000  0.000  0.015  0.000  0.000  0.177  0.000  0.530  0.843
 
band    17 # energy   28.41714729 # occ.  0.00000000
 
ion      s     py     pz     px    dxy    dyz    dz2    dxz  x2-y2    tot
    1  0.273  0.000  0.000  0.086  0.000  0.000  0.011  0.000  0.032  0.401
    2  0.273  0.000  0.000  0.086  0.000  0.000  0.011  0.000  0.032  0.401
tot    0.545  0.000  0.000  0.171  0.000  0.000  0.021  0.000  0.064  0.801
 
band    18 # energy   28.70117764 # occ.  0.00000000
 
ion      s     py     pz     px    dxy    dyz    dz2    dxz  x2-y2    tot
    1  0.000  0.000  0.000  0.000  0.000  0.000  0.117  0.000  0.039  0.156
    2  0.000  0.000  0.000  0.000  0.000  0.000  0.117  0.000  0.039  0.156
tot    0.000  0.000  0.000  0.000  0.000  0.000  0.235  0.000  0.078  0.313
 
band    19 # energy   30.34043162 # occ.  0.00000000
 
ion      s     py     pz     px    dxy    dyz    dz2    dxz  x2-y2    tot
    1  0.000  0.024  0.000  0.000  0.174  0.000  0.000  0.000  0.000  0.197
    2  0.000  0.024  0.000  0.000  0.174  0.000  0.000  0.000  0.000  0.197
tot    0.000  0.048  0.000  0.000  0.347  0.000  0.000  0.000  0.000  0.395
 
band    20 # energy   30.34043205 # occ.  0.00000000
 
ion      s     py     pz     px    dxy    dyz    dz2    dxz  x2-y2    tot
    1  0.000  0.000  0.024  0.000  0.000  0.000  0.000  0.174  0.000  0.197
    2  0.000  0.000  0.024  0.000  0.000  0.000  0.000  0.174  0.000  0.197
tot    0.000  0.000  0.048  0.000  0.000  0.000  0.000  0.347  0.000  0.395
 

 k-point     5 :    0.20000000 0.00000000 0.00000000     weight = 0.00075000

band     1 # energy   -1.77888205 # occ.  1.00000000
 
ion      s     py     pz     px    dxy    dyz    dz2    dxz  x2-y2    tot
    1  0.338  0.000  0.000  0.029  0.000  0.000  0.001  0.000  0.002  0.368
    2  0.338  0.000  0.000  0.029  0.000  0.000  0.001  0.000  0.002  0.368
tot    0.675  0.000  0.000  0.057  0.000  0.000  0.001  0.000  0.003  0.737
 
band     2 # energy    1.32480078 # occ.  1.00000000
 
ion      s     py     pz     px    dxy    dyz    dz2    dxz  x2-y2    tot
    1  0.003  0.000  0.000  0.022  0.000  0.000  0.103  0.000  0.309  0.436
    2  0.003  0.000  0.000  0.022  0.000  0.000  0.103  0.000  0.309  0.436
tot    0.006  0.000  0.000  0.043  0.000  0.000  0.206  0.000  0.618  0.872
 
band     3 # energy    1.34670692 # occ.  1.00000000
 