<?xml version="1.0" encoding="ISO-8859-1"?>
<modeling>
 <generator>
  <i name="program" type="string">vasp </i>
  <i name="version" type="string">6.2.0  </i>
  <i name="subversion" type="string">18Jan21 (build Aug 12 2022 13:00:08) complex                          parallel </i>
  <i name="platform" type="string">LinuxIFC </i>
  <i name="date" type="string">2024 11 04 </i>
  <i name="time" type="string">04:15:59 </i>
 </generator>
 <incar>
  <i type="int" name="ISTART">     0</i>
  <i type="string" name="PREC">Accurate      (Accurate strictly avoids</i>
  <i type="logical" name="ADDGRID"> T  </i>
  <i type="int" name="ISPIN">     2</i>
  <i type="int" name="NELM">    90</i>
  <i type="int" name="NELMIN">     6</i>
  <i type="int" name="IBRION">     2</i>
  <i name="EDIFF">      0.00000100</i>
  <i name="EDIFFG">     -0.00200000</i>
  <i type="int" name="NSW">   100</i>
  <i type="int" name="ISIF">     3</i>
  <i type="int" name="ISYM">     2</i>
  <i name="ENCUT">    350.00000000</i>
  <v name="MAGMOM">      5.00000000      5.00000000</v>
  <i type="logical" name="LREAL"> F  </i>
  <i type="int" name="ISMEAR">     1</i>
  <i name="SIGMA">      0.20000000</i>
  <i name="KSPACING">      0.11000000</i>
  <i type="int" name="LMAXMIX">     4</i>
  <i type="int" name="LORBIT">    11</i>
  <i type="logical" name="LASPH"> T  </i>
  <i type="logical" name="GGA_COMPAT"> F  </i>
  <i type="int" name="VOSKOWN">     1</i>
 </incar>
 <primitive_cell>
  <structure name="primitive_cell" >
   <crystal>
    <varray name="basis" >
     <v>       1.43151775       1.43151775      -1.43151775 </v>
     <v>      -1.43151775       1.43151775       1.43151775 </v>
     <v>       1.43151775      -1.43151775       1.43151775 </v>
    </varray>
    <i name="volume">     11.73411129 </i>
    <varray name="rec_basis" >
     <v>       0.34927964       0.34927964       0.00000000 </v>
     <v>       0.00000000       0.34927964       0.34927964 </v>
     <v>       0.34927964      -0.00000000       0.34927964 </v>
    </varray>
   </crystal>
   <varray name="positions" >
    <v>       0.00000000       0.00000000       0.00000000 </v>
   </varray>
  </structure>
  <varray name="primitive_index" >
   <v type="int" >        1 </v>
  </varray>
 </primitive_cell>
 <kpoints>
  <generation param="Gamma">
   <v type="int" name="divisions">      20       20       20 </v>
   <v name="usershift">      0.00000000       0.00000000       0.00000000 </v>
   <v name="genvec1">      0.05000000       0.00000000       0.00000000 </v>
   <v name="genvec2">      0.00000000       0.05000000       0.00000000 </v>
   <v name="genvec3">      0.00000000       0.00000000       0.05000000 </v>
   <v name="shift">      0.00000000       0.00000000       0.00000000 </v>
  </generation>
  <varray name="kpointlist" >
   <v>       0.00000000       0.00000000       0.00000000 </v>
   <v>       0.05000000       0.00000000       0.00000000 </v>
   <v>       0.10000000       0.00000000       0.00000000 </v>
   <v>       0.15000000      -0.00000000       0.00000000 </v>
   <v>       0.20000000       0.00000000       0.00000000 </v>
   <v>       0.25000000       0.00000000       0.00000000 </v>
   <v>       0.30000000      -0.00000000       0.00000000 </v>
   <v>       0.35000000       0.00000000       0.00000000 </v>
   <v>       0.40000000       0.00000000       0.00000000 </v>
   <v>       0.45000000       0.00000000       0.00000000 </v>
   <v>       0.50000000       0.00000000       0.00000000 </v>
   <v>       0.05000000       0.05000000       0.00000000 </v>
   <v>       0.10000000       0.05000000       0.00000000 </v>
   <v>       0.15000000       0.05000000       0.00000000 </v>
   <v>       0.20000000       0.05000000       0.00000000 </v>
   <v>       0.25000000       0.05000000       0.00000000 </v>
   <v>       0.30000000       0.05000000       0.00000000 </v>
   <v>       0.35000000       0.05000000       0.00000000 </v>
   <v>       0.40000000       0.05000000       0.00000000 </v>
   <v>       0.45000000       0.05000000       0.00000000 </v>
   <v>       0.50000000       0.05000000       0.00000000 </v>
   <v>       0.10000000       0.10000000       0.00000000 </v>
   <v>       0.15000000       0.10000000       0.00000000 </v>
   <v>       0.20000000       0.10000000       0.00000000 </v>
   <v>       0.25000000       0.10000000       0.00000000 </v>
   <v>       0.30000000       0.10000000       0.00000000 </v>
   <v>       0.35000000       0.10000000       0.00000000 </v>
   <v>       0.40000000       0.10000000       0.00000000 </v>
   <v>       0.45000000       0.10000000       0.00000000 </v>
   <v>       0.50000000       0.10000000       0.00000000 </v>
   <v>       0.15000000       0.15000000       0.00000000 </v>
   <v>       0.20000000       0.15000000       0.00000000 </v>
   <v>       0.25000000       0.15000000       0.00000000 </v>
   <v>       0.30000000       0.15000000       0.00000000 </v>
   <v>       0.35000000       0.15000000       0.00000000 </v>
   <v>       0.40000000       0.15000000       0.00000000 </v>
   <v>       0.45000000       0.15000000       0.00000000 </v>
   <v>       0.50000000       0.15000000       0.00000000 </v>
   <v>       0.20000000       0.20000000       0.00000000 </v>
   <v>       0.25000000       0.20000000       0.00000000 </v>
   <v>       0.30000000       0.20000000       0.00000000 </v>
   <v>       0.35000000       0.20000000       0.00000000 </v>
   <v>       0.40000000       0.20000000       0.00000000 </v>
   <v>       0.45000000       0.20000000       0.00000000 </v>
   <v>       0.50000000       0.20000000       0.00000000 </v>
   <v>       0.25000000       0.25000000       0.00000000 </v>
   <v>       0.30000000       0.25000000       0.00000000 </v>
   <v>       0.35000000       0.25000000       0.00000000 </v>
   <v>       0.40000000       0.25000000       0.00000000 </v>
   <v>       0.45000000       0.25000000       0.00000000 </v>
   <v>       0.50000000       0.25000000       0.00000000 </v>
   <v>       0.30000000       0.30000000       0.00000000 </v>
   <v>       0.35000000       0.30000000       0.00000000 </v>
   <v>       0.40000000       0.30000000       0.00000000 </v>
   <v>       0.45000000       0.30000000       0.00000000 </v>
   <v>       0.50000000       0.30000000       0.00000000 </v>
   <v>       0.35000000       0.35000000       0.00000000 </v>
   <v>       0.40000000       0.35000000       0.00000000 </v>
   <v>       0.45000000       0.35000000       0.00000000 </v>
   <v>       0.50000000       0.35000000       0.00000000 </v>
   <v>       0.40000000       0.40000000       0.00000000 </v>
   <v>       0.45000000       0.40000000       0.00000000 </v>
   <v>       0.50000000       0.40000000       0.00000000 </v>
   <v>       0.45000000       0.45000000       0.00000000 </v>
   <v>       0.50000000       0.45000000       0.00000000 </v>
   <v>       0.50000000       0.50000000       0.00000000 </v>
   <v>       0.05000000       0.05000000       0.05000000 </v>
   <v>       0.10000000       0.05000000       0.05000000 </v>
   <v>       0.15000000       0.05000000       0.05000000 </v>
   <v>       0.20000000       0.05000000       0.05000000 </v>
   <v>       0.25000000       0.05000000       0.05000000 </v>
   <v>       0.30000000       0.05000000       0.05000000 </v>
   <v>       0.35000000       0.05000000       0.05000000 </v>
   <v>       0.40000000       0.05000000       0.05000000 </v>
   <v>       0.45000000       0.05000000       0.05000000 </v>
   <v>       0.50000000       0.05000000       0.05000000 </v>
   <v>       0.10000000       0.10000000       0.05000000 </v>
   <v>       0.15000000       0.10000000       0.05000000 </v>
   <v>       0.20000000       0.10000000       0.05000000 </v>
   <v>       0.25000000       0.10000000       0.05000000 </v>
   <v>       0.30000000       0.10000000       0.05000000 </v>
   <v>       0.35000000       0.10000000       0.05000000 </v>
   <v>       0.40000000       0.10000000       0.05000000 </v>
   <v>       0.45000000       0.10000000       0.05000000 </v>
   <v>       0.50000000       0.10000000       0.05000000 </v>
   <v>       0.15000000       0.15000000       0.05000000 </v>
   <v>       0.20000000       0.15000000       0.05000000 </v>
   <v>       0.25000000       0.15000000       0.05000000 </v>
   <v>       0.30000000       0.15000000       0.05000000 </v>
   <v>       0.35000000       0.15000000       0.05000000 </v>
   <v>       0.40000000       0.15000000       0.05000000 </v>
   <v>       0.45000000       0.15000000       0.05000000 </v>
   <v>       0.50000000       0.15000000       0.05000000 </v>
   <v>       0.20000000       0.20000000       0.05000000 </v>
   <v>       0.25000000       0.20000000       0.05000000 </v>
   <v>       0.30000000       0.20000000       0.05000000 </v>
   <v>       0.35000000       0.20000000       0.05000000 </v>
   <v>       0.40000000       0.20000000       0.05000000 </v>
   <v>       0.45000000       0.20000000       0.05000000 </v>
   <v>       0.50000000       0.20000000       0.05000000 </v>
   <v>       0.25000000       0.25000000       0.05000000 </v>
   <v>       0.30000000       0.25000000       0.05000000 </v>
   <v>       0.35000000       0.25000000       0.05000000 </v>
   <v>       0.40000000       0.25000000       0.05000000 </v>
   <v>       0.45000000       0.25000000       0.05000000 </v>
   <v>       0.50000000       0.25000000       0.05000000 </v>
   <v>       0.30000000       0.30000000       0.05000000 </v>
   <v>       0.35000000       0.30000000       0.05000000 </v>
   <v>       0.40000000       0.30000000       0.05000000 </v>
   <v>       0.45000000       0.30000000       0.05000000 </v>
   <v>       0.50000000       0.30000000       0.05000000 </v>
   <v>       0.35000000       0.35000000       0.05000000 </v>
   <v>       0.40000000       0.35000000       0.05000000 </v>
   <v>       0.45000000       0.35000000       0.05000000 </v>
   <v>       0.50000000       0.35000000       0.05000000 </v>
   <v>       0.40000000       0.40000000       0.05000000 </v>
   <v>       0.45000000       0.40000000       0.05000000 </v>
   <v>       0.50000000       0.40000000       0.05000000 </v>
   <v>       0.45000000       0.45000000       0.05000000 </v>
   <v>       0.50000000       0.45000000       0.05000000 </v>
   <v>       0.50000000       0.50000000       0.05000000 </v>
   <v>       0.10000000       0.10000000       0.10000000 </v>
   <v>       0.15000000       0.10000000       0.10000000 </v>
   <v>       0.20000000       0.10000000       0.10000000 </v>
   <v>       0.25000000       0.10000000       0.10000000 </v>
   <v>       0.30000000       0.10000000       0.10000000 </v>
   <v>       0.35000000       0.10000000       0.10000000 </v>
   <v>       0.40000000       0.10000000       0.10000000 </v>
   <v>       0.45000000       0.10000000       0.10000000 </v>
   <v>       0.50000000       0.10000000       0.10000000 </v>
   <v>       0.15000000       0.15000000       0.10000000 </v>
   <v>       0.20000000       0.15000000       0.10000000 </v>
   <v>       0.25000000       0.15000000       0.10000000 </v>
   <v>       0.30000000       0.15000000       0.10000000 </v>
   <v>       0.35000000       0.15000000       0.10000000 </v>
   <v>       0.40000000       0.15000000       0.10000000 </v>
   <v>       0.45000000       0.15000000       0.10000000 </v>
   <v>       0.50000000       0.15000000       0.10000000 </v>
   <v>       0.20000000       0.20000000       0.10000000 </v>
   <v>       0.25000000       0.20000000       0.10000000 </v>
   <v>       0.30000000       0.20000000       0.10000000 </v>
   <v>       0.35000000       0.20000000       0.10000000 </v>
   <v>       0.40000000       0.20000000       0.10000000 </v>
   <v>       0.45000000       0.20000000       0.10000000 </v>
   <v>       0.50000000       0.20000000       0.10000000 </v>
   <v>       0.25000000       0.25000000       0.10000000 </v>
   <v>       0.30000000       0.25000000       0.10000000 </v>
   <v>       0.35000000       0.25000000       0.10000000 </v>
   <v>       0.40000000       0.25000000       0.10000000 </v>
   <v>       0.45000000       0.25000000       0.10000000 </v>
   <v>       0.50000000       0.25000000       0.10000000 </v>
   <v>       0.30000000       0.30000000       0.10000000 </v>
   <v>       0.35000000       0.30000000       0.10000000 </v>
   <v>       0.40000000       0.30000000       0.10000000 </v>
   <v>       0.45000000       0.30000000       0.10000000 </v>
   <v>       0.50000000       0.30000000       0.10000000 </v>
   <v>       0.35000000       0.35000000       0.10000000 </v>
   <v>       0.40000000       0.35000000       0.10000000 </v>
   <v>       0.45000000       0.35000000       0.10000000 </v>
   <v>       0.50000000       0.35000000       0.10000000 </v>
   <v>       0.40000000       0.40000000       0.10000000 </v>
   <v>       0.45000000       0.40000000       0.10000000 </v>
   <v>       0.50000000       0.40000000       0.10000000 </v>
   <v>       0.45000000       0.45000000       0.10000000 </v>
   <v>       0.50000000       0.45000000       0.10000000 </v>
   <v>       0.50000000       0.50000000       0.10000000 </v>
   <v>       0.15000000       0.15000000       0.15000000 </v>
   <v>       0.20000000       0.15000000       0.15000000 </v>
   <v>       0.25000000       0.15000000       0.15000000 </v>
   <v>       0.30000000       0.15000000       0.15000000 </v>
   <v>       0.35000000       0.15000000       0.15000000 </v>
   <v>       0.40000000       0.15000000       0.15000000 </v>
   <v>       0.45000000       0.15000000       0.15000000 </v>
   <v>       0.50000000       0.15000000       0.15000000 </v>
   <v>       0.20000000       0.20000000       0.15000000 </v>
   <v>       0.25000000       0.20000000       0.15000000 </v>
   <v>       0.30000000       0.20000000       0.15000000 </v>
   <v>       0.35000000       0.20000000       0.15000000 </v>
   <v>       0.40000000       0.20000000       0.15000000 </v>
   <v>       0.45000000       0.20000000       0.15000000 </v>
   <v>       0.50000000       0.20000000       0.15000000 </v>
   <v>       0.25000000       0.25000000       0.15000000 </v>
   <v>       0.30000000       0.25000000       0.15000000 </v>
   <v>       0.35000000       0.25000000       0.15000000 </v>
   <v>       0.40000000       0.25000000       0.15000000 </v>
   <v>       0.45000000       0.25000000       0.15000000 </v>
   <v>       0.50000000       0.25000000       0.15000000 </v>
   <v>       0.30000000       0.30000000       0.15000000 </v>
   <v>       0.35000000       0.30000000       0.15000000 </v>
   <v>       0.40000000       0.30000000       0.15000000 </v>
   <v>       0.45000000       0.30000000       0.15000000 </v>
   <v>       0.50000000       0.30000000       0.15000000 </v>
   <v>       0.35000000       0.35000000       0.15000000 </v>
   <v>       0.40000000       0.35000000       0.15000000 </v>
   <v>       0.45000000       0.35000000       0.15000000 </v>
   <v>       0.50000000       0.35000000       0.15000000 </v>
   <v>       0.40000000       0.40000000       0.15000000 </v>
   <v>       0.45000000       0.40000000       0.15000000 </v>
   <v>       0.50000000       0.40000000       0.15000000 </v>
   <v>       0.45000000       0.45000000       0.15000000 </v>
   <v>       0.50000000       0.45000000       0.15000000 </v>
   <v>       0.50000000       0.50000000       0.15000000 </v>
   <v>       0.20000000       0.20000000       0.20000000 </v>
   <v>       0.25000000       0.20000000       0.20000000 </v>
   <v>       0.30000000       0.20000000       0.20000000 </v>
   <v>       0.35000000       0.20000000       0.20000000 </v>
   <v>       0.40000000       0.20000000       0.20000000 </v>
   <v>       0.45000000       0.20000000       0.20000000 </v>
   <v>       0.50000000       0.20000000       0.20000000 </v>
   <v>       0.25000000       0.25000000       0.20000000 </v>
   <v>       0.30000000       0.25000000       0.20000000 </v>
   <v>       0.35000000       0.25000000       0.20000000 </v>
   <v>       0.40000000       0.25000000       0.20000000 </v>
   <v>       0.45000000       0.25000000       0.20000000 </v>
   <v>       0.50000000       0.25000000       0.20000000 </v>
   <v>       0.30000000       0.30000000       0.20000000 </v>
   <v>       0.35000000       0.30000000       0.20000000 </v>
   <v>       0.40000000       0.30000000       0.20000000 </v>
   <v>       0.45000000       0.30000000       0.20000000 </v>
   <v>       0.50000000       0.30000000       0.20000000 </v>
   <v>       0.35000000       0.35000000       0.20000000 </v>
   <v>       0.40000000       0.35000000       0.20000000 </v>
   <v>       0.45000000       0.35000000       0.20000000 </v>
   <v>       0.50000000       0.35000000       0.20000000 </v>
   <v>       0.40000000       0.40000000       0.20000000 </v>
   <v>       0.45000000       0.40000000       0.20000000 </v>
   <v>       0.50000000       0.40000000       0.20000000 </v>
   <v>       0.45000000       0.45000000       0.20000000 </v>
   <v>       0.50000000       0.45000000       0.20000000 </v>
   <v>       0.50000000       0.50000000       0.20000000 </v>
   <v>       0.25000000       0.25000000       0.25000000 </v>
   <v>       0.30000000       0.25000000       0.25000000 </v>
   <v>       0.35000000       0.25000000       0.25000000 </v>
   <v>       0.40000000       0.25000000       0.25000000 </v>
   <v>       0.45000000       0.25000000       0.25000000 </v>
   <v>       0.50000000       0.25000000       0.25000000 </v>
   <v>       0.30000000       0.30000000       0.25000000 </v>
   <v>       0.35000000       0.30000000       0.25000000 </v>
   <v>       0.40000000       0.30000000       0.25000000 </v>
   <v>       0.45000000       0.30000000       0.25000000 </v>
   <v>       0.50000000       0.30000000       0.25000000 </v>
   <v>       0.35000000       0.35000000       0.25000000 </v>
   <v>       0.40000000       0.35000000       0.25000000 </v>
   <v>       0.45000000       0.35000000       0.25000000 </v>
   <v>       0.50000000       0.35000000       0.25000000 </v>
   <v>       0.40000000       0.40000000       0.25000000 </v>
   <v>       0.45000000       0.40000000       0.25000000 </v>
   <v>       0.50000000       0.40000000       0.25000000 </v>
   <v>       0.45000000       0.45000000       0.25000000 </v>
   <v>       0.50000000       0.45000000       0.25000000 </v>
   <v>       0.50000000       0.50000000       0.25000000 </v>
   <v>       0.30000000       0.30000000       0.30000000 </v>
   <v>       0.35000000       0.30000000       0.30000000 </v>
   <v>       0.40000000       0.30000000       0.30000000 </v>
   <v>       0.45000000       0.30000000       0.30000000 </v>
   <v>       0.50000000       0.30000000       0.30000000 </v>
   <v>       0.35000000       0.35000000       0.30000000 </v>
   <v>       0.40000000       0.35000000       0.30000000 </v>
   <v>       0.45000000       0.35000000       0.30000000 </v>
   <v>       0.50000000       0.35000000       0.30000000 </v>
   <v>       0.40000000       0.40000000       0.30000000 </v>
   <v>       0.45000000       0.40000000       0.30000000 </v>
   <v>       0.50000000       0.40000000       0.30000000 </v>
   <v>       0.45000000       0.45000000       0.30000000 </v>
   <v>       0.50000000       0.45000000       0.30000000 </v>
   <v>       0.50000000       0.50000000       0.30000000 </v>
   <v>       0.35000000       0.35000000       0.35000000 </v>
   <v>       0.40000000       0.35000000       0.35000000 </v>
   <v>       0.45000000       0.35000000       0.35000000 </v>
   <v>       0.50000000       0.35000000       0.35000000 </v>
   <v>       0.40000000       0.40000000       0.35000000 </v>
   <v>       0.45000000       0.40000000       0.35000000 </v>
   <v>       0.50000000       0.40000000       0.35000000 </v>
   <v>       0.45000000       0.45000000       0.35000000 </v>
   <v>       0.50000000       0.45000000       0.35000000 </v>
   <v>       0.50000000       0.50000000       0.35000000 </v>
   <v>       0.40000000       0.40000000       0.40000000 </v>
   <v>       0.45000000       0.40000000       0.40000000 </v>
   <v>       0.50000000       0.40000000       0.40000000 </v>
   <v>       0.45000000       0.45000000       0.40000000 </v>
   <v>       0.50000000       0.45000000       0.40000000 </v>
   <v>       0.50000000       0.50000000       0.40000000 </v>
   <v>       0.45000000       0.45000000       0.45000000 </v>
   <v>       0.50000000       0.45000000       0.45000000 </v>
   <v>       0.50000000       0.50000000       0.45000000 </v>
   <v>       0.50000000       0.50000000       0.50000000 </v>
  </varray>
  <varray name="weights" >
   <v>       0.00012500 </v>
   <v>       0.00075000 </v>
   <v>       0.00075000 </v>
   <v>       0.00075000 </v>
   <v>       0.00075000 </v>
   <v>       0.00075000 </v>
   <v>       0.00075000 </v>
   <v>       0.00075000 </v>
   <v>       0.00075000 </v>
   <v>       0.00075000 </v>
   <v>       0.00037500 </v>
   <v>       0.00150000 </v>
   <v>       0.00300000 </v>
   <v>       0.00300000 </v>
   <v>       0.00300000 </v>
   <v>       0.00300000 </v>
   <v>       0.00300000 </v>
   <v>       0.00300000 </v>
   <v>       0.00300000 </v>
   <v>       0.00300000 </v>
   <v>       0.00150000 </v>
   <v>       0.00150000 </v>
   <v>       0.00300000 </v>
   <v>       0.00300000 </v>
   <v>       0.00300000 </v>
   <v>       0.00300000 </v>
   <v>       0.00300000 </v>
   <v>       0.00300000 </v>
   <v>       0.00300000 </v>
   <v>       0.00150000 </v>
   <v>       0.00150000 </v>
   <v>       0.00300000 </v>
   <v>       0.00300000 </v>
   <v>       0.00300000 </v>
   <v>       0.00300000 </v>
   <v>       0.00300000 </v>
   <v>       0.00300000 </v>
   <v>       0.00150000 </v>
   <v>       0.00150000 </v>
   <v>       0.00300000 </v>
   <v>       0.00300000 </v>
   <v>       0.00300000 </v>
   <v>       0.00300000 </v>
   <v>       0.00300000 </v>
   <v>       0.00150000 </v>
   <v>       0.00150000 </v>
   <v>       0.00300000 </v>
   <v>       0.00300000 </v>
   <v>       0.00300000 </v>
   <v>       0.00300000 </v>
   <v>       0.00150000 </v>
   <v>       0.00150000 </v>
   <v>       0.00300000 </v>
   <v>       0.00300000 </v>
   <v>       0.00300000 </v>
   <v>       0.00150000 </v>
   <v>       0.00150000 </v>
   <v>       0.00300000 </v>
   <v>       0.00300000 </v>
   <v>       0.00150000 </v>
   <v>       0.00150000 </v>
   <v>       0.00300000 </v>
   <v>       0.00150000 </v>
   <v>       0.00150000 </v>
   <v>       0.00150000 </v>
   <v>       0.00037500 </v>
   <v>       0.00100000 </v>
   <v>       0.00300000 </v>
   <v>       0.00300000 </v>
   <v>       0.00300000 </v>
   <v>       0.00300000 </v>
   <v>       0.00300000 </v>
   <v>       0.00300000 </v>
   <v>       0.00300000 </v>
   <v>       0.00300000 </v>
   <v>       0.00150000 </v>
   <v>       0.00300000 </v>
   <v>       0.00600000 </v>
   <v>       0.00600000 </v>
   <v>       0.00600000 </v>
   <v>       0.00600000 </v>
   <v>       0.00600000 </v>
   <v>       0.00600000 </v>
   <v>       0.00600000 </v>
   <v>       0.00300000 </v>
   <v>       0.00300000 </v>
   <v>       0.00600000 </v>
   <v>       0.00600000 </v>
   <v>       0.00600000 </v>
   <v>       0.00600000 </v>
   <v>       0.00600000 </v>
   <v>       0.00600000 </v>
   <v>       0.00300000 </v>
   <v>       0.00300000 </v>
   <v>       0.00600000 </v>
   <v>       0.00600000 </v>
   <v>       0.00600000 </v>
   <v>       0.00600000 </v>
   <v>       0.00600000 </v>
   <v>       0.00300000 </v>
   <v>       0.00300000 </v>
   <v>       0.00600000 </v>
   <v>       0.00600000 </v>
   <v>       0.00600000 </v>
   <v>       0.00600000 </v>
   <v>       0.00300000 </v>
   <v>       0.00300000 </v>
   <v>       0.00600000 </v>
   <v>       0.00600000 </v>
   <v>       0.00600000 </v>
   <v>       0.00300000 </v>
   <v>       0.00300000 </v>
   <v>       0.00600000 </v>
   <v>       0.00600000 </v>
   <v>       0.00300000 </v>
   <v>       0.00300000 </v>
   <v>       0.00600000 </v>
   <v>       0.00300000 </v>
   <v>       0.00300000 </v>
   <v>       0.00300000 </v>
   <v>       0.00075000 </v>
   <v>       0.00100000 </v>
   <v>       0.00300000 </v>
   <v>       0.00300000 </v>
   <v>       0.00300000 </v>
   <v>       0.00300000 </v>
   <v>       0.00300000 </v>
   <v>       0.00300000 </v>
   <v>       0.00300000 </v>
   <v>       0.00150000 </v>
   <v>       0.00300000 </v>
   <v>       0.00600000 </v>
   <v>       0.00600000 </v>
   <v>       0.00600000 </v>
   <v>       0.00600000 </v>
   <v>       0.00600000 </v>
   <v>       0.00600000 </v>
   <v>       0.00300000 </v>
   <v>       0.00300000 </v>
   <v>       0.00600000 </v>
   <v>       0.00600000 </v>
   <v>       0.00600000 </v>
   <v>       0.00600000 </v>
   <v>       0.00600000 </v>
   <v>       0.00300000 </v>
   <v>       0.00300000 </v>
   <v>       0.00600000 </v>
   <v>       0.00600000 </v>
   <v>       0.00600000 </v>
   <v>       0.00600000 </v>
   <v>       0.00300000 </v>
   <v>       0.00300000 </v>
   <v>       0.00600000 </v>
   <v>       0.00600000 </v>
   <v>       0.00600000 </v>
   <v>       0.00300000 </v>
   <v>       0.00300000 </v>
   <v>       0.00600000 </v>
   <v>       0.00600000 </v>
   <v>       0.00300000 </v>
   <v>       0.00300000 </v>
   <v>       0.00600000 </v>
   <v>       0.00300000 </v>
   <v>       0.00300000 </v>
   <v>       0.00300000 </v>
   <v>       0.00075000 </v>
   <v>       0.00100000 </v>
   <v>       0.00300000 </v>
   <v>       0.00300000 </v>
   <v>       0.00300000 </v>
   <v>       0.00300000 </v>
   <v>       0.00300000 </v>
   <v>       0.00300000 </v>
   <v>       0.00150000 </v>
   <v>       0.00300000 </v>
   <v>       0.00600000 </v>
   <v>       0.00600000 </v>
   <v>       0.00600000 </v>
   <v>       0.00600000 </v>
   <v>       0.00600000 </v>
   <v>       0.00300000 </v>
   <v>       0.00300000 </v>
   <v>       0.00600000 </v>
   <v>       0.00600000 </v>
   <v>       0.00600000 </v>
   <v>       0.00600000 </v>
   <v>       0.00300000 </v>
   <v>       0.00300000 </v>
   <v>       0.00600000 </v>
   <v>       0.00600000 </v>
   <v>       0.00600000 </v>
   <v>       0.00300000 </v>
   <v>       0.00300000 </v>
   <v>       0.00600000 </v>
   <v>       0.00600000 </v>
   <v>       0.00300000 </v>
   <v>       0.00300000 </v>
   <v>       0.00600000 </v>
   <v>       0.00300000 </v>
   <v>       0.00300000 </v>
   <v>       0.00300000 </v>
   <v>       0.00075000 </v>
   <v>       0.00100000 </v>
   <v>       0.00300000 </v>
   <v>       0.00300000 </v>
   <v>       0.00300000 </v>
   <v>       0.00300000 </v>
   <v>       0.00300000 </v>
   <v>       0.00150000 </v>
   <v>       0.00300000 </v>
   <v>       0.00600000 </v>
   <v>       0.00600000 </v>
   <v>       0.00600000 </v>
   <v>       0.00600000 </v>
   <v>       0.00300000 </v>
   <v>       0.00300000 </v>
   <v>       0.00600000 </v>
   <v>       0.00600000 </v>
   <v>       0.00600000 </v>
   <v>       0.00300000 </v>
   <v>       0.00300000 </v>
   <v>       0.00600000 </v>
   <v>       0.00600000 </v>
   <v>       0.00300000 </v>
   <v>       0.00300000 </v>
   <v>       0.00600000 </v>
   <v>       0.00300000 </v>
   <v>       0.00300000 </v>
   <v>       0.00300000 </v>
   <v>       0.00075000 </v>
   <v>       0.00100000 </v>
   <v>       0.00300000 </v>
   <v>       0.00300000 </v>
   <v>       0.00300000 </v>
   <v>       0.00300000 </v>
   <v>       0.00150000 </v>
   <v>       0.00300000 </v>
   <v>       0.00600000 </v>
   <v>       0.00600000 </v>
   <v>       0.00600000 </v>
   <v>       0.00300000 </v>
   <v>       0.00300000 </v>
   <v>       0.00600000 </v>
   <v>       0.00600000 </v>
   <v>       0.00300000 </v>
   <v>       0.00300000 </v>
   <v>       0.00600000 </v>
   <v>       0.00300000 </v>
   <v>       0.00300000 </v>
   <v>       0.00300000 </v>
   <v>       0.00075000 </v>
   <v>       0.00100000 </v>
   <v>       0.00300000 </v>
   <v>       0.00300000 </v>
   <v>       0.00300000 </v>
   <v>       0.00150000 </v>
   <v>       0.00300000 </v>
   <v>       0.00600000 </v>
   <v>       0.00600000 </v>
   <v>       0.00300000 </v>
   <v>       0.00300000 </v>
   <v>       0.00600000 </v>
   <v>       0.00300000 </v>
   <v>       0.00300000 </v>
   <v>       0.00300000 </v>
   <v>       0.00075000 </v>
   <v>       0.00100000 </v>
   <v>       0.00300000 </v>
   <v>       0.00300000 </v>
   <v>       0.00150000 </v>
   <v>       0.00300000 </v>
   <v>       0.00600000 </v>
   <v>       0.00300000 </v>
   <v>       0.00300000 </v>
   <v>       0.00300000 </v>
   <v>       0.00075000 </v>
   <v>       0.00100000 </v>
   <v>       0.00300000 </v>
   <v>       0.00150000 </v>
   <v>       0.00300000 </v>
   <v>       0.00300000 </v>
   <v>       0.00075000 </v>
   <v>       0.00100000 </v>
   <v>       0.00150000 </v>
   <v>       0.00075000 </v>
   <v>       0.00012500 </v>
  </varray>
 </kpoints>
 <parameters>
  <separator name="general" >
   <i type="string" name="SYSTEM">unknown system</i>
   <i type="logical" name="LCOMPAT"> F  </i>
  </separator>
  <separator name="electronic" >
   <i type="string" name="PREC">accura</i>
   <i name="ENMAX">    350.00000000</i>
   <i name="ENAUG">    511.36800000</i>
   <i name="EDIFF">      0.00000100</i>
   <i type="int" name="IALGO">    38</i>
   <i type="int" name="IWAVPR">    11</i>
   <i type="int" name="NBANDS">    20</i>
   <i type="int" name="NBANDSLOW">    -1</i>
   <i type="int" name="NBANDSHIGH">    -1</i>
   <i name="NELECT">     16.00000000</i>
   <i type="int" name="TURBO">     0</i>
   <i type="int" name="IRESTART">     0</i>
   <i type="int" name="NREBOOT">     0</i>
   <i type="int" name="NMIN">     0</i>
   <i name="EREF">      0.00000000</i>
   <separator name="electronic smearing" >
    <i type="int" name="ISMEAR">     1</i>
    <i name="SIGMA">      0.20000000</i>
    <i name="KSPACING">      0.11000000</i>
    <i type="logical" name="KGAMMA"> T  </i>
    <i type="logical" name="KBLOWUP"> T  </i>
   </separator>
   <separator name="electronic projectors" >
    <i type="logical" name="LREAL"> F  </i>
    <v name="ROPT">      0.00000000</v>
    <i type="int" name="LMAXPAW">  -100</i>
    <i type="int" name="LMAXMIX">     4</i>
    <i type="logical" name="NLSPLINE"> F  </i>
   </separator>
   <separator name="electronic startup" >
    <i type="int" name="ISTART">     0</i>
    <i type="int" name="ICHARG">     2</i>
    <i type="int" name="INIWAV">     1</i>
   </separator>
   <separator name="electronic spin" >
    <i type="int" name="ISPIN">     2</i>
    <i type="logical" name="LNONCOLLINEAR"> F  </i>
    <v name="MAGMOM">      5.00000000      5.00000000</v>
    <i name="NUPDOWN">     -1.00000000</i>
    <i type="logical" name="LSORBIT"> F  </i>
    <v name="SAXIS">      0.00000000      0.00000000      1.00000000</v>
    <i type="logical" name="LSPIRAL"> F  </i>
    <v name="QSPIRAL">      0.00000000      0.00000000      0.00000000</v>
    <i type="logical" name="LZEROZ"> F  </i>
   </separator>
   <separator name="electronic exchange-correlation" >
    <i type="logical" name="LASPH"> T  </i>
    <i type="logical" name="LMETAGGA"> F  </i>
   </separator>
   <separator name="electronic convergence" >
    <i type="int" name="NELM">    90</i>
    <i type="int" name="NELMDL">    -5</i>
    <i type="int" name="NELMIN">     6</i>
    <i name="ENINI">    350.00000000</i>
    <separator name="electronic convergence detail" >
     <i type="logical" name="LDIAG"> T  </i>
     <i type="logical" name="LSUBROT"> F  </i>
     <i name="WEIMIN">      0.00100000</i>
     <i name="EBREAK">      0.00000001</i>
     <i name="DEPER">      0.30000000</i>
     <i type="int" name="NRMM">     4</i>
     <i name="TIME">      0.40000000</i>
    </separator>
   </separator>
   <separator name="electronic mixer" >
    <i name="AMIX">      0.40000000</i>
    <i name="BMIX">      1.00000000</i>
    <i name="AMIN">      0.10000000</i>
    <i name="AMIX_MAG">      1.60000000</i>
    <i name="BMIX_MAG">      1.00000000</i>
    <separator name="electronic mixer details" >
     <i type="int" name="IMIX">     4</i>
     <i type="logical" name="MIXFIRST"> F  </i>
     <i type="int" name="MAXMIX">   -45</i>
     <i name="WC">    100.00000000</i>
     <i type="int" name="INIMIX">     1</i>
     <i type="int" name="MIXPRE">     1</i>
     <i type="int" name="MREMOVE">     5</i>
    </separator>
   </separator>
   <separator name="electronic dipolcorrection" >
    <i type="logical" name="LDIPOL"> F  </i>
    <i type="logical" name="LMONO"> F  </i>
    <i type="int" name="IDIPOL">     0</i>
    <i name="EPSILON">      1.00000000</i>
    <v name="DIPOL">   -100.00000000   -100.00000000   -100.00000000</v>
    <i name="EFIELD">      0.00000000</i>
   </separator>
  </separator>
  <separator name="grids" >
   <i type="int" name="NGX">    18</i>
   <i type="int" name="NGY">    18</i>
   <i type="int" name="NGZ">    18</i>
   <i type="int" name="NGXF">    36</i>
   <i type="int" name="NGYF">    36</i>
   <i type="int" name="NGZF">    36</i>
   <i type="logical" name="ADDGRID"> T  </i>
  </separator>
  <separator name="ionic" >
   <i type="int" name="NSW">   100</i>
   <i type="int" name="IBRION">     2</i>
   <i type="int" name="MDALGO">     0</i>
   <i type="int" name="ISIF">     3</i>
   <i name="PSTRESS">      0.00000000</i>
   <i name="EDIFFG">     -0.00200000</i>
   <i type="int" name="NFREE">     1</i>
   <i name="POTIM">      0.50000000</i>
   <i name="SMASS">     -3.00000000</i>
   <i name="SCALEE">      1.00000000</i>
  </separator>
  <separator name="ionic md" >
   <i name="TEBEG">      0.00010000</i>
   <i name="TEEND">      0.00010000</i>
   <i type="int" name="NBLOCK">     1</i>
   <i type="int" name="KBLOCK">   100</i>
   <i type="int" name="NPACO">   256</i>
   <i name="APACO">     16.00000000</i>
  </separator>
  <separator name="symmetry" >
   <i type="int" name="ISYM">     2</i>
   <i name="SYMPREC">      0.00001000</i>
  </separator>
  <separator name="dos" >
   <i type="int" name="LORBIT">    11</i>
   <v name="RWIGS">     -1.00000000</v>
   <i type="int" name="NEDOS">   301</i>
   <i name="EMIN">     10.00000000</i>
   <i name="EMAX">    -10.00000000</i>
   <i name="EFERMI">      0.00000000</i>
  </separator>
  <separator name="writing" >
   <i type="int" name="NWRITE">     2</i>
   <i type="logical" name="LWAVE"> T  </i>
   <i type="logical" name="LDOWNSAMPLE"> F  </i>
   <i type="logical" name="LCHARG"> T  </i>
   <i type="logical" name="LPARD"> F  </i>
   <i type="logical" name="LVTOT"> F  </i>
   <i type="logical" name="LVHAR"> F  </i>
   <i type="logical" name="LELF"> F  </i>
   <i type="logical" name="LOPTICS"> F  </i>
   <v name="STM">      0.00000000      0.00000000      0.00000000      0.00000000      0.00000000      0.00000000      0.00000000</v>
  </separator>
  <separator name="performance" >
   <i type="int" name="NPAR">     4</i>
   <i type="int" name="NSIM">     4</i>
   <i type="int" name="NBLK">    -1</i>
   <i type="logical" name="LPLANE"> T  </i>
   <i type="logical" name="LSCALAPACK"> T  </i>
   <i type="logical" name="LSCAAWARE"> F  </i>
   <i type="logical" name="LSCALU"> F  </i>
   <i type="logical" name="LASYNC"> F  </i>
   <i type="logical" name="LORBITALREAL"> F  </i>
  </separator>
  <separator name="miscellaneous" >
   <i type="int" name="IDIOT">     3</i>
   <i type="int" name="PHON_NSTRUCT">    -1</i>
   <i type="logical" name="LMUSIC"> F  </i>
   <v name="POMASS">     55.84700000</v>
   <v name="DARWINR">      0.00000000</v>
   <v name="DARWINV">      1.00000000</v>
   <i type="logical" name="LCORR"> T  </i>
  </separator>
  <i type="logical" name="GGA_COMPAT"> F  </i>
  <i type="logical" name="LBERRY"> F  </i>
  <i type="int" name="ICORELEVEL">     0</i>
  <i type="logical" name="LDAU"> F  </i>
  <i type="int" name="I_CONSTRAINED_M">     0</i>
  <separator name="electronic exchange-correlation" >
   <i type="string" name="GGA">--</i>
   <i type="int" name="VOSKOWN">     1</i>
   <i type="logical" name="LHFCALC"> F  </i>
   <i type="string" name="PRECFOCK"></i>
   <i type="logical" name="LSYMGRAD"> F  </i>
   <i type="logical" name="LHFONE"> F  </i>
   <i type="logical" name="LRHFCALC"> F  </i>
   <i type="logical" name="LTHOMAS"> F  </i>
   <i type="logical" name="LMODELHF"> F  </i>
   <i type="logical" name="LFOCKACE"> F  </i>
   <i name="ENCUT4O">     -1.00000000</i>
   <i type="int" name="EXXOEP">     0</i>
   <i type="int" name="FOURORBIT">     0</i>
   <i name="AEXX">      0.00000000</i>
   <i name="HFALPHA">      0.00000000</i>
   <i name="MCALPHA">      0.00000000</i>
   <i name="ALDAX">      1.00000000</i>
   <i name="AGGAX">      1.00000000</i>
   <i name="ALDAC">      1.00000000</i>
   <i name="AGGAC">      1.00000000</i>
   <i type="int" name="NKREDX">     1</i>
   <i type="int" name="NKREDY">     1</i>
   <i type="int" name="NKREDZ">     1</i>
   <i type="logical" name="SHIFTRED"> F  </i>
   <i type="logical" name="ODDONLY"> F  </i>
   <i type="logical" name="EVENONLY"> F  </i>
   <i type="int" name="LMAXFOCK">     0</i>
   <i type="int" name="NMAXFOCKAE">     0</i>
   <i type="logical" name="LFOCKAEDFT"> F  </i>
   <i name="HFSCREEN">      0.00000000</i>
   <i name="HFSCREENC">      0.00000000</i>
   <i type="int" name="NBANDSGWLOW">     0</i>
  </separator>
  <separator name="vdW DFT" >
   <i type="logical" name="LUSE_VDW"> F  </i>
   <i name="Zab_VDW">     -0.84910000</i>
   <i name="PARAM1">      0.12340000</i>
   <i name="PARAM2">      1.00000000</i>
   <i name="PARAM3">      0.00000000</i>
  </separator>
  <separator name="model GW" >
   <i type="int" name="MODEL_GW">     0</i>
   <i name="MODEL_EPS0">      7.04046678</i>
   <i name="MODEL_ALPHA">      1.00000000</i>
  </separator>
  <separator name="linear response parameters" >
   <i type="logical" name="LEPSILON"> F  </i>
   <i type="logical" name="LRPA"> F  </i>
   <i type="logical" name="LNABLA"> F  </i>
   <i type="logical" name="LVEL"> F  </i>
   <i type="int" name="KINTER">     0</i>
   <i name="CSHIFT">      0.10000000</i>
   <i name="OMEGAMAX">     -1.00000000</i>
   <i name="DEG_THRESHOLD">      0.00200000</i>
   <i name="RTIME">     -0.10000000</i>
   <i name="WPLASMAI">      0.00000000</i>
   <v name="DFIELD">      0.00000000      0.00000000      0.00000000</v>
   <v name="WPLASMA">      0.00000000      0.00000000      0.00000000      0.00000000      0.00000000      0.00000000      0.00000000      0.00000000      0.00000000</v>
  </separator>
  <separator name="orbital magnetization" >
   <i type="logical" name="NUCIND"> F  </i>
   <v name="MAGPOS">      0.00000000      0.00000000      0.00000000</v>
   <i type="logical" name="LNICSALL"> T  </i>
   <i type="logical" name="ORBITALMAG"> F  </i>
   <i type="logical" name="LMAGBLOCH"> F  </i>
   <i type="logical" name="LCHIMAG"> F  </i>
   <i type="logical" name="LGAUGE"> T  </i>
   <i type="int" name="MAGATOM">     0</i>
   <v name="MAGDIPOL">      0.00000000      0.00000000      0.00000000</v>
   <v name="AVECCONST">      0.00000000      0.00000000      0.00000000</v>
  </separator>
  <separator name="response functions" >
   <i type="logical" name="LFINITE_TEMPERATURE"> F  </i>
   <i type="logical" name="LADDER"> F  </i>
   <i type="logical" name="LRPAFORCE"> F  </i>
   <i type="logical" name="LFXC"> F  </i>
   <i type="logical" name="LHARTREE"> T  </i>
   <i type="int" name="IBSE">     0</i>
   <v type="int" name="KPOINT">    -1     0     0     0</v>
   <i type="logical" name="LTCTC"> F  </i>
   <i type="logical" name="LTCTE"> F  </i>
   <i type="logical" name="LTETE"> F  </i>
   <i type="logical" name="LTRIPLET"> F  </i>
   <i type="logical" name="LFXCEPS"> F  </i>
   <i type="logical" name="LFXHEG"> F  </i>
   <i type="int" name="NATURALO">     2</i>
   <i type="logical" name="LHOLEGF"> F  </i>
   <i type="logical" name="L2ORDER"> F  </i>
   <i type="logical" name="LDMP1"> F  </i>
   <i type="logical" name="LMP2LT"> F  </i>
   <i type="logical" name="LSMP2LT"> F  </i>
   <i type="logical" name="LGWLF"> F  </i>
   <i name="ENCUTGW">     -2.00000000</i>
   <i name="ENCUTGWSOFT">     -2.00000000</i>
   <i name="ENCUTLF">     -1.00000000</i>
   <i type="logical" name="LESF_SPLINES"> F  </i>
   <i type="int" name="LMAXMP2">    -1</i>
   <i name="SCISSOR">      0.00000000</i>
   <i type="int" name="NOMEGA">     0</i>
   <i type="int" name="NOMEGAR">     0</i>
   <i type="int" name="NBANDSGW">    -1</i>
   <i type="int" name="NBANDSO">    -1</i>
   <i type="int" name="NBANDSV">    -1</i>
   <i type="int" name="NELM">    90</i>
   <i type="int" name="NELMHF">     1</i>
   <i type="int" name="DIM">     3</i>
   <i type="int" name="IESPILON">     4</i>
   <i type="int" name="ANTIRES">     0</i>
   <i name="OMEGAMAX">    -30.00000000</i>
   <i name="OMEGAMIN">    -30.00000000</i>
   <i name="OMEGATL">   -200.00000000</i>
   <i type="int" name="OMEGAGRID">     0</i>
   <i name="CSHIFT">     -0.10000000</i>
   <i type="logical" name="LSELFENERGY"> F  </i>
   <i type="logical" name="LSPECTRAL"> F  </i>
   <i type="logical" name="LSPECTRALGW"> F  </i>
   <i type="logical" name="LSINGLES"> F  </i>
   <i type="logical" name="LFERMIGW"> F  </i>
   <i type="logical" name="ODDONLYGW"> F  </i>
   <i type="logical" name="EVENONLYGW"> F  </i>
   <i type="int" name="NKREDLFX">     1</i>
   <i type="int" name="NKREDLFY">     1</i>
   <i type="int" name="NKREDLFZ">     1</i>
   <i type="int" name="MAXMEM">  2800</i>
   <i type="int" name="TELESCOPE">     0</i>
   <i type="int" name="NTAUPAR">    -1</i>
   <i type="int" name="NOMEGAPAR">    -1</i>
   <i name="DAMP_NEWTON">      0.80000001</i>
   <i name="LAMBDA">      1.00000000</i>
  </separator>
  <separator name="External order field" >
   <i name="OFIELD_KAPPA">      0.00000000</i>
   <v name="OFIELD_K">      0.00000000      0.00000000      0.00000000</v>
   <i name="OFIELD_Q6_NEAR">      0.00000000</i>
   <i name="OFIELD_Q6_FAR">      0.00000000</i>
   <i name="OFIELD_A">      0.00000000</i>
  </separator>
 </parameters>
 <atominfo>
  <atoms>       2 </atoms>
  <types>       1 </types>
  <array name="atoms" >
   <dimension dim="1">ion</dimension>
   <field type="string">element</field>
   <field type="int">atomtype</field>
   <set>
    <rc><c>Fe</c><c>   1</c></rc>
    <rc><c>Fe</c><c>   1</c></rc>
   </set>
  </array>
  <array name="atomtypes" >
   <dimension dim="1">type</dimension>
   <field type="int">atomspertype</field>
   <field type="string">element</field>
   <field>mass</field>
   <field>valence</field>
   <field type="string">pseudopotential</field>
   <set>
    <rc><c>   2</c><c>Fe</c><c>     55.84700000</c><c>      8.00000000</c><c>  PAW_PBE Fe 06Sep2000                  </c></rc>
   </set>
  </array>
 </atominfo>
 <structure name="initialpos" >
  <crystal>
   <varray name="basis" >
    <v>       2.86303550       0.00000000       0.00000000 </v>
    <v>       0.00000000       2.86303550       0.00000000 </v>
    <v>       0.00000000       0.00000000       2.86303550 </v>
   </varray>
   <i name="volume">     23.46822259 </i>
   <varray name="rec_basis" >
    <v>       0.34927964      -0.00000000       0.00000000 </v>
    <v>       0.00000000       0.34927964       0.00000000 </v>
    <v>      -0.00000000      -0.00000000       0.34927964 </v>
   </varray>
  </crystal>
  <varray name="positions" >
   <v>       0.00000000       0.00000000       0.00000000 </v>
   <v>       0.50000000       0.50000000       0.50000000 </v>
  </varray>
 </structure>
 <calculation>
  <scstep>
   <time name="dav">    9.06    9.07</time>
   <time name="total">   10.67   10.68</time>
   <energy>
    <i name="alphaZ">    117.79976220 </i>
    <i name="ewald">  -1171.43779597 </i>
    <i name="hartreedc">   -228.04061711 </i>
    <i name="XCdc">     14.27160946 </i>
    <i name="pawpsdc">   1103.49540010 </i>
    <i name="pawaedc">  -1119.11610375 </i>
    <i name="eentropy">      0.00088799 </i>
    <i name="bandstr">    158.57703812 </i>
    <i name="atom">   1188.58965621 </i>
    <i name="e_fr_energy">     64.13983725 </i>
    <i name="e_wo_entrp">     64.13894926 </i>
    <i name="e_0_energy">     64.13954126 </i>
   </energy>
  </scstep>
  <scstep>
   <time name="dav">    8.45    8.47</time>
   <time name="total">    8.47    8.50</time>
   <energy>
    <i name="e_fr_energy">    -13.35302238 </i>
    <i name="e_wo_entrp">    -13.35375701 </i>
    <i name="e_0_energy">    -13.35326726 </i>
   </energy>
  </scstep>
  <scstep>
   <time name="dav">    9.21    9.24</time>
   <time name="total">    9.23    9.26</time>
   <energy>
    <i name="e_fr_energy">    -16.06611753 </i>
    <i name="e_wo_entrp">    -16.06672995 </i>
    <i name="e_0_energy">    -16.06632167 </i>
   </energy>
  </scstep>
  <scstep>
   <time name="dav">    8.84    8.91</time>
   <time name="total">    8.87    8.94</time>
   <energy>
    <i name="e_fr_energy">    -16.08627336 </i>
    <i name="e_wo_entrp">    -16.08689355 </i>
    <i name="e_0_energy">    -16.08648009 </i>
   </energy>
  </scstep>
  <scstep>
   <time name="dav">    9.07    9.09</time>
   <time name="total">    9.59    9.61</time>
   <energy>
    <i name="e_fr_energy">    -16.08652053 </i>
    <i name="e_wo_entrp">    -16.08714075 </i>
    <i name="e_0_energy">    -16.08672727 </i>
   </energy>
  </scstep>
  <scstep>
   <time name="dav">    8.96    8.97</time>
   <time name="total">   11.00   11.03</time>
   <energy>
    <i name="e_fr_energy">    -16.56719166 </i>
    <i name="e_wo_entrp">    -16.56672591 </i>
    <i name="e_0_energy">    -16.56703641 </i>
   </energy>
  </scstep>
  <scstep>
   <time name="dav">    9.45    9.46</time>
   <time name="total">   11.49   11.51</time>
   <energy>
    <i name="e_fr_energy">    -16.50742249 </i>
    <i name="e_wo_entrp">    -16.50714613 </i>
    <i name="e_0_energy">    -16.50733037 </i>
   </energy>
  </scstep>
  <scstep>
   <time name="dav">   10.21   10.22</time>
   <time name="total">   12.24   12.27</time>
   <energy>
    <i name="e_fr_energy">    -16.49050645 </i>
    <i name="e_wo_entrp">    -16.48995178 </i>
    <i name="e_0_energy">    -16.49032156 </i>
   </energy>
  </scstep>
  <scstep>
   <time name="dav">   11.51   11.52</time>
   <time name="total">   13.55   13.58</time>
   <energy>
    <i name="e_fr_energy">    -16.47923475 </i>
    <i name="e_wo_entrp">    -16.47828760 </i>
    <i name="e_0_energy">    -16.47891903 </i>
   </energy>
  </scstep>
  <scstep>
   <time name="dav">    9.66    9.70</time>
   <time name="total">   11.71   11.77</time>
   <energy>
    <i name="e_fr_energy">    -16.47882102 </i>
    <i name="e_wo_entrp">    -16.47810739 </i>
    <i name="e_0_energy">    -16.47858315 </i>
   </energy>
  </scstep>
  <scstep>
   <time name="dav">    9.67    9.69</time>
   <time name="total">   11.71   11.75</time>
   <energy>
    <i name="e_fr_energy">    -16.47885475 </i>
    <i name="e_wo_entrp">    -16.47813051 </i>
    <i name="e_0_energy">    -16.47861334 </i>
   </energy>
  </scstep>
  <scstep>
   <time name="dav">    8.51    8.51</time>
   <time name="total">   10.55   10.57</time>
   <energy>
    <i name="e_fr_energy">    -16.47884241 </i>
    <i name="e_wo_entrp">    -16.47812564 </i>
    <i name="e_0_energy">    -16.47860349 </i>
   </energy>
  </scstep>
  <scstep>
   <time name="dav">    7.41    7.42</time>
   <time name="total">    9.02    9.04</time>
   <energy>
    <i name="alphaZ">    117.79976220 </i>
    <i name="ewald">  -1171.43779597 </i>
    <i name="hartreedc">   -195.10913503 </i>
    <i name="XCdc">      8.53489566 </i>
    <i name="pawpsdc">   1412.23557105 </i>
    <i name="pawaedc">  -1430.22032218 </i>
    <i name="eentropy">     -0.00072118 </i>
    <i name="bandstr">     53.12924615 </i>
    <i name="atom">   1188.58965621 </i>
    <i name="e_fr_energy">    -16.47884310 </i>
    <i name="e_wo_entrp">    -16.47812191 </i>
    <i name="e_0_energy">    -16.47860270 </i>
   </energy>
  </scstep>
  <structure>
   <crystal>
    <varray name="basis" >
     <v>       2.86303550       0.00000000       0.00000000 </v>
     <v>       0.00000000       2.86303550       0.00000000 </v>
     <v>       0.00000000       0.00000000       2.86303550 </v>
    </varray>
    <i name="volume">     23.46822259 </i>
    <varray name="rec_basis" >
     <v>       0.34927964      -0.00000000       0.00000000 </v>
     <v>       0.00000000       0.34927964       0.00000000 </v>
     <v>      -0.00000000      -0.00000000       0.34927964 </v>
    </varray>
   </crystal>
   <varray name="positions" >
    <v>       0.00000000       0.00000000       0.00000000 </v>
    <v>       0.50000000       0.50000000       0.50000000 </v>
   </varray>
  </structure>
  <varray name="forces" >
   <v>      -0.00000000       0.00000000      -0.00000000 </v>
   <v>       0.00000000      -0.00000000       0.00000000 </v>
  </varray>
  <varray name="stress" >
   <v>     -63.66824934      -0.00000000      -0.00000000 </v>
   <v>      -0.00000000     -63.66824934      -0.00000000 </v>
   <v>       0.00000000      -0.00000000     -63.66824934 </v>
  </varray>
  <energy>
   <i name="e_fr_energy">    -16.47884310 </i>
   <i name="e_wo_entrp">    -16.47812191 </i>
   <i name="e_0_energy">    -16.47860270 </i>
  </energy>
  <time name="totalsc">  146.12  147.96</time>
 </calculation>
 <calculation>
  <scstep>
   <time name="dav">    8.92    8.93</time>
   <time name="total">   10.96   10.98</time>
   <energy>
    <i name="alphaZ">    126.12116811 </i>
    <i name="ewald">  -1198.39619792 </i>
    <i name="hartreedc">   -199.60348432 </i>
    <i name="XCdc">      9.86648054 </i>
    <i name="pawpsdc">   1412.22999414 </i>
    <i name="pawaedc">  -1430.21365841 </i>
    <i name="eentropy">      0.00081693 </i>
    <i name="bandstr">     74.18475945 </i>
    <i name="atom">   1188.58965621 </i>
    <i name="e_fr_energy">    -17.22046525 </i>
    <i name="e_wo_entrp">    -17.22128218 </i>
    <i name="e_0_energy">    -17.22073756 </i>
   </energy>
  </scstep>
  <scstep>
   <time name="dav">    8.91    8.91</time>
   <time name="total">   10.95   10.98</time>
   <energy>
    <i name="e_fr_energy">    -16.53048541 </i>
    <i name="e_wo_entrp">    -16.52933392 </i>
    <i name="e_0_energy">    -16.53010158 </i>
   </energy>
  </scstep>
  <scstep>
   <time name="dav">    9.45    9.46</time>
   <time name="total">   11.50   11.53</time>
   <energy>
    <i name="e_fr_energy">    -16.49606073 </i>
    <i name="e_wo_entrp">    -16.49527464 </i>
    <i name="e_0_energy">    -16.49579870 </i>
   </energy>
  </scstep>
  <scstep>
   <time name="dav">    9.83    9.84</time>
   <time name="total">   11.87   11.90</time>
   <energy>
    <i name="e_fr_energy">    -16.48858296 </i>
    <i name="e_wo_entrp">    -16.48768416 </i>
    <i name="e_0_energy">    -16.48828336 </i>
   </energy>
  </scstep>
  <scstep>
   <time name="dav">    9.86    9.87</time>
   <time name="total">   11.91   11.93</time>
   <energy>
    <i name="e_fr_energy">    -16.48269879 </i>
    <i name="e_wo_entrp">    -16.48135476 </i>
    <i name="e_0_energy">    -16.48225078 </i>
   </energy>
  </scstep>
  <scstep>
   <time name="dav">    9.30    9.34</time>
   <time name="total">   11.34   11.40</time>
   <energy>
    <i name="e_fr_energy">    -16.48279864 </i>
    <i name="e_wo_entrp">    -16.48148313 </i>
    <i name="e_0_energy">    -16.48236014 </i>
   </energy>
  </scstep>
  <scstep>
   <time name="dav">    8.65    8.67</time>
   <time name="total">   10.69   10.73</time>
   <energy>
    <i name="e_fr_energy">    -16.48280564 </i>
    <i name="e_wo_entrp">    -16.48150156 </i>
    <i name="e_0_energy">    -16.48237095 </i>
   </energy>
  </scstep>
  <scstep>
   <time name="dav">    8.21    8.22</time>
   <time name="total">   10.26   10.28</time>
   <energy>
    <i name="e_fr_energy">    -16.48280213 </i>
    <i name="e_wo_entrp">    -16.48149647 </i>
    <i name="e_0_energy">    -16.48236691 </i>
   </energy>
  </scstep>
  <scstep>
   <time name="dav">    5.77    5.78</time>
   <time name="total">    7.38    7.41</time>
   <energy>
    <i name="alphaZ">    126.12116811 </i>
    <i name="ewald">  -1198.39619792 </i>
    <i name="hartreedc">   -184.55810078 </i>
    <i name="XCdc">      8.69248858 </i>
    <i name="pawpsdc">   1474.25775605 </i>
    <i name="pawaedc">  -1492.65939589 </i>
    <i name="eentropy">     -0.00130952 </i>
    <i name="bandstr">     61.47113395 </i>
    <i name="atom">   1188.58965621 </i>
    <i name="e_fr_energy">    -16.48280120 </i>
    <i name="e_wo_entrp">    -16.48149168 </i>
    <i name="e_0_energy">    -16.48236469 </i>
   </energy>
  </scstep>
  <structure>
   <crystal>
    <varray name="basis" >
     <v>       2.79863037      -0.00000000       0.00000000 </v>
     <v>       0.00000000       2.79863037       0.00000000 </v>
     <v>       0.00000000      -0.00000000       2.79863037 </v>
    </varray>
    <i name="volume">     21.91980205 </i>
    <varray name="rec_basis" >
     <v>       0.35731764      -0.00000000      -0.00000000 </v>
     <v>       0.00000000       0.35731764       0.00000000 </v>
     <v>      -0.00000000      -0.00000000       0.35731764 </v>
    </varray>
   </crystal>
   <varray name="positions" >
    <v>      -0.00000000       0.00000000      -0.00000000 </v>
    <v>       0.50000000       0.50000000       0.50000000 </v>
   </varray>
  </structure>
  <varray name="forces" >
   <v>      -0.00000000      -0.00000000       0.00000000 </v>
   <v>       0.00000000       0.00000000      -0.00000000 </v>
  </varray>
  <varray name="stress" >
   <v>      65.28134868       0.00000000       0.00000000 </v>
   <v>      -0.00000000      65.28134868       0.00000000 </v>
   <v>       0.00000000       0.00000000      65.28134868 </v>
  </varray>
  <energy>
   <i name="e_fr_energy">    -16.48280120 </i>
   <i name="e_wo_entrp">    -16.48149168 </i>
   <i name="e_0_energy">    -16.48236469 </i>
  </energy>
  <time name="totalsc">  104.58  105.69</time>
 </calculation>
 <calculation>
  <scstep>
   <time name="dav">    8.96    8.97</time>
   <time name="total">   11.03   11.05</time>
   <energy>
    <i name="alphaZ">    122.22043525 </i>
    <i name="ewald">  -1185.91174347 </i>
    <i name="hartreedc">   -182.63753394 </i>
    <i name="XCdc">      8.09502784 </i>
    <i name="pawpsdc">   1474.27924503 </i>
    <i name="pawaedc">  -1492.67931590 </i>
    <i name="eentropy">     -0.00270041 </i>
    <i name="bandstr">     51.38911259 </i>
    <i name="atom">   1188.58965621 </i>
    <i name="e_fr_energy">    -16.65781680 </i>
    <i name="e_wo_entrp">    -16.65511639 </i>
    <i name="e_0_energy">    -16.65691666 </i>
   </energy>
  </scstep>
  <scstep>
   <time name="dav">    8.90    8.91</time>
   <time name="total">   10.94   10.97</time>
   <energy>
    <i name="e_fr_energy">    -16.51429791 </i>
    <i name="e_wo_entrp">    -16.51310376 </i>
    <i name="e_0_energy">    -16.51389986 </i>
   </energy>
  </scstep>
  <scstep>
   <time name="dav">    9.43    9.44</time>
   <time name="total">   11.48   11.51</time>
   <energy>
    <i name="e_fr_energy">    -16.49960480 </i>
    <i name="e_wo_entrp">    -16.49779856 </i>
    <i name="e_0_energy">    -16.49900272 </i>
   </energy>
  </scstep>
  <scstep>
   <time name="dav">   10.55   10.56</time>
   <time name="total">   12.60   12.63</time>
   <energy>
    <i name="e_fr_energy">    -16.49788757 </i>
    <i name="e_wo_entrp">    -16.49604936 </i>
    <i name="e_0_energy">    -16.49727484 </i>
   </energy>
  </scstep>
  <scstep>
   <time name="dav">    9.33    9.34</time>
   <time name="total">   11.37   11.40</time>
   <energy>
    <i name="e_fr_energy">    -16.49653084 </i>
    <i name="e_wo_entrp">    -16.49477807 </i>
    <i name="e_0_energy">    -16.49594658 </i>
   </energy>
  </scstep>
  <scstep>
   <time name="dav">    8.64    8.65</time>
   <time name="total">   10.68   10.71</time>
   <energy>
    <i name="e_fr_energy">    -16.49655401 </i>
    <i name="e_wo_entrp">    -16.49480434 </i>
    <i name="e_0_energy">    -16.49597079 </i>
   </energy>
  </scstep>
  <scstep>
   <time name="dav">    8.54    8.55</time>
   <time name="total">   10.59   10.62</time>
   <energy>
    <i name="e_fr_energy">    -16.49655905 </i>
    <i name="e_wo_entrp">    -16.49481059 </i>
    <i name="e_0_energy">    -16.49597623 </i>
   </energy>
  </scstep>
  <scstep>
   <time name="dav">    6.06    6.07</time>
   <time name="total">    8.11    8.13</time>
   <energy>
    <i name="e_fr_energy">    -16.49656201 </i>
    <i name="e_wo_entrp">    -16.49481256 </i>
    <i name="e_0_energy">    -16.49597886 </i>
   </energy>
  </scstep>
  <scstep>
   <time name="dav">    5.67    5.68</time>
   <time name="total">    7.28    7.30</time>
   <energy>
    <i name="alphaZ">    122.22043525 </i>
    <i name="ewald">  -1185.91174347 </i>
    <i name="hartreedc">   -189.37229552 </i>
    <i name="XCdc">      8.61539337 </i>
    <i name="pawpsdc">   1444.35079336 </i>
    <i name="pawaedc">  -1462.54617815 </i>
    <i name="eentropy">     -0.00174921 </i>
    <i name="bandstr">     57.55912608 </i>
    <i name="atom">   1188.58965621 </i>
    <i name="e_fr_energy">    -16.49656207 </i>
    <i name="e_wo_entrp">    -16.49481286 </i>
    <i name="e_0_energy">    -16.49597900 </i>
   </energy>
  </scstep>
  <structure>
   <crystal>
    <varray name="basis" >
     <v>       2.82809240      -0.00000000       0.00000000 </v>
     <v>       0.00000000       2.82809240       0.00000000 </v>
     <v>       0.00000000      -0.00000000       2.82809240 </v>
    </varray>
    <i name="volume">     22.61938467 </i>
    <varray name="rec_basis" >
     <v>       0.35359524      -0.00000000      -0.00000000 </v>
     <v>       0.00000000       0.35359524       0.00000000 </v>
     <v>      -0.00000000      -0.00000000       0.35359524 </v>
    </varray>
   </crystal>
   <varray name="positions" >
    <v>      -0.00000000       0.00000000      -0.00000000 </v>
    <v>       0.50000000       0.50000000       0.50000000 </v>
   </varray>
  </structure>
  <varray name="forces" >
   <v>      -0.00000000       0.00000000      -0.00000000 </v>
   <v>       0.00000000      -0.00000000       0.00000000 </v>
  </varray>
  <varray name="stress" >
   <v>       0.14693340       0.00000000      -0.00000000 </v>
   <v>       0.00000000       0.14693340      -0.00000000 </v>
   <v>      -0.00000000      -0.00000000       0.14693340 </v>
  </varray>
  <energy>
   <i name="e_fr_energy">    -16.49656207 </i>
   <i name="e_wo_entrp">    -16.49481286 </i>
   <i name="e_0_energy">    -16.49597900 </i>
  </energy>
  <time name="totalsc">  102.26  105.37</time>
  <eigenvalues>
   <array>
    <dimension dim="1">band</dimension>
    <dimension dim="2">kpoint</dimension>
    <dimension dim="3">spin</dimension>
    <field>eigene</field>
    <field>occ</field>
    <set>
     <set comment="spin 1">
      <set comment="kpoint 1">
       <r>   -2.5906    1.0000 </r>
       <r>    0.9983    1.0000 </r>
       <r>    0.9983    1.0000 </r>
       <r>    3.5640    1.0000 </r>
       <r>    3.5640    1.0000 </r>
       <r>    3.5640    1.0000 </r>
       <r>    4.7796    1.0000 </r>
       <r>    4.7796    1.0000 </r>
       <r>    5.9994    0.0585 </r>
       <r>    5.9994    0.0585 </r>
       <r>    5.9994    0.0585 </r>
       <r>   15.8363    0.0000 </r>
       <r>   15.8363    0.0000 </r>
       <r>   15.8363    0.0000 </r>
       <r>   21.5652    0.0000 </r>
       <r>   21.5652    0.0000 </r>
       <r>   26.7320    0.0000 </r>
       <r>   30.9356    0.0000 </r>
       <r>   30.9356    0.0000 </r>
       <r>   30.9356    0.0000 </r>
      </set>
      <set comment="kpoint 2">
       <r>   -2.5384    1.0000 </r>
       <r>    1.0207    1.0000 </r>
       <r>    1.0218    1.0000 </r>
       <r>    3.5635    1.0000 </r>
       <r>    3.5635    1.0000 </r>
       <r>    3.5783    1.0000 </r>
       <r>    4.7562    1.0000 </r>
       <r>    4.7889    1.0000 </r>
       <r>    5.9550    0.1717 </r>
       <r>    5.9550    0.1717 </r>
       <r>    5.9841    0.0920 </r>
       <r>   15.4412    0.0000 </r>
       <r>   15.9358    0.0000 </r>
       <r>   15.9358    0.0000 </r>
       <r>   21.5805    0.0000 </r>
       <r>   21.8712    0.0000 </r>
       <r>   26.8979    0.0000 </r>
       <r>   30.5571    0.0000 </r>
       <r>   30.8933    0.0000 </r>
       <r>   30.8933    0.0000 </r>
      </set>
      <set comment="kpoint 3">
       <r>   -2.3828    1.0000 </r>
       <r>    1.0873    1.0000 </r>
       <r>    1.0897    1.0000 </r>
       <r>    3.5628    1.0000 </r>
       <r>    3.5628    1.0000 </r>
       <r>    3.6210    1.0000 </r>
       <r>    4.6866    1.0000 </r>
       <r>    4.8163    1.0000 </r>
       <r>    5.8273    0.6733 </r>
       <r>    5.8273    0.6733 </r>
       <r>    5.9377    0.2286 </r>
       <r>   14.4809    0.0000 </r>
       <r>   16.2275    0.0000 </r>
       <r>   16.2275    0.0000 </r>
       <r>   21.6257    0.0000 </r>
       <r>   22.5236    0.0000 </r>
       <r>   27.4372    0.0000 </r>
       <r>   29.6988    0.0000 </r>
       <r>   30.7272    0.0000 </r>
       <r>   30.7272    0.0000 </r>
      </set>
      <set comment="kpoint 4">
       <r>   -2.1275    1.0000 </r>
       <r>    1.1948    1.0000 </r>
       <r>    1.1967    1.0000 </r>
       <r>    3.5644    1.0000 </r>
       <r>    3.5644    1.0000 </r>
       <r>    3.6912    1.0000 </r>
       <r>    4.5721    1.0000 </r>
       <r>    4.8610    1.0000 </r>
       <r>    5.6338    1.0351 </r>
       <r>    5.6338    1.0351 </r>
       <r>    5.8617    0.5322 </r>
       <r>   13.2757    0.0000 </r>
       <r>   16.6933    0.0000 </r>
       <r>   16.6933    0.0000 </r>
       <r>   21.7027    0.0000 </r>
       <r>   23.1446    0.0000 </r>
       <r>   28.4171    0.0000 </r>
       <r>   28.7012    0.0000 </r>
       <r>   30.3404    0.0000 </r>
       <r>   30.3404    0.0000 </r>
      </set>
      <set comment="kpoint 5">
       <r>   -1.7789    1.0000 </r>
       <r>    1.3248    1.0000 </r>
       <r>    1.3467    1.0000 </r>
       <r>    3.5723    1.0000 </r>
       <r>    3.5723    1.0000 </r>
       <r>    3.7873    1.0000 </r>
       <r>    4.4155    1.0000 </r>
       <r>    4.9219    1.0000 </r>
       <r>    5.3965    1.0021 </r>
       <r>    5.3965    1.0021 </r>
       <r>    5.7582    0.8990 </r>
       <r>   11.9998    0.0000 </r>
       <r>   17.3097    0.0000 </r>
       <r>   17.3097    0.0000 </r>
       <r>   21.8141    0.0000 </r>
       <r>   23.5971    0.0000 </r>
       <r>   27.7120    0.0000 </r>
       <r>   29.6649    0.0000 </r>
       <r>   29.6649    0.0000 </r>
       <r>   29.8158    0.0000 </r>
      </set>
      <set comment="kpoint 6">
       <r>   -1.3470    1.0000 </r>
       <r>    1.4611    1.0000 </r>
       <r>    1.5343    1.0000 </r>
       <r>    3.5906    1.0000 </r>
       <r>    3.5906    1.0000 </r>
       <r>    3.9073    1.0000 </r>
       <r>    4.2201    1.0000 </r>
       <r>    4.9994    1.0000 </r>
       <r>    5.1368    1.0000 </r>
       <r>    5.1368    1.0000 </r>
       <r>    5.6300    1.0353 </r>
       <r>   10.7373   -0.0000 </r>
       <r>   18.0526    0.0000 </r>
       <r>   18.0526    0.0000 </r>
       <r>   21.9632    0.0000 </r>
       <r>   23.9234    0.0000 </r>
       <r>   26.7850    0.0000 </r>
       <r>   28.7399    0.0000 </r>
       <r>   28.7399    0.0000 </r>
       <r>   30.6018    0.0000 </r>
      </set>
      <set comment="kpoint 7">
       <r>   -0.8470    1.0000 </r>
       <r>    1.5809    1.0000 </r>
       <r>    1.7553    1.0000 </r>
       <r>    3.6249    1.0000 </r>
       <r>    3.6249    1.0000 </r>
       <r>    3.9910    1.0000 </r>
       <r>    4.0486    1.0000 </r>
       <r>    4.8737    1.0000 </r>
       <r>    4.8737    1.0000 </r>
       <r>    5.0972    1.0000 </r>
       <r>    5.4807    1.0096 </r>
       <r>    9.5375   -0.0000 </r>
       <r>   18.9007    0.0000 </r>
       <r>   18.9007    0.0000 </r>
       <r>   22.1546    0.0000 </r>
       <r>   24.2046    0.0000 </r>
       <r>   25.9421    0.0000 </r>
       <r>   27.6639    0.0000 </r>
       <r>   27.6639    0.0000 </r>
       <r>   29.4290    0.0000 </r>
      </set>
      <set comment="kpoint 8">
       <r>   -0.3018    1.0000 </r>
       <r>    1.6517    1.0000 </r>
       <r>    2.0049    1.0000 </r>
       <r>    3.6801    1.0000 </r>
       <r>    3.6801    1.0000 </r>
       <r>    3.7337    1.0000 </r>
       <r>    4.2078    1.0000 </r>
       <r>    4.6213    1.0000 </r>
       <r>    4.6213    1.0000 </r>
       <r>    5.2261    1.0000 </r>
       <r>    5.3140    1.0003 </r>
       <r>    8.4385   -0.0000 </r>
       <r>   19.8360    0.0000 </r>
       <r>   19.8360    0.0000 </r>
       <r>   22.3935    0.0000 </r>
       <r>   24.5024    0.0000 </r>
       <r>   25.1895    0.0000 </r>
       <r>   26.5152    0.0000 </r>
       <r>   26.5152    0.0000 </r>
       <r>   28.3557    0.0000 </r>
      </set>
      <set comment="kpoint 9">
       <r>    0.2549    1.0000 </r>
       <r>    1.6357    1.0000 </r>
       <r>    2.2773    1.0000 </r>
       <r>    3.4551    1.0000 </r>
       <r>    3.7608    1.0000 </r>
       <r>    3.7608    1.0000 </r>
       <r>    4.3815    1.0000 </r>
       <r>    4.3895    1.0000 </r>
       <r>    4.3895    1.0000 </r>
       <r>    5.1344    1.0000 </r>
       <r>    5.4083    1.0026 </r>
       <r>    7.4773   -0.0000 </r>
       <r>   20.8431    0.0000 </r>
       <r>   20.8431    0.0000 </r>
       <r>   22.6859    0.0000 </r>
       <r>   24.5272    0.0000 </r>
       <r>   24.8615    0.0000 </r>
       <r>   25.3416    0.0000 </r>
       <r>   25.3416    0.0000 </r>
       <r>   27.4002    0.0000 </r>
      </set>
      <set comment="kpoint 10">
       <r>    0.7754    1.0000 </r>
       <r>    1.4941    1.0000 </r>
       <r>    2.5659    1.0000 </r>
       <r>    3.1628    1.0000 </r>
       <r>    3.8706    1.0000 </r>
       <r>    3.8706    1.0000 </r>
       <r>    4.1850    1.0000 </r>
       <r>    4.1850    1.0000 </r>
       <r>    4.5657    1.0000 </r>
       <r>    4.9466    1.0000 </r>
       <r>    5.6814    1.0177 </r>
       <r>    6.6891   -0.0000 </r>
       <r>   21.9091    0.0000 </r>
       <r>   21.9091    0.0000 </r>
       <r>   23.0387    0.0000 </r>
       <r>   23.9534    0.0000 </r>
       <r>   24.1716    0.0000 </r>
       <r>   24.1716    0.0000 </r>
       <r>   25.3133    0.0000 </r>
       <r>   26.5738    0.0000 </r>
      </set>
      <set comment="kpoint 11">
       <r>    1.2036    1.0000 </r>
       <r>    1.2036    1.0000 </r>
       <r>    2.8637    1.0000 </r>
       <r>    2.8637    1.0000 </r>
       <r>    4.0119    1.0000 </r>
       <r>    4.0119    1.0000 </r>
       <r>    4.0119    1.0000 </r>
       <r>    4.0119    1.0000 </r>
       <r>    4.7556    1.0000 </r>
       <r>    4.7556    1.0000 </r>
       <r>    6.0943   -0.0337 </r>
       <r>    6.0943   -0.0337 </r>
       <r>   23.0229    0.0000 </r>
       <r>   23.0229    0.0000 </r>
       <r>   23.0229    0.0000 </r>
       <r>   23.0229    0.0000 </r>
       <r>   23.4589    0.0000 </r>
       <r>   23.4589    0.0000 </r>
       <r>   25.8797    0.0000 </r>
       <r>   25.8797    0.0000 </r>
      </set>
      <set comment="kpoint 12">
       <r>   -2.4864    1.0000 </r>
       <r>    1.0430    1.0000 </r>
       <r>    1.0450    1.0000 </r>
       <r>    3.5353    1.0000 </r>
       <r>    3.5622    1.0000 </r>
       <r>    3.6202    1.0000 </r>
       <r>    4.7505    1.0000 </r>
       <r>    4.7819    1.0000 </r>
       <r>    5.8743    0.4790 </r>
       <r>    5.9101    0.3312 </r>
       <r>    6.0063    0.0455 </r>
       <r>   15.4492    0.0000 </r>
       <r>   15.6254    0.0000 </r>
       <r>   16.0335    0.0000 </r>
       <r>   21.7388    0.0000 </r>
       <r>   22.0475    0.0000 </r>
       <r>   27.0558    0.0000 </r>
       <r>   30.2279    0.0000 </r>
       <r>   30.7875    0.0000 </r>
       <r>   30.8608    0.0000 </r>
      </set>
      <set comment="kpoint 13">
       <r>   -2.3315    1.0000 </r>
       <r>    1.1083    1.0000 </r>
       <r>    1.1136    1.0000 </r>
       <r>    3.5119    1.0000 </r>
       <r>    3.5591    1.0000 </r>
       <r>    3.6855    1.0000 </r>
       <r>    4.6906    1.0000 </r>
       <r>    4.8037    1.0000 </r>
       <r>    5.7218    0.9723 </r>
       <r>    5.7827    0.8310 </r>
       <r>    5.9897    0.0791 </r>
       <r>   14.5505    0.0000 </r>
       <r>   15.8385    0.0000 </r>
       <r>   16.3203    0.0000 </r>
       <r>   21.8399    0.0000 </r>
       <r>   22.6830    0.0000 </r>
       <r>   27.5721    0.0000 </r>
       <r>   29.3803    0.0000 </r>
       <r>   30.5698    0.0000 </r>
       <r>   30.7223    0.0000 </r>
      </set>
      <set comment="kpoint 14">
       <r>   -2.0774    1.0000 </r>
       <r>    1.2136    1.0000 </r>
       <r>    1.2215    1.0000 </r>
       <r>    3.4983    1.0000 </r>
       <r>    3.5568    1.0000 </r>
       <r>    3.7703    1.0000 </r>
       <r>    4.5828    1.0000 </r>
       <r>    4.8489    1.0000 </r>
       <r>    5.5175    1.0160 </r>
       <r>    5.5900    1.0319 </r>
       <r>    5.9315    0.2503 </r>
       <r>   13.3444    0.0000 </r>
       <r>   16.2803    0.0000 </r>
       <r>   16.7792    0.0000 </r>
       <r>   21.9360    0.0000 </r>
       <r>   23.3384    0.0000 </r>
       <r>   28.3649    0.0000 </r>
       <r>   28.5209    0.0000 </r>
       <r>   30.1388    0.0000 </r>
       <r>   30.3693    0.0000 </r>
      </set>
      <set comment="kpoint 15">
       <r>   -1.7307    1.0000 </r>
       <r>    1.3460    1.0000 </r>
       <r>    1.3672    1.0000 </r>
       <r>    3.4960    1.0000 </r>
       <r>    3.5582    1.0000 </r>
       <r>    3.8760    1.0000 </r>
       <r>    4.4357    1.0000 </r>
       <r>    4.9107    1.0000 </r>
       <r>    5.2772    1.0001 </r>
       <r>    5.3548    1.0008 </r>
       <r>    5.8392    0.6259 </r>
       <r>   12.0661    0.0000 </r>
       <r>   16.8641    0.0000 </r>
       <r>   17.3878    0.0000 </r>
       <r>   22.0662    0.0000 </r>
       <r>   23.8301    0.0000 </r>
       <r>   27.3400    0.0000 </r>
       <r>   29.4349    0.0000 </r>
       <r>   29.7140    0.0000 </r>
       <r>   29.8923    0.0000 </r>
      </set>
      <set comment="kpoint 16">
       <r>   -1.3015    1.0000 </r>
       <r>    1.4833    1.0000 </r>
       <r>    1.5510    1.0000 </r>
       <r>    3.5074    1.0000 </r>
       <r>    3.5655    1.0000 </r>
       <r>    4.0020    1.0000 </r>
       <r>    4.2563    1.0000 </r>
       <r>    4.9890    1.0000 </r>
       <r>    5.0187    1.0000 </r>
       <r>    5.0994    1.0000 </r>
       <r>    5.7181    0.9780 </r>
       <r>   10.8006   -0.0000 </r>
       <r>   17.5617    0.0000 </r>
       <r>   18.1231    0.0000 </r>
       <r>   22.2394    0.0000 </r>
       <r>   24.1933    0.0000 </r>
       <r>   26.3572    0.0000 </r>
       <r>   28.5266    0.0000 </r>
       <r>   28.7925    0.0000 </r>
       <r>   31.2567    0.0000 </r>
      </set>
      <set comment="kpoint 17">
       <r>   -0.8053    1.0000 </r>
       <r>    1.6021    1.0000 </r>
       <r>    1.7680    1.0000 </r>
       <r>    3.5366    1.0000 </r>
       <r>    3.5728    1.0000 </r>
       <r>    4.0602    1.0000 </r>
       <r>    4.1469    1.0000 </r>
       <r>    4.7584    1.0000 </r>
       <r>    4.8437    1.0000 </r>
       <r>    5.0876    1.0000 </r>
       <r>    5.5734    1.0286 </r>
       <r>    9.5967   -0.0000 </r>
       <r>   18.3478    0.0000 </r>
       <r>   18.9642    0.0000 </r>
       <r>   22.4633    0.0000 </r>
       <r>   24.5111    0.0000 </r>
       <r>   25.4292    0.0000 </r>
       <r>   27.5284    0.0000 </r>
       <r>   27.7133    0.0000 </r>
       <r>   30.1044    0.0000 </r>
      </set>
      <set comment="kpoint 18">
       <r>   -0.2653    1.0000 </r>
       <r>    1.6711    1.0000 </r>
       <r>    2.0126    1.0000 </r>
       <r>    3.5391    1.0000 </r>
       <r>    3.5879    1.0000 </r>
       <r>    3.8986    1.0000 </r>
       <r>    4.3084    1.0000 </r>
       <r>    4.5094    1.0000 </r>
       <r>    4.6030    1.0000 </r>
       <r>    5.2177    1.0000 </r>
       <r>    5.4101    1.0027 </r>
       <r>    8.4915   -0.0000 </r>
       <r>   19.1991    0.0000 </r>
       <r>   19.8931    0.0000 </r>
       <r>   22.7475    0.0000 </r>
       <r>   24.5455    0.0000 </r>
       <r>   24.8499    0.0000 </r>
       <r>   26.5327    0.0000 </r>
       <r>   26.5611    0.0000 </r>
       <r>   29.0190    0.0000 </r>
      </set>
      <set comment="kpoint 19">
       <r>    0.2848    1.0000 </r>
       <r>    1.6526    1.0000 </r>
       <r>    2.2788    1.0000 </r>
       <r>    3.3770    1.0000 </r>
       <r>    3.6652    1.0000 </r>
       <r>    3.8684    1.0000 </r>
       <r>    4.2811    1.0000 </r>
       <r>    4.3885    1.0000 </r>
       <r>    4.4831    1.0000 </r>
       <r>    5.2330    1.0000 </r>
       <r>    5.4032    1.0024 </r>
       <r>    7.5208   -0.0000 </r>
       <r>   20.0936    0.0000 </r>
       <r>   20.8951    0.0000 </r>
       <r>   23.1043    0.0000 </r>
       <r>   23.6837    0.0000 </r>
       <r>   25.2568    0.0000 </r>
       <r>   25.3855    0.0000 </r>
       <r>   25.6042    0.0000 </r>
       <r>   28.0261    0.0000 </r>
      </set>
      <set comment="kpoint 20">
       <r>    0.7983    1.0000 </r>
       <r>    1.5095    1.0000 </r>
       <r>    2.5591    1.0000 </r>
       <r>    3.1252    1.0000 </r>
       <r>    3.7719    1.0000 </r>
       <r>    3.9389    1.0000 </r>
       <r>    4.0803    1.0000 </r>
       <r>    4.2058    1.0000 </r>
       <r>    4.6674    1.0000 </r>
       <r>    5.0469    1.0000 </r>
       <r>    5.6838    1.0159 </r>
       <r>    6.7193   -0.0000 </r>
       <r>   21.0089    0.0000 </r>
       <r>   21.9574    0.0000 </r>
       <r>   22.8153    0.0000 </r>
       <r>   23.5498    0.0000 </r>
       <r>   24.2152    0.0000 </r>
       <r>   24.7881    0.0000 </r>
       <r>   25.7635    0.0000 </r>
       <r>   27.1456    0.0000 </r>
      </set>
      <set comment="kpoint 21">
       <r>    1.2209    1.0000 </r>
       <r>    1.2209    1.0000 </r>
       <r>    2.8452    1.0000 </r>
       <r>    2.8452    1.0000 </r>
       <r>    3.9100    1.0000 </r>
       <r>    3.9100    1.0000 </r>
       <r>    4.0556    1.0000 </r>
       <r>    4.0556    1.0000 </r>
       <r>    4.8567    1.0000 </r>
       <r>    4.8567    1.0000 </r>
       <r>    6.1094   -0.0354 </r>
       <r>    6.1094   -0.0354 </r>
       <r>   21.9223    0.0000 </r>
       <r>   21.9223    0.0000 </r>
       <r>   23.0678    0.0000 </r>
       <r>   23.0678    0.0000 </r>
       <r>   24.1049    0.0000 </r>
       <r>   24.1049    0.0000 </r>
       <r>   26.3904    0.0000 </r>
       <r>   26.3904    0.0000 </r>
      </set>
      <set comment="kpoint 22">
       <r>   -2.1788    1.0000 </r>
       <r>    1.1687    1.0000 </r>
       <r>    1.1848    1.0000 </r>
       <r>    3.4528    1.0000 </r>
       <r>    3.5494    1.0000 </r>
       <r>    3.7856    1.0000 </r>
       <r>    4.6795    1.0000 </r>
       <r>    4.7891    1.0000 </r>
       <r>    5.5309    1.0189 </r>
       <r>    5.6561    1.0307 </r>
       <r>    6.0254    0.0151 </r>
       <r>   14.5322    0.0000 </r>
       <r>   15.1349    0.0000 </r>
       <r>   16.5936    0.0000 </r>
       <r>   22.1107    0.0000 </r>
       <r>   23.2510    0.0000 </r>
       <r>   28.0185    0.0000 </r>
       <r>   28.5469    0.0000 </r>
       <r>   30.2637    0.0000 </r>
       <r>   30.6675    0.0000 </r>
      </set>
      <set comment="kpoint 23">
       <r>   -1.9285    1.0000 </r>
       <r>    1.2657    1.0000 </r>
       <r>    1.2974    1.0000 </r>
       <r>    3.4063    1.0000 </r>
       <r>    3.5366    1.0000 </r>
       <r>    3.9020    1.0000 </r>
       <r>    4.6067    1.0000 </r>
       <r>    4.8190    1.0000 </r>
       <r>    5.2993    1.0002 </r>
       <r>    5.4667    1.0077 </r>
       <r>    6.0146    0.0313 </r>
       <r>   13.5081    0.0000 </r>
       <r>   15.3489    0.0000 </r>
       <r>   17.0332    0.0000 </r>
       <r>   22.2739    0.0000 </r>
       <r>   23.9790    0.0000 </r>
       <r>   27.5019    0.0000 </r>
       <r>   28.8657    0.0000 </r>
       <r>   29.7950    0.0000 </r>
       <r>   30.4314    0.0000 </r>
      </set>
      <set comment="kpoint 24">
       <r>   -1.5876    1.0000 </r>
       <r>    1.3910    1.0000 </r>
       <r>    1.4438    1.0000 </r>
       <r>    3.3757    1.0000 </r>
       <r>    3.5233    1.0000 </r>
       <r>    4.0339    1.0000 </r>
       <r>    4.4882    1.0000 </r>
       <r>    4.8798    1.0000 </r>
       <r>    5.0436    1.0000 </r>
       <r>    5.2385    1.0000 </r>
       <r>    5.9604    0.1554 </r>
       <r>   12.2417    0.0000 </r>
       <r>   15.8642    0.0000 </r>
       <r>   17.6198    0.0000 </r>
       <r>   22.4279    0.0000 </r>
       <r>   24.5832    0.0000 </r>
       <r>   26.4170    0.0000 </r>
       <r>   29.1092    0.0000 </r>
       <r>   29.8552    0.0000 </r>
       <r>   30.1423    0.0000 </r>
      </set>
      <set comment="kpoint 25">
       <r>   -1.1671    1.0000 </r>
       <r>    1.5269    1.0000 </r>
       <r>    1.6196    1.0000 </r>
       <r>    3.3634    1.0000 </r>
       <r>    3.5089    1.0000 </r>
       <r>    4.1805    1.0000 </r>
       <r>    4.3455    1.0000 </r>
       <r>    4.7788    1.0000 </r>
       <r>    4.9592    1.0000 </r>
       <r>    4.9967    1.0000 </r>
       <r>    5.8689    0.5016 </r>
       <r>   10.9733   -0.0000 </r>
       <r>   16.4953    0.0000 </r>
       <r>   18.3329    0.0000 </r>
       <r>   22.6099    0.0000 </r>
       <r>   25.0524    0.0000 </r>
       <r>   25.3510    0.0000 </r>
       <r>   28.2673    0.0000 </r>
       <r>   28.9489    0.0000 </r>
       <r>   31.7646    0.0000 </r>
      </set>
      <set comment="kpoint 26">
       <r>   -0.6832    1.0000 </r>
       <r>    1.6445    1.0000 </r>
       <r>    1.8239    1.0000 </r>
       <r>    3.3730    1.0000 </r>
       <r>    3.4825    1.0000 </r>
       <r>    4.2022    1.0000 </r>
       <r>    4.3410    1.0000 </r>
       <r>    4.5182    1.0000 </r>
       <r>    4.7634    1.0000 </r>
       <r>    5.0591    1.0000 </r>
       <r>    5.7468    0.9255 </r>
       <r>    9.7601   -0.0000 </r>
       <r>   17.2076    0.0000 </r>
       <r>   19.1533    0.0000 </r>
       <r>   22.8345    0.0000 </r>
       <r>   24.3209    0.0000 </r>
       <r>   25.4679    0.0000 </r>
       <r>   27.3705    0.0000 </r>
       <r>   27.8599    0.0000 </r>
       <r>   31.4222    0.0000 </r>
      </set>
      <set comment="kpoint 27">
       <r>   -0.1598    1.0000 </r>
       <r>    1.7089    1.0000 </r>
       <r>    2.0535    1.0000 </r>
       <r>    3.4081    1.0000 </r>
       <r>    3.4144    1.0000 </r>
       <r>    4.0966    1.0000 </r>
       <r>    4.2726    1.0000 </r>
       <r>    4.5132    1.0000 </r>
       <r>    4.5567    1.0000 </r>
       <r>    5.1923    1.0000 </r>
       <r>    5.6000    1.0335 </r>
       <r>    8.6388   -0.0000 </r>
       <r>   17.9796    0.0000 </r>
       <r>   20.0641    0.0000 </r>
       <r>   23.1121    0.0000 </r>
       <r>   23.3276    0.0000 </r>
       <r>   25.9000    0.0000 </r>
       <r>   26.4970    0.0000 </r>
       <r>   26.6970    0.0000 </r>
       <r>   30.3655    0.0000 </r>
      </set>
      <set comment="kpoint 28">
       <r>    0.3689    1.0000 </r>
       <r>    1.6846    1.0000 </r>
       <r>    2.3021    1.0000 </r>
       <r>    3.2729    1.0000 </r>
       <r>    3.4718    1.0000 </r>
[...]
       </set>
       <set comment="band 16">
        <r>  0.0000  0.0872  0.0000  0.0872  0.0000  0.1117  0.0000  0.1118  0.0000 </r>
        <r>  0.0000  0.0872  0.0000  0.0872  0.0000  0.1118  0.0000  0.1117  0.0000 </r>
       </set>
       <set comment="band 17">
        <r>  0.2982  0.0000  0.0794  0.0000  0.0208  0.0000  0.0021  0.0000  0.0000 </r>
        <r>  0.2982  0.0000  0.0794  0.0000  0.0208  0.0000  0.0021  0.0000  0.0000 </r>
       </set>
       <set comment="band 18">
        <r>  0.2982  0.0000  0.0794  0.0000  0.0208  0.0000  0.0021  0.0000  0.0000 </r>
        <r>  0.2982  0.0000  0.0794  0.0000  0.0208  0.0000  0.0021  0.0000  0.0000 </r>
       </set>
       <set comment="band 19">
        <r>  0.0000  0.0003  0.0000  0.0003  0.0000  0.0489  0.0000  0.0489  0.0000 </r>
        <r>  0.0000  0.0003  0.0000  0.0003  0.0000  0.0489  0.0000  0.0489  0.0000 </r>
       </set>
       <set comment="band 20">
        <r>  0.0000  0.0003  0.0000  0.0003  0.0000  0.0489  0.0000  0.0489  0.0000 </r>
        <r>  0.0000  0.0003  0.0000  0.0003  0.0000  0.0489  0.0000  0.0489  0.0000 </r>
       </set>
      </set>
      <set comment="kpoint 283">
       <set comment="band 1">
        <r>  0.0068  0.0158  0.0158  0.0158  0.1339  0.1338  0.0000  0.1338  0.0000 </r>
        <r>  0.0068  0.0158  0.0158  0.0158  0.1339  0.1338  0.0000  0.1338  0.0000 </r>
       </set>
       <set comment="band 2">
        <r>  0.0000  0.0092  0.0408  0.0111  0.2575  0.0704  0.0052  0.0584  0.0000 </r>
        <r>  0.0000  0.0092  0.0408  0.0111  0.2575  0.0704  0.0052  0.0584  0.0000 </r>
       </set>
       <set comment="band 3">
        <r>  0.0000  0.0315  0.0000  0.0296  0.0002  0.1871  0.0000  0.1991  0.0052 </r>
        <r>  0.0000  0.0315  0.0000  0.0296  0.0002  0.1871  0.0000  0.1991  0.0052 </r>
       </set>
       <set comment="band 4">
        <r>  0.0108  0.0350  0.0349  0.0350  0.1066  0.1067  0.0000  0.1068  0.0000 </r>
        <r>  0.0108  0.0350  0.0349  0.0350  0.1066  0.1067  0.0000  0.1068  0.0000 </r>
       </set>
       <set comment="band 5">
        <r>  0.0000  0.0138  0.0600  0.0163  0.2297  0.0625  0.0082  0.0527  0.0000 </r>
        <r>  0.0000  0.0138  0.0600  0.0163  0.2297  0.0625  0.0082  0.0527  0.0000 </r>
       </set>
       <set comment="band 6">
        <r>  0.0000  0.0463  0.0000  0.0438  0.0001  0.1675  0.0000  0.1772  0.0082 </r>
        <r>  0.0000  0.0463  0.0000  0.0438  0.0001  0.1675  0.0000  0.1772  0.0082 </r>
       </set>
       <set comment="band 7">
        <r>  0.0000  0.0000  0.0000  0.0000  0.0077  0.0014  0.4782  0.0025  0.0035 </r>
        <r>  0.0000  0.0000  0.0000  0.0000  0.0077  0.0014  0.4782  0.0025  0.0035 </r>
       </set>
       <set comment="band 8">
        <r>  0.0000  0.0000  0.0000  0.0000  0.0001  0.0064  0.0035  0.0052  0.4782 </r>
        <r>  0.0000  0.0000  0.0000  0.0000  0.0001  0.0064  0.0035  0.0052  0.4782 </r>
       </set>
       <set comment="band 9">
        <r>  0.0000  0.0000  0.0000  0.0000  0.0047  0.0009  0.4828  0.0016  0.0035 </r>
        <r>  0.0000  0.0000  0.0000  0.0000  0.0047  0.0009  0.4828  0.0016  0.0035 </r>
       </set>
       <set comment="band 10">
        <r>  0.0000  0.0000  0.0000  0.0000  0.0000  0.0039  0.0035  0.0032  0.4828 </r>
        <r>  0.0000  0.0000  0.0000  0.0000  0.0000  0.0039  0.0035  0.0032  0.4828 </r>
       </set>
       <set comment="band 11">
        <r>  0.0298  0.0499  0.0499  0.0499  0.0823  0.0823  0.0000  0.0823  0.0000 </r>
        <r>  0.0298  0.0499  0.0499  0.0499  0.0823  0.0823  0.0000  0.0823  0.0000 </r>
       </set>
       <set comment="band 12">
        <r>  0.0000  0.0264  0.1217  0.0347  0.1513  0.0432  0.0058  0.0328  0.0000 </r>
        <r>  0.0000  0.0264  0.1217  0.0347  0.1513  0.0432  0.0058  0.0328  0.0000 </r>
       </set>
       <set comment="band 13">
        <r>  0.0000  0.0955  0.0002  0.0871  0.0002  0.1084  0.0000  0.1188  0.0058 </r>
        <r>  0.0000  0.0955  0.0002  0.0871  0.0002  0.1084  0.0000  0.1188  0.0058 </r>
       </set>
       <set comment="band 14">
        <r>  0.1951  0.0211  0.0211  0.0211  0.0513  0.0513  0.0000  0.0513  0.0000 </r>
        <r>  0.1951  0.0211  0.0211  0.0211  0.0513  0.0513  0.0000  0.0513  0.0000 </r>
       </set>
       <set comment="band 15">
        <r>  0.0000  0.0248  0.1189  0.0352  0.1480  0.0438  0.0041  0.0308  0.0000 </r>
        <r>  0.0000  0.0248  0.1189  0.0352  0.1480  0.0438  0.0041  0.0308  0.0000 </r>
       </set>
       <set comment="band 16">
        <r>  0.0000  0.0945  0.0003  0.0841  0.0004  0.1047  0.0000  0.1176  0.0041 </r>
        <r>  0.0000  0.0945  0.0003  0.0841  0.0004  0.1047  0.0000  0.1176  0.0041 </r>
       </set>
       <set comment="band 17">
        <r>  0.3634  0.0126  0.0126  0.0126  0.0007  0.0007  0.0000  0.0007  0.0000 </r>
        <r>  0.3634  0.0126  0.0126  0.0126  0.0007  0.0007  0.0000  0.0007  0.0000 </r>
       </set>
       <set comment="band 18">
        <r>  0.2013  0.0392  0.0392  0.0392  0.0258  0.0258  0.0000  0.0258  0.0000 </r>
        <r>  0.2013  0.0392  0.0392  0.0392  0.0258  0.0258  0.0000  0.0258  0.0000 </r>
       </set>
       <set comment="band 19">
        <r>  0.0000  0.0031  0.0062  0.0006  0.0328  0.0029  0.0330  0.0166  0.0021 </r>
        <r>  0.0000  0.0031  0.0062  0.0006  0.0328  0.0029  0.0330  0.0166  0.0021 </r>
       </set>
       <set comment="band 20">
        <r>  0.0000  0.0034  0.0004  0.0060  0.0021  0.0319  0.0021  0.0183  0.0330 </r>
        <r>  0.0000  0.0034  0.0004  0.0060  0.0021  0.0319  0.0021  0.0183  0.0330 </r>
       </set>
      </set>
      <set comment="kpoint 284">
       <set comment="band 1">
        <r>  0.0037  0.0219  0.0219  0.0135  0.1358  0.1194  0.0003  0.1356  0.0009 </r>
        <r>  0.0037  0.0219  0.0219  0.0135  0.1358  0.1194  0.0003  0.1356  0.0009 </r>
       </set>
       <set comment="band 2">
        <r>  0.0037  0.0219  0.0219  0.0135  0.1358  0.1194  0.0003  0.1356  0.0009 </r>
        <r>  0.0037  0.0219  0.0219  0.0135  0.1358  0.1194  0.0003  0.1356  0.0009 </r>
       </set>
       <set comment="band 3">
        <r>  0.0000  0.0375  0.0375  0.0000  0.1833  0.0000  0.0049  0.1834  0.0016 </r>
        <r>  0.0000  0.0375  0.0375  0.0000  0.1832  0.0000  0.0049  0.1833  0.0016 </r>
       </set>
       <set comment="band 4">
        <r>  0.0000  0.0375  0.0375  0.0000  0.1832  0.0000  0.0049  0.1833  0.0016 </r>
        <r>  0.0000  0.0375  0.0375  0.0000  0.1833  0.0000  0.0049  0.1834  0.0016 </r>
       </set>
       <set comment="band 5">
        <r>  0.0021  0.0158  0.0157  0.0644  0.0459  0.2503  0.0002  0.0460  0.0007 </r>
        <r>  0.0021  0.0158  0.0157  0.0644  0.0459  0.2503  0.0002  0.0460  0.0007 </r>
       </set>
       <set comment="band 6">
        <r>  0.0021  0.0158  0.0157  0.0644  0.0459  0.2503  0.0002  0.0460  0.0007 </r>
        <r>  0.0021  0.0158  0.0157  0.0644  0.0459  0.2503  0.0002  0.0460  0.0007 </r>
       </set>
       <set comment="band 7">
        <r>  0.0000  0.0000  0.0000  0.0000  0.0046  0.0000  0.3652  0.0045  0.1192 </r>
        <r>  0.0000  0.0000  0.0000  0.0000  0.0046  0.0000  0.3652  0.0045  0.1192 </r>
       </set>
       <set comment="band 8">
        <r>  0.0000  0.0000  0.0000  0.0000  0.0046  0.0000  0.3652  0.0045  0.1192 </r>
        <r>  0.0000  0.0000  0.0000  0.0000  0.0046  0.0000  0.3652  0.0045  0.1192 </r>
       </set>
       <set comment="band 9">
        <r>  0.0000  0.0000  0.0000  0.0000  0.0015  0.0001  0.1207  0.0016  0.3698 </r>
        <r>  0.0000  0.0000  0.0000  0.0000  0.0015  0.0001  0.1207  0.0016  0.3698 </r>
       </set>
       <set comment="band 10">
        <r>  0.0000  0.0000  0.0000  0.0000  0.0015  0.0001  0.1207  0.0016  0.3698 </r>
        <r>  0.0000  0.0000  0.0000  0.0000  0.0015  0.0001  0.1207  0.0016  0.3698 </r>
       </set>
       <set comment="band 11">
        <r>  0.0160  0.0425  0.0425  0.0824  0.0639  0.1079  0.0003  0.0639  0.0008 </r>
        <r>  0.0160  0.0425  0.0425  0.0825  0.0639  0.1079  0.0003  0.0639  0.0008 </r>
       </set>
       <set comment="band 12">
        <r>  0.0160  0.0425  0.0425  0.0825  0.0639  0.1079  0.0003  0.0639  0.0008 </r>
        <r>  0.0160  0.0425  0.0425  0.0824  0.0639  0.1079  0.0003  0.0639  0.0008 </r>
       </set>
       <set comment="band 13">
        <r>  0.0000  0.0908  0.0908  0.0000  0.1124  0.0000  0.0036  0.1124  0.0012 </r>
        <r>  0.0000  0.0910  0.0910  0.0000  0.1122  0.0000  0.0036  0.1122  0.0012 </r>
       </set>
       <set comment="band 14">
        <r>  0.0000  0.0910  0.0910  0.0000  0.1122  0.0000  0.0036  0.1122  0.0012 </r>
        <r>  0.0000  0.0908  0.0908  0.0000  0.1124  0.0000  0.0036  0.1124  0.0012 </r>
       </set>
       <set comment="band 15">
        <r>  0.0884  0.0194  0.0194  0.0886  0.0406  0.1103  0.0001  0.0406  0.0003 </r>
        <r>  0.0884  0.0194  0.0194  0.0886  0.0406  0.1103  0.0001  0.0406  0.0003 </r>
       </set>
       <set comment="band 16">
        <r>  0.0884  0.0194  0.0194  0.0886  0.0406  0.1103  0.0001  0.0406  0.0003 </r>
        <r>  0.0884  0.0194  0.0194  0.0886  0.0406  0.1103  0.0001  0.0406  0.0003 </r>
       </set>
       <set comment="band 17">
        <r>  0.2943  0.0303  0.0303  0.0084  0.0127  0.0122  0.0001  0.0127  0.0002 </r>
        <r>  0.2943  0.0303  0.0303  0.0084  0.0127  0.0122  0.0001  0.0127  0.0002 </r>
       </set>
       <set comment="band 18">
        <r>  0.2943  0.0303  0.0303  0.0084  0.0127  0.0122  0.0001  0.0127  0.0002 </r>
        <r>  0.2943  0.0303  0.0303  0.0084  0.0127  0.0122  0.0001  0.0127  0.0002 </r>
       </set>
       <set comment="band 19">
        <r>  0.0000  0.0018  0.0018  0.0000  0.0210  0.0000  0.0090  0.0210  0.0030 </r>
        <r>  0.0000  0.0021  0.0021  0.0000  0.0188  0.0000  0.0100  0.0188  0.0033 </r>
       </set>
       <set comment="band 20">
        <r>  0.0000  0.0021  0.0021  0.0000  0.0188  0.0000  0.0100  0.0188  0.0033 </r>
        <r>  0.0000  0.0018  0.0018  0.0000  0.0210  0.0000  0.0090  0.0210  0.0030 </r>
       </set>
      </set>
      <set comment="kpoint 285">
       <set comment="band 1">
        <r>  0.0000  0.0312  0.0000  0.0312  0.0000  0.1952  0.0000  0.1952  0.0000 </r>
        <r>  0.0000  0.0312  0.0000  0.0312  0.0000  0.1952  0.0000  0.1952  0.0000 </r>
       </set>
       <set comment="band 2">
        <r>  0.0000  0.0312  0.0000  0.0312  0.0000  0.1952  0.0000  0.1952  0.0000 </r>
        <r>  0.0000  0.0312  0.0000  0.0312  0.0000  0.1952  0.0000  0.1952  0.0000 </r>
       </set>
       <set comment="band 3">
        <r>  0.0029  0.0000  0.0745  0.0000  0.3658  0.0000  0.0043  0.0000  0.0000 </r>
        <r>  0.0029  0.0000  0.0745  0.0000  0.3659  0.0000  0.0043  0.0000  0.0000 </r>
       </set>
       <set comment="band 4">
        <r>  0.0029  0.0000  0.0745  0.0000  0.3659  0.0000  0.0043  0.0000  0.0000 </r>
        <r>  0.0029  0.0000  0.0745  0.0000  0.3658  0.0000  0.0043  0.0000  0.0000 </r>
       </set>
       <set comment="band 5">
        <r>  0.0000  0.0461  0.0000  0.0461  0.0000  0.1755  0.0000  0.1755  0.0000 </r>
        <r>  0.0000  0.0461  0.0000  0.0461  0.0000  0.1755  0.0000  0.1755  0.0000 </r>
       </set>
       <set comment="band 6">
        <r>  0.0000  0.0461  0.0000  0.0461  0.0000  0.1755  0.0000  0.1755  0.0000 </r>
        <r>  0.0000  0.0461  0.0000  0.0461  0.0000  0.1755  0.0000  0.1755  0.0000 </r>
       </set>
       <set comment="band 7">
        <r>  0.0000  0.0000  0.0000  0.0000  0.0060  0.0000  0.4875  0.0000  0.0000 </r>
        <r>  0.0000  0.0000  0.0000  0.0000  0.0060  0.0000  0.4875  0.0000  0.0000 </r>
       </set>
       <set comment="band 8">
        <r>  0.0000  0.0000  0.0000  0.0000  0.0060  0.0000  0.4875  0.0000  0.0000 </r>
        <r>  0.0000  0.0000  0.0000  0.0000  0.0060  0.0000  0.4875  0.0000  0.0000 </r>
       </set>
       <set comment="band 9">
        <r>  0.0000  0.0000  0.0000  0.0000  0.0000  0.0000  0.0000  0.0000  0.4939 </r>
        <r>  0.0000  0.0000  0.0000  0.0000  0.0000  0.0000  0.0000  0.0000  0.4937 </r>
       </set>
       <set comment="band 10">
        <r>  0.0000  0.0000  0.0000  0.0000  0.0000  0.0000  0.0000  0.0000  0.4937 </r>
        <r>  0.0000  0.0000  0.0000  0.0000  0.0000  0.0000  0.0000  0.0000  0.4939 </r>
       </set>
       <set comment="band 11">
        <r>  0.0000  0.0911  0.0000  0.0911  0.0000  0.1167  0.0000  0.1167  0.0000 </r>
        <r>  0.0000  0.0911  0.0000  0.0911  0.0000  0.1167  0.0000  0.1167  0.0000 </r>
       </set>
       <set comment="band 12">
        <r>  0.0000  0.0911  0.0000  0.0911  0.0000  0.1167  0.0000  0.1167  0.0000 </r>
        <r>  0.0000  0.0911  0.0000  0.0911  0.0000  0.1167  0.0000  0.1167  0.0000 </r>
       </set>
       <set comment="band 13">
        <r>  0.0365  0.0000  0.1556  0.0000  0.2196  0.0000  0.0030  0.0000  0.0000 </r>
        <r>  0.0365  0.0000  0.1556  0.0000  0.2196  0.0000  0.0030  0.0000  0.0000 </r>
       </set>
       <set comment="band 14">
        <r>  0.0365  0.0000  0.1556  0.0000  0.2196  0.0000  0.0030  0.0000  0.0000 </r>
        <r>  0.0365  0.0000  0.1556  0.0000  0.2196  0.0000  0.0030  0.0000  0.0000 </r>
       </set>
       <set comment="band 15">
        <r>  0.0000  0.0895  0.0000  0.0895  0.0000  0.1132  0.0000  0.1132  0.0000 </r>
        <r>  0.0000  0.0895  0.0000  0.0895  0.0000  0.1132  0.0000  0.1132  0.0000 </r>
       </set>
       <set comment="band 16">
        <r>  0.0000  0.0895  0.0000  0.0895  0.0000  0.1132  0.0000  0.1132  0.0000 </r>
        <r>  0.0000  0.0895  0.0000  0.0895  0.0000  0.1132  0.0000  0.1132  0.0000 </r>
       </set>
       <set comment="band 17">
        <r>  0.3661  0.0000  0.0286  0.0000  0.0094  0.0000  0.0002  0.0000  0.0000 </r>
        <r>  0.3661  0.0000  0.0286  0.0000  0.0094  0.0000  0.0002  0.0000  0.0000 </r>
       </set>
       <set comment="band 18">
        <r>  0.3661  0.0000  0.0286  0.0000  0.0094  0.0000  0.0002  0.0000  0.0000 </r>
        <r>  0.3661  0.0000  0.0286  0.0000  0.0094  0.0000  0.0002  0.0000  0.0000 </r>
       </set>
       <set comment="band 19">
        <r>  0.0000  0.0007  0.0000  0.0007  0.0000  0.0252  0.0000  0.0252  0.0000 </r>
        <r>  0.0000  0.0007  0.0000  0.0007  0.0000  0.0252  0.0000  0.0252  0.0000 </r>
       </set>
       <set comment="band 20">
        <r>  0.0000  0.0007  0.0000  0.0007  0.0000  0.0252  0.0000  0.0252  0.0000 </r>
        <r>  0.0000  0.0007  0.0000  0.0007  0.0000  0.0252  0.0000  0.0252  0.0000 </r>
       </set>
      </set>
      <set comment="kpoint 286">
       <set comment="band 1">
        <r>  0.0000  0.0000  0.0313  0.0000  0.5914  0.0000  0.0000  0.0000  0.0000 </r>
        <r>  0.0000  0.0000  0.1220  0.0000  0.1517  0.0000  0.0000  0.0000  0.0000 </r>
       </set>
       <set comment="band 2">
        <r>  0.0000  0.0000  0.1220  0.0000  0.1517  0.0000  0.0000  0.0000  0.0000 </r>
        <r>  0.0000  0.0000  0.0313  0.0000  0.5914  0.0000  0.0000  0.0000  0.0000 </r>
       </set>
       <set comment="band 3">
        <r>  0.0000  0.0000  0.0000  0.0865  0.0000  0.3235  0.0000  0.0000  0.0000 </r>
        <r>  0.0000  0.0000  0.0000  0.0667  0.0000  0.4196  0.0000  0.0000  0.0000 </r>
       </set>
       <set comment="band 4">
        <r>  0.0000  0.0000  0.0000  0.0667  0.0000  0.4196  0.0000  0.0000  0.0000 </r>
        <r>  0.0000  0.0000  0.0000  0.0865  0.0000  0.3235  0.0000  0.0000  0.0000 </r>
       </set>
       <set comment="band 5">
        <r>  0.0000  0.0530  0.0000  0.0000  0.0000  0.0000  0.0000  0.4861  0.0000 </r>
        <r>  0.0000  0.1002  0.0000  0.0000  0.0000  0.0000  0.0000  0.2570  0.0000 </r>
       </set>
       <set comment="band 6">
        <r>  0.0000  0.1002  0.0000  0.0000  0.0000  0.0000  0.0000  0.2570  0.0000 </r>
        <r>  0.0000  0.0530  0.0000  0.0000  0.0000  0.0000  0.0000  0.4861  0.0000 </r>
       </set>
       <set comment="band 7">
        <r>  0.0000  0.0000  0.0000  0.0000  0.0000  0.0000  0.3109  0.0000  0.0023 </r>
        <r>  0.0000  0.0000  0.0000  0.0000  0.0000  0.0000  0.6694  0.0000  0.0050 </r>
       </set>
       <set comment="band 8">
        <r>  0.0000  0.0000  0.0000  0.0000  0.0000  0.0000  0.6694  0.0000  0.0050 </r>
        <r>  0.0000  0.0000  0.0000  0.0000  0.0000  0.0000  0.3109  0.0000  0.0023 </r>
       </set>
       <set comment="band 9">
        <r>  0.0000  0.0000  0.0000  0.0000  0.0000  0.0000  0.0007  0.0000  0.0911 </r>
        <r>  0.0000  0.0000  0.0000  0.0000  0.0000  0.0000  0.0067  0.0000  0.8892 </r>
       </set>
       <set comment="band 10">
        <r>  0.0000  0.0000  0.0000  0.0000  0.0000  0.0000  0.0067  0.0000  0.8892 </r>
        <r>  0.0000  0.0000  0.0000  0.0000  0.0000  0.0000  0.0007  0.0000  0.0911 </r>
       </set>
       <set comment="band 11">
        <r>  0.0000  0.0000  0.0235  0.0000  0.4290  0.0000  0.0000  0.0000  0.0000 </r>
        <r>  0.0000  0.0000  0.3399  0.0000  0.0297  0.0000  0.0000  0.0000  0.0000 </r>
       </set>
       <set comment="band 12">
        <r>  0.0000  0.0000  0.3399  0.0000  0.0297  0.0000  0.0000  0.0000  0.0000 </r>
        <r>  0.0000  0.0000  0.0235  0.0000  0.4290  0.0000  0.0000  0.0000  0.0000 </r>
       </set>
       <set comment="band 13">
        <r>  0.0000  0.0000  0.0000  0.3042  0.0000  0.0747  0.0000  0.0000  0.0000 </r>
        <r>  0.0000  0.0000  0.0000  0.0592  0.0000  0.3839  0.0000  0.0000  0.0000 </r>
       </set>
       <set comment="band 14">
        <r>  0.0000  0.0000  0.0000  0.0592  0.0000  0.3839  0.0000  0.0000  0.0000 </r>
        <r>  0.0000  0.0000  0.0000  0.3042  0.0000  0.0747  0.0000  0.0000  0.0000 </r>
       </set>
       <set comment="band 15">
        <r>  0.0000  0.1930  0.0000  0.0000  0.0000  0.0000  0.0000  0.2150  0.0000 </r>
        <r>  0.0000  0.1704  0.0000  0.0000  0.0000  0.0000  0.0000  0.2436  0.0000 </r>
       </set>
       <set comment="band 16">
        <r>  0.0000  0.1704  0.0000  0.0000  0.0000  0.0000  0.0000  0.2436  0.0000 </r>
        <r>  0.0000  0.1930  0.0000  0.0000  0.0000  0.0000  0.0000  0.2150  0.0000 </r>
       </set>
       <set comment="band 17">
        <r>  0.1093  0.0000  0.0000  0.0000  0.0000  0.0000  0.0000  0.0000  0.0000 </r>
        <r>  0.7038  0.0000  0.0000  0.0000  0.0000  0.0000  0.0000  0.0000  0.0000 </r>
       </set>
       <set comment="band 18">
        <r>  0.7038  0.0000  0.0000  0.0000  0.0000  0.0000  0.0000  0.0000  0.0000 </r>
        <r>  0.1093  0.0000  0.0000  0.0000  0.0000  0.0000  0.0000  0.0000  0.0000 </r>
       </set>
       <set comment="band 19">
        <r>  0.0000  0.0000  0.0000  0.0000  0.0000  0.0000  0.0000  0.0000  0.0000 </r>
        <r>  0.0000  0.0000  0.0000  0.0000  0.0000  0.0000  0.0000  0.0000  0.0000 </r>
       </set>
       <set comment="band 20">
        <r>  0.0000  0.0000  0.0000  0.0000  0.0000  0.0000  0.0000  0.0000  0.0000 </r>
        <r>  0.0000  0.0000  0.0000  0.0000  0.0000  0.0000  0.0000  0.0000  0.0000 </r>
       </set>
      </set>
     </set>
    </set>
   </array>
  </projected>
 </calculation>
 <structure name="finalpos" >
  <crystal>
   <varray name="basis" >
    <v>       2.82809240      -0.00000000       0.00000000 </v>
    <v>       0.00000000       2.82809240       0.00000000 </v>
    <v>       0.00000000      -0.00000000       2.82809240 </v>
   </varray>
   <i name="volume">     22.61938467 </i>
   <varray name="rec_basis" >
    <v>       0.35359524      -0.00000000      -0.00000000 </v>
    <v>       0.00000000       0.35359524       0.00000000 </v>
    <v>      -0.00000000      -0.00000000       0.35359524 </v>
   </varray>
  </crystal>
  <varray name="positions" >
   <v>      -0.00000000       0.00000000      -0.00000000 </v>
   <v>       0.50000000       0.50000000       0.50000000 </v>
  </varray>
 </structure>
</modeling>
