   1   1   0   0
  0.1408159E+02  0.2710538E-09  0.2710538E-09  0.2710538E-09  0.5000000E-15
  1.000000000000000E-004
  CAR 
 unknown system                          
     38.26733104     -6.30113161  301     10.17358750      1.00000000
     -6.301  0.0000E+00  0.0000E+00
     -6.153  0.0000E+00  0.0000E+00
     -6.004  0.0000E+00  0.0000E+00
     -5.855  0.0000E+00  0.0000E+00
     -5.707  0.0000E+00  0.0000E+00
     -5.558  0.0000E+00  0.0000E+00
     -5.410  0.0000E+00  0.0000E+00
     -5.261  0.0000E+00  0.0000E+00
     -5.113  0.0000E+00  0.0000E+00
     -4.964  0.0000E+00  0.0000E+00
     -4.816  0.0000E+00  0.0000E+00
     -4.667  0.0000E+00  0.0000E+00
     -4.518  0.1228E-15  0.1825E-16
     -4.370  0.1495E-06  0.2221E-07
     -4.221  0.4248E-04  0.6334E-05
     -4.073  0.5016E-03  0.8084E-04
     -3.924  0.3239E-03  0.1290E-03
     -3.776  0.1031E-02  0.2821E-03
     -3.627  0.4823E-03  0.3537E-03
     -3.478  0.4893E-03  0.4264E-03
     -3.330  0.1633E-02  0.6690E-03
     -3.181  0.9468E-03  0.8097E-03
     -3.033  0.1274E-02  0.9990E-03
     -2.884  0.3231E-03  0.1047E-02
     -2.736  0.2199E-02  0.1374E-02
     -2.587  0.1247E-02  0.1559E-02
     -2.439  0.1186E-02  0.1735E-02
     -2.290  0.1524E-02  0.1961E-02
     -2.141  0.4050E-03  0.2022E-02
     -1.993  0.2688E-02  0.2421E-02
     -1.844  0.1558E-02  0.2652E-02
     -1.696  0.3039E-02  0.3104E-02
     -1.547  0.3558E-03  0.3157E-02
     -1.399  0.8973E-03  0.3290E-02
     -1.250  0.2197E-02  0.3616E-02
     -1.101  0.1647E-02  0.3861E-02
     -0.953  0.2896E-02  0.4291E-02
     -0.804  0.9030E-03  0.4425E-02
     -0.656  0.4246E-02  0.5056E-02
     -0.507  0.1133E-02  0.5224E-02
     -0.359  0.1828E-02  0.5496E-02
     -0.210  0.6626E-03  0.5594E-02
     -0.062  0.1734E-02  0.5852E-02
      0.087  0.3188E-02  0.6326E-02
      0.236  0.2893E-02  0.6755E-02
      0.384  0.3964E-02  0.7344E-02
      0.533  0.1495E-03  0.7367E-02
      0.681  0.3443E-02  0.7878E-02
      0.830  0.1980E-02  0.8172E-02
      0.978  0.2463E-02  0.8538E-02
      1.127  0.7566E-03  0.8651E-02
      1.276  0.1447E-02  0.8866E-02
      1.424  0.5693E-02  0.9711E-02
      1.573  0.1947E-02  0.1000E-01
      1.721  0.4481E-02  0.1067E-01
      1.870  0.1243E-02  0.1085E-01
      2.018  0.2691E-02  0.1125E-01
      2.167  0.1845E-02  0.1152E-01
      2.315  0.4558E-02  0.1220E-01
      2.464  0.1090E-02  0.1236E-01
      2.613  0.2016E-02  0.1266E-01
      2.761  0.3650E-02  0.1321E-01
      2.910  0.2730E-02  0.1361E-01
      3.058  0.4925E-02  0.1434E-01
      3.207  0.1094E-02  0.1451E-01
      3.355  0.6014E-02  0.1540E-01
      3.504  0.2271E-02  0.1574E-01
      3.652  0.1867E-02  0.1601E-01
      3.801  0.7975E-03  0.1613E-01
      3.950  0.2948E-02  0.1657E-01
      4.098  0.2462E-02  0.1694E-01
      4.247  0.4675E-02  0.1763E-01
      4.395  0.5732E-02  0.1848E-01
      4.544  0.1111E-02  0.1865E-01
      4.692  0.3141E-02  0.1911E-01
      4.841  0.4191E-02  0.1974E-01
      4.990  0.4530E-02  0.2041E-01
      5.138  0.1835E-02  0.2068E-01
      5.287  0.3679E-02  0.2123E-01
      5.435  0.4882E-02  0.2195E-01
      5.584  0.2805E-02  0.2237E-01
      5.732  0.1392E-02  0.2258E-01
      5.881  0.1444E-02  0.2279E-01
      6.029  0.4648E-02  0.2348E-01
      6.178  0.4628E-02  0.2417E-01
      6.327  0.5413E-02  0.2497E-01
      6.475  0.2631E-02  0.2536E-01
      6.624  0.1988E-02  0.2566E-01
      6.772  0.4935E-02  0.2639E-01
      6.921  0.4973E-02  0.2713E-01
      7.069  0.3125E-02  0.2760E-01
      7.218  0.2264E-02  0.2793E-01
      7.367  0.7236E-02  0.2901E-01
      7.515  0.1359E-02  0.2921E-01
      7.664  0.1435E-02  0.2942E-01
      7.812  0.1486E-02  0.2964E-01
      7.961  0.4206E-02  0.3027E-01
      8.109  0.5094E-02  0.3103E-01
      8.258  0.8822E-02  0.3234E-01
      8.406  0.4916E-02  0.3307E-01
      8.555  0.1798E-02  0.3333E-01
      8.704  0.2360E-02  0.3368E-01
      8.852  0.5896E-02  0.3456E-01
      9.001  0.2300E-02  0.3490E-01
      9.149  0.2115E-02  0.3522E-01
      9.298  0.5346E-02  0.3601E-01
      9.446  0.4840E-02  0.3673E-01
      9.595  0.5041E-02  0.3748E-01
      9.744  0.9760E-03  0.3762E-01
      9.892  0.5978E-02  0.3851E-01
     10.041  0.3897E-02  0.3909E-01
     10.189  0.6840E-02  0.4011E-01
     10.338  0.4405E-02  0.4076E-01
     10.486  0.2804E-02  0.4118E-01
     10.635  0.1002E-02  0.4133E-01
     10.783  0.7277E-02  0.4241E-01
     10.932  0.6347E-02  0.4335E-01
     11.081  0.3157E-02  0.4382E-01
     11.229  0.5241E-02  0.4460E-01
     11.378  0.5620E-02  0.4543E-01
     11.526  0.2939E-02  0.4587E-01
     11.675  0.1525E-02  0.4610E-01
     11.823  0.5556E-02  0.4692E-01
     11.972  0.2794E-02  0.4734E-01
     12.120  0.8301E-02  0.4857E-01
     12.269  0.5616E-02  0.4940E-01
     12.418  0.5817E-02  0.5027E-01
     12.566  0.4866E-02  0.5099E-01
     12.715  0.2991E-02  0.5143E-01
     12.863  0.4823E-02  0.5215E-01
     13.012  0.4502E-02  0.5282E-01
     13.160  0.7700E-02  0.5396E-01
     13.309  0.6217E-02  0.5489E-01
     13.458  0.3618E-02  0.5543E-01
     13.606  0.4633E-02  0.5611E-01
     13.755  0.5226E-02  0.5689E-01
     13.903  0.6282E-02  0.5782E-01
     14.052  0.6283E-02  0.5876E-01
     14.200  0.3707E-02  0.5931E-01
     14.349  0.5956E-02  0.6019E-01
     14.497  0.4608E-02  0.6088E-01
     14.646  0.8150E-02  0.6209E-01
     14.795  0.4299E-02  0.6273E-01
     14.943  0.3850E-02  0.6330E-01
     15.092  0.5833E-02  0.6416E-01
     15.240  0.1122E-02  0.6433E-01
     15.389  0.3345E-02  0.6483E-01
     15.537  0.6640E-02  0.6581E-01
     15.686  0.5127E-02  0.6658E-01
     15.835  0.8408E-02  0.6783E-01
     15.983  0.3830E-02  0.6839E-01
     16.132  0.5233E-02  0.6917E-01
     16.280  0.2383E-02  0.6953E-01
     16.429  0.5404E-02  0.7033E-01
     16.577  0.3461E-02  0.7084E-01
     16.726  0.3780E-02  0.7140E-01
     16.874  0.4961E-02  0.7214E-01
     17.023  0.6693E-02  0.7314E-01
     17.172  0.5102E-02  0.7389E-01
     17.320  0.3216E-02  0.7437E-01
     17.469  0.4022E-02  0.7497E-01
     17.617  0.7089E-02  0.7602E-01
     17.766  0.4486E-02  0.7669E-01
     17.914  0.3276E-02  0.7718E-01
     18.063  0.4594E-02  0.7786E-01
     18.212  0.9673E-02  0.7929E-01
     18.360  0.7187E-02  0.8036E-01
     18.509  0.3636E-02  0.8090E-01
     18.657  0.3272E-02  0.8139E-01
     18.806  0.6706E-02  0.8238E-01
     18.954  0.4222E-02  0.8301E-01
     19.103  0.4150E-02  0.8363E-01
     19.251  0.7281E-02  0.8471E-01
     19.400  0.8233E-02  0.8593E-01
     19.549  0.1578E-02  0.8617E-01
     19.697  0.3359E-02  0.8667E-01
     19.846  0.3044E-02  0.8712E-01
     19.994  0.7340E-02  0.8821E-01
     20.143  0.7416E-02  0.8931E-01
     20.291  0.7777E-02  0.9047E-01
     20.440  0.6329E-02  0.9141E-01
     20.589  0.5365E-02  0.9220E-01
     20.737  0.5015E-02  0.9295E-01
     20.886  0.2688E-02  0.9335E-01
     21.034  0.1075E-01  0.9495E-01
     21.183  0.6672E-02  0.9594E-01
     21.331  0.5626E-02  0.9677E-01
     21.480  0.6548E-02  0.9775E-01
     21.628  0.2849E-02  0.9817E-01
     21.777  0.8912E-02  0.9949E-01
     21.926  0.6208E-02  0.1004E+00
     22.074  0.2800E-02  0.1008E+00
     22.223  0.3410E-02  0.1013E+00
     22.371  0.5403E-02  0.1021E+00
     22.520  0.6525E-02  0.1031E+00
     22.668  0.5896E-02  0.1040E+00
     22.817  0.3909E-02  0.1046E+00
     22.965  0.4653E-02  0.1053E+00
     23.114  0.8860E-02  0.1066E+00
     23.263  0.7409E-02  0.1077E+00
     23.411  0.1066E-01  0.1093E+00
     23.560  0.7263E-02  0.1103E+00
     23.708  0.8838E-02  0.1117E+00
     23.857  0.2335E-02  0.1120E+00
     24.005  0.4774E-02  0.1127E+00
     24.154  0.6042E-02  0.1136E+00
     24.303  0.3310E-02  0.1141E+00
     24.451  0.9491E-02  0.1155E+00
     24.600  0.5910E-02  0.1164E+00
     24.748  0.4373E-02  0.1170E+00
     24.897  0.4973E-02  0.1178E+00
     25.045  0.3166E-02  0.1182E+00
     25.194  0.1153E-01  0.1200E+00
     25.342  0.1251E-01  0.1218E+00
     25.491  0.4940E-02  0.1225E+00
     25.640  0.4306E-02  0.1232E+00
     25.788  0.7262E-02  0.1243E+00
     25.937  0.7841E-02  0.1254E+00
     26.085  0.5111E-02  0.1262E+00
     26.234  0.6248E-02  0.1271E+00
     26.382  0.6899E-02  0.1281E+00
     26.531  0.8353E-02  0.1294E+00
     26.680  0.5546E-02  0.1302E+00
     26.828  0.9955E-03  0.1304E+00
     26.977  0.5591E-02  0.1312E+00
     27.125  0.5056E-02  0.1319E+00
     27.274  0.9007E-02  0.1333E+00
     27.422  0.7681E-02  0.1344E+00
     27.571  0.8256E-02  0.1356E+00
     27.719  0.6921E-02  0.1367E+00
     27.868  0.1983E-02  0.1370E+00
     28.017  0.5732E-02  0.1378E+00
     28.165  0.1004E-01  0.1393E+00
     28.314  0.5074E-02  0.1401E+00
     28.462  0.3326E-02  0.1406E+00
     28.611  0.8317E-03  0.1407E+00
     28.759  0.3206E-02  0.1412E+00
     28.908  0.9040E-02  0.1425E+00
     29.057  0.4474E-02  0.1432E+00
     29.205  0.4662E-02  0.1439E+00
     29.354  0.3684E-02  0.1444E+00
     29.502  0.4236E-02  0.1450E+00
     29.651  0.1074E-01  0.1466E+00
     29.799  0.7005E-02  0.1477E+00
     29.948  0.6232E-02  0.1486E+00
     30.096  0.4005E-02  0.1492E+00
     30.245  0.4327E-02  0.1498E+00
     30.394  0.1721E-02  0.1501E+00
     30.542  0.4154E-02  0.1507E+00
     30.691  0.5651E-02  0.1515E+00
     30.839  0.3813E-02  0.1521E+00
     30.988  0.2501E-02  0.1525E+00
     31.136  0.3739E-02  0.1530E+00
     31.285  0.5760E-02  0.1539E+00
     31.434  0.3575E-02  0.1544E+00
     31.582  0.1610E-02  0.1547E+00
     31.731  0.1829E-04  0.1547E+00
     31.879  0.4107E-02  0.1553E+00
     32.028  0.3026E-02  0.1557E+00
     32.176  0.9560E-03  0.1559E+00
     32.325  0.1409E-02  0.1561E+00
     32.473  0.1431E-02  0.1563E+00
     32.622  0.1764E-02  0.1566E+00
     32.771  0.3697E-02  0.1571E+00
     32.919  0.2304E-02  0.1574E+00
     33.068  0.6074E-03  0.1575E+00
     33.216  0.1260E-02  0.1577E+00
     33.365  0.2774E-02  0.1581E+00
     33.513  0.1175E-02  0.1583E+00
     33.662  0.1801E-02  0.1586E+00
     33.810  0.1610E-02  0.1588E+00
     33.959  0.5438E-03  0.1589E+00
     34.108  0.1990E-04  0.1589E+00
     34.256  0.1839E-02  0.1592E+00
     34.405  0.4841E-03  0.1592E+00
     34.553  0.5013E-04  0.1593E+00
     34.702  0.7697E-03  0.1594E+00
     34.850  0.4269E-03  0.1594E+00
     34.999  0.1119E-02  0.1596E+00
     35.148  0.1035E-02  0.1598E+00
     35.296  0.4250E-03  0.1598E+00
     35.445  0.5324E-03  0.1599E+00
     35.593  0.2342E-07  0.1599E+00
     35.742  0.9933E-12  0.1599E+00
     35.890  0.2243E-04  0.1599E+00
     36.039  0.4535E-03  0.1600E+00
     36.187  0.1790E-04  0.1600E+00
     36.336  0.2233E-03  0.1600E+00
     36.485  0.8970E-06  0.1600E+00
     36.633  0.7370E-15  0.1600E+00
     36.782  0.0000E+00  0.1600E+00
     36.930  0.0000E+00  0.1600E+00
     37.079  0.0000E+00  0.1600E+00
     37.227  0.0000E+00  0.1600E+00
     37.376  0.0000E+00  0.1600E+00
     37.525  0.0000E+00  0.1600E+00
     37.673  0.0000E+00  0.1600E+00
     37.822  0.0000E+00  0.1600E+00
     37.970  0.0000E+00  0.1600E+00
     38.119  0.0000E+00  0.1600E+00
     38.267  0.0000E+00  0.1600E+00
