    1    1  100    1
  0.1408159E+02  0.2710538E-09  0.2710538E-09  0.2710538E-09  0.5000000E-15
  1.000000000000000E-004
  CAR 
 unknown system                          
      4    120      8
 
  0.0000000E+00  0.0000000E+00  0.0000000E+00  0.2962963E-03
    1       -4.275292   1.000000
    2       21.362559   0.000000
    3       21.362566   0.000000
    4       21.362574   0.000000
    5       22.134682   0.000000
    6       22.134690   0.000000
    7       22.134699   0.000000
    8       27.476330   0.000000
 
  0.6666667E-01 -0.6938894E-17  0.0000000E+00  0.2370370E-02
    1       -4.145645   1.000000
    2       19.207343   0.000000
    3       20.688991   0.000000
    4       20.689004   0.000000
    5       22.967217   0.000000
    6       22.967232   0.000000
    7       23.187411   0.000000
    8       28.359855   0.000000
 
  0.1333333E+00  0.0000000E+00  0.0000000E+00  0.2370370E-02
    1       -3.757222   1.000000
    2       16.377623   0.000000
    3       19.926439   0.000000
    4       19.926450   0.000000
    5       23.474068   0.000000
    6       24.060446   0.000000
    7       24.060460   0.000000
    8       27.329141   0.000000
 
  0.2000000E+00  0.0000000E+00  0.0000000E+00  0.2370370E-02
    1       -3.111610   1.000000
    2       13.547610   0.000000
    3       19.349306   0.000000
    4       19.349316   0.000000
    5       23.404174   0.000000
    6       24.282673   0.000000
    7       24.282683   0.000000
    8       27.307376   0.000000
 
  0.2666667E+00  0.0000000E+00  0.0000000E+00  0.2370370E-02
    1       -2.211475   1.000000
    2       10.844592   0.000000
    3       18.970363   0.000000
    4       18.970372   0.000000
    5       23.307399   0.000000
    6       23.390652   0.000000
    7       23.390661   0.000000
    8       28.703594   0.000000
 
  0.3333333E+00  0.0000000E+00  0.0000000E+00  0.2370370E-02
    1       -1.060963   1.000000
    2        8.319874   1.000000
    3       18.778219   0.000000
    4       18.778226   0.000000
    5       22.384054   0.000000
    6       22.384064   0.000000
    7       23.294485   0.000000
    8       27.539250   0.000000
 
  0.4000000E+00 -0.2775558E-16  0.0000000E+00  0.2370370E-02
    1        0.332875   1.000000
    2        6.001812   1.000000
    3       18.737356   0.000000
    4       18.737361   0.000000
    5       21.578827   0.000000
    6       21.578838   0.000000
    7       23.380696   0.000000
    8       26.618623   0.000000
 
  0.4666667E+00  0.0000000E+00  0.0000000E+00  0.2370370E-02
    1        1.940409   1.000000
    2        3.930081   1.000000
    3       18.768902   0.000000
    4       18.768906   0.000000
    5       21.115570   0.000000
    6       21.115583   0.000000
    7       23.492253   0.000000
    8       26.077048   0.000000
 
  0.6666667E-01  0.6666667E-01  0.0000000E+00  0.1777778E-02
    1       -4.102438   1.000000
    2       19.684930   0.000000
    3       19.684931   0.000000
    4       20.959670   0.000000
    5       21.216656   0.000000
    6       24.028840   0.000000
    7       24.028841   0.000000
    8       27.240365   0.000000
 
  0.1333333E+00  0.6666667E-01  0.0000000E+00  0.7111111E-02
    1       -3.800317   1.000000
    2       17.385162   0.000000
    3       18.843591   0.000000
    4       20.398171   0.000000
    5       21.763156   0.000000
    6       24.746943   0.000000
    7       25.177897   0.000000
    8       25.771017   0.000000
 
  0.2000000E+00  0.6666667E-01  0.0000000E+00  0.7111111E-02
    1       -3.240487   1.000000
    2       14.570272   0.000000
    3       18.207415   0.000000
    4       19.766209   0.000000
    5       22.451849   0.000000
    6       24.544849   0.000000
    7       25.299710   0.000000
    8       25.790084   0.000000
 
  0.2666667E+00  0.6666667E-01  0.0000000E+00  0.7111111E-02
    1       -2.425250   1.000000
    2       11.827709   0.000000
    3       17.785920   0.000000
    4       19.255386   0.000000
    5       21.886637   0.000000
    6       24.382944   0.000000
    7       25.135929   0.000000
    8       26.332579   0.000000
 
  0.3333333E+00  0.6666667E-01  0.0000000E+00  0.7111111E-02
    1       -1.358162   1.000000
    2        9.244646   1.000000
    3       17.580213   0.000000
    4       18.820925   0.000000
    5       21.014852   0.000000
    6       24.099959   0.000000
    7       24.359013   0.000000
    8       27.927636   0.000000
 
  0.4000000E+00  0.6666667E-01  0.0000000E+00  0.7111111E-02
    1       -0.044922   1.000000
    2        6.857734   1.000000
    3       17.586549   0.000000
    4       18.348478   0.000000
    5       20.495256   0.000000
    6       23.142141   0.000000
    7       24.377430   0.000000
    8       27.837001   0.000000
 
  0.4666667E+00  0.6666667E-01  0.0000000E+00  0.7111111E-02
    1        1.499809   1.000000
    2        4.695707   1.000000
    3       17.795240   0.000000
    4       17.809567   0.000000
    5       20.456105   0.000000
    6       22.375809   0.000000
    7       24.401112   0.000000
    8       27.298074   0.000000
 
 -0.4666667E+00  0.6666667E-01  0.0000000E+00  0.7111111E-02
    1        2.570365   1.000000
    2        3.470403   1.000000
    3       17.320620   0.000000
    4       18.185299   0.000000
    5       20.805944   0.000000
    6       21.853024   0.000000
    7       24.338730   0.000000
    8       27.209739   0.000000
 
 -0.4000000E+00  0.6666667E-01  0.0000000E+00  0.7111111E-02
    1        0.961480   1.000000
    2        5.388457   1.000000
    3       16.978878   0.000000
    4       18.712409   0.000000
    5       21.451578   0.000000
    6       21.626325   0.000000
    7       24.189436   0.000000
    8       27.604995   0.000000
 
 -0.3333333E+00  0.6666667E-01  0.0000000E+00  0.7111111E-02
    1       -0.509521   1.000000
    2        7.629652   1.000000
    3       16.828520   0.000000
    4       19.294451   0.000000
    5       21.770789   0.000000
    6       22.339079   0.000000
    7       24.056453   0.000000
    8       28.335980   0.000000
 
 -0.2666667E+00  0.6666667E-01  0.0000000E+00  0.7111111E-02
    1       -1.741575   1.000000
    2       10.084484   0.994136
    3       16.887961   0.000000
    4       19.847639   0.000000
    5       22.334813   0.000000
    6       23.416919   0.000000
    7       24.005182   0.000000
    8       27.988079   0.000000
 
 -0.2000000E+00  0.6666667E-01  0.0000000E+00  0.7111111E-02
    1       -2.725205   1.000000
    2       12.724959   0.000000
    3       17.164481   0.000000
    4       20.386984   0.000000
    5       23.140971   0.000000
    6       24.016924   0.000000
    7       24.564290   0.000000
    8       26.312462   0.000000
 
 -0.1333333E+00  0.6666667E-01  0.0000000E+00  0.7111111E-02
    1       -3.455641   1.000000
    2       15.503706   0.000000
    3       17.660060   0.000000
    4       20.980566   0.000000
    5       23.248868   0.000000
    6       23.970762   0.000000
    7       25.184877   0.000000
    8       25.877771   0.000000
 
 -0.6666667E-01  0.6666667E-01  0.0000000E+00  0.3555556E-02
    1       -3.929761   1.000000
    2       18.206875   0.000000
    3       18.466275   0.000000
    4       21.442616   0.000000
    5       22.468993   0.000000
    6       23.608241   0.000000
    7       24.490533   0.000000
    8       26.996774   0.000000
 
  0.1333333E+00  0.1333333E+00  0.0000000E+00  0.1777778E-02
    1       -3.584725   1.000000
    2       17.929653   0.000000
    3       17.929654   0.000000
    4       19.566950   0.000000
    5       19.888221   0.000000
    6       23.965467   0.000000
    7       26.402732   0.000000
    8       26.402733   0.000000
 
  0.2000000E+00  0.1333333E+00  0.0000000E+00  0.7111111E-02
    1       -3.111325   1.000000
    2       15.735454   0.000000
    3       17.222472   0.000000
    4       19.032810   0.000000
    5       20.140231   0.000000
    6       22.656167   0.000000
    7       27.119392   0.000000
    8       27.360610   0.000000
 
  0.2666667E+00  0.1333333E+00  0.0000000E+00  0.7111111E-02
    1       -2.382041   1.000000
    2       13.015813   0.000000
    3       16.732840   0.000000
    4       18.319856   0.000000
    5       20.028550   0.000000
    6       23.011640   0.000000
    7       27.093419   0.000000
    8       27.296129   0.000000
 
  0.3333333E+00  0.1333333E+00  0.0000000E+00  0.7111111E-02
    1       -1.399962   1.000000
    2       10.394979   0.000000
    3       16.464005   0.000000
    4       17.498072   0.000000
    5       19.428372   0.000000
    6       24.490884   0.000000
    7       26.134770   0.000000
    8       27.456765   0.000000
 
  0.4000000E+00  0.1333333E+00  0.0000000E+00  0.7111111E-02
    1       -0.169852   1.000000
    2        7.950020   1.000000
    3       16.415982   0.000000
    4       16.588819   0.000000
    5       19.182900   0.000000
    6       25.149186   0.000000
    7       25.752668   0.000000
    8       28.150505   0.000000
 
  0.4666667E+00  0.1333333E+00  0.0000000E+00  0.7111111E-02
    1        1.298976   1.000000
    2        5.714597   1.000000
    3       15.746268   0.000000
    4       16.586572   0.000000
    5       19.288684   0.000000
    6       24.305278   0.000000
    7       26.131559   0.000000
    8       29.654850   0.000000
 
 -0.4666667E+00  0.1333333E+00  0.0000000E+00  0.7111111E-02
    1        2.909041   1.000000
    2        3.796317   1.000000
    3       15.067029   0.000000
    4       16.970797   0.000000
    5       19.681902   0.000000
    6       23.659279   0.000000
    7       26.041418   0.000000
    8       29.787329   0.000000
 
 -0.4000000E+00  0.1333333E+00  0.0000000E+00  0.7111111E-02
    1        1.836674   1.000000
    2        5.022040   1.000000
    3       14.591073   0.000000
    4       17.559010   0.000000
    5       20.330224   0.000000
    6       23.238767   0.000000
    7       25.809421   0.000000
    8       30.090977   0.000000
 
 -0.3333333E+00  0.1333333E+00  0.0000000E+00  0.7111111E-02
    1        0.293842   1.000000
    2        7.177573   1.000000
    3       14.335691   0.000000
    4       18.332378   0.000000
    5       21.212032   0.000000
    6       23.064185   0.000000
    7       25.578623   0.000000
    8       29.622929   0.000000
 
 -0.2666667E+00  0.1333333E+00  0.0000000E+00  0.7111111E-02
    1       -1.017407   1.000000
    2        9.551517   1.000000
    3       14.310246   0.000000
    4       19.252958   0.000000
    5       22.301104   0.000000
    6       23.155630   0.000000
    7       25.390317   0.000000
    8       27.465955   0.000000
 
 -0.2000000E+00  0.1333333E+00  0.0000000E+00  0.7111111E-02
    1       -2.082798   1.000000
    2       12.102112   0.000000
    3       14.527715   0.000000
    4       20.240182   0.000000
    5       23.500392   0.000000
    6       23.543395   0.000000
    7       25.177336   0.000000
    8       25.591977   0.000000
 
 -0.1333333E+00  0.1333333E+00  0.0000000E+00  0.3555556E-02
    1       -2.896724   1.000000
    2       14.562443   0.000000
    3       15.208830   0.000000
    4       21.080514   0.000000
    5       23.467570   0.000000
    6       24.735852   0.000000
    7       24.758549   0.000000
    8       24.868991   0.000000
 
  0.2000000E+00  0.2000000E+00  0.0000000E+00  0.1777778E-02
    1       -2.724656   1.000000
    2       16.442028   0.000000
    3       16.442029   0.000000
    4       17.988799   0.000000
    5       18.136994   0.000000
    6       20.963687   0.000000
    7       28.820549   0.000000
    8       28.820550   0.000000
 
  0.2666667E+00  0.2000000E+00  0.0000000E+00  0.7111111E-02
    1       -2.082054   1.000000
    2       14.345960   0.000000
    3       15.879336   0.000000
    4       16.987254   0.000000
    5       18.250770   0.000000
    6       20.532273   0.000000
    7       29.142887   0.000000
    8       29.559209   0.000000
 
  0.3333333E+00  0.2000000E+00  0.0000000E+00  0.7111111E-02
    1       -1.186231   1.000000
    2       11.749211   0.000000
    3       15.538782   0.000000
    4       15.761098   0.000000
    5       18.154624   0.000000
    6       21.797839   0.000000
    7       28.342194   0.000000
    8       29.720961   0.000000
 
  0.4000000E+00  0.2000000E+00  0.0000000E+00  0.7111111E-02
    1       -0.041232   1.000000
    2        9.267312   1.000000
    3       14.592262   0.000000
    4       15.421551   0.000000
    5       18.039702   0.000000
    6       23.695226   0.000000
    7       27.379633   0.000000
    8       29.644277   0.000000
 
  0.4666667E+00  0.2000000E+00  0.0000000E+00  0.7111111E-02
    1        1.345961   1.000000
    2        6.972298   1.000000
    3       13.584940   0.000000
    4       15.527105   0.000000
    5       18.151540   0.000000
    6       25.704422   0.000000
    7       26.503006   0.000000
    8       29.521439   0.000000
 
 -0.4666667E+00  0.2000000E+00  0.0000000E+00  0.7111111E-02
    1        2.948454   1.000000
    2        4.911408   1.000000
    3       12.782782   0.000000
    4       15.853469   0.000000
    5       18.510600   0.000000
    6       25.793938   0.000000
    7       27.233037   0.000000
    8       29.826640   0.000000
 
 -0.4000000E+00  0.2000000E+00  0.0000000E+00  0.7111111E-02
    1        2.948945   1.000000
    2        4.908380   1.000000
    3       12.205389   0.000000
    4       16.396537   0.000000
    5       19.113065   0.000000
    6       25.287383   0.000000
    7       27.545317   0.000000
    8       31.013179   0.000000
 
 -0.3333333E+00  0.2000000E+00  0.0000000E+00  0.7111111E-02
    1        1.345522   1.000000
    2        6.962041   1.000000
    3       11.865090   0.000000
    4       17.148261   0.000000
    5       19.949130   0.000000
    6       25.001859   0.000000
    7       27.305395   0.000000
    8       29.442314   0.000000
 
 -0.2666667E+00  0.2000000E+00  0.0000000E+00  0.7111111E-02
    1       -0.042027   1.000000
    2        9.229188   1.000000
    3       11.783523   0.000000
    4       18.091360   0.000000
    5       21.001281   0.000000
    6       24.949648   0.000000
    7       26.896490   0.000000
    8       27.179504   0.000000
 
 -0.2000000E+00  0.2000000E+00  0.0000000E+00  0.3555556E-02
    1       -1.187073   1.000000
    2       11.384703   0.000000
    3       12.244575   0.000000
    4       19.181134   0.000000
    5       22.232916   0.000000
    6       25.115298   0.000000
    7       25.161179   0.000000
    8       26.224628   0.000000
 
  0.2666667E+00  0.2666667E+00  0.0000000E+00  0.1777778E-02
    1       -1.526570   1.000000
    2       15.242528   0.000000
    3       15.242529   0.000000
    4       15.407930   0.000000
    5       16.668946   0.000000
    6       19.116236   0.000000
    7       31.134308   0.000000
    8       31.134308   0.000000
 
  0.3333333E+00  0.2666667E+00  0.0000000E+00  0.7111111E-02
    1       -0.717859   1.000000
    2       13.207454   0.000000
    3       14.029929   0.000000
    4       14.828063   0.000000
    5       16.986075   0.000000
    6       19.305224   0.000000
    7       30.626215   0.000000
    8       31.810694   0.000000
 
  0.4000000E+00  0.2666667E+00  0.0000000E+00  0.7111111E-02
    1        0.340366   1.000000
    2       10.774930   0.000000
    3       12.684200   0.000000
    4       14.637797   0.000000
    5       17.082672   0.000000
    6       20.915650   0.000000
    7       29.747500   0.000000
    8       31.828077   0.000000
 
  0.4666667E+00  0.2666667E+00  0.0000000E+00  0.7111111E-02
    1        1.642294   1.000000
    2        8.449669   1.000000
    3       11.548618   0.000000
    4       14.671974   0.000000
    5       17.189162   0.000000
    6       23.043405   0.000000
    7       28.876288   0.000000
    8       31.465621   0.000000
 
 -0.4666667E+00  0.2666667E+00  0.0000000E+00  0.7111111E-02
    1        3.174052   1.000000
    2        6.318657   1.000000
    3       10.640833   0.000000
    4       14.929722   0.000000
    5       17.498513   0.000000
    6       25.352737   0.000000
    7       28.129741   0.000000
    8       30.919138   0.000000
 
 -0.4000000E+00  0.2666667E+00  0.0000000E+00  0.7111111E-02
    1        4.254328   1.000000
    2        5.080337   1.000000
    3        9.973724   1.000000
    4       15.408859   0.000000
    5       18.040701   0.000000
    6       27.558397   0.000000
    7       27.603033   0.000000
    8       30.326916   0.000000
 
 -0.3333333E+00  0.2666667E+00  0.0000000E+00  0.7111111E-02
    1        2.639794   1.000000
    2        6.963192   1.000000
    3        9.572675   1.000000
    4       16.104878   0.000000
    5       18.816119   0.000000
    6       27.179853   0.000000
    7       28.921050   0.000000
    8       29.511185   0.000000
 
 -0.2666667E+00  0.2666667E+00  0.0000000E+00  0.3555556E-02
    1        1.179953   1.000000
    2        8.805849   1.000000
    3        9.748597   1.000000
    4       17.007810   0.000000
    5       19.812821   0.000000
    6       26.819705   0.000000
    7       27.377779   0.000000
    8       28.215433   0.000000
 
  0.3333333E+00  0.3333333E+00  0.0000000E+00  0.1777778E-02
    1        0.003033   1.000000
    2       12.307608   0.000000
    3       14.339124   0.000000
    4       14.339125   0.000000
    5       15.659856   0.000000
    6       18.045258   0.000000
    7       32.551355   0.000000
    8       33.233168   0.000000
 
  0.4000000E+00  0.3333333E+00  0.0000000E+00  0.7111111E-02
    1        0.973090   1.000000
    2       10.849589   0.000000
    3       12.522284   0.000000
    4       14.074601   0.000000
    5       16.142851   0.000000
    6       18.504602   0.000000
    7       32.110937   0.000000
    8       33.761918   0.000000
 
  0.4666667E+00  0.3333333E+00  0.0000000E+00  0.7111111E-02
    1        2.186561   1.000000
    2        9.543159   1.000000
    3       10.288264   0.000590
    4       14.035220   0.000000
    5       16.406171   0.000000
    6       20.324213   0.000000
    7       31.320983   0.000000
    8       33.544253   0.000000
 
 -0.4666667E+00  0.3333333E+00  0.0000000E+00  0.7111111E-02
    1        3.631757   1.000000
    2        7.882628   1.000000
    3        8.774693   1.000000
    4       14.220730   0.000000
    5       16.689876   0.000000
    6       22.634761   0.000000
    7       30.568923   0.000000
    8       32.875645   0.000000
 
 -0.4000000E+00  0.3333333E+00  0.0000000E+00  0.7111111E-02
    1        5.231264   1.000000
    2        6.008300   1.000000
    3        7.989150   1.000000
    4       14.629939   0.000000
    5       17.172847   0.000000
    6       25.137456   0.000000
    7       29.921724   0.000000
    8       31.915934   0.000000
 
 -0.3333333E+00  0.3333333E+00  0.0000000E+00  0.3555556E-02
    1        4.164259   1.000000
    2        6.861472   1.000000
    3        7.831091   1.000000
    4       15.260064   0.000000
    5       17.882845   0.000000
    6       27.645412   0.000000
    7       29.155002   0.000000
    8       30.175333   0.000000
 
  0.4000000E+00  0.4000000E+00  0.0000000E+00  0.1777778E-02
    1        1.853232   1.000000
    2        9.319013   1.000000
    3       13.735494   0.000000
    4       13.735495   0.000000
    5       14.980758   0.000000
    6       17.381667   0.000000
    7       33.791706   0.000000
    8       35.029957   0.000000
 
  0.4666667E+00  0.4000000E+00  0.0000000E+00  0.7111111E-02
    1        2.973469   1.000000
    2        7.994716   1.000000
    3       12.032213   0.000000
    4       13.621741   0.000000
    5       15.640749   0.000000
    6       18.031868   0.000000
    7       33.556815   0.000000
    8       35.301093   0.000000
 
 -0.4666667E+00  0.4000000E+00  0.0000000E+00  0.7111111E-02
    1        4.310592   1.000000
    2        6.918218   1.000000
    3        9.882325   1.000000
    4       13.733480   0.000000
    5       16.070590   0.000000
    6       20.026220   0.000000
    7       32.873107   0.000000
    8       34.690385   0.000000
 
 -0.4000000E+00  0.4000000E+00  0.0000000E+00  0.3555556E-02
    1        5.562656   1.000000
    2        6.354379   1.000000
    3        7.916620   1.000000
    4       14.070122   0.000000
    5       16.523811   0.000000
    6       22.496210   0.000000
    7       31.897910   0.000000
    8       33.288890   0.000000
 
  0.4666667E+00  0.4666667E+00  0.0000000E+00  0.1777778E-02
    1        3.983006   1.000000
    2        6.604430   1.000000
    3       13.433376   0.000000
    4       13.433377   0.000000
    5       14.639680   0.000000
    6       17.054877   0.000000
    7       34.682536   0.000000
    8       36.241492   0.000000
 
 -0.4666667E+00  0.4666667E+00  0.0000000E+00  0.3555556E-02
    1        4.912852   1.000000
    2        5.763196   1.000000
    3       11.871669   0.000000
    4       13.470689   0.000000
    5       15.473462   0.000000
    6       17.874567   0.000000
    7       34.360325   0.000000
    8       35.949606   0.000000
 
  0.2000000E+00  0.1333333E+00  0.6666667E-01  0.7111111E-02
    1       -3.412525   1.000000
    2       16.406227   0.000000
    3       16.826857   0.000000
    4       20.730567   0.000000
    5       21.338469   0.000000
    6       24.300609   0.000000
    7       25.661878   0.000000
    8       26.025221   0.000000
 
  0.2666667E+00  0.1333333E+00  0.6666667E-01  0.1422222E-01
    1       -2.767927   1.000000
    2       13.816206   0.000000
    3       16.092488   0.000000
    4       20.080766   0.000000
    5       21.770492   0.000000
    6       23.849084   0.000000
    7       25.875022   0.000000
    8       26.109751   0.000000
 
  0.3333333E+00  0.1333333E+00  0.6666667E-01  0.1422222E-01
    1       -1.869213   1.000000
    2       11.146550   0.000000
    3       15.735069   0.000000
    4       19.209069   0.000000
    5       21.332378   0.000000
    6       24.420460   0.000000
    7       25.341988   0.000000
    8       26.496050   0.000000
 
  0.4000000E+00  0.1333333E+00  0.6666667E-01  0.1422222E-01
    1       -0.720476   1.000000
    2        8.636214   1.000000
    3       15.604686   0.000000
    4       18.271606   0.000000
    5       21.006020   0.000000
    6       23.647656   0.000000
    7       25.608831   0.000000
    8       27.879231   0.000000
 
  0.4666667E+00  0.1333333E+00  0.6666667E-01  0.1422222E-01
    1        0.671279   1.000000
    2        6.325985   1.000000
    3       15.688470   0.000000
    4       17.407482   0.000000
    5       20.967720   0.000000
    6       22.772177   0.000000
    7       25.758579   0.000000
    8       29.300906   0.000000
 
 -0.4666667E+00  0.1333333E+00  0.6666667E-01  0.1422222E-01
    1        2.277494   1.000000
    2        4.257928   1.000000
    3       15.932285   0.000000
    4       16.756935   0.000000
    5       21.110170   0.000000
    6       22.164382   0.000000
    7       25.849107   0.000000
    8       29.042746   0.000000
 
  0.2666667E+00  0.2000000E+00  0.6666667E-01  0.7111111E-02
    1       -2.553261   1.000000
    2       14.854129   0.000000
    3       15.357520   0.000000
    4       18.734729   0.000000
    5       19.865715   0.000000
    6       21.742884   0.000000
    7       27.600845   0.000000
    8       28.252514   0.000000
 
  0.3333333E+00  0.2000000E+00  0.6666667E-01  0.1422222E-01
    1       -1.740605   1.000000
    2       12.402536   0.000000
    3       14.732480   0.000000
    4       17.563373   0.000000
    5       20.082367   0.000000
    6       22.432892   0.000000
    7       26.875182   0.000000
    8       28.710710   0.000000
 
  0.4000000E+00  0.2000000E+00  0.6666667E-01  0.1422222E-01
    1       -0.676905   1.000000
    2        9.865674   1.000000
    3       14.507183   0.000000
    4       16.374869   0.000000
    5       19.939390   0.000000
    6       24.068389   0.000000
    7       25.961975   0.000000
    8       28.849803   0.000000
 
  0.4666667E+00  0.2000000E+00  0.6666667E-01  0.1422222E-01
    1        0.632188   1.000000
    2        7.499627   1.000000
    3       14.464351   0.000000
    4       15.385668   0.000000
    5       19.962629   0.000000
    6       24.617206   0.000000
    7       26.328680   0.000000
    8       29.058183   0.000000
 
 -0.4666667E+00  0.2000000E+00  0.6666667E-01  0.1422222E-01
    1        2.172687   1.000000
    2        5.348672   1.000000
    3       14.214960   0.000000
    4       15.030179   0.000000
    5       20.210393   0.000000
    6       23.941476   0.000000
    7       27.482251   0.000000
    8       29.850029   0.000000
 
 -0.4000000E+00  0.2000000E+00  0.6666667E-01  0.1422222E-01
    1        3.246904   1.000000
    2        4.120708   1.000000
    3       13.663648   0.000000
    4       15.421434   0.000000
    5       20.676297   0.000000
    6       23.381879   0.000000
    7       27.683154   0.000000
    8       30.990062   0.000000
 
 -0.3333333E+00  0.2000000E+00  0.6666667E-01  0.1422222E-01
    1        1.635520   1.000000
    2        6.036651   1.000000
    3       13.265139   0.000000
    4       16.108859   0.000000
    5       21.327256   0.000000
    6       23.058468   0.000000
    7       27.428025   0.000000
    8       29.804088   0.000000
 
 -0.2666667E+00  0.2000000E+00  0.6666667E-01  0.1422222E-01
    1        0.168781   1.000000
    2        8.259918   1.000000
    3       13.089124   0.000000
    4       17.017517   0.000000
    5       22.043724   0.000000
    6       23.077502   0.000000
    7       26.631878   0.000000
    8       28.288007   0.000000
 
 -0.2000000E+00  0.2000000E+00  0.6666667E-01  0.1422222E-01
    1       -1.059399   1.000000
    2       10.671294   0.000000
    3       13.160770   0.000000
    4       18.109362   0.000000
    5       22.543210   0.000000
    6       23.548382   0.000000
    7       25.164261   0.000000
    8       27.645547   0.000000
 
 -0.1333333E+00  0.2000000E+00  0.6666667E-01  0.7111111E-02
    1       -2.039863   1.000000
    2       12.981379   0.000000
    3       13.734393   0.000000
    4       19.296996   0.000000
    5       22.580162   0.000000
    6       23.330314   0.000000
    7       25.120561   0.000000
    8       27.057776   0.000000
 
  0.3333333E+00  0.2666667E+00  0.6666667E-01  0.7111111E-02
    1       -1.356289   1.000000
    2       13.595887   0.000000
    3       14.108701   0.000000
    4       15.786483   0.000000
    5       18.618432   0.000000
    6       20.236368   0.000000
    7       28.976256   0.000000
    8       30.786453   0.000000
 
  0.4000000E+00  0.2666667E+00  0.6666667E-01  0.1422222E-01
    1       -0.379032   1.000000
    2       11.284462   0.000000
    3       13.565435   0.000000
    4       14.505411   0.000000
    5       18.938481   0.000000
    6       21.420071   0.000000
    7       28.116277   0.000000
    8       31.228878   0.000000
 
  0.4666667E+00  0.2666667E+00  0.6666667E-01  0.1422222E-01
    1        0.844905   1.000000
    2        8.893957   1.000000
    3       13.011397   0.000000
    4       13.815622   0.000000
    5       18.996885   0.000000
    6       23.389997   0.000000
    7       27.209107   0.000000
    8       31.153966   0.000000
 
 -0.4666667E+00  0.2666667E+00  0.6666667E-01  0.1422222E-01
    1        2.306280   1.000000
    2        6.683571   1.000000
    3       12.137116   0.000000
    4       13.901198   0.000000
    5       19.215372   0.000000
    6       25.348665   0.000000
    7       26.643190   0.000000
    8       30.809254   0.000000
 
 -0.4000000E+00  0.2666667E+00  0.6666667E-01  0.1422222E-01
    1        3.918041   1.000000
    2        4.767468   1.000000
    3       11.413475   0.000000
    4       14.299600   0.000000
    5       19.649194   0.000000
    6       25.477891   0.000000
    7       28.030088   0.000000
    8       30.200725   0.000000
 
 -0.3333333E+00  0.2666667E+00  0.6666667E-01  0.1422222E-01
    1        2.841986   1.000000
    2        5.987916   1.000000
    3       10.916836   0.000000
    4       14.940459   0.000000
    5       20.300888   0.000000
    6       25.082321   0.000000
    7       28.775285   0.000000
    8       29.656715   0.000000
 
 -0.2666667E+00  0.2666667E+00  0.6666667E-01  0.1422222E-01
    1        1.305600   1.000000
    2        8.097362   1.000000
    3       10.679466   0.000000
    4       15.806535   0.000000
    5       21.154763   0.000000
    6       24.836165   0.000000
    7       26.905638   0.000000
    8       29.609195   0.000000
 
 -0.2000000E+00  0.2666667E+00  0.6666667E-01  0.7111111E-02
    1        0.000707   1.000000
    2       10.097877   0.983879
    3       11.001467   0.000000
    4       16.879121   0.000000
    5       22.159437   0.000000
    6       24.470430   0.000000
    7       25.211386   0.000000
    8       28.862418   0.000000
 
  0.4000000E+00  0.3333333E+00  0.6666667E-01  0.7111111E-02
    1        0.171833   1.000000
    2       12.362229   0.000000
    3       12.645538   0.000000
    4       13.449939   0.000000
    5       17.662769   0.000000
    6       19.276281   0.000000
    7       30.410086   0.000000
    8       33.074058   0.000000
 
  0.4666667E+00  0.3333333E+00  0.6666667E-01  0.1422222E-01
    1        1.308465   1.000000
    2       10.427076   0.000000
    3       11.251467   0.000000
    4       12.998895   0.000000
    5       18.140738   0.000000
    6       20.695796   0.000000
    7       29.597501   0.000000
    8       33.306645   0.000000
 
 -0.4666667E+00  0.3333333E+00  0.6666667E-01  0.1422222E-01
    1        2.684358   1.000000
    2        8.225716   1.000000
    3       10.169618   0.544693
    4       13.070536   0.000000
    5       18.370670   0.000000
    6       22.873686   0.000000
    7       28.786042   0.000000
    8       32.723199   0.000000
 