       N       E                     dE             d eps       ncg     rms          rms(c)
DAV:   1    -0.254783641916E+01   -0.25478E+01   -0.17756E+03  2056   0.367E+02
DAV:   2    -0.488961698377E+01   -0.23418E+01   -0.22469E+01  2912   0.294E+01
DAV:   3    -0.490312627309E+01   -0.13509E-01   -0.13487E-01  2104   0.233E+00
DAV:   4    -0.490313928117E+01   -0.13008E-04   -0.13007E-04  3256   0.790E-02
DAV:   5    -0.490313928130E+01   -0.13056E-09   -0.16714E-08  2232   0.517E-04    0.280E+00
DAV:   6    -0.488954374405E+01    0.13596E-01   -0.39159E-03  2288   0.276E-01    0.154E+00
DAV:   7    -0.488173573744E+01    0.78080E-02   -0.79117E-03  2240   0.392E-01    0.136E-01
DAV:   8    -0.488169663468E+01    0.39103E-04   -0.28018E-05  2952   0.433E-02    0.142E-02
DAV:   9    -0.488169694719E+01   -0.31251E-06   -0.32347E-07  2408   0.333E-03
   1 F= -.48816969E+01 E0= -.48813024E+01  d E =-.488170E+01
       N       E                     dE             d eps       ncg     rms          rms(c)
DAV:   1    -0.488548018930E+01   -0.37836E-02   -0.81669E-02  2040   0.114E+00    0.273E-01
DAV:   2    -0.488458102597E+01    0.89916E-03   -0.53133E-04  2656   0.186E-01    0.155E-01
DAV:   3    -0.488405169506E+01    0.52933E-03   -0.59689E-04  2056   0.105E-01    0.456E-02
DAV:   4    -0.488405103979E+01    0.65527E-06   -0.12817E-06  2872   0.104E-02    0.390E-02
DAV:   5    -0.488404750595E+01    0.35338E-05   -0.24008E-07  1536   0.352E-03    0.905E-03
DAV:   6    -0.488404778344E+01   -0.27750E-06   -0.10107E-08  1128   0.917E-04
   2 F= -.48840478E+01 E0= -.48836357E+01  d E =-.235084E-02
       N       E                     dE             d eps       ncg     rms          rms(c)
DAV:   1    -0.488407915588E+01   -0.31650E-04   -0.62089E-04  2048   0.100E-01    0.232E-02
DAV:   2    -0.488407225958E+01    0.68963E-05   -0.40337E-06  2640   0.163E-02    0.131E-02
DAV:   3    -0.488406857712E+01    0.36825E-05   -0.45578E-06  2048   0.914E-03    0.409E-03
DAV:   4    -0.488406859400E+01   -0.16878E-07   -0.92639E-09  1032   0.909E-04    0.349E-03
DAV:   5    -0.488406877527E+01   -0.18127E-06   -0.27566E-09   992   0.413E-04    0.525E-04
DAV:   6    -0.488406875327E+01    0.21995E-07   -0.12019E-10   992   0.101E-04
   3 F= -.48840688E+01 E0= -.48836549E+01  d E =-.237181E-02
