<?xml version="1.0" encoding="ISO-8859-1"?>
<modeling>
 <generator>
  <i name="program" type="string">vasp </i>
  <i name="version" type="string">6.2.0  </i>
  <i name="subversion" type="string">18Jan21 (build Aug 12 2022 13:00:08) complex                          parallel </i>
  <i name="platform" type="string">LinuxIFC </i>
  <i name="date" type="string">2024 11 03 </i>
  <i name="time" type="string">22:12:08 </i>
 </generator>
 <incar>
  <i type="int" name="ISTART">     0</i>
  <i type="string" name="PREC">Accurate      (Accurate strictly avoids</i>
  <i type="logical" name="ADDGRID"> T  </i>
  <i type="int" name="ISPIN">     1</i>
  <i type="int" name="NELM">    90</i>
  <i type="int" name="NELMIN">     6</i>
  <i type="int" name="IBRION">     2</i>
  <i name="EDIFF">      0.00000100</i>
  <i name="EDIFFG">     -0.00200000</i>
  <i type="int" name="NSW">   100</i>
  <i type="int" name="ISIF">     3</i>
  <i type="int" name="ISYM">     2</i>
  <i name="ENCUT">    500.00000000</i>
  <i type="logical" name="LREAL"> F  </i>
  <i type="int" name="ISMEAR">     0</i>
  <i name="SIGMA">      0.05000000</i>
  <i type="logical" name="LWAVE"> F  </i>
  <i type="logical" name="LCHARG"> F  </i>
  <i type="logical" name="LASPH"> T  </i>
 </incar>
 <primitive_cell>
  <structure name="primitive_cell" >
   <crystal>
    <varray name="basis" >
     <v>       2.34739500       0.00000000       1.35526800 </v>
     <v>       0.78246500       2.21314500       1.35526800 </v>
     <v>       0.00000000       0.00000000       2.71053800 </v>
    </varray>
    <i name="volume">     14.08158510 </i>
    <varray name="rec_basis" >
     <v>       0.42600415      -0.15061523       0.00000000 </v>
     <v>       0.00000000       0.45184568       0.00000000 </v>
     <v>      -0.21300192      -0.15061511       0.36893045 </v>
    </varray>
   </crystal>
   <varray name="positions" >
    <v>       0.00000000       0.00000000       0.00000000 </v>
   </varray>
  </structure>
  <varray name="primitive_index" >
   <v type="int" >        1 </v>
  </varray>
 </primitive_cell>
 <kpoints>
  <generation param="Monkhorst-Pack">
   <v type="int" name="divisions">      15       15       15 </v>
   <v name="usershift">      0.00000000       0.00000000       0.00000000 </v>
   <v name="genvec1">      0.06666667      -0.00000000       0.00000000 </v>
   <v name="genvec2">      0.00000000       0.06666667       0.00000000 </v>
   <v name="genvec3">      0.00000000       0.00000000       0.06666667 </v>
   <v name="shift">      0.00000000       0.00000000       0.00000000 </v>
  </generation>
  <varray name="kpointlist" >
   <v>       0.00000000       0.00000000       0.00000000 </v>
   <v>       0.06666667      -0.00000000       0.00000000 </v>
   <v>       0.13333333       0.00000000       0.00000000 </v>
   <v>       0.20000000       0.00000000       0.00000000 </v>
   <v>       0.26666667       0.00000000       0.00000000 </v>
   <v>       0.33333333       0.00000000       0.00000000 </v>
   <v>       0.40000000      -0.00000000       0.00000000 </v>
   <v>       0.46666667       0.00000000       0.00000000 </v>
   <v>       0.06666667       0.06666667       0.00000000 </v>
   <v>       0.13333333       0.06666667       0.00000000 </v>
   <v>       0.20000000       0.06666667       0.00000000 </v>
   <v>       0.26666667       0.06666667       0.00000000 </v>
   <v>       0.33333333       0.06666667       0.00000000 </v>
   <v>       0.40000000       0.06666667       0.00000000 </v>
   <v>       0.46666667       0.06666667       0.00000000 </v>
   <v>      -0.46666667       0.06666667       0.00000000 </v>
   <v>      -0.40000000       0.06666667       0.00000000 </v>
   <v>      -0.33333333       0.06666667       0.00000000 </v>
   <v>      -0.26666667       0.06666667       0.00000000 </v>
   <v>      -0.20000000       0.06666667       0.00000000 </v>
   <v>      -0.13333333       0.06666667       0.00000000 </v>
   <v>      -0.06666667       0.06666667       0.00000000 </v>
   <v>       0.13333333       0.13333333       0.00000000 </v>
   <v>       0.20000000       0.13333333       0.00000000 </v>
   <v>       0.26666667       0.13333333       0.00000000 </v>
   <v>       0.33333333       0.13333333       0.00000000 </v>
   <v>       0.40000000       0.13333333       0.00000000 </v>
   <v>       0.46666667       0.13333333       0.00000000 </v>
   <v>      -0.46666667       0.13333333       0.00000000 </v>
   <v>      -0.40000000       0.13333333       0.00000000 </v>
   <v>      -0.33333333       0.13333333       0.00000000 </v>
   <v>      -0.26666667       0.13333333       0.00000000 </v>
   <v>      -0.20000000       0.13333333       0.00000000 </v>
   <v>      -0.13333333       0.13333333       0.00000000 </v>
   <v>       0.20000000       0.20000000       0.00000000 </v>
   <v>       0.26666667       0.20000000       0.00000000 </v>
   <v>       0.33333333       0.20000000       0.00000000 </v>
   <v>       0.40000000       0.20000000       0.00000000 </v>
   <v>       0.46666667       0.20000000       0.00000000 </v>
   <v>      -0.46666667       0.20000000       0.00000000 </v>
   <v>      -0.40000000       0.20000000       0.00000000 </v>
   <v>      -0.33333333       0.20000000       0.00000000 </v>
   <v>      -0.26666667       0.20000000       0.00000000 </v>
   <v>      -0.20000000       0.20000000       0.00000000 </v>
   <v>       0.26666667       0.26666667       0.00000000 </v>
   <v>       0.33333333       0.26666667       0.00000000 </v>
   <v>       0.40000000       0.26666667       0.00000000 </v>
   <v>       0.46666667       0.26666667       0.00000000 </v>
   <v>      -0.46666667       0.26666667       0.00000000 </v>
   <v>      -0.40000000       0.26666667       0.00000000 </v>
   <v>      -0.33333333       0.26666667       0.00000000 </v>
   <v>      -0.26666667       0.26666667       0.00000000 </v>
   <v>       0.33333333       0.33333333       0.00000000 </v>
   <v>       0.40000000       0.33333333       0.00000000 </v>
   <v>       0.46666667       0.33333333       0.00000000 </v>
   <v>      -0.46666667       0.33333333       0.00000000 </v>
   <v>      -0.40000000       0.33333333       0.00000000 </v>
   <v>      -0.33333333       0.33333333       0.00000000 </v>
   <v>       0.40000000       0.40000000       0.00000000 </v>
   <v>       0.46666667       0.40000000       0.00000000 </v>
   <v>      -0.46666667       0.40000000       0.00000000 </v>
   <v>      -0.40000000       0.40000000       0.00000000 </v>
   <v>       0.46666667       0.46666667       0.00000000 </v>
   <v>      -0.46666667       0.46666667       0.00000000 </v>
   <v>       0.20000000       0.13333333       0.06666667 </v>
   <v>       0.26666667       0.13333333       0.06666667 </v>
   <v>       0.33333333       0.13333333       0.06666667 </v>
   <v>       0.40000000       0.13333333       0.06666667 </v>
   <v>       0.46666667       0.13333333       0.06666667 </v>
   <v>      -0.46666667       0.13333333       0.06666667 </v>
   <v>       0.26666667       0.20000000       0.06666667 </v>
   <v>       0.33333333       0.20000000       0.06666667 </v>
   <v>       0.40000000       0.20000000       0.06666667 </v>
   <v>       0.46666667       0.20000000       0.06666667 </v>
   <v>      -0.46666667       0.20000000       0.06666667 </v>
   <v>      -0.40000000       0.20000000       0.06666667 </v>
   <v>      -0.33333333       0.20000000       0.06666667 </v>
   <v>      -0.26666667       0.20000000       0.06666667 </v>
   <v>      -0.20000000       0.20000000       0.06666667 </v>
   <v>      -0.13333333       0.20000000       0.06666667 </v>
   <v>       0.33333333       0.26666667       0.06666667 </v>
   <v>       0.40000000       0.26666667       0.06666667 </v>
   <v>       0.46666667       0.26666667       0.06666667 </v>
   <v>      -0.46666667       0.26666667       0.06666667 </v>
   <v>      -0.40000000       0.26666667       0.06666667 </v>
   <v>      -0.33333333       0.26666667       0.06666667 </v>
   <v>      -0.26666667       0.26666667       0.06666667 </v>
   <v>      -0.20000000       0.26666667       0.06666667 </v>
   <v>       0.40000000       0.33333333       0.06666667 </v>
   <v>       0.46666667       0.33333333       0.06666667 </v>
   <v>      -0.46666667       0.33333333       0.06666667 </v>
   <v>      -0.40000000       0.33333333       0.06666667 </v>
   <v>      -0.33333333       0.33333333       0.06666667 </v>
   <v>      -0.26666667       0.33333333       0.06666667 </v>
   <v>       0.46666667       0.40000000       0.06666667 </v>
   <v>      -0.46666667       0.40000000       0.06666667 </v>
   <v>      -0.40000000       0.40000000       0.06666667 </v>
   <v>      -0.33333333       0.40000000       0.06666667 </v>
   <v>      -0.46666667       0.46666667       0.06666667 </v>
   <v>      -0.40000000       0.46666667       0.06666667 </v>
   <v>       0.40000000       0.26666667       0.13333333 </v>
   <v>       0.46666667       0.26666667       0.13333333 </v>
   <v>      -0.46666667       0.26666667       0.13333333 </v>
   <v>      -0.40000000       0.26666667       0.13333333 </v>
   <v>       0.46666667       0.33333333       0.13333333 </v>
   <v>      -0.46666667       0.33333333       0.13333333 </v>
   <v>      -0.40000000       0.33333333       0.13333333 </v>
   <v>      -0.33333333       0.33333333       0.13333333 </v>
   <v>      -0.26666667       0.33333333       0.13333333 </v>
   <v>      -0.20000000       0.33333333       0.13333333 </v>
   <v>      -0.46666667       0.40000000       0.13333333 </v>
   <v>      -0.40000000       0.40000000       0.13333333 </v>
   <v>      -0.33333333       0.40000000       0.13333333 </v>
   <v>      -0.26666667       0.40000000       0.13333333 </v>
   <v>      -0.40000000       0.46666667       0.13333333 </v>
   <v>      -0.33333333       0.46666667       0.13333333 </v>
   <v>      -0.40000000       0.40000000       0.20000000 </v>
   <v>      -0.33333333       0.40000000       0.20000000 </v>
   <v>      -0.33333333       0.46666667       0.20000000 </v>
   <v>      -0.26666667       0.46666667       0.20000000 </v>
  </varray>
  <varray name="weights" >
   <v>       0.00029630 </v>
   <v>       0.00237037 </v>
   <v>       0.00237037 </v>
   <v>       0.00237037 </v>
   <v>       0.00237037 </v>
   <v>       0.00237037 </v>
   <v>       0.00237037 </v>
   <v>       0.00237037 </v>
   <v>       0.00177778 </v>
   <v>       0.00711111 </v>
   <v>       0.00711111 </v>
   <v>       0.00711111 </v>
   <v>       0.00711111 </v>
   <v>       0.00711111 </v>
   <v>       0.00711111 </v>
   <v>       0.00711111 </v>
   <v>       0.00711111 </v>
   <v>       0.00711111 </v>
   <v>       0.00711111 </v>
   <v>       0.00711111 </v>
   <v>       0.00711111 </v>
   <v>       0.00355556 </v>
   <v>       0.00177778 </v>
   <v>       0.00711111 </v>
   <v>       0.00711111 </v>
   <v>       0.00711111 </v>
   <v>       0.00711111 </v>
   <v>       0.00711111 </v>
   <v>       0.00711111 </v>
   <v>       0.00711111 </v>
   <v>       0.00711111 </v>
   <v>       0.00711111 </v>
   <v>       0.00711111 </v>
   <v>       0.00355556 </v>
   <v>       0.00177778 </v>
   <v>       0.00711111 </v>
   <v>       0.00711111 </v>
   <v>       0.00711111 </v>
   <v>       0.00711111 </v>
   <v>       0.00711111 </v>
   <v>       0.00711111 </v>
   <v>       0.00711111 </v>
   <v>       0.00711111 </v>
   <v>       0.00355556 </v>
   <v>       0.00177778 </v>
   <v>       0.00711111 </v>
   <v>       0.00711111 </v>
   <v>       0.00711111 </v>
   <v>       0.00711111 </v>
   <v>       0.00711111 </v>
   <v>       0.00711111 </v>
   <v>       0.00355556 </v>
   <v>       0.00177778 </v>
   <v>       0.00711111 </v>
   <v>       0.00711111 </v>
   <v>       0.00711111 </v>
   <v>       0.00711111 </v>
   <v>       0.00355556 </v>
   <v>       0.00177778 </v>
   <v>       0.00711111 </v>
   <v>       0.00711111 </v>
   <v>       0.00355556 </v>
   <v>       0.00177778 </v>
   <v>       0.00355556 </v>
   <v>       0.00711111 </v>
   <v>       0.01422222 </v>
   <v>       0.01422222 </v>
   <v>       0.01422222 </v>
   <v>       0.01422222 </v>
   <v>       0.01422222 </v>
   <v>       0.00711111 </v>
   <v>       0.01422222 </v>
   <v>       0.01422222 </v>
   <v>       0.01422222 </v>
   <v>       0.01422222 </v>
   <v>       0.01422222 </v>
   <v>       0.01422222 </v>
   <v>       0.01422222 </v>
   <v>       0.01422222 </v>
   <v>       0.00711111 </v>
   <v>       0.00711111 </v>
   <v>       0.01422222 </v>
   <v>       0.01422222 </v>
   <v>       0.01422222 </v>
   <v>       0.01422222 </v>
   <v>       0.01422222 </v>
   <v>       0.01422222 </v>
   <v>       0.00711111 </v>
   <v>       0.00711111 </v>
   <v>       0.01422222 </v>
   <v>       0.01422222 </v>
   <v>       0.01422222 </v>
   <v>       0.01422222 </v>
   <v>       0.00711111 </v>
   <v>       0.00711111 </v>
   <v>       0.01422222 </v>
   <v>       0.01422222 </v>
   <v>       0.00711111 </v>
   <v>       0.00711111 </v>
   <v>       0.00711111 </v>
   <v>       0.00711111 </v>
   <v>       0.01422222 </v>
   <v>       0.01422222 </v>
   <v>       0.01422222 </v>
   <v>       0.00711111 </v>
   <v>       0.01422222 </v>
   <v>       0.01422222 </v>
   <v>       0.01422222 </v>
   <v>       0.01422222 </v>
   <v>       0.00711111 </v>
   <v>       0.00711111 </v>
   <v>       0.01422222 </v>
   <v>       0.01422222 </v>
   <v>       0.00711111 </v>
   <v>       0.00711111 </v>
   <v>       0.00711111 </v>
   <v>       0.00711111 </v>
   <v>       0.01422222 </v>
   <v>       0.00711111 </v>
   <v>       0.00711111 </v>
  </varray>
 </kpoints>
 <parameters>
  <separator name="general" >
   <i type="string" name="SYSTEM">unknown system</i>
   <i type="logical" name="LCOMPAT"> F  </i>
  </separator>
  <separator name="electronic" >
   <i type="string" name="PREC">accura</i>
   <i name="ENMAX">    500.00000000</i>
   <i name="ENAUG">    322.06900000</i>
   <i name="EDIFF">      0.00000100</i>
   <i type="int" name="IALGO">    38</i>
   <i type="int" name="IWAVPR">    11</i>
   <i type="int" name="NBANDS">     8</i>
   <i type="int" name="NBANDSLOW">    -1</i>
   <i type="int" name="NBANDSHIGH">    -1</i>
   <i name="NELECT">      4.00000000</i>
   <i type="int" name="TURBO">     0</i>
   <i type="int" name="IRESTART">     0</i>
   <i type="int" name="NREBOOT">     0</i>
   <i type="int" name="NMIN">     0</i>
   <i name="EREF">      0.00000000</i>
   <separator name="electronic smearing" >
    <i type="int" name="ISMEAR">     0</i>
    <i name="SIGMA">      0.05000000</i>
    <i name="KSPACING">      0.50000000</i>
    <i type="logical" name="KGAMMA"> T  </i>
    <i type="logical" name="KBLOWUP"> T  </i>
   </separator>
   <separator name="electronic projectors" >
    <i type="logical" name="LREAL"> F  </i>
    <v name="ROPT">      0.00000000</v>
    <i type="int" name="LMAXPAW">  -100</i>
    <i type="int" name="LMAXMIX">     2</i>
    <i type="logical" name="NLSPLINE"> F  </i>
   </separator>
   <separator name="electronic startup" >
    <i type="int" name="ISTART">     0</i>
    <i type="int" name="ICHARG">     2</i>
    <i type="int" name="INIWAV">     1</i>
   </separator>
   <separator name="electronic spin" >
    <i type="int" name="ISPIN">     1</i>
    <i type="logical" name="LNONCOLLINEAR"> F  </i>
    <v name="MAGMOM">      1.00000000</v>
    <i name="NUPDOWN">     -1.00000000</i>
    <i type="logical" name="LSORBIT"> F  </i>
    <v name="SAXIS">      0.00000000      0.00000000      1.00000000</v>
    <i type="logical" name="LSPIRAL"> F  </i>
    <v name="QSPIRAL">      0.00000000      0.00000000      0.00000000</v>
    <i type="logical" name="LZEROZ"> F  </i>
   </separator>
   <separator name="electronic exchange-correlation" >
    <i type="logical" name="LASPH"> T  </i>
    <i type="logical" name="LMETAGGA"> F  </i>
   </separator>
   <separator name="electronic convergence" >
    <i type="int" name="NELM">    90</i>
    <i type="int" name="NELMDL">    -5</i>
    <i type="int" name="NELMIN">     6</i>
    <i name="ENINI">    500.00000000</i>
    <separator name="electronic convergence detail" >
     <i type="logical" name="LDIAG"> T  </i>
     <i type="logical" name="LSUBROT"> F  </i>
     <i name="WEIMIN">      0.00100000</i>
     <i name="EBREAK">      0.00000003</i>
     <i name="DEPER">      0.30000000</i>
     <i type="int" name="NRMM">     4</i>
     <i name="TIME">      0.40000000</i>
    </separator>
   </separator>
   <separator name="electronic mixer" >
    <i name="AMIX">      0.40000000</i>
    <i name="BMIX">      1.00000000</i>
    <i name="AMIN">      0.10000000</i>
    <i name="AMIX_MAG">      1.60000000</i>
    <i name="BMIX_MAG">      1.00000000</i>
    <separator name="electronic mixer details" >
     <i type="int" name="IMIX">     4</i>
     <i type="logical" name="MIXFIRST"> F  </i>
     <i type="int" name="MAXMIX">   -45</i>
     <i name="WC">    100.00000000</i>
     <i type="int" name="INIMIX">     1</i>
     <i type="int" name="MIXPRE">     1</i>
     <i type="int" name="MREMOVE">     5</i>
    </separator>
   </separator>
   <separator name="electronic dipolcorrection" >
    <i type="logical" name="LDIPOL"> F  </i>
    <i type="logical" name="LMONO"> F  </i>
    <i type="int" name="IDIPOL">     0</i>
    <i name="EPSILON">      1.00000000</i>
    <v name="DIPOL">   -100.00000000   -100.00000000   -100.00000000</v>
    <i name="EFIELD">      0.00000000</i>
   </separator>
  </separator>
  <separator name="grids" >
   <i type="int" name="NGX">    20</i>
   <i type="int" name="NGY">    20</i>
   <i type="int" name="NGZ">    20</i>
   <i type="int" name="NGXF">    40</i>
   <i type="int" name="NGYF">    40</i>
   <i type="int" name="NGZF">    40</i>
   <i type="logical" name="ADDGRID"> T  </i>
  </separator>
  <separator name="ionic" >
   <i type="int" name="NSW">   100</i>
   <i type="int" name="IBRION">     2</i>
   <i type="int" name="MDALGO">     0</i>
   <i type="int" name="ISIF">     3</i>
   <i name="PSTRESS">      0.00000000</i>
   <i name="EDIFFG">     -0.00200000</i>
   <i type="int" name="NFREE">     1</i>
   <i name="POTIM">      0.50000000</i>
   <i name="SMASS">     -3.00000000</i>
   <i name="SCALEE">      1.00000000</i>
  </separator>
  <separator name="ionic md" >
   <i name="TEBEG">      0.00010000</i>
   <i name="TEEND">      0.00010000</i>
   <i type="int" name="NBLOCK">     1</i>
   <i type="int" name="KBLOCK">   100</i>
   <i type="int" name="NPACO">   256</i>
   <i name="APACO">     16.00000000</i>
  </separator>
  <separator name="symmetry" >
   <i type="int" name="ISYM">     2</i>
   <i name="SYMPREC">      0.00001000</i>
  </separator>
  <separator name="dos" >
   <i type="int" name="LORBIT">     0</i>
   <v name="RWIGS">     -1.00000000</v>
   <i type="int" name="NEDOS">   301</i>
   <i name="EMIN">     10.00000000</i>
   <i name="EMAX">    -10.00000000</i>
   <i name="EFERMI">      0.00000000</i>
  </separator>
  <separator name="writing" >
   <i type="int" name="NWRITE">     2</i>
   <i type="logical" name="LWAVE"> F  </i>
   <i type="logical" name="LDOWNSAMPLE"> F  </i>
   <i type="logical" name="LCHARG"> F  </i>
   <i type="logical" name="LPARD"> F  </i>
   <i type="logical" name="LVTOT"> F  </i>
   <i type="logical" name="LVHAR"> F  </i>
   <i type="logical" name="LELF"> F  </i>
   <i type="logical" name="LOPTICS"> F  </i>
   <v name="STM">      0.00000000      0.00000000      0.00000000      0.00000000      0.00000000      0.00000000      0.00000000</v>
  </separator>
  <separator name="performance" >
   <i type="int" name="NPAR">     4</i>
   <i type="int" name="NSIM">     4</i>
   <i type="int" name="NBLK">    -1</i>
   <i type="logical" name="LPLANE"> T  </i>
   <i type="logical" name="LSCALAPACK"> T  </i>
   <i type="logical" name="LSCAAWARE"> F  </i>
   <i type="logical" name="LSCALU"> F  </i>
   <i type="logical" name="LASYNC"> F  </i>
   <i type="logical" name="LORBITALREAL"> F  </i>
  </separator>
  <separator name="miscellaneous" >
   <i type="int" name="IDIOT">     3</i>
   <i type="int" name="PHON_NSTRUCT">    -1</i>
   <i type="logical" name="LMUSIC"> F  </i>
   <v name="POMASS">     28.08500000</v>
   <v name="DARWINR">      0.00000000</v>
   <v name="DARWINV">      1.00000000</v>
   <i type="logical" name="LCORR"> T  </i>
  </separator>
  <i type="logical" name="GGA_COMPAT"> T  </i>
  <i type="logical" name="LBERRY"> F  </i>
  <i type="int" name="ICORELEVEL">     0</i>
  <i type="logical" name="LDAU"> F  </i>
  <i type="int" name="I_CONSTRAINED_M">     0</i>
  <separator name="electronic exchange-correlation" >
   <i type="string" name="GGA">--</i>
   <i type="int" name="VOSKOWN">     0</i>
   <i type="logical" name="LHFCALC"> F  </i>
   <i type="string" name="PRECFOCK"></i>
   <i type="logical" name="LSYMGRAD"> F  </i>
   <i type="logical" name="LHFONE"> F  </i>
   <i type="logical" name="LRHFCALC"> F  </i>
   <i type="logical" name="LTHOMAS"> F  </i>
   <i type="logical" name="LMODELHF"> F  </i>
   <i type="logical" name="LFOCKACE"> F  </i>
   <i name="ENCUT4O">     -1.00000000</i>
   <i type="int" name="EXXOEP">     0</i>
   <i type="int" name="FOURORBIT">     0</i>
   <i name="AEXX">      0.00000000</i>
   <i name="HFALPHA">      0.00000000</i>
   <i name="MCALPHA">      0.00000000</i>
   <i name="ALDAX">      1.00000000</i>
   <i name="AGGAX">      1.00000000</i>
   <i name="ALDAC">      1.00000000</i>
   <i name="AGGAC">      1.00000000</i>
   <i type="int" name="NKREDX">     1</i>
   <i type="int" name="NKREDY">     1</i>
   <i type="int" name="NKREDZ">     1</i>
   <i type="logical" name="SHIFTRED"> F  </i>
   <i type="logical" name="ODDONLY"> F  </i>
   <i type="logical" name="EVENONLY"> F  </i>
   <i type="int" name="LMAXFOCK">     0</i>
   <i type="int" name="NMAXFOCKAE">     0</i>
   <i type="logical" name="LFOCKAEDFT"> F  </i>
   <i name="HFSCREEN">      0.00000000</i>
   <i name="HFSCREENC">      0.00000000</i>
   <i type="int" name="NBANDSGWLOW">     0</i>
  </separator>
  <separator name="vdW DFT" >
   <i type="logical" name="LUSE_VDW"> F  </i>
   <i name="Zab_VDW">     -0.84910000</i>
   <i name="PARAM1">      0.12340000</i>
   <i name="PARAM2">      1.00000000</i>
   <i name="PARAM3">      0.00000000</i>
  </separator>
  <separator name="model GW" >
   <i type="int" name="MODEL_GW">     0</i>
   <i name="MODEL_EPS0">      8.44895106</i>
   <i name="MODEL_ALPHA">      1.00000000</i>
  </separator>
  <separator name="linear response parameters" >
   <i type="logical" name="LEPSILON"> F  </i>
   <i type="logical" name="LRPA"> F  </i>
   <i type="logical" name="LNABLA"> F  </i>
   <i type="logical" name="LVEL"> F  </i>
   <i type="int" name="KINTER">     0</i>
   <i name="CSHIFT">      0.10000000</i>
   <i name="OMEGAMAX">     -1.00000000</i>
   <i name="DEG_THRESHOLD">      0.00200000</i>
   <i name="RTIME">     -0.10000000</i>
   <i name="WPLASMAI">      0.00000000</i>
   <v name="DFIELD">      0.00000000      0.00000000      0.00000000</v>
   <v name="WPLASMA">      0.00000000      0.00000000      0.00000000      0.00000000      0.00000000      0.00000000      0.00000000      0.00000000      0.00000000</v>
  </separator>
  <separator name="orbital magnetization" >
   <i type="logical" name="NUCIND"> F  </i>
   <v name="MAGPOS">      0.00000000      0.00000000      0.00000000</v>
   <i type="logical" name="LNICSALL"> T  </i>
   <i type="logical" name="ORBITALMAG"> F  </i>
   <i type="logical" name="LMAGBLOCH"> F  </i>
   <i type="logical" name="LCHIMAG"> F  </i>
   <i type="logical" name="LGAUGE"> T  </i>
   <i type="int" name="MAGATOM">     0</i>
   <v name="MAGDIPOL">      0.00000000      0.00000000      0.00000000</v>
   <v name="AVECCONST">      0.00000000      0.00000000      0.00000000</v>
  </separator>
  <separator name="response functions" >
   <i type="logical" name="LFINITE_TEMPERATURE"> F  </i>
   <i type="logical" name="LADDER"> F  </i>
   <i type="logical" name="LRPAFORCE"> F  </i>
   <i type="logical" name="LFXC"> F  </i>
   <i type="logical" name="LHARTREE"> T  </i>
   <i type="int" name="IBSE">     0</i>
   <v type="int" name="KPOINT">    -1     0     0     0</v>
   <i type="logical" name="LTCTC"> F  </i>
   <i type="logical" name="LTCTE"> F  </i>
   <i type="logical" name="LTETE"> F  </i>
   <i type="logical" name="LTRIPLET"> F  </i>
   <i type="logical" name="LFXCEPS"> F  </i>
   <i type="logical" name="LFXHEG"> F  </i>
   <i type="int" name="NATURALO">     2</i>
   <i type="logical" name="LHOLEGF"> F  </i>
   <i type="logical" name="L2ORDER"> F  </i>
   <i type="logical" name="LDMP1"> F  </i>
   <i type="logical" name="LMP2LT"> F  </i>
   <i type="logical" name="LSMP2LT"> F  </i>
   <i type="logical" name="LGWLF"> F  </i>
   <i name="ENCUTGW">     -2.00000000</i>
   <i name="ENCUTGWSOFT">     -2.00000000</i>
   <i name="ENCUTLF">     -1.00000000</i>
   <i type="logical" name="LESF_SPLINES"> F  </i>
   <i type="int" name="LMAXMP2">    -1</i>
   <i name="SCISSOR">      0.00000000</i>
   <i type="int" name="NOMEGA">     0</i>
   <i type="int" name="NOMEGAR">     0</i>
   <i type="int" name="NBANDSGW">    -1</i>
   <i type="int" name="NBANDSO">    -1</i>
   <i type="int" name="NBANDSV">    -1</i>
   <i type="int" name="NELM">    90</i>
   <i type="int" name="NELMHF">     1</i>
   <i type="int" name="DIM">     3</i>
   <i type="int" name="IESPILON">     4</i>
   <i type="int" name="ANTIRES">     0</i>
   <i name="OMEGAMAX">    -30.00000000</i>
   <i name="OMEGAMIN">    -30.00000000</i>
   <i name="OMEGATL">   -200.00000000</i>
   <i type="int" name="OMEGAGRID">     0</i>
   <i name="CSHIFT">     -0.10000000</i>
   <i type="logical" name="LSELFENERGY"> F  </i>
   <i type="logical" name="LSPECTRAL"> F  </i>
   <i type="logical" name="LSPECTRALGW"> F  </i>
   <i type="logical" name="LSINGLES"> F  </i>
   <i type="logical" name="LFERMIGW"> F  </i>
   <i type="logical" name="ODDONLYGW"> F  </i>
   <i type="logical" name="EVENONLYGW"> F  </i>
   <i type="int" name="NKREDLFX">     1</i>
   <i type="int" name="NKREDLFY">     1</i>
   <i type="int" name="NKREDLFZ">     1</i>
   <i type="int" name="MAXMEM">  2800</i>
   <i type="int" name="TELESCOPE">     0</i>
   <i type="int" name="NTAUPAR">    -1</i>
   <i type="int" name="NOMEGAPAR">    -1</i>
   <i name="DAMP_NEWTON">      0.80000001</i>
   <i name="LAMBDA">      1.00000000</i>
  </separator>
  <separator name="External order field" >
   <i name="OFIELD_KAPPA">      0.00000000</i>
   <v name="OFIELD_K">      0.00000000      0.00000000      0.00000000</v>
   <i name="OFIELD_Q6_NEAR">      0.00000000</i>
   <i name="OFIELD_Q6_FAR">      0.00000000</i>
   <i name="OFIELD_A">      0.00000000</i>
  </separator>
 </parameters>
 <atominfo>
  <atoms>       1 </atoms>
  <types>       1 </types>
  <array name="atoms" >
   <dimension dim="1">ion</dimension>
   <field type="string">element</field>
   <field type="int">atomtype</field>
   <set>
    <rc><c>Si</c><c>   1</c></rc>
   </set>
  </array>
  <array name="atomtypes" >
   <dimension dim="1">type</dimension>
   <field type="int">atomspertype</field>
   <field type="string">element</field>
   <field>mass</field>
   <field>valence</field>
   <field type="string">pseudopotential</field>
   <set>
    <rc><c>   1</c><c>Si</c><c>     28.08500000</c><c>      4.00000000</c><c>  PAW_PBE Si 05Jan2001                  </c></rc>
   </set>
  </array>
 </atominfo>
 <structure name="initialpos" >
  <crystal>
   <varray name="basis" >
    <v>       2.34739500       0.00000000       1.35526800 </v>
    <v>       0.78246500       2.21314500       1.35526800 </v>
    <v>       0.00000000       0.00000000       2.71053800 </v>
   </varray>
   <i name="volume">     14.08158510 </i>
   <varray name="rec_basis" >
    <v>       0.42600415      -0.15061523       0.00000000 </v>
    <v>       0.00000000       0.45184568       0.00000000 </v>
    <v>      -0.21300192      -0.15061511       0.36893045 </v>
   </varray>
  </crystal>
  <varray name="positions" >
   <v>       0.00000000       0.00000000       0.00000000 </v>
  </varray>
 </structure>
 <calculation>
  <scstep>
   <time name="dav">    0.79    0.79</time>
   <time name="total">    0.98    0.98</time>
   <energy>
    <i name="alphaZ">      2.39057823 </i>
    <i name="ewald">   -137.78496289 </i>
    <i name="hartreedc">     -0.54229904 </i>
    <i name="XCdc">     -8.73347972 </i>
    <i name="pawpsdc">     88.12379961 </i>
    <i name="pawaedc">    -70.53051779 </i>
    <i name="eentropy">     -0.00039696 </i>
    <i name="bandstr">     21.46318542 </i>
    <i name="atom">    103.06625672 </i>
    <i name="e_fr_energy">     -2.54783642 </i>
    <i name="e_wo_entrp">     -2.54743946 </i>
    <i name="e_0_energy">     -2.54763794 </i>
   </energy>
  </scstep>
  <scstep>
   <time name="dav">    1.09    1.10</time>
   <time name="total">    1.09    1.10</time>
   <energy>
    <i name="e_fr_energy">     -4.88961698 </i>
    <i name="e_wo_entrp">     -4.88878288 </i>
    <i name="e_0_energy">     -4.88919993 </i>
   </energy>
  </scstep>
  <scstep>
   <time name="dav">    0.82    0.83</time>
   <time name="total">    0.82    0.83</time>
   <energy>
    <i name="e_fr_energy">     -4.90312627 </i>
    <i name="e_wo_entrp">     -4.90238532 </i>
    <i name="e_0_energy">     -4.90275580 </i>
   </energy>
  </scstep>
  <scstep>
   <time name="dav">    1.20    1.21</time>
   <time name="total">    1.20    1.21</time>
   <energy>
    <i name="e_fr_energy">     -4.90313928 </i>
    <i name="e_wo_entrp">     -4.90239837 </i>
    <i name="e_0_energy">     -4.90276882 </i>
   </energy>
  </scstep>
  <scstep>
   <time name="dav">    0.85    0.87</time>
   <time name="total">    0.91    0.93</time>
   <energy>
    <i name="e_fr_energy">     -4.90313928 </i>
    <i name="e_wo_entrp">     -4.90239837 </i>
    <i name="e_0_energy">     -4.90276882 </i>
   </energy>
  </scstep>
  <scstep>
   <time name="dav">    0.86    0.87</time>
   <time name="total">    1.11    1.12</time>
   <energy>
    <i name="e_fr_energy">     -4.88954374 </i>
    <i name="e_wo_entrp">     -4.88878114 </i>
    <i name="e_0_energy">     -4.88916244 </i>
   </energy>
  </scstep>
  <scstep>
   <time name="dav">    0.84    0.85</time>
   <time name="total">    1.09    1.11</time>
   <energy>
    <i name="e_fr_energy">     -4.88173574 </i>
    <i name="e_wo_entrp">     -4.88094654 </i>
    <i name="e_0_energy">     -4.88134114 </i>
   </energy>
  </scstep>
  <scstep>
   <time name="dav">    1.09    1.09</time>
   <time name="total">    1.34    1.36</time>
   <energy>
    <i name="e_fr_energy">     -4.88169663 </i>
    <i name="e_wo_entrp">     -4.88090759 </i>
    <i name="e_0_energy">     -4.88130211 </i>
   </energy>
  </scstep>
  <scstep>
   <time name="dav">    0.92    0.92</time>
   <time name="total">    1.11    1.13</time>
   <energy>
    <i name="alphaZ">      2.39057823 </i>
    <i name="ewald">   -137.78496289 </i>
    <i name="hartreedc">     -0.40756457 </i>
    <i name="XCdc">     -8.67265637 </i>
    <i name="pawpsdc">    315.88523944 </i>
    <i name="pawaedc">   -298.30357491 </i>
    <i name="eentropy">     -0.00078911 </i>
    <i name="bandstr">     18.94577651 </i>
    <i name="atom">    103.06625672 </i>
    <i name="e_fr_energy">     -4.88169695 </i>
    <i name="e_wo_entrp">     -4.88090784 </i>
    <i name="e_0_energy">     -4.88130239 </i>
   </energy>
  </scstep>
  <structure>
   <crystal>
    <varray name="basis" >
     <v>       2.34739500       0.00000000       1.35526800 </v>
     <v>       0.78246500       2.21314500       1.35526800 </v>
     <v>       0.00000000       0.00000000       2.71053800 </v>
    </varray>
    <i name="volume">     14.08158510 </i>
    <varray name="rec_basis" >
     <v>       0.42600415      -0.15061523       0.00000000 </v>
     <v>       0.00000000       0.45184568       0.00000000 </v>
     <v>      -0.21300192      -0.15061511       0.36893045 </v>
    </varray>
   </crystal>
   <varray name="positions" >
    <v>       0.00000000       0.00000000       0.00000000 </v>
   </varray>
  </structure>
  <varray name="forces" >
   <v>       0.00000000       0.00000000      -0.00000000 </v>
  </varray>
  <varray name="stress" >
   <v>      21.70352569       0.00000000      -0.00000925 </v>
   <v>      -0.00000000      21.70352117      -0.00000654 </v>
   <v>      -0.00000925      -0.00000654      21.70352136 </v>
  </varray>
  <energy>
   <i name="e_fr_energy">     -4.88169695 </i>
   <i name="e_wo_entrp">     -4.88090784 </i>
   <i name="e_0_energy">     -4.88130239 </i>
  </energy>
  <time name="totalsc">   10.91   11.19</time>
 </calculation>
 <calculation>
  <scstep>
   <time name="dav">    0.79    0.79</time>
   <time name="total">    1.04    1.04</time>
   <energy>
    <i name="alphaZ">      2.32577716 </i>
    <i name="ewald">   -136.52856869 </i>
    <i name="hartreedc">     -0.40378427 </i>
    <i name="XCdc">     -8.74434816 </i>
    <i name="pawpsdc">    315.89352237 </i>
    <i name="pawaedc">   -298.31157093 </i>
    <i name="eentropy">     -0.00080297 </i>
    <i name="bandstr">     17.81803860 </i>
    <i name="atom">    103.06625672 </i>
    <i name="e_fr_energy">     -4.88548019 </i>
    <i name="e_wo_entrp">     -4.88467722 </i>
    <i name="e_0_energy">     -4.88507870 </i>
   </energy>
  </scstep>
  <scstep>
   <time name="dav">    1.00    1.00</time>
   <time name="total">    1.25    1.27</time>
   <energy>
    <i name="e_fr_energy">     -4.88458103 </i>
    <i name="e_wo_entrp">     -4.88376886 </i>
    <i name="e_0_energy">     -4.88417494 </i>
   </energy>
  </scstep>
  <scstep>
   <time name="dav">    0.79    0.79</time>
   <time name="total">    1.04    1.06</time>
   <energy>
    <i name="e_fr_energy">     -4.88405170 </i>
    <i name="e_wo_entrp">     -4.88322731 </i>
    <i name="e_0_energy">     -4.88363950 </i>
   </energy>
  </scstep>
  <scstep>
   <time name="dav">    1.07    1.07</time>
   <time name="total">    1.32    1.34</time>
   <energy>
    <i name="e_fr_energy">     -4.88405104 </i>
    <i name="e_wo_entrp">     -4.88322673 </i>
    <i name="e_0_energy">     -4.88363888 </i>
   </energy>
  </scstep>
  <scstep>
   <time name="dav">    0.64    0.64</time>
   <time name="total">    0.89    0.91</time>
   <energy>
    <i name="e_fr_energy">     -4.88404751 </i>
    <i name="e_wo_entrp">     -4.88322331 </i>
    <i name="e_0_energy">     -4.88363541 </i>
   </energy>
  </scstep>
  <scstep>
   <time name="dav">    0.52    0.52</time>
   <time name="total">    0.71    0.72</time>
   <energy>
    <i name="alphaZ">      2.32577716 </i>
    <i name="ewald">   -136.52856869 </i>
    <i name="hartreedc">     -0.44792637 </i>
    <i name="XCdc">     -8.75368534 </i>
    <i name="pawpsdc">    297.21869331 </i>
    <i name="pawaedc">   -279.63202503 </i>
    <i name="eentropy">     -0.00082422 </i>
    <i name="bandstr">     17.86825469 </i>
    <i name="atom">    103.06625672 </i>
    <i name="e_fr_energy">     -4.88404778 </i>
    <i name="e_wo_entrp">     -4.88322356 </i>
    <i name="e_0_energy">     -4.88363567 </i>
   </energy>
  </scstep>
  <structure>
   <crystal>
    <varray name="basis" >
     <v>       2.36899673      -0.00000000       1.36773974 </v>
     <v>       0.78966557       2.23351130       1.36773974 </v>
     <v>      -0.00000001      -0.00000001       2.73548153 </v>
    </varray>
    <i name="volume">     14.47392784 </i>
    <varray name="rec_basis" >
     <v>       0.42211962      -0.14924184       0.00000000 </v>
     <v>       0.00000000       0.44772552       0.00000000 </v>
     <v>      -0.21105965      -0.14924173       0.36556635 </v>
    </varray>
   </crystal>
   <varray name="positions" >
    <v>       0.00000000       0.00000000      -0.00000000 </v>
   </varray>
  </structure>
  <varray name="forces" >
   <v>       0.00000000      -0.00000000      -0.00000000 </v>
  </varray>
  <varray name="stress" >
   <v>      -1.92186856      -0.00000000       0.00000083 </v>
   <v>       0.00000000      -1.92186815       0.00000059 </v>
   <v>       0.00000083       0.00000059      -1.92186817 </v>
  </varray>
  <energy>
   <i name="e_fr_energy">     -4.88404778 </i>
   <i name="e_wo_entrp">     -4.88322356 </i>
   <i name="e_0_energy">     -4.88363567 </i>
  </energy>
  <time name="totalsc">    7.47    7.69</time>
 </calculation>
 <calculation>
  <scstep>
   <time name="dav">    0.78    0.78</time>
   <time name="total">    1.03    1.03</time>
   <energy>
    <i name="alphaZ">      2.33131835 </i>
    <i name="ewald">   -136.63690967 </i>
    <i name="hartreedc">     -0.44827736 </i>
    <i name="XCdc">     -8.74755088 </i>
    <i name="pawpsdc">    297.09469831 </i>
    <i name="pawaedc">   -279.50803403 </i>
    <i name="eentropy">     -0.00082929 </i>
    <i name="bandstr">     17.96524869 </i>
    <i name="atom">    103.06625672 </i>
    <i name="e_fr_energy">     -4.88407916 </i>
    <i name="e_wo_entrp">     -4.88324986 </i>
    <i name="e_0_energy">     -4.88366451 </i>
   </energy>
  </scstep>
  <scstep>
   <time name="dav">    0.99    0.99</time>
   <time name="total">    1.24    1.25</time>
   <energy>
    <i name="e_fr_energy">     -4.88407226 </i>
    <i name="e_wo_entrp">     -4.88324361 </i>
    <i name="e_0_energy">     -4.88365793 </i>
   </energy>
  </scstep>
  <scstep>
   <time name="dav">    0.78    0.78</time>
   <time name="total">    1.03    1.05</time>
   <energy>
    <i name="e_fr_energy">     -4.88406858 </i>
    <i name="e_wo_entrp">     -4.88324084 </i>
    <i name="e_0_energy">     -4.88365471 </i>
   </energy>
  </scstep>
  <scstep>
   <time name="dav">    0.49    0.49</time>
   <time name="total">    0.74    0.76</time>
   <energy>
    <i name="e_fr_energy">     -4.88406859 </i>
    <i name="e_wo_entrp">     -4.88324085 </i>
    <i name="e_0_energy">     -4.88365472 </i>
   </energy>
  </scstep>
  <scstep>
   <time name="dav">    0.48    0.48</time>
   <time name="total">    0.73    0.74</time>
   <energy>
    <i name="e_fr_energy">     -4.88406878 </i>
    <i name="e_wo_entrp">     -4.88324103 </i>
    <i name="e_0_energy">     -4.88365490 </i>
   </energy>
  </scstep>
  <scstep>
   <time name="dav">    0.48    0.48</time>
   <time name="total">    0.67    0.69</time>
   <energy>
    <i name="alphaZ">      2.33131835 </i>
    <i name="ewald">   -136.63690967 </i>
    <i name="hartreedc">     -0.44423152 </i>
    <i name="XCdc">     -8.74673674 </i>
    <i name="pawpsdc">    298.55989894 </i>
    <i name="pawaedc">   -280.97363244 </i>
    <i name="eentropy">     -0.00082775 </i>
    <i name="bandstr">     17.96079536 </i>
    <i name="atom">    103.06625672 </i>
    <i name="e_fr_energy">     -4.88406875 </i>
    <i name="e_wo_entrp">     -4.88324101 </i>
    <i name="e_0_energy">     -4.88365488 </i>
   </energy>
  </scstep>
  <structure>
   <crystal>
    <varray name="basis" >
     <v>       2.36711832      -0.00000000       1.36665525 </v>
     <v>       0.78903944       2.23174032       1.36665525 </v>
     <v>      -0.00000001      -0.00000001       2.73331253 </v>
    </varray>
    <i name="volume">     14.43952550 </i>
    <varray name="rec_basis" >
     <v>       0.42245459      -0.14936027       0.00000000 </v>
     <v>       0.00000000       0.44808080       0.00000000 </v>
     <v>      -0.21122714      -0.14936016       0.36585644 </v>
    </varray>
   </crystal>
   <varray name="positions" >
    <v>       0.00000000       0.00000000      -0.00000000 </v>
   </varray>
  </structure>
  <varray name="forces" >
   <v>       0.00000000      -0.00000000       0.00000000 </v>
  </varray>
  <varray name="stress" >
   <v>       0.01880480       0.00000000      -0.00000001 </v>
   <v>       0.00000000       0.01880480      -0.00000001 </v>
   <v>      -0.00000001      -0.00000001       0.01880480 </v>
  </varray>
  <energy>
   <i name="e_fr_energy">     -4.88406875 </i>
   <i name="e_wo_entrp">     -4.88324101 </i>
   <i name="e_0_energy">     -4.88365488 </i>
  </energy>
  <time name="totalsc">    6.56    6.77</time>
  <eigenvalues>
   <array>
    <dimension dim="1">band</dimension>
    <dimension dim="2">kpoint</dimension>
    <dimension dim="3">spin</dimension>
    <field>eigene</field>
    <field>occ</field>
    <set>
     <set comment="spin 1">
      <set comment="kpoint 1">
       <r>   -4.2753    1.0000 </r>
       <r>   21.3626    0.0000 </r>
       <r>   21.3626    0.0000 </r>
       <r>   21.3626    0.0000 </r>
       <r>   22.1347    0.0000 </r>
       <r>   22.1347    0.0000 </r>
       <r>   22.1347    0.0000 </r>
       <r>   27.4763    0.0000 </r>
      </set>
      <set comment="kpoint 2">
       <r>   -4.1456    1.0000 </r>
       <r>   19.2073    0.0000 </r>
       <r>   20.6890    0.0000 </r>
       <r>   20.6890    0.0000 </r>
       <r>   22.9672    0.0000 </r>
       <r>   22.9672    0.0000 </r>
       <r>   23.1874    0.0000 </r>
       <r>   28.3599    0.0000 </r>
      </set>
      <set comment="kpoint 3">
       <r>   -3.7572    1.0000 </r>
       <r>   16.3776    0.0000 </r>
       <r>   19.9264    0.0000 </r>
       <r>   19.9265    0.0000 </r>
       <r>   23.4741    0.0000 </r>
       <r>   24.0604    0.0000 </r>
       <r>   24.0605    0.0000 </r>
       <r>   27.3291    0.0000 </r>
      </set>
      <set comment="kpoint 4">
       <r>   -3.1116    1.0000 </r>
       <r>   13.5476    0.0000 </r>
       <r>   19.3493    0.0000 </r>
       <r>   19.3493    0.0000 </r>
       <r>   23.4042    0.0000 </r>
       <r>   24.2827    0.0000 </r>
       <r>   24.2827    0.0000 </r>
       <r>   27.3074    0.0000 </r>
      </set>
      <set comment="kpoint 5">
       <r>   -2.2115    1.0000 </r>
       <r>   10.8446    0.0000 </r>
       <r>   18.9704    0.0000 </r>
       <r>   18.9704    0.0000 </r>
       <r>   23.3074    0.0000 </r>
       <r>   23.3907    0.0000 </r>
       <r>   23.3907    0.0000 </r>
       <r>   28.7036    0.0000 </r>
      </set>
      <set comment="kpoint 6">
       <r>   -1.0610    1.0000 </r>
       <r>    8.3199    1.0000 </r>
       <r>   18.7782    0.0000 </r>
       <r>   18.7782    0.0000 </r>
       <r>   22.3841    0.0000 </r>
       <r>   22.3841    0.0000 </r>
       <r>   23.2945    0.0000 </r>
       <r>   27.5392    0.0000 </r>
      </set>
      <set comment="kpoint 7">
       <r>    0.3329    1.0000 </r>
       <r>    6.0018    1.0000 </r>
       <r>   18.7374    0.0000 </r>
       <r>   18.7374    0.0000 </r>
       <r>   21.5788    0.0000 </r>
       <r>   21.5788    0.0000 </r>
       <r>   23.3807    0.0000 </r>
       <r>   26.6186    0.0000 </r>
      </set>
      <set comment="kpoint 8">
       <r>    1.9404    1.0000 </r>
       <r>    3.9301    1.0000 </r>
       <r>   18.7689    0.0000 </r>
       <r>   18.7689    0.0000 </r>
       <r>   21.1156    0.0000 </r>
       <r>   21.1156    0.0000 </r>
       <r>   23.4923    0.0000 </r>
       <r>   26.0770    0.0000 </r>
      </set>
      <set comment="kpoint 9">
       <r>   -4.1024    1.0000 </r>
       <r>   19.6849    0.0000 </r>
       <r>   19.6849    0.0000 </r>
       <r>   20.9597    0.0000 </r>
       <r>   21.2167    0.0000 </r>
       <r>   24.0288    0.0000 </r>
       <r>   24.0288    0.0000 </r>
       <r>   27.2404    0.0000 </r>
      </set>
      <set comment="kpoint 10">
       <r>   -3.8003    1.0000 </r>
       <r>   17.3852    0.0000 </r>
       <r>   18.8436    0.0000 </r>
       <r>   20.3982    0.0000 </r>
       <r>   21.7632    0.0000 </r>
       <r>   24.7469    0.0000 </r>
       <r>   25.1779    0.0000 </r>
       <r>   25.7710    0.0000 </r>
      </set>
      <set comment="kpoint 11">
       <r>   -3.2405    1.0000 </r>
       <r>   14.5703    0.0000 </r>
       <r>   18.2074    0.0000 </r>
       <r>   19.7662    0.0000 </r>
       <r>   22.4518    0.0000 </r>
       <r>   24.5448    0.0000 </r>
       <r>   25.2997    0.0000 </r>
       <r>   25.7901    0.0000 </r>
      </set>
      <set comment="kpoint 12">
       <r>   -2.4253    1.0000 </r>
       <r>   11.8277    0.0000 </r>
       <r>   17.7859    0.0000 </r>
       <r>   19.2554    0.0000 </r>
       <r>   21.8866    0.0000 </r>
       <r>   24.3829    0.0000 </r>
       <r>   25.1359    0.0000 </r>
       <r>   26.3326    0.0000 </r>
      </set>
      <set comment="kpoint 13">
       <r>   -1.3582    1.0000 </r>
       <r>    9.2446    1.0000 </r>
       <r>   17.5802    0.0000 </r>
       <r>   18.8209    0.0000 </r>
       <r>   21.0149    0.0000 </r>
       <r>   24.1000    0.0000 </r>
       <r>   24.3590    0.0000 </r>
       <r>   27.9276    0.0000 </r>
      </set>
      <set comment="kpoint 14">
       <r>   -0.0449    1.0000 </r>
       <r>    6.8577    1.0000 </r>
       <r>   17.5865    0.0000 </r>
       <r>   18.3485    0.0000 </r>
       <r>   20.4953    0.0000 </r>
       <r>   23.1421    0.0000 </r>
       <r>   24.3774    0.0000 </r>
       <r>   27.8370    0.0000 </r>
      </set>
      <set comment="kpoint 15">
       <r>    1.4998    1.0000 </r>
       <r>    4.6957    1.0000 </r>
       <r>   17.7952    0.0000 </r>
       <r>   17.8096    0.0000 </r>
       <r>   20.4561    0.0000 </r>
       <r>   22.3758    0.0000 </r>
       <r>   24.4011    0.0000 </r>
       <r>   27.2981    0.0000 </r>
      </set>
      <set comment="kpoint 16">
       <r>    2.5704    1.0000 </r>
       <r>    3.4704    1.0000 </r>
       <r>   17.3206    0.0000 </r>
       <r>   18.1853    0.0000 </r>
       <r>   20.8059    0.0000 </r>
       <r>   21.8530    0.0000 </r>
       <r>   24.3387    0.0000 </r>
       <r>   27.2097    0.0000 </r>
      </set>
      <set comment="kpoint 17">
       <r>    0.9615    1.0000 </r>
       <r>    5.3885    1.0000 </r>
       <r>   16.9789    0.0000 </r>
       <r>   18.7124    0.0000 </r>
       <r>   21.4516    0.0000 </r>
       <r>   21.6263    0.0000 </r>
       <r>   24.1894    0.0000 </r>
       <r>   27.6050    0.0000 </r>
      </set>
      <set comment="kpoint 18">
       <r>   -0.5095    1.0000 </r>
       <r>    7.6297    1.0000 </r>
       <r>   16.8285    0.0000 </r>
       <r>   19.2945    0.0000 </r>
       <r>   21.7708    0.0000 </r>
       <r>   22.3391    0.0000 </r>
       <r>   24.0565    0.0000 </r>
       <r>   28.3360    0.0000 </r>
      </set>
      <set comment="kpoint 19">
       <r>   -1.7416    1.0000 </r>
       <r>   10.0845    0.9941 </r>
       <r>   16.8880    0.0000 </r>
       <r>   19.8476    0.0000 </r>
       <r>   22.3348    0.0000 </r>
       <r>   23.4169    0.0000 </r>
       <r>   24.0052    0.0000 </r>
       <r>   27.9881    0.0000 </r>
      </set>
      <set comment="kpoint 20">
       <r>   -2.7252    1.0000 </r>
       <r>   12.7250    0.0000 </r>
       <r>   17.1645    0.0000 </r>
       <r>   20.3870    0.0000 </r>
       <r>   23.1410    0.0000 </r>
       <r>   24.0169    0.0000 </r>
       <r>   24.5643    0.0000 </r>
       <r>   26.3125    0.0000 </r>
      </set>
      <set comment="kpoint 21">
       <r>   -3.4556    1.0000 </r>
       <r>   15.5037    0.0000 </r>
       <r>   17.6601    0.0000 </r>
       <r>   20.9806    0.0000 </r>
       <r>   23.2489    0.0000 </r>
       <r>   23.9708    0.0000 </r>
       <r>   25.1849    0.0000 </r>
       <r>   25.8778    0.0000 </r>
      </set>
      <set comment="kpoint 22">
       <r>   -3.9298    1.0000 </r>
       <r>   18.2069    0.0000 </r>
       <r>   18.4663    0.0000 </r>
       <r>   21.4426    0.0000 </r>
       <r>   22.4690    0.0000 </r>
       <r>   23.6082    0.0000 </r>
       <r>   24.4905    0.0000 </r>
       <r>   26.9968    0.0000 </r>
      </set>
      <set comment="kpoint 23">
       <r>   -3.5847    1.0000 </r>
       <r>   17.9297    0.0000 </r>
       <r>   17.9297    0.0000 </r>
       <r>   19.5669    0.0000 </r>
       <r>   19.8882    0.0000 </r>
       <r>   23.9655    0.0000 </r>
       <r>   26.4027    0.0000 </r>
       <r>   26.4027    0.0000 </r>
      </set>
      <set comment="kpoint 24">
       <r>   -3.1113    1.0000 </r>
       <r>   15.7355    0.0000 </r>
       <r>   17.2225    0.0000 </r>
       <r>   19.0328    0.0000 </r>
       <r>   20.1402    0.0000 </r>
       <r>   22.6562    0.0000 </r>
       <r>   27.1194    0.0000 </r>
       <r>   27.3606    0.0000 </r>
      </set>
      <set comment="kpoint 25">
       <r>   -2.3820    1.0000 </r>
       <r>   13.0158    0.0000 </r>
       <r>   16.7328    0.0000 </r>
       <r>   18.3199    0.0000 </r>
       <r>   20.0286    0.0000 </r>
       <r>   23.0116    0.0000 </r>
       <r>   27.0934    0.0000 </r>
       <r>   27.2961    0.0000 </r>
      </set>
      <set comment="kpoint 26">
       <r>   -1.4000    1.0000 </r>
       <r>   10.3950    0.0000 </r>
       <r>   16.4640    0.0000 </r>
       <r>   17.4981    0.0000 </r>
       <r>   19.4284    0.0000 </r>
       <r>   24.4909    0.0000 </r>
       <r>   26.1348    0.0000 </r>
       <r>   27.4568    0.0000 </r>
      </set>
      <set comment="kpoint 27">
       <r>   -0.1699    1.0000 </r>
       <r>    7.9500    1.0000 </r>
       <r>   16.4160    0.0000 </r>
       <r>   16.5888    0.0000 </r>
       <r>   19.1829    0.0000 </r>
       <r>   25.1492    0.0000 </r>
       <r>   25.7527    0.0000 </r>
       <r>   28.1505    0.0000 </r>
      </set>
      <set comment="kpoint 28">
       <r>    1.2990    1.0000 </r>
       <r>    5.7146    1.0000 </r>
       <r>   15.7463    0.0000 </r>
       <r>   16.5866    0.0000 </r>
       <r>   19.2887    0.0000 </r>
       <r>   24.3053    0.0000 </r>
       <r>   26.1316    0.0000 </r>
       <r>   29.6549    0.0000 </r>
      </set>
      <set comment="kpoint 29">
       <r>    2.9090    1.0000 </r>
       <r>    3.7963    1.0000 </r>
       <r>   15.0670    0.0000 </r>
       <r>   16.9708    0.0000 </r>
       <r>   19.6819    0.0000 </r>
       <r>   23.6593    0.0000 </r>
       <r>   26.0414    0.0000 </r>
       <r>   29.7873    0.0000 </r>
      </set>
      <set comment="kpoint 30">
       <r>    1.8367    1.0000 </r>
       <r>    5.0220    1.0000 </r>
       <r>   14.5911    0.0000 </r>
       <r>   17.5590    0.0000 </r>
       <r>   20.3302    0.0000 </r>
       <r>   23.2388    0.0000 </r>
       <r>   25.8094    0.0000 </r>
       <r>   30.0910    0.0000 </r>
      </set>
      <set comment="kpoint 31">
       <r>    0.2938    1.0000 </r>
       <r>    7.1776    1.0000 </r>
       <r>   14.3357    0.0000 </r>
       <r>   18.3324    0.0000 </r>
       <r>   21.2120    0.0000 </r>
       <r>   23.0642    0.0000 </r>
       <r>   25.5786    0.0000 </r>
       <r>   29.6229    0.0000 </r>
      </set>
      <set comment="kpoint 32">
       <r>   -1.0174    1.0000 </r>
       <r>    9.5515    1.0000 </r>
       <r>   14.3102    0.0000 </r>
       <r>   19.2530    0.0000 </r>
       <r>   22.3011    0.0000 </r>
       <r>   23.1556    0.0000 </r>
       <r>   25.3903    0.0000 </r>
       <r>   27.4660    0.0000 </r>
      </set>
      <set comment="kpoint 33">
       <r>   -2.0828    1.0000 </r>
       <r>   12.1021    0.0000 </r>
       <r>   14.5277    0.0000 </r>
       <r>   20.2402    0.0000 </r>
       <r>   23.5004    0.0000 </r>
       <r>   23.5434    0.0000 </r>
       <r>   25.1773    0.0000 </r>
       <r>   25.5920    0.0000 </r>
      </set>
      <set comment="kpoint 34">
       <r>   -2.8967    1.0000 </r>
       <r>   14.5624    0.0000 </r>
       <r>   15.2088    0.0000 </r>
       <r>   21.0805    0.0000 </r>
       <r>   23.4676    0.0000 </r>
       <r>   24.7359    0.0000 </r>
       <r>   24.7585    0.0000 </r>
       <r>   24.8690    0.0000 </r>
      </set>
      <set comment="kpoint 35">
       <r>   -2.7247    1.0000 </r>
       <r>   16.4420    0.0000 </r>
       <r>   16.4420    0.0000 </r>
       <r>   17.9888    0.0000 </r>
       <r>   18.1370    0.0000 </r>
       <r>   20.9637    0.0000 </r>
       <r>   28.8205    0.0000 </r>
       <r>   28.8205    0.0000 </r>
      </set>
      <set comment="kpoint 36">
       <r>   -2.0821    1.0000 </r>
       <r>   14.3460    0.0000 </r>
       <r>   15.8793    0.0000 </r>
       <r>   16.9873    0.0000 </r>
       <r>   18.2508    0.0000 </r>
       <r>   20.5323    0.0000 </r>
       <r>   29.1429    0.0000 </r>
       <r>   29.5592    0.0000 </r>
      </set>
      <set comment="kpoint 37">
       <r>   -1.1862    1.0000 </r>
       <r>   11.7492    0.0000 </r>
       <r>   15.5388    0.0000 </r>
       <r>   15.7611    0.0000 </r>
       <r>   18.1546    0.0000 </r>
       <r>   21.7978    0.0000 </r>
       <r>   28.3422    0.0000 </r>
       <r>   29.7210    0.0000 </r>
      </set>
      <set comment="kpoint 38">
       <r>   -0.0412    1.0000 </r>
       <r>    9.2673    1.0000 </r>
       <r>   14.5923    0.0000 </r>
       <r>   15.4216    0.0000 </r>
       <r>   18.0397    0.0000 </r>
       <r>   23.6952    0.0000 </r>
       <r>   27.3796    0.0000 </r>
       <r>   29.6443    0.0000 </r>
      </set>
      <set comment="kpoint 39">
       <r>    1.3460    1.0000 </r>
       <r>    6.9723    1.0000 </r>
       <r>   13.5849    0.0000 </r>
       <r>   15.5271    0.0000 </r>
       <r>   18.1515    0.0000 </r>
       <r>   25.7044    0.0000 </r>
       <r>   26.5030    0.0000 </r>
       <r>   29.5214    0.0000 </r>
      </set>
      <set comment="kpoint 40">
       <r>    2.9485    1.0000 </r>
       <r>    4.9114    1.0000 </r>
       <r>   12.7828    0.0000 </r>
       <r>   15.8535    0.0000 </r>
       <r>   18.5106    0.0000 </r>
       <r>   25.7939    0.0000 </r>
       <r>   27.2330    0.0000 </r>
       <r>   29.8266    0.0000 </r>
      </set>
      <set comment="kpoint 41">
       <r>    2.9489    1.0000 </r>
       <r>    4.9084    1.0000 </r>
       <r>   12.2054    0.0000 </r>
       <r>   16.3965    0.0000 </r>
       <r>   19.1131    0.0000 </r>
       <r>   25.2874    0.0000 </r>
       <r>   27.5453    0.0000 </r>
       <r>   31.0132    0.0000 </r>
      </set>
      <set comment="kpoint 42">
       <r>    1.3455    1.0000 </r>
       <r>    6.9620    1.0000 </r>
       <r>   11.8651    0.0000 </r>
       <r>   17.1483    0.0000 </r>
       <r>   19.9491    0.0000 </r>
       <r>   25.0019    0.0000 </r>
       <r>   27.3054    0.0000 </r>
       <r>   29.4423    0.0000 </r>
      </set>
      <set comment="kpoint 43">
       <r>   -0.0420    1.0000 </r>
       <r>    9.2292    1.0000 </r>
       <r>   11.7835    0.0000 </r>
       <r>   18.0914    0.0000 </r>
       <r>   21.0013    0.0000 </r>
       <r>   24.9496    0.0000 </r>
       <r>   26.8965    0.0000 </r>
       <r>   27.1795    0.0000 </r>
      </set>
      <set comment="kpoint 44">
       <r>   -1.1871    1.0000 </r>
       <r>   11.3847    0.0000 </r>
       <r>   12.2446    0.0000 </r>
       <r>   19.1811    0.0000 </r>
       <r>   22.2329    0.0000 </r>
       <r>   25.1153    0.0000 </r>
       <r>   25.1612    0.0000 </r>
       <r>   26.2246    0.0000 </r>
      </set>
      <set comment="kpoint 45">
       <r>   -1.5266    1.0000 </r>
       <r>   15.2425    0.0000 </r>
       <r>   15.2425    0.0000 </r>
       <r>   15.4079    0.0000 </r>
       <r>   16.6689    0.0000 </r>
       <r>   19.1162    0.0000 </r>
       <r>   31.1343    0.0000 </r>
       <r>   31.1343    0.0000 </r>
      </set>
      <set comment="kpoint 46">
       <r>   -0.7179    1.0000 </r>
       <r>   13.2075    0.0000 </r>
       <r>   14.0299    0.0000 </r>
       <r>   14.8281    0.0000 </r>
       <r>   16.9861    0.0000 </r>
       <r>   19.3052    0.0000 </r>
       <r>   30.6262    0.0000 </r>
       <r>   31.8107    0.0000 </r>
      </set>
      <set comment="kpoint 47">
       <r>    0.3404    1.0000 </r>
       <r>   10.7749    0.0000 </r>
       <r>   12.6842    0.0000 </r>
       <r>   14.6378    0.0000 </r>
       <r>   17.0827    0.0000 </r>
       <r>   20.9156    0.0000 </r>
       <r>   29.7475    0.0000 </r>
       <r>   31.8281    0.0000 </r>
      </set>
      <set comment="kpoint 48">
       <r>    1.6423    1.0000 </r>
       <r>    8.4497    1.0000 </r>
       <r>   11.5486    0.0000 </r>
       <r>   14.6720    0.0000 </r>
       <r>   17.1892    0.0000 </r>
       <r>   23.0434    0.0000 </r>
       <r>   28.8763    0.0000 </r>
       <r>   31.4656    0.0000 </r>
      </set>
      <set comment="kpoint 49">
       <r>    3.1741    1.0000 </r>
       <r>    6.3187    1.0000 </r>
       <r>   10.6408    0.0000 </r>
       <r>   14.9297    0.0000 </r>
       <r>   17.4985    0.0000 </r>
       <r>   25.3527    0.0000 </r>
       <r>   28.1297    0.0000 </r>
       <r>   30.9191    0.0000 </r>
      </set>
      <set comment="kpoint 50">
       <r>    4.2543    1.0000 </r>
       <r>    5.0803    1.0000 </r>
       <r>    9.9737    1.0000 </r>
       <r>   15.4089    0.0000 </r>
       <r>   18.0407    0.0000 </r>
       <r>   27.5584    0.0000 </r>
       <r>   27.6030    0.0000 </r>
       <r>   30.3269    0.0000 </r>
      </set>
      <set comment="kpoint 51">
       <r>    2.6398    1.0000 </r>
       <r>    6.9632    1.0000 </r>
       <r>    9.5727    1.0000 </r>
       <r>   16.1049    0.0000 </r>
       <r>   18.8161    0.0000 </r>
       <r>   27.1799    0.0000 </r>
       <r>   28.9210    0.0000 </r>
       <r>   29.5112    0.0000 </r>
      </set>
      <set comment="kpoint 52">
       <r>    1.1800    1.0000 </r>
       <r>    8.8058    1.0000 </r>
       <r>    9.7486    1.0000 </r>
       <r>   17.0078    0.0000 </r>
       <r>   19.8128    0.0000 </r>
       <r>   26.8197    0.0000 </r>
       <r>   27.3778    0.0000 </r>
       <r>   28.2154    0.0000 </r>
      </set>
      <set comment="kpoint 53">
       <r>    0.0030    1.0000 </r>
       <r>   12.3076    0.0000 </r>
       <r>   14.3391    0.0000 </r>
       <r>   14.3391    0.0000 </r>
       <r>   15.6599    0.0000 </r>
       <r>   18.0453    0.0000 </r>
       <r>   32.5514    0.0000 </r>
       <r>   33.2332    0.0000 </r>
      </set>
      <set comment="kpoint 54">
       <r>    0.9731    1.0000 </r>
       <r>   10.8496    0.0000 </r>
       <r>   12.5223    0.0000 </r>
       <r>   14.0746    0.0000 </r>
       <r>   16.1429    0.0000 </r>
       <r>   18.5046    0.0000 </r>
       <r>   32.1109    0.0000 </r>
       <r>   33.7619    0.0000 </r>
      </set>
      <set comment="kpoint 55">
       <r>    2.1866    1.0000 </r>
       <r>    9.5432    1.0000 </r>
       <r>   10.2883    0.0006 </r>
       <r>   14.0352    0.0000 </r>
       <r>   16.4062    0.0000 </r>
       <r>   20.3242    0.0000 </r>
       <r>   31.3210    0.0000 </r>
       <r>   33.5443    0.0000 </r>
      </set>
      <set comment="kpoint 56">
       <r>    3.6318    1.0000 </r>
       <r>    7.8826    1.0000 </r>
       <r>    8.7747    1.0000 </r>
       <r>   14.2207    0.0000 </r>
       <r>   16.6899    0.0000 </r>
       <r>   22.6348    0.0000 </r>
       <r>   30.5689    0.0000 </r>
       <r>   32.8756    0.0000 </r>
      </set>
      <set comment="kpoint 57">
       <r>    5.2313    1.0000 </r>
       <r>    6.0083    1.0000 </r>
       <r>    7.9891    1.0000 </r>
       <r>   14.6299    0.0000 </r>
       <r>   17.1728    0.0000 </r>
       <r>   25.1375    0.0000 </r>
       <r>   29.9217    0.0000 </r>
       <r>   31.9159    0.0000 </r>
      </set>
      <set comment="kpoint 58">
       <r>    4.1643    1.0000 </r>
       <r>    6.8615    1.0000 </r>
       <r>    7.8311    1.0000 </r>
       <r>   15.2601    0.0000 </r>
       <r>   17.8828    0.0000 </r>
       <r>   27.6454    0.0000 </r>
       <r>   29.1550    0.0000 </r>
       <r>   30.1753    0.0000 </r>
      </set>
      <set comment="kpoint 59">
       <r>    1.8532    1.0000 </r>
       <r>    9.3190    1.0000 </r>
       <r>   13.7355    0.0000 </r>
       <r>   13.7355    0.0000 </r>
       <r>   14.9808    0.0000 </r>
       <r>   17.3817    0.0000 </r>
       <r>   33.7917    0.0000 </r>
       <r>   35.0300    0.0000 </r>
      </set>
      <set comment="kpoint 60">
       <r>    2.9735    1.0000 </r>
       <r>    7.9947    1.0000 </r>
       <r>   12.0322    0.0000 </r>
       <r>   13.6217    0.0000 </r>
       <r>   15.6407    0.0000 </r>
       <r>   18.0319    0.0000 </r>
       <r>   33.5568    0.0000 </r>
       <r>   35.3011    0.0000 </r>
      </set>
      <set comment="kpoint 61">
       <r>    4.3106    1.0000 </r>
       <r>    6.9182    1.0000 </r>
       <r>    9.8823    1.0000 </r>
       <r>   13.7335    0.0000 </r>
       <r>   16.0706    0.0000 </r>
       <r>   20.0262    0.0000 </r>
       <r>   32.8731    0.0000 </r>
       <r>   34.6904    0.0000 </r>
      </set>
      <set comment="kpoint 62">
       <r>    5.5627    1.0000 </r>
       <r>    6.3544    1.0000 </r>
       <r>    7.9166    1.0000 </r>
       <r>   14.0701    0.0000 </r>
       <r>   16.5238    0.0000 </r>
       <r>   22.4962    0.0000 </r>
       <r>   31.8979    0.0000 </r>
       <r>   33.2889    0.0000 </r>
      </set>
      <set comment="kpoint 63">
       <r>    3.9830    1.0000 </r>
       <r>    6.6044    1.0000 </r>
       <r>   13.4334    0.0000 </r>
       <r>   13.4334    0.0000 </r>
       <r>   14.6397    0.0000 </r>
       <r>   17.0549    0.0000 </r>
       <r>   34.6825    0.0000 </r>
       <r>   36.2415    0.0000 </r>
      </set>
      <set comment="kpoint 64">
       <r>    4.9129    1.0000 </r>
       <r>    5.7632    1.0000 </r>
       <r>   11.8717    0.0000 </r>
       <r>   13.4707    0.0000 </r>
       <r>   15.4735    0.0000 </r>
       <r>   17.8746    0.0000 </r>
       <r>   34.3603    0.0000 </r>
       <r>   35.9496    0.0000 </r>
      </set>
      <set comment="kpoint 65">
       <r>   -3.4125    1.0000 </r>
       <r>   16.4062    0.0000 </r>
       <r>   16.8269    0.0000 </r>
       <r>   20.7306    0.0000 </r>
       <r>   21.3385    0.0000 </r>
       <r>   24.3006    0.0000 </r>
       <r>   25.6619    0.0000 </r>
       <r>   26.0252    0.0000 </r>
      </set>
      <set comment="kpoint 66">
       <r>   -2.7679    1.0000 </r>
       <r>   13.8162    0.0000 </r>
       <r>   16.0925    0.0000 </r>
       <r>   20.0808    0.0000 </r>
       <r>   21.7705    0.0000 </r>
       <r>   23.8491    0.0000 </r>
       <r>   25.8750    0.0000 </r>
       <r>   26.1098    0.0000 </r>
      </set>
      <set comment="kpoint 67">
       <r>   -1.8692    1.0000 </r>
       <r>   11.1466    0.0000 </r>
       <r>   15.7351    0.0000 </r>
       <r>   19.2091    0.0000 </r>
       <r>   21.3324    0.0000 </r>
       <r>   24.4205    0.0000 </r>
       <r>   25.3420    0.0000 </r>
       <r>   26.4960    0.0000 </r>
      </set>
      <set comment="kpoint 68">
       <r>   -0.7205    1.0000 </r>
       <r>    8.6362    1.0000 </r>
       <r>   15.6047    0.0000 </r>
       <r>   18.2716    0.0000 </r>
       <r>   21.0060    0.0000 </r>
       <r>   23.6477    0.0000 </r>
       <r>   25.6088    0.0000 </r>
       <r>   27.8792    0.0000 </r>
      </set>
      <set comment="kpoint 69">
       <r>    0.6713    1.0000 </r>
       <r>    6.3260    1.0000 </r>
       <r>   15.6885    0.0000 </r>
       <r>   17.4075    0.0000 </r>
       <r>   20.9677    0.0000 </r>
       <r>   22.7722    0.0000 </r>
       <r>   25.7586    0.0000 </r>
       <r>   29.3009    0.0000 </r>
      </set>
      <set comment="kpoint 70">
       <r>    2.2775    1.0000 </r>
       <r>    4.2579    1.0000 </r>
       <r>   15.9323    0.0000 </r>
       <r>   16.7569    0.0000 </r>
       <r>   21.1102    0.0000 </r>
       <r>   22.1644    0.0000 </r>
       <r>   25.8491    0.0000 </r>
       <r>   29.0427    0.0000 </r>
      </set>
      <set comment="kpoint 71">
       <r>   -2.5533    1.0000 </r>
       <r>   14.8541    0.0000 </r>
       <r>   15.3575    0.0000 </r>
       <r>   18.7347    0.0000 </r>
       <r>   19.8657    0.0000 </r>
       <r>   21.7429    0.0000 </r>
       <r>   27.6008    0.0000 </r>
       <r>   28.2525    0.0000 </r>
      </set>
      <set comment="kpoint 72">
       <r>   -1.7406    1.0000 </r>
       <r>   12.4025    0.0000 </r>
       <r>   14.7325    0.0000 </r>
       <r>   17.5634    0.0000 </r>
       <r>   20.0824    0.0000 </r>
       <r>   22.4329    0.0000 </r>
       <r>   26.8752    0.0000 </r>
       <r>   28.7107    0.0000 </r>
      </set>
      <set comment="kpoint 73">
       <r>   -0.6769    1.0000 </r>
       <r>    9.8657    1.0000 </r>
       <r>   14.5072    0.0000 </r>
       <r>   16.3749    0.0000 </r>
       <r>   19.9394    0.0000 </r>
       <r>   24.0684    0.0000 </r>
       <r>   25.9620    0.0000 </r>
       <r>   28.8498    0.0000 </r>
      </set>
      <set comment="kpoint 74">
       <r>    0.6322    1.0000 </r>
       <r>    7.4996    1.0000 </r>
       <r>   14.4644    0.0000 </r>
       <r>   15.3857    0.0000 </r>
       <r>   19.9626    0.0000 </r>
       <r>   24.6172    0.0000 </r>
       <r>   26.3287    0.0000 </r>
       <r>   29.0582    0.0000 </r>
      </set>
      <set comment="kpoint 75">
       <r>    2.1727    1.0000 </r>
       <r>    5.3487    1.0000 </r>
       <r>   14.2150    0.0000 </r>
       <r>   15.0302    0.0000 </r>
       <r>   20.2104    0.0000 </r>
       <r>   23.9415    0.0000 </r>
       <r>   27.4823    0.0000 </r>
       <r>   29.8500    0.0000 </r>
      </set>
      <set comment="kpoint 76">
       <r>    3.2469    1.0000 </r>
       <r>    4.1207    1.0000 </r>
       <r>   13.6636    0.0000 </r>
       <r>   15.4214    0.0000 </r>
       <r>   20.6763    0.0000 </r>
       <r>   23.3819    0.0000 </r>
       <r>   27.6832    0.0000 </r>
       <r>   30.9901    0.0000 </r>
      </set>
      <set comment="kpoint 77">
       <r>    1.6355    1.0000 </r>
       <r>    6.0367    1.0000 </r>
       <r>   13.2651    0.0000 </r>
       <r>   16.1089    0.0000 </r>
       <r>   21.3273    0.0000 </r>
       <r>   23.0585    0.0000 </r>
       <r>   27.4280    0.0000 </r>
       <r>   29.8041    0.0000 </r>
      </set>
      <set comment="kpoint 78">
       <r>    0.1688    1.0000 </r>
       <r>    8.2599    1.0000 </r>
       <r>   13.0891    0.0000 </r>
       <r>   17.0175    0.0000 </r>
       <r>   22.0437    0.0000 </r>
       <r>   23.0775    0.0000 </r>
       <r>   26.6319    0.0000 </r>
       <r>   28.2880    0.0000 </r>
      </set>
      <set comment="kpoint 79">
       <r>   -1.0594    1.0000 </r>
       <r>   10.6713    0.0000 </r>
       <r>   13.1608    0.0000 </r>
       <r>   18.1094    0.0000 </r>
       <r>   22.5432    0.0000 </r>
       <r>   23.5484    0.0000 </r>
       <r>   25.1643    0.0000 </r>
       <r>   27.6455    0.0000 </r>
      </set>
      <set comment="kpoint 80">
       <r>   -2.0399    1.0000 </r>
       <r>   12.9814    0.0000 </r>
       <r>   13.7344    0.0000 </r>
       <r>   19.2970    0.0000 </r>
       <r>   22.5802    0.0000 </r>
       <r>   23.3303    0.0000 </r>
       <r>   25.1206    0.0000 </r>
       <r>   27.0578    0.0000 </r>
      </set>
      <set comment="kpoint 81">
       <r>   -1.3563    1.0000 </r>
       <r>   13.5959    0.0000 </r>
       <r>   14.1087    0.0000 </r>
       <r>   15.7865    0.0000 </r>
       <r>   18.6184    0.0000 </r>
       <r>   20.2364    0.0000 </r>
       <r>   28.9763    0.0000 </r>
       <r>   30.7865    0.0000 </r>
      </set>
      <set comment="kpoint 82">
       <r>   -0.3790    1.0000 </r>
       <r>   11.2845    0.0000 </r>
       <r>   13.5654    0.0000 </r>
       <r>   14.5054    0.0000 </r>
       <r>   18.9385    0.0000 </r>
       <r>   21.4201    0.0000 </r>
       <r>   28.1163    0.0000 </r>
       <r>   31.2289    0.0000 </r>
      </set>
      <set comment="kpoint 83">
       <r>    0.8449    1.0000 </r>
       <r>    8.8940    1.0000 </r>
       <r>   13.0114    0.0000 </r>
       <r>   13.8156    0.0000 </r>
       <r>   18.9969    0.0000 </r>
       <r>   23.3900    0.0000 </r>
       <r>   27.2091    0.0000 </r>
       <r>   31.1540    0.0000 </r>
      </set>
      <set comment="kpoint 84">
       <r>    2.3063    1.0000 </r>
       <r>    6.6836    1.0000 </r>
       <r>   12.1371    0.0000 </r>
       <r>   13.9012    0.0000 </r>
       <r>   19.2154    0.0000 </r>
       <r>   25.3487    0.0000 </r>
       <r>   26.6432    0.0000 </r>
       <r>   30.8093    0.0000 </r>
      </set>
      <set comment="kpoint 85">
       <r>    3.9180    1.0000 </r>
       <r>    4.7675    1.0000 </r>
       <r>   11.4135    0.0000 </r>
       <r>   14.2996    0.0000 </r>
       <r>   19.6492    0.0000 </r>
       <r>   25.4779    0.0000 </r>
       <r>   28.0301    0.0000 </r>
       <r>   30.2007    0.0000 </r>
      </set>
      <set comment="kpoint 86">
       <r>    2.8420    1.0000 </r>
       <r>    5.9879    1.0000 </r>
       <r>   10.9168    0.0000 </r>
       <r>   14.9405    0.0000 </r>
       <r>   20.3009    0.0000 </r>
       <r>   25.0823    0.0000 </r>
       <r>   28.7753    0.0000 </r>
       <r>   29.6567    0.0000 </r>
      </set>
      <set comment="kpoint 87">
       <r>    1.3056    1.0000 </r>
       <r>    8.0974    1.0000 </r>
       <r>   10.6795    0.0000 </r>
       <r>   15.8065    0.0000 </r>
       <r>   21.1548    0.0000 </r>
       <r>   24.8362    0.0000 </r>
       <r>   26.9056    0.0000 </r>
       <r>   29.6092    0.0000 </r>
      </set>
      <set comment="kpoint 88">
       <r>    0.0007    1.0000 </r>
       <r>   10.0979    0.9839 </r>
       <r>   11.0015    0.0000 </r>
       <r>   16.8791    0.0000 </r>
       <r>   22.1594    0.0000 </r>
       <r>   24.4704    0.0000 </r>
       <r>   25.2114    0.0000 </r>
       <r>   28.8624    0.0000 </r>
      </set>
      <set comment="kpoint 89">
       <r>    0.1718    1.0000 </r>
       <r>   12.3622    0.0000 </r>
       <r>   12.6455    0.0000 </r>
       <r>   13.4499    0.0000 </r>
       <r>   17.6628    0.0000 </r>
       <r>   19.2763    0.0000 </r>
       <r>   30.4101    0.0000 </r>
       <r>   33.0741    0.0000 </r>
      </set>
      <set comment="kpoint 90">
       <r>    1.3085    1.0000 </r>
       <r>   10.4271    0.0000 </r>
       <r>   11.2515    0.0000 </r>
       <r>   12.9989    0.0000 </r>
       <r>   18.1407    0.0000 </r>
       <r>   20.6958    0.0000 </r>
       <r>   29.5975    0.0000 </r>
       <r>   33.3066    0.0000 </r>
      </set>
      <set comment="kpoint 91">
       <r>    2.6844    1.0000 </r>
       <r>    8.2257    1.0000 </r>
       <r>   10.1696    0.5447 </r>
       <r>   13.0705    0.0000 </r>
       <r>   18.3707    0.0000 </r>
       <r>   22.8737    0.0000 </r>
       <r>   28.7860    0.0000 </r>
       <r>   32.7232    0.0000 </r>
      </set>
      <set comment="kpoint 92">
       <r>    4.2737    1.0000 </r>
       <r>    6.1956    1.0000 </r>
       <r>    9.3358    1.0000 </r>
       <r>   13.4058    0.0000 </r>
       <r>   18.7583    0.0000 </r>
       <r>   25.2411    0.0000 </r>
       <r>   28.1375    0.0000 </r>
       <r>   31.4273    0.0000 </r>
      </set>
      <set comment="kpoint 93">
       <r>    4.2787    1.0000 </r>
       <r>    6.1610    1.0000 </r>
       <r>    8.7699    1.0000 </r>
       <r>   13.9803    0.0000 </r>
       <r>   19.3571    0.0000 </r>
       <r>   27.0810    0.0000 </r>
       <r>   28.1539    0.0000 </r>
       <r>   29.4795    0.0000 </r>
      </set>
      <set comment="kpoint 94">
       <r>    2.6832    1.0000 </r>
       <r>    7.8345    1.0000 </r>
       <r>    8.7863    1.0000 </r>
       <r>   14.7845    0.0000 </r>
       <r>   20.1663    0.0000 </r>
       <r>   26.9495    0.0000 </r>
       <r>   27.1376    0.0000 </r>
       <r>   30.1855    0.0000 </r>
      </set>
      <set comment="kpoint 95">
       <r>    2.0201    1.0000 </r>
       <r>    9.4665    1.0000 </r>
       <r>   12.0094    0.0000 </r>
       <r>   12.7254    0.0000 </r>
       <r>   17.0195    0.0000 </r>
       <r>   18.6566    0.0000 </r>
       <r>   31.9654    0.0000 </r>
       <r>   34.9903    0.0000 </r>
      </set>
      <set comment="kpoint 96">
       <r>    3.3041    1.0000 </r>
       <r>    8.2927    1.0000 </r>
       <r>   10.0640    0.9990 </r>
       <r>   12.4982    0.0000 </r>
       <r>   17.6616    0.0000 </r>
       <r>   20.2562    0.0000 </r>
       <r>   31.2630    0.0000 </r>
       <r>   34.1893    0.0000 </r>
      </set>
      <set comment="kpoint 97">
       <r>    4.7977    1.0000 </r>
       <r>    7.2935    1.0000 </r>
       <r>    8.0893    1.0000 </r>
       <r>   12.7466    0.0000 </r>
       <r>   18.0559    0.0000 </r>
       <r>   22.6044    0.0000 </r>
       <r>   30.5651    0.0000 </r>
       <r>   32.3045    0.0000 </r>
      </set>
      <set comment="kpoint 98">
       <r>    5.8928    1.0000 </r>
       <r>    6.2123    1.0000 </r>
       <r>    7.2488    1.0000 </r>
       <r>   13.2460    0.0000 </r>
       <r>   18.6046    0.0000 </r>
       <r>   25.1527    0.0000 </r>
       <r>   29.9335    0.0000 </r>
       <r>   30.0066    0.0000 </r>
      </set>
      <set comment="kpoint 99">
       <r>    4.1471    1.0000 </r>
       <r>    6.7641    1.0000 </r>
       <r>   11.6907    0.0000 </r>
       <r>   12.4015    0.0000 </r>
       <r>   16.6964    0.0000 </r>
       <r>   18.3478    0.0000 </r>
       <r>   33.4811    0.0000 </r>
       <r>   34.9968    0.0000 </r>
      </set>
      <set comment="kpoint 100">
       <r>    5.2378    1.0000 </r>
       <r>    6.0827    1.0000 </r>
       <r>    9.8885    1.0000 </r>
       <r>   12.3370    0.0000 </r>
       <r>   17.5015    0.0000 </r>
       <r>   20.1086    0.0000 </r>
       <r>   32.7648    0.0000 </r>
       <r>   33.2031    0.0000 </r>
      </set>
      <set comment="kpoint 101">
       <r>   -0.8463    1.0000 </r>
       <r>   11.7039    0.0000 </r>
       <r>   12.5005    0.0000 </r>
       <r>   16.2501    0.0000 </r>
       <r>   21.4091    0.0000 </r>
       <r>   22.3493    0.0000 </r>
       <r>   25.9627    0.0000 </r>
       <r>   29.9137    0.0000 </r>
      </set>
      <set comment="kpoint 102">
       <r>    0.2968    1.0000 </r>
       <r>    9.5457    1.0000 </r>
       <r>   12.0575    0.0000 </r>
       <r>   15.0251    0.0000 </r>
       <r>   21.6838    0.0000 </r>
       <r>   23.6446    0.0000 </r>
       <r>   25.2329    0.0000 </r>
       <r>   30.4691    0.0000 </r>
      </set>
      <set comment="kpoint 103">
       <r>    1.6818    1.0000 </r>
       <r>    7.2844    1.0000 </r>
       <r>   12.1230    0.0000 </r>
       <r>   14.0105    0.0000 </r>
       <r>   21.7705    0.0000 </r>
       <r>   23.6921    0.0000 </r>
       <r>   26.4354    0.0000 </r>
       <r>   30.5468    0.0000 </r>
      </set>
      <set comment="kpoint 104">
       <r>    3.2828    1.0000 </r>
       <r>    5.2340    1.0000 </r>
       <r>   12.3755    0.0000 </r>
       <r>   13.2868    0.0000 </r>
       <r>   21.9316    0.0000 </r>
       <r>   23.1993    0.0000 </r>
       <r>   28.4561    0.0000 </r>
       <r>   30.0313    0.0000 </r>
      </set>
      <set comment="kpoint 105">
       <r>    0.6773    1.0000 </r>
       <r>   10.7410    0.0000 </r>
       <r>   11.4969    0.0000 </r>
       <r>   13.1432    0.0000 </r>
       <r>   20.4886    0.0000 </r>
       <r>   21.5798    0.0000 </r>
       <r>   27.2374    0.0000 </r>
       <r>   32.6020    0.0000 </r>
      </set>
      <set comment="kpoint 106">
       <r>    1.9770    1.0000 </r>
       <r>    8.7316    1.0000 </r>
       <r>   11.1410    0.0000 </r>
       <r>   12.0785    0.0000 </r>
       <r>   20.9747    0.0000 </r>
       <r>   23.2621    0.0000 </r>
       <r>   26.3970    0.0000 </r>
       <r>   32.6303    0.0000 </r>
      </set>
      <set comment="kpoint 107">
       <r>    3.5065    1.0000 </r>
       <r>    6.6322    1.0000 </r>
       <r>   10.8200    0.0000 </r>
       <r>   11.7329    0.0000 </r>
       <r>   21.2800    0.0000 </r>
       <r>   24.8471    0.0000 </r>
       <r>   26.3393    0.0000 </r>
       <r>   31.1285    0.0000 </r>
      </set>
      <set comment="kpoint 108">
       <r>    4.5867    1.0000 </r>
       <r>    5.4015    1.0000 </r>
       <r>   10.2479    0.0178 </r>
       <r>   12.1405    0.0000 </r>
       <r>   21.7477    0.0000 </r>
       <r>   24.6681    0.0000 </r>
       <r>   28.0262    0.0000 </r>
       <r>   29.2669    0.0000 </r>
      </set>
      <set comment="kpoint 109">
       <r>    2.9731    1.0000 </r>
       <r>    7.2851    1.0000 </r>
       <r>    9.8667    1.0000 </r>
       <r>   12.8636    0.0000 </r>
       <r>   22.3687    0.0000 </r>
       <r>   24.3103    0.0000 </r>
       <r>   26.5049    0.0000 </r>
       <r>   30.7092    0.0000 </r>
      </set>
      <set comment="kpoint 110">
       <r>    1.5164    1.0000 </r>
       <r>    9.1295    1.0000 </r>
       <r>   10.0379    0.9999 </r>
       <r>   13.8331    0.0000 </r>
       <r>   23.0026    0.0000 </r>
       <r>   23.6101    0.0000 </r>
       <r>   25.0160    0.0000 </r>
       <r>   31.8986    0.0000 </r>
      </set>
      <set comment="kpoint 111">
       <r>    2.5196    1.0000 </r>
       <r>    9.8412    1.0000 </r>
       <r>   10.0974    0.9844 </r>
       <r>   11.1689    0.0000 </r>
       <r>   19.8638    0.0000 </r>
       <r>   21.0416    0.0000 </r>
       <r>   28.8146    0.0000 </r>
       <r>   33.8023    0.0000 </r>
      </set>
      <set comment="kpoint 112">
       <r>    3.9620    1.0000 </r>
       <r>    8.1838    1.0000 </r>
       <r>    9.0230    1.0000 </r>
       <r>   10.9245    0.0000 </r>
       <r>   20.5309    0.0000 </r>
       <r>   22.9211    0.0000 </r>
       <r>   28.0444    0.0000 </r>
       <r>   31.8326    0.0000 </r>
      </set>
      <set comment="kpoint 113">
       <r>    5.5615    1.0000 </r>
       <r>    6.3223    1.0000 </r>
       <r>    8.2853    1.0000 </r>
       <r>   11.2986    0.0000 </r>
       <r>   21.0058    0.0000 </r>
       <r>   25.2413    0.0000 </r>
       <r>   27.4389    0.0000 </r>
       <r>   29.5261    0.0000 </r>
      </set>
      <set comment="kpoint 114">
       <r>    4.4931    1.0000 </r>
       <r>    7.1861    1.0000 </r>
       <r>    8.1319    1.0000 </r>
       <r>   11.9565    0.0000 </r>
       <r>   21.6364    0.0000 </r>
       <r>   26.4002    0.0000 </r>
       <r>   26.5961    0.0000 </r>
       <r>   28.8385    0.0000 </r>
      </set>
      <set comment="kpoint 115">
       <r>    4.6380    1.0000 </r>
       <r>    7.2336    1.0000 </r>
       <r>    9.7752    1.0000 </r>
       <r>   10.7510    0.0000 </r>
       <r>   19.5489    0.0000 </r>
       <r>   20.7654    0.0000 </r>
       <r>   30.5976    0.0000 </r>
       <r>   32.4212    0.0000 </r>
      </set>
      <set comment="kpoint 116">
       <r>    5.8876    1.0000 </r>
       <r>    6.6793    1.0000 </r>
       <r>    8.1738    1.0000 </r>
       <r>   10.7366    0.0000 </r>
       <r>   20.3807    0.0000 </r>
       <r>   22.7982    0.0000 </r>
       <r>   29.6847    0.0000 </r>
       <r>   30.2172    0.0000 </r>
      </set>
      <set comment="kpoint 117">
       <r>    3.3475    1.0000 </r>
       <r>    8.4827    1.0000 </r>
       <r>    9.3208    1.0000 </r>
       <r>   10.9471    0.0000 </r>
       <r>   23.0116    0.0000 </r>
       <r>   23.4102    0.0000 </r>
       <r>   25.7202    0.0000 </r>
       <r>   31.3355    0.0000 </r>
      </set>
      <set comment="kpoint 118">
       <r>    4.9326    1.0000 </r>
       <r>    6.7993    1.0000 </r>
       <r>    9.2446    1.0000 </r>
       <r>   10.1953    0.2695 </r>
       <r>   23.3666    0.0000 </r>
       <r>   24.4600    0.0000 </r>
       <r>   26.1903    0.0000 </r>
       <r>   29.0878    0.0000 </r>
      </set>
      <set comment="kpoint 119">
       <r>    5.4488    1.0000 </r>
       <r>    7.9240    1.0000 </r>
       <r>    8.1591    1.0000 </r>
       <r>    9.3381    1.0000 </r>
       <r>   22.7077    0.0000 </r>
       <r>   23.3715    0.0000 </r>
       <r>   27.2770    0.0000 </r>
       <r>   29.4940    0.0000 </r>
      </set>
      <set comment="kpoint 120">
       <r>    6.5315    1.0000 </r>
       <r>    6.8618    1.0000 </r>
       <r>    7.7534    1.0000 </r>
       <r>    9.4122    1.0000 </r>
       <r>   23.4294    0.0000 </r>
       <r>   25.2737    0.0000 </r>
       <r>   26.1153    0.0000 </r>
       <r>   27.9109    0.0000 </r>
      </set>
     </set>
    </set>
   </array>
  </eigenvalues>
  <separator name="orbital magnetization" >
   <v name="MAGDIPOLOUT">      0.00000000      0.00000000      0.00000000</v>
  </separator>
  <dos>
   <i name="efermi">     10.17358750 </i>
   <total>
    <array>
     <dimension dim="1">gridpoints</dimension>
     <dimension dim="2">spin</dimension>
     <field>energy</field>
     <field>total</field>
     <field>integrated</field>
     <set>
      <set comment="spin 1">
       <r>    -6.3011     0.0000     0.0000 </r>
       <r>    -6.1526     0.0000     0.0000 </r>
       <r>    -6.0040     0.0000     0.0000 </r>
       <r>    -5.8554     0.0000     0.0000 </r>
       <r>    -5.7069     0.0000     0.0000 </r>
       <r>    -5.5583     0.0000     0.0000 </r>
       <r>    -5.4098     0.0000     0.0000 </r>
       <r>    -5.2612     0.0000     0.0000 </r>
       <r>    -5.1126     0.0000     0.0000 </r>
       <r>    -4.9641     0.0000     0.0000 </r>
       <r>    -4.8155     0.0000     0.0000 </r>
       <r>    -4.6670     0.0000     0.0000 </r>
       <r>    -4.5184     0.0000     0.0000 </r>
       <r>    -4.3698     0.0000     0.0000 </r>
       <r>    -4.2213     0.0042     0.0006 </r>
       <r>    -4.0727     0.0502     0.0081 </r>
       <r>    -3.9241     0.0324     0.0129 </r>
       <r>    -3.7756     0.1031     0.0282 </r>
       <r>    -3.6270     0.0482     0.0354 </r>
       <r>    -3.4785     0.0489     0.0426 </r>
       <r>    -3.3299     0.1633     0.0669 </r>
       <r>    -3.1813     0.0947     0.0810 </r>
       <r>    -3.0328     0.1274     0.0999 </r>
       <r>    -2.8842     0.0323     0.1047 </r>
       <r>    -2.7357     0.2199     0.1374 </r>
       <r>    -2.5871     0.1247     0.1559 </r>
       <r>    -2.4385     0.1186     0.1735 </r>
       <r>    -2.2900     0.1524     0.1961 </r>
       <r>    -2.1414     0.0405     0.2022 </r>
       <r>    -1.9928     0.2688     0.2421 </r>
       <r>    -1.8443     0.1558     0.2652 </r>
       <r>    -1.6957     0.3039     0.3104 </r>
       <r>    -1.5472     0.0356     0.3157 </r>
       <r>    -1.3986     0.0897     0.3290 </r>
       <r>    -1.2500     0.2197     0.3616 </r>
       <r>    -1.1015     0.1647     0.3861 </r>
       <r>    -0.9529     0.2896     0.4291 </r>
       <r>    -0.8044     0.0903     0.4425 </r>
       <r>    -0.6558     0.4246     0.5056 </r>
       <r>    -0.5072     0.1133     0.5224 </r>
       <r>    -0.3587     0.1828     0.5496 </r>
       <r>    -0.2101     0.0663     0.5594 </r>
       <r>    -0.0615     0.1734     0.5852 </r>
       <r>     0.0870     0.3188     0.6326 </r>
       <r>     0.2356     0.2893     0.6755 </r>
       <r>     0.3841     0.3964     0.7344 </r>
       <r>     0.5327     0.0150     0.7367 </r>
       <r>     0.6813     0.3443     0.7878 </r>
       <r>     0.8298     0.1980     0.8172 </r>
       <r>     0.9784     0.2463     0.8538 </r>
       <r>     1.1269     0.0757     0.8651 </r>
       <r>     1.2755     0.1447     0.8866 </r>
       <r>     1.4241     0.5693     0.9711 </r>
       <r>     1.5726     0.1947     1.0001 </r>
       <r>     1.7212     0.4481     1.0666 </r>
       <r>     1.8698     0.1243     1.0851 </r>
       <r>     2.0183     0.2691     1.1251 </r>
       <r>     2.1669     0.1845     1.1525 </r>
       <r>     2.3154     0.4558     1.2202 </r>
       <r>     2.4640     0.1090     1.2364 </r>
       <r>     2.6126     0.2016     1.2663 </r>
       <r>     2.7611     0.3650     1.3206 </r>
       <r>     2.9097     0.2730     1.3611 </r>
       <r>     3.0582     0.4925     1.4343 </r>
       <r>     3.2068     0.1094     1.4506 </r>
       <r>     3.3554     0.6014     1.5399 </r>
       <r>     3.5039     0.2271     1.5736 </r>
       <r>     3.6525     0.1867     1.6014 </r>
       <r>     3.8011     0.0798     1.6132 </r>
       <r>     3.9496     0.2948     1.6570 </r>
       <r>     4.0982     0.2462     1.6936 </r>
       <r>     4.2467     0.4675     1.7630 </r>
       <r>     4.3953     0.5732     1.8482 </r>
       <r>     4.5439     0.1111     1.8647 </r>
       <r>     4.6924     0.3141     1.9114 </r>
       <r>     4.8410     0.4191     1.9736 </r>
       <r>     4.9895     0.4530     2.0409 </r>
       <r>     5.1381     0.1835     2.0682 </r>
       <r>     5.2867     0.3679     2.1228 </r>
       <r>     5.4352     0.4882     2.1954 </r>
       <r>     5.5838     0.2805     2.2370 </r>
       <r>     5.7324     0.1392     2.2577 </r>
       <r>     5.8809     0.1444     2.2792 </r>
       <r>     6.0295     0.4648     2.3482 </r>
       <r>     6.1780     0.4628     2.4170 </r>
       <r>     6.3266     0.5413     2.4974 </r>
       <r>     6.4752     0.2631     2.5365 </r>
       <r>     6.6237     0.1988     2.5660 </r>
       <r>     6.7723     0.4935     2.6393 </r>
       <r>     6.9208     0.4973     2.7132 </r>
       <r>     7.0694     0.3125     2.7596 </r>
       <r>     7.2180     0.2264     2.7933 </r>
       <r>     7.3665     0.7236     2.9008 </r>
       <r>     7.5151     0.1359     2.9210 </r>
       <r>     7.6637     0.1435     2.9423 </r>
       <r>     7.8122     0.1486     2.9644 </r>
       <r>     7.9608     0.4206     3.0268 </r>
       <r>     8.1093     0.5094     3.1025 </r>
       <r>     8.2579     0.8822     3.2336 </r>
       <r>     8.4065     0.4916     3.3066 </r>
       <r>     8.5550     0.1798     3.3333 </r>
       <r>     8.7036     0.2360     3.3684 </r>
       <r>     8.8521     0.5896     3.4560 </r>
       <r>     9.0007     0.2300     3.4901 </r>
       <r>     9.1493     0.2115     3.5216 </r>
       <r>     9.2978     0.5346     3.6010 </r>
       <r>     9.4464     0.4840     3.6729 </r>
       <r>     9.5950     0.5041     3.7478 </r>
       <r>     9.7435     0.0976     3.7623 </r>
       <r>     9.8921     0.5978     3.8511 </r>
       <r>    10.0406     0.3897     3.9090 </r>
       <r>    10.1892     0.6840     4.0106 </r>
       <r>    10.3378     0.4405     4.0761 </r>
       <r>    10.4863     0.2804     4.1177 </r>
       <r>    10.6349     0.1002     4.1326 </r>
       <r>    10.7834     0.7277     4.2407 </r>
       <r>    10.9320     0.6347     4.3350 </r>
       <r>    11.0806     0.3157     4.3819 </r>
       <r>    11.2291     0.5241     4.4598 </r>
       <r>    11.3777     0.5620     4.5432 </r>
       <r>    11.5263     0.2939     4.5869 </r>
       <r>    11.6748     0.1525     4.6096 </r>
       <r>    11.8234     0.5556     4.6921 </r>
       <r>    11.9719     0.2794     4.7336 </r>
       <r>    12.1205     0.8301     4.8569 </r>
       <r>    12.2691     0.5616     4.9404 </r>
       <r>    12.4176     0.5817     5.0268 </r>
       <r>    12.5662     0.4866     5.0991 </r>
       <r>    12.7147     0.2991     5.1435 </r>
       <r>    12.8633     0.4823     5.2151 </r>
       <r>    13.0119     0.4502     5.2820 </r>
       <r>    13.1604     0.7700     5.3964 </r>
       <r>    13.3090     0.6217     5.4888 </r>
       <r>    13.4576     0.3618     5.5425 </r>
       <r>    13.6061     0.4633     5.6113 </r>
       <r>    13.7547     0.5226     5.6890 </r>
       <r>    13.9032     0.6282     5.7823 </r>
       <r>    14.0518     0.6283     5.8757 </r>
       <r>    14.2004     0.3707     5.9307 </r>
       <r>    14.3489     0.5956     6.0192 </r>
       <r>    14.4975     0.4608     6.0877 </r>
       <r>    14.6460     0.8150     6.2088 </r>
       <r>    14.7946     0.4299     6.2726 </r>
       <r>    14.9432     0.3850     6.3298 </r>
       <r>    15.0917     0.5833     6.4165 </r>
       <r>    15.2403     0.1122     6.4331 </r>
       <r>    15.3889     0.3345     6.4828 </r>
       <r>    15.5374     0.6640     6.5815 </r>
       <r>    15.6860     0.5127     6.6576 </r>
       <r>    15.8345     0.8408     6.7826 </r>
       <r>    15.9831     0.3830     6.8394 </r>
       <r>    16.1317     0.5233     6.9172 </r>
       <r>    16.2802     0.2383     6.9526 </r>
       <r>    16.4288     0.5404     7.0329 </r>
       <r>    16.5773     0.3461     7.0843 </r>
       <r>    16.7259     0.3780     7.1404 </r>
       <r>    16.8745     0.4961     7.2141 </r>
       <r>    17.0230     0.6693     7.3136 </r>
       <r>    17.1716     0.5102     7.3894 </r>
       <r>    17.3202     0.3216     7.4371 </r>
       <r>    17.4687     0.4022     7.4969 </r>
       <r>    17.6173     0.7089     7.6022 </r>
       <r>    17.7658     0.4486     7.6688 </r>
       <r>    17.9144     0.3276     7.7175 </r>
       <r>    18.0630     0.4594     7.7857 </r>
       <r>    18.2115     0.9673     7.9295 </r>
       <r>    18.3601     0.7187     8.0362 </r>
       <r>    18.5086     0.3636     8.0902 </r>
       <r>    18.6572     0.3272     8.1389 </r>
       <r>    18.8058     0.6706     8.2385 </r>
       <r>    18.9543     0.4222     8.3012 </r>
       <r>    19.1029     0.4150     8.3629 </r>
       <r>    19.2515     0.7281     8.4710 </r>
       <r>    19.4000     0.8233     8.5933 </r>
       <r>    19.5486     0.1578     8.6168 </r>
       <r>    19.6971     0.3359     8.6667 </r>
       <r>    19.8457     0.3044     8.7119 </r>
       <r>    19.9943     0.7340     8.8210 </r>
       <r>    20.1428     0.7416     8.9311 </r>
       <r>    20.2914     0.7777     9.0467 </r>
       <r>    20.4399     0.6329     9.1407 </r>
       <r>    20.5885     0.5365     9.2204 </r>
       <r>    20.7371     0.5015     9.2949 </r>
       <r>    20.8856     0.2688     9.3348 </r>
       <r>    21.0342     1.0750     9.4946 </r>
       <r>    21.1828     0.6672     9.5937 </r>
       <r>    21.3313     0.5626     9.6773 </r>
       <r>    21.4799     0.6548     9.7745 </r>
       <r>    21.6284     0.2849     9.8169 </r>
       <r>    21.7770     0.8912     9.9493 </r>
       <r>    21.9256     0.6208    10.0415 </r>
       <r>    22.0741     0.2800    10.0831 </r>
       <r>    22.2227     0.3410    10.1338 </r>
       <r>    22.3712     0.5403    10.2140 </r>
       <r>    22.5198     0.6525    10.3110 </r>
       <r>    22.6684     0.5896    10.3986 </r>
       <r>    22.8169     0.3909    10.4566 </r>
       <r>    22.9655     0.4653    10.5258 </r>
       <r>    23.1141     0.8860    10.6574 </r>
       <r>    23.2626     0.7409    10.7675 </r>
       <r>    23.4112     1.0663    10.9259 </r>
       <r>    23.5597     0.7263    11.0338 </r>
       <r>    23.7083     0.8838    11.1651 </r>
       <r>    23.8569     0.2335    11.1998 </r>
       <r>    24.0054     0.4774    11.2707 </r>
       <r>    24.1540     0.6042    11.3605 </r>
       <r>    24.3025     0.3310    11.4096 </r>
       <r>    24.4511     0.9491    11.5506 </r>
       <r>    24.5997     0.5910    11.6384 </r>
       <r>    24.7482     0.4373    11.7034 </r>
       <r>    24.8968     0.4973    11.7773 </r>
       <r>    25.0454     0.3166    11.8243 </r>
       <r>    25.1939     1.1533    11.9957 </r>
       <r>    25.3425     1.2510    12.1815 </r>
       <r>    25.4910     0.4940    12.2549 </r>
       <r>    25.6396     0.4306    12.3189 </r>
       <r>    25.7882     0.7262    12.4268 </r>
       <r>    25.9367     0.7841    12.5432 </r>
       <r>    26.0853     0.5111    12.6192 </r>
       <r>    26.2338     0.6248    12.7120 </r>
       <r>    26.3824     0.6899    12.8145 </r>
       <r>    26.5310     0.8353    12.9386 </r>
       <r>    26.6795     0.5546    13.0210 </r>
       <r>    26.8281     0.0996    13.0358 </r>
       <r>    26.9767     0.5591    13.1188 </r>
       <r>    27.1252     0.5056    13.1939 </r>
       <r>    27.2738     0.9007    13.3277 </r>
       <r>    27.4223     0.7681    13.4418 </r>
       <r>    27.5709     0.8256    13.5645 </r>
       <r>    27.7195     0.6921    13.6673 </r>
       <r>    27.8680     0.1983    13.6968 </r>
       <r>    28.0166     0.5732    13.7819 </r>
       <r>    28.1651     1.0040    13.9311 </r>
       <r>    28.3137     0.5074    14.0065 </r>
       <r>    28.4623     0.3326    14.0559 </r>
       <r>    28.6108     0.0832    14.0682 </r>
       <r>    28.7594     0.3206    14.1159 </r>
       <r>    28.9080     0.9040    14.2502 </r>
       <r>    29.0565     0.4474    14.3166 </r>
       <r>    29.2051     0.4662    14.3859 </r>
       <r>    29.3536     0.3684    14.4406 </r>
       <r>    29.5022     0.4236    14.5036 </r>
       <r>    29.6508     1.0736    14.6630 </r>
       <r>    29.7993     0.7005    14.7671 </r>
       <r>    29.9479     0.6232    14.8597 </r>
       <r>    30.0964     0.4005    14.9192 </r>
       <r>    30.2450     0.4327    14.9835 </r>
       <r>    30.3936     0.1721    15.0090 </r>
       <r>    30.5421     0.4154    15.0708 </r>
       <r>    30.6907     0.5651    15.1547 </r>
       <r>    30.8393     0.3813    15.2113 </r>
       <r>    30.9878     0.2501    15.2485 </r>
       <r>    31.1364     0.3739    15.3040 </r>
       <r>    31.2849     0.5760    15.3896 </r>
       <r>    31.4335     0.3575    15.4427 </r>
       <r>    31.5821     0.1610    15.4667 </r>
       <r>    31.7306     0.0018    15.4669 </r>
       <r>    31.8792     0.4107    15.5279 </r>
       <r>    32.0277     0.3026    15.5729 </r>
       <r>    32.1763     0.0956    15.5871 </r>
       <r>    32.3249     0.1409    15.6080 </r>
       <r>    32.4734     0.1431    15.6293 </r>
       <r>    32.6220     0.1764    15.6555 </r>
       <r>    32.7706     0.3697    15.7104 </r>
       <r>    32.9191     0.2304    15.7446 </r>
       <r>    33.0677     0.0607    15.7536 </r>
       <r>    33.2162     0.1260    15.7724 </r>
       <r>    33.3648     0.2774    15.8136 </r>
       <r>    33.5134     0.1175    15.8310 </r>
       <r>    33.6619     0.1801    15.8578 </r>
       <r>    33.8105     0.1610    15.8817 </r>
       <r>    33.9590     0.0544    15.8898 </r>
       <r>    34.1076     0.0020    15.8901 </r>
       <r>    34.2562     0.1839    15.9174 </r>
       <r>    34.4047     0.0484    15.9246 </r>
       <r>    34.5533     0.0050    15.9253 </r>
       <r>    34.7019     0.0770    15.9368 </r>
       <r>    34.8504     0.0427    15.9431 </r>
       <r>    34.9990     0.1119    15.9597 </r>
       <r>    35.1475     0.1035    15.9751 </r>
       <r>    35.2961     0.0425    15.9814 </r>
       <r>    35.4447     0.0532    15.9893 </r>
       <r>    35.5932     0.0000    15.9893 </r>
       <r>    35.7418     0.0000    15.9893 </r>
       <r>    35.8903     0.0022    15.9897 </r>
       <r>    36.0389     0.0453    15.9964 </r>
       <r>    36.1875     0.0018    15.9967 </r>
       <r>    36.3360     0.0223    16.0000 </r>
       <r>    36.4846     0.0001    16.0000 </r>
       <r>    36.6332     0.0000    16.0000 </r>
       <r>    36.7817     0.0000    16.0000 </r>
       <r>    36.9303     0.0000    16.0000 </r>
       <r>    37.0788     0.0000    16.0000 </r>
       <r>    37.2274     0.0000    16.0000 </r>
       <r>    37.3760     0.0000    16.0000 </r>
       <r>    37.5245     0.0000    16.0000 </r>
       <r>    37.6731     0.0000    16.0000 </r>
       <r>    37.8216     0.0000    16.0000 </r>
       <r>    37.9702     0.0000    16.0000 </r>
       <r>    38.1188     0.0000    16.0000 </r>
       <r>    38.2673     0.0000    16.0000 </r>
      </set>
     </set>
    </array>
   </total>
  </dos>
 </calculation>
 <structure name="finalpos" >
  <crystal>
   <varray name="basis" >
    <v>       2.36711832      -0.00000000       1.36665525 </v>
    <v>       0.78903944       2.23174032       1.36665525 </v>
    <v>      -0.00000001      -0.00000001       2.73331253 </v>
   </varray>
   <i name="volume">     14.43952550 </i>
   <varray name="rec_basis" >
    <v>       0.42245459      -0.14936027       0.00000000 </v>
    <v>       0.00000000       0.44808080       0.00000000 </v>
    <v>      -0.21122714      -0.14936016       0.36585644 </v>
   </varray>
  </crystal>
  <varray name="positions" >
   <v>       0.00000000       0.00000000      -0.00000000 </v>
  </varray>
 </structure>
</modeling>
