unknown system                          
           1
     2.347395    0.000000    1.355268
     0.782465    2.213145    1.355268
     0.000000    0.000000    2.710538
   Si
     1
Direct configuration=     1
   0.00000000  0.00000000  0.00000000
unknown system                          
           1
     2.368997   -0.000000    1.367740
     0.789666    2.233511    1.367740
    -0.000000   -0.000000    2.735482
   Si
     1
Direct configuration=     2
   0.00000000  0.00000000 -0.00000000
unknown system                          
           1
     2.367118   -0.000000    1.366655
     0.789039    2.231740    1.366655
    -0.000000   -0.000000    2.733313
   Si
     1
Direct configuration=     3
   0.00000000  0.00000000 -0.00000000
