   1   1   0   0
  0.1386300E+02  0.2621157E-09  0.2621157E-09  0.2621157E-09  0.5000000E-15
  1.000000000000000E-004
  CAR 
 unknown system                          
     36.38754098     -6.20481900  301      9.92818345      1.00000000
     -6.205  0.0000E+00  0.0000E+00
     -6.063  0.0000E+00  0.0000E+00
     -5.921  0.0000E+00  0.0000E+00
     -5.779  0.0000E+00  0.0000E+00
     -5.637  0.0000E+00  0.0000E+00
     -5.495  0.0000E+00  0.0000E+00
     -5.353  0.0000E+00  0.0000E+00
     -5.211  0.0000E+00  0.0000E+00
     -5.069  0.0000E+00  0.0000E+00
     -4.927  0.0000E+00  0.0000E+00
     -4.785  0.0000E+00  0.0000E+00
     -4.643  0.0000E+00  0.0000E+00
     -4.501  0.2639E-14  0.3747E-15
     -4.359  0.5605E-06  0.7957E-07
     -4.217  0.1320E-03  0.1883E-04
     -4.075  0.4831E-03  0.8741E-04
     -3.933  0.5113E-03  0.1600E-03
     -3.791  0.7850E-03  0.2714E-03
     -3.649  0.6299E-03  0.3609E-03
     -3.507  0.1146E-02  0.5235E-03
     -3.365  0.6502E-03  0.6159E-03
     -3.223  0.1168E-02  0.7817E-03
     -3.081  0.1141E-02  0.9437E-03
     -2.939  0.1430E-02  0.1147E-02
     -2.797  0.6427E-03  0.1238E-02
     -2.655  0.1879E-02  0.1505E-02
     -2.513  0.1404E-02  0.1704E-02
     -2.372  0.1256E-02  0.1882E-02
     -2.230  0.1742E-02  0.2130E-02
     -2.088  0.1080E-02  0.2283E-02
     -1.946  0.2174E-02  0.2592E-02
     -1.804  0.1532E-02  0.2809E-02
     -1.662  0.1925E-02  0.3082E-02
     -1.520  0.1061E-02  0.3233E-02
     -1.378  0.2099E-02  0.3531E-02
     -1.236  0.1586E-02  0.3756E-02
     -1.094  0.2546E-02  0.4118E-02
     -0.952  0.1199E-02  0.4288E-02
     -0.810  0.2857E-02  0.4694E-02
     -0.668  0.9301E-03  0.4826E-02
     -0.526  0.1840E-02  0.5087E-02
     -0.384  0.3192E-02  0.5540E-02
     -0.242  0.2332E-02  0.5871E-02
     -0.100  0.1845E-02  0.6133E-02
      0.042  0.1941E-02  0.6409E-02
      0.184  0.2586E-02  0.6776E-02
      0.326  0.1540E-02  0.6995E-02
      0.468  0.2978E-02  0.7418E-02
      0.610  0.2616E-02  0.7789E-02
      0.752  0.3015E-02  0.8217E-02
      0.894  0.1415E-02  0.8418E-02
      1.036  0.2742E-02  0.8807E-02
      1.178  0.1598E-02  0.9034E-02
      1.320  0.3033E-02  0.9465E-02
      1.462  0.2621E-02  0.9837E-02
      1.604  0.3577E-02  0.1034E-01
      1.746  0.1772E-02  0.1060E-01
      1.888  0.3328E-02  0.1107E-01
      2.030  0.1592E-02  0.1129E-01
      2.172  0.3176E-02  0.1175E-01
      2.314  0.3138E-02  0.1219E-01
      2.456  0.2350E-02  0.1252E-01
      2.598  0.2832E-02  0.1293E-01
      2.740  0.3761E-02  0.1346E-01
      2.882  0.3659E-02  0.1398E-01
      3.024  0.1663E-02  0.1422E-01
      3.166  0.3511E-02  0.1471E-01
      3.307  0.2467E-02  0.1507E-01
      3.449  0.3181E-02  0.1552E-01
      3.591  0.3634E-02  0.1603E-01
      3.733  0.2838E-02  0.1644E-01
      3.875  0.2190E-02  0.1675E-01
      4.017  0.4080E-02  0.1733E-01
      4.159  0.3268E-02  0.1779E-01
      4.301  0.3440E-02  0.1828E-01
      4.443  0.2351E-02  0.1861E-01
      4.585  0.2881E-02  0.1902E-01
      4.727  0.3488E-02  0.1952E-01
      4.869  0.3503E-02  0.2001E-01
      5.011  0.3682E-02  0.2054E-01
      5.153  0.3552E-02  0.2104E-01
      5.295  0.2918E-02  0.2145E-01
      5.437  0.2987E-02  0.2188E-01
      5.579  0.4691E-02  0.2254E-01
      5.721  0.2804E-02  0.2294E-01
      5.863  0.4421E-02  0.2357E-01
      6.005  0.2927E-02  0.2399E-01
      6.147  0.2910E-02  0.2440E-01
      6.289  0.3017E-02  0.2483E-01
      6.431  0.4875E-02  0.2552E-01
      6.573  0.2716E-02  0.2591E-01
      6.715  0.5802E-02  0.2673E-01
      6.857  0.3354E-02  0.2721E-01
      6.999  0.3438E-02  0.2769E-01
      7.141  0.4420E-02  0.2832E-01
      7.283  0.3235E-02  0.2878E-01
      7.425  0.2601E-02  0.2915E-01
      7.567  0.4357E-02  0.2977E-01
      7.709  0.4069E-02  0.3035E-01
      7.851  0.4570E-02  0.3099E-01
      7.993  0.4746E-02  0.3167E-01
      8.135  0.3009E-02  0.3210E-01
      8.277  0.4006E-02  0.3266E-01
      8.419  0.5754E-02  0.3348E-01
      8.561  0.3661E-02  0.3400E-01
      8.703  0.4686E-02  0.3467E-01
      8.844  0.2154E-02  0.3497E-01
      8.986  0.4839E-02  0.3566E-01
      9.128  0.3505E-02  0.3616E-01
      9.270  0.4973E-02  0.3686E-01
      9.412  0.6167E-02  0.3774E-01
      9.554  0.4558E-02  0.3839E-01
      9.696  0.3855E-02  0.3893E-01
      9.838  0.5003E-02  0.3964E-01
      9.980  0.4628E-02  0.4030E-01
     10.122  0.5401E-02  0.4107E-01
     10.264  0.4198E-02  0.4166E-01
     10.406  0.3298E-02  0.4213E-01
     10.548  0.3979E-02  0.4270E-01
     10.690  0.5516E-02  0.4348E-01
     10.832  0.4368E-02  0.4410E-01
     10.974  0.3902E-02  0.4465E-01
     11.116  0.3789E-02  0.4519E-01
     11.258  0.4961E-02  0.4590E-01
     11.400  0.5369E-02  0.4666E-01
     11.542  0.2992E-02  0.4708E-01
     11.684  0.5519E-02  0.4787E-01
     11.826  0.4892E-02  0.4856E-01
     11.968  0.3507E-02  0.4906E-01
     12.110  0.2014E-02  0.4934E-01
     12.252  0.4548E-02  0.4999E-01
     12.394  0.4816E-02  0.5067E-01
     12.536  0.5839E-02  0.5150E-01
     12.678  0.3703E-02  0.5203E-01
     12.820  0.4867E-02  0.5272E-01
     12.962  0.4864E-02  0.5341E-01
     13.104  0.3040E-02  0.5384E-01
     13.246  0.6086E-02  0.5471E-01
     13.388  0.6781E-02  0.5567E-01
     13.530  0.4744E-02  0.5634E-01
     13.672  0.3269E-02  0.5681E-01
     13.814  0.2959E-02  0.5723E-01
     13.956  0.5931E-02  0.5807E-01
     14.098  0.5052E-02  0.5879E-01
     14.240  0.2776E-02  0.5918E-01
     14.381  0.6768E-02  0.6014E-01
     14.523  0.6087E-02  0.6100E-01
     14.665  0.5965E-02  0.6185E-01
     14.807  0.4430E-02  0.6248E-01
     14.949  0.5489E-02  0.6326E-01
     15.091  0.4067E-02  0.6384E-01
     15.233  0.4336E-02  0.6445E-01
     15.375  0.7691E-02  0.6554E-01
     15.517  0.4808E-02  0.6623E-01
     15.659  0.4991E-02  0.6694E-01
     15.801  0.3482E-02  0.6743E-01
     15.943  0.3248E-02  0.6789E-01
     16.085  0.7924E-02  0.6902E-01
     16.227  0.5344E-02  0.6978E-01
     16.369  0.7045E-02  0.7078E-01
     16.511  0.4543E-02  0.7142E-01
     16.653  0.4451E-02  0.7205E-01
     16.795  0.6377E-02  0.7296E-01
     16.937  0.5991E-02  0.7381E-01
     17.079  0.6062E-02  0.7467E-01
     17.221  0.4912E-02  0.7537E-01
     17.363  0.5206E-02  0.7611E-01
     17.505  0.7762E-02  0.7721E-01
     17.647  0.8515E-02  0.7842E-01
     17.789  0.6328E-02  0.7931E-01
     17.931  0.4431E-02  0.7994E-01
     18.073  0.6646E-02  0.8089E-01
     18.215  0.3834E-02  0.8143E-01
     18.357  0.5524E-02  0.8222E-01
     18.499  0.1302E-02  0.8240E-01
     18.641  0.3279E-02  0.8287E-01
     18.783  0.3683E-02  0.8339E-01
     18.925  0.3760E-02  0.8392E-01
     19.067  0.3440E-02  0.8441E-01
     19.209  0.5413E-02  0.8518E-01
     19.351  0.4972E-02  0.8589E-01
     19.493  0.5508E-02  0.8667E-01
     19.635  0.5138E-02  0.8740E-01
     19.777  0.5625E-02  0.8820E-01
     19.918  0.4642E-02  0.8886E-01
     20.060  0.3582E-02  0.8936E-01
     20.202  0.6272E-02  0.9025E-01
     20.344  0.6810E-02  0.9122E-01
     20.486  0.6004E-02  0.9207E-01
     20.628  0.5475E-02  0.9285E-01
     20.770  0.7169E-02  0.9387E-01
     20.912  0.3463E-02  0.9436E-01
     21.054  0.5464E-02  0.9514E-01
     21.196  0.6882E-02  0.9611E-01
     21.338  0.6851E-02  0.9709E-01
     21.480  0.7460E-02  0.9814E-01
     21.622  0.8365E-02  0.9933E-01
     21.764  0.7491E-02  0.1004E+00
     21.906  0.5808E-02  0.1012E+00
     22.048  0.5088E-02  0.1019E+00
     22.190  0.7807E-02  0.1031E+00
     22.332  0.7040E-02  0.1041E+00
     22.474  0.1030E-01  0.1055E+00
     22.616  0.6431E-02  0.1064E+00
     22.758  0.7798E-02  0.1075E+00
     22.900  0.4856E-02  0.1082E+00
     23.042  0.4951E-02  0.1089E+00
     23.184  0.7012E-02  0.1099E+00
     23.326  0.4791E-02  0.1106E+00
     23.468  0.4470E-02  0.1112E+00
     23.610  0.6115E-02  0.1121E+00
     23.752  0.8822E-02  0.1134E+00
     23.894  0.3323E-02  0.1138E+00
     24.036  0.4320E-02  0.1144E+00
     24.178  0.4316E-02  0.1151E+00
     24.320  0.4436E-02  0.1157E+00
     24.462  0.5991E-02  0.1165E+00
     24.604  0.4274E-02  0.1171E+00
     24.746  0.6630E-02  0.1181E+00
     24.888  0.6464E-02  0.1190E+00
     25.030  0.9684E-02  0.1204E+00
     25.172  0.7384E-02  0.1214E+00
     25.314  0.5487E-02  0.1222E+00
     25.456  0.6968E-02  0.1232E+00
     25.597  0.7796E-02  0.1243E+00
     25.739  0.5447E-02  0.1251E+00
     25.881  0.4738E-02  0.1257E+00
     26.023  0.6850E-02  0.1267E+00
     26.165  0.7126E-02  0.1277E+00
     26.307  0.5392E-02  0.1285E+00
     26.449  0.4915E-02  0.1292E+00
     26.591  0.4630E-02  0.1298E+00
     26.733  0.3350E-02  0.1303E+00
     26.875  0.7949E-02  0.1315E+00
     27.017  0.9058E-02  0.1327E+00
     27.159  0.8291E-02  0.1339E+00
     27.301  0.4749E-02  0.1346E+00
     27.443  0.3122E-02  0.1350E+00
     27.585  0.6796E-02  0.1360E+00
     27.727  0.6161E-02  0.1369E+00
     27.869  0.7478E-02  0.1379E+00
     28.011  0.7119E-02  0.1389E+00
     28.153  0.5763E-02  0.1398E+00
     28.295  0.4827E-02  0.1404E+00
     28.437  0.7244E-02  0.1415E+00
     28.579  0.5699E-02  0.1423E+00
     28.721  0.4929E-02  0.1430E+00
     28.863  0.8333E-02  0.1442E+00
     29.005  0.8580E-02  0.1454E+00
     29.147  0.1082E-01  0.1469E+00
     29.289  0.6789E-02  0.1479E+00
     29.431  0.3226E-02  0.1483E+00
     29.573  0.5383E-02  0.1491E+00
     29.715  0.5232E-02  0.1499E+00
     29.857  0.5616E-02  0.1507E+00
     29.999  0.9016E-02  0.1519E+00
     30.141  0.6387E-02  0.1528E+00
     30.283  0.3522E-02  0.1533E+00
     30.425  0.5991E-02  0.1542E+00
     30.567  0.7406E-02  0.1552E+00
     30.709  0.9247E-02  0.1566E+00
     30.851  0.3523E-02  0.1571E+00
     30.993  0.3125E-02  0.1575E+00
     31.134  0.2165E-02  0.1578E+00
     31.276  0.2419E-02  0.1581E+00
     31.418  0.2143E-02  0.1585E+00
     31.560  0.1163E-02  0.1586E+00
     31.702  0.3361E-03  0.1587E+00
     31.844  0.1182E-02  0.1588E+00
     31.986  0.1010E-02  0.1590E+00
     32.128  0.1476E-02  0.1592E+00
     32.270  0.1206E-02  0.1594E+00
     32.412  0.6953E-03  0.1595E+00
     32.554  0.6161E-03  0.1595E+00
     32.696  0.2118E-03  0.1596E+00
     32.838  0.4352E-03  0.1596E+00
     32.980  0.1436E-03  0.1597E+00
     33.122  0.2045E-03  0.1597E+00
     33.264  0.4679E-03  0.1598E+00
     33.406  0.3993E-03  0.1598E+00
     33.548  0.2024E-03  0.1598E+00
     33.690  0.7362E-03  0.1599E+00
     33.832  0.7056E-04  0.1599E+00
     33.974  0.7554E-10  0.1599E+00
     34.116  0.1561E-11  0.1600E+00
     34.258  0.6682E-05  0.1600E+00
     34.400  0.1659E-03  0.1600E+00
     34.542  0.1788E-03  0.1600E+00
     34.684  0.7490E-06  0.1600E+00
     34.826  0.3519E-14  0.1600E+00
     34.968  0.0000E+00  0.1600E+00
     35.110  0.0000E+00  0.1600E+00
     35.252  0.0000E+00  0.1600E+00
     35.394  0.0000E+00  0.1600E+00
     35.536  0.0000E+00  0.1600E+00
     35.678  0.0000E+00  0.1600E+00
     35.820  0.0000E+00  0.1600E+00
     35.962  0.0000E+00  0.1600E+00
     36.104  0.0000E+00  0.1600E+00
     36.246  0.0000E+00  0.1600E+00
     36.388  0.0000E+00  0.1600E+00
