    1    1  100    1
  0.1386300E+02  0.2621157E-09  0.2621157E-09  0.2621157E-09  0.5000000E-15
  1.000000000000000E-004
  CAR 
 unknown system                          
      4    250      8
 
  0.2500000E-01  0.2500000E-01  0.2500000E-01  0.1000000E-02
    1       -4.192127   1.000000
    2       19.926557   0.000000
    3       20.645776   0.000000
    4       20.645776   0.000000
    5       22.726005   0.000000
    6       22.726005   0.000000
    7       23.841591   0.000000
    8       25.719823   0.000000
 
  0.7500000E-01  0.2500000E-01  0.2500000E-01  0.3000000E-02
    1       -3.962317   1.000000
    2       18.417668   0.000000
    3       19.307535   0.000000
    4       20.128486   0.000000
    5       22.309907   0.000000
    6       23.362823   0.000000
    7       24.906572   0.000000
    8       25.200366   0.000000
 
  0.1250000E+00  0.2500000E-01  0.2500000E-01  0.3000000E-02
    1       -3.579837   1.000000
    2       16.432884   0.000000
    3       18.263443   0.000000
    4       19.443996   0.000000
    5       21.790936   0.000000
    6       23.086988   0.000000
    7       25.327139   0.000000
    8       26.002912   0.000000
 
  0.1750000E+00  0.2500000E-01  0.2500000E-01  0.3000000E-02
    1       -3.045571   1.000000
    2       14.322285   0.000000
    3       17.405841   0.000000
    4       18.728935   0.000000
    5       21.229727   0.000000
    6       22.431462   0.000000
    7       26.052254   0.000000
    8       26.287772   0.000000
 
  0.2250000E+00  0.2500000E-01  0.2500000E-01  0.3000000E-02
    1       -2.360743   1.000000
    2       12.230166   0.000000
    3       16.687540   0.000000
    4       18.063957   0.000000
    5       20.681154   0.000000
    6       21.796086   0.000000
    7       26.737042   0.000000
    8       26.872657   0.000000
 
  0.2750000E+00  0.2500000E-01  0.2500000E-01  0.3000000E-02
    1       -1.526869   1.000000
    2       10.212151   0.000000
    3       16.100854   0.000000
    4       17.489058   0.000000
    5       20.188949   0.000000
    6       21.248601   0.000000
    7       27.347952   0.000000
    8       27.768077   0.000000
 
  0.3250000E+00  0.2500000E-01  0.2500000E-01  0.3000000E-02
    1       -0.545945   1.000000
    2        8.295083   1.000000
    3       15.645087   0.000000
    4       17.029551   0.000000
    5       19.785666   0.000000
    6       20.808778   0.000000
    7       28.097124   0.000000
    8       28.715295   0.000000
 
  0.3750000E+00  0.2500000E-01  0.2500000E-01  0.3000000E-02
    1        0.579084   1.000000
    2        6.494660   1.000000
    3       15.319569   0.000000
    4       16.695635   0.000000
    5       19.488049   0.000000
    6       20.487406   0.000000
    7       28.943794   0.000000
    8       29.674802   0.000000
 
  0.4250000E+00  0.2500000E-01  0.2500000E-01  0.3000000E-02
    1        1.842528   1.000000
    2        4.824060   1.000000
    3       15.124284   0.000000
    4       16.493245   0.000000
    5       19.306539   0.000000
    6       20.291335   0.000000
    7       29.790488   0.000000
    8       30.506606   0.000000
 
  0.4750000E+00  0.2500000E-01  0.2500000E-01  0.1500000E-02
    1        3.068264   1.000000
    2        3.462305   1.000000
    3       15.059178   0.000000
    4       16.424978   0.000000
    5       19.245326   0.000000
    6       20.226237   0.000000
    7       30.261956   0.000000
    8       30.882385   0.000000
 
 -0.2500000E-01  0.2500000E-01  0.2500000E-01  0.7500000E-03
    1       -4.268803   1.000000
    2       20.840659   0.000000
    3       20.840659   0.000000
    4       21.180099   0.000000
    5       22.546672   0.000000
    6       22.907623   0.000000
    7       22.907623   0.000000
    8       25.629005   0.000000
 
  0.7500000E-01  0.7500000E-01  0.2500000E-01  0.3000000E-02
    1       -3.656268   1.000000
    2       17.241903   0.000000
    3       17.926915   0.000000
    4       19.023369   0.000000
    5       22.611917   0.000000
    6       23.639143   0.000000
    7       24.866358   0.000000
    8       25.762050   0.000000
 
  0.1250000E+00  0.7500000E-01  0.2500000E-01  0.6000000E-02
    1       -3.198082   1.000000
    2       15.446997   0.000000
    3       16.750929   0.000000
    4       18.203328   0.000000
    5       22.385495   0.000000
    6       23.522009   0.000000
    7       25.165179   0.000000
    8       26.399372   0.000000
 
  0.1750000E+00  0.7500000E-01  0.2500000E-01  0.6000000E-02
    1       -2.588760   1.000000
    2       13.377222   0.000000
    3       15.919540   0.000000
    4       17.467601   0.000000
    5       21.960034   0.000000
    6       23.084842   0.000000
    7       25.688166   0.000000
    8       27.219187   0.000000
 
  0.2250000E+00  0.7500000E-01  0.2500000E-01  0.6000000E-02
    1       -1.829640   1.000000
    2       11.328865   0.000000
    3       15.244163   0.000000
    4       16.830696   0.000000
    5       21.483795   0.000000
    6       22.646696   0.000000
    7       26.278990   0.000000
    8       28.109805   0.000000
 
  0.2750000E+00  0.7500000E-01  0.2500000E-01  0.6000000E-02
    1       -0.922512   1.000000
    2        9.363534   1.000000
    3       14.705648   0.000000
    4       16.308140   0.000000
    5       21.047543   0.000000
    6       22.257320   0.000000
    7       26.997147   0.000000
    8       29.015304   0.000000
 
  0.3250000E+00  0.7500000E-01  0.2500000E-01  0.6000000E-02
    1        0.130220   1.000000
    2        7.504995   1.000000
    3       14.301149   0.000000
    4       15.909973   0.000000
    5       20.697390   0.000000
    6       21.941309   0.000000
    7       27.842654   0.000000
    8       29.895503   0.000000
 
  0.3750000E+00  0.7500000E-01  0.2500000E-01  0.6000000E-02
    1        1.324996   1.000000
    2        5.769528   1.000000
    3       14.031193   0.000000
    4       15.642488   0.000000
    5       20.456720   0.000000
    6       21.722109   0.000000
    7       28.778762   0.000000
    8       30.568140   0.000000
 
  0.4250000E+00  0.7500000E-01  0.2500000E-01  0.6000000E-02
    1        2.647603   1.000000
    2        4.175438   1.000000
    3       13.895994   0.000000
    4       15.507513   0.000000
    5       20.333311   0.000000
    6       21.610033   0.000000
    7       29.706341   0.000000
    8       30.577467   0.000000
 
 -0.7500000E-01  0.7500000E-01  0.2500000E-01  0.3000000E-02
    1       -4.115492   1.000000
    2       19.408047   0.000000
    3       19.854825   0.000000
    4       20.930384   0.000000
    5       22.145911   0.000000
    6       23.450142   0.000000
    7       24.055922   0.000000
    8       24.708709   0.000000
 
  0.1250000E+00  0.1250000E+00  0.2500000E-01  0.3000000E-02
    1       -2.664817   1.000000
    2       14.398040   0.000000
    3       14.905491   0.000000
    4       17.358644   0.000000
    5       22.566744   0.000000
    6       23.697101   0.000000
    7       25.526700   0.000000
    8       26.808436   0.000000
 
  0.1750000E+00  0.1250000E+00  0.2500000E-01  0.6000000E-02
    1       -1.981210   1.000000
    2       12.544442   0.000000
    3       13.944012   0.000000
    4       16.656517   0.000000
    5       22.413932   0.000000
    6       23.661338   0.000000
    7       25.945511   0.000000
    8       27.707408   0.000000
 
  0.2250000E+00  0.1250000E+00  0.2500000E-01  0.6000000E-02
    1       -1.148831   1.000000
    2       10.556212   0.000000
    3       13.308685   0.000000
    4       16.072433   0.000000
    5       22.056289   0.000000
    6       23.684057   0.000000
    7       26.261983   0.000000
    8       28.911934   0.000000
 
  0.2750000E+00  0.1250000E+00  0.2500000E-01  0.6000000E-02
    1       -0.169679   1.000000
    2        8.649890   1.000000
    3       12.821857   0.000000
    4       15.611184   0.000000
    5       21.693389   0.000000
    6       23.640360   0.000000
    7       26.792319   0.000000
    8       29.969535   0.000000
 
  0.3250000E+00  0.1250000E+00  0.2500000E-01  0.6000000E-02
    1        0.953442   1.000000
    2        6.855540   1.000000
    3       12.474203   0.000000
    4       15.278460   0.000000
    5       21.409137   0.000000
    6       23.545123   0.000000
    7       27.558683   0.000000
    8       30.578113   0.000000
 
  0.3750000E+00  0.1250000E+00  0.2500000E-01  0.6000000E-02
    1        2.214836   1.000000
    2        5.188975   1.000000
    3       12.265622   0.000000
    4       15.077566   0.000000
    5       21.231531   0.000000
    6       23.462801   0.000000
    7       28.478398   0.000000
    8       30.360863   0.000000
 
  0.4250000E+00  0.1250000E+00  0.2500000E-01  0.3000000E-02
    1        3.442439   1.000000
    2        3.825845   1.000000
    3       12.196060   0.000000
    4       15.010419   0.000000
    5       21.171580   0.000000
    6       23.430976   0.000000
    7       29.287174   0.000000
    8       29.704210   0.000000
 
 -0.1250000E+00  0.1250000E+00  0.2500000E-01  0.3000000E-02
    1       -3.809226   1.000000
    2       17.465729   0.000000
    3       18.858050   0.000000
    4       20.564382   0.000000
    5       21.410647   0.000000
    6       23.170195   0.000000
    7       24.622651   0.000000
    8       25.557044   0.000000
 
 -0.7500000E-01  0.1250000E+00  0.2500000E-01  0.3000000E-02
    1       -3.885752   1.000000
    2       18.271542   0.000000
    3       18.642990   0.000000
    4       20.355143   0.000000
    5       22.074585   0.000000
    6       23.482465   0.000000
    7       24.201940   0.000000
    8       24.871506   0.000000
 
  0.1750000E+00  0.1750000E+00  0.2500000E-01  0.3000000E-02
    1       -1.224300   1.000000
    2       11.693915   0.000000
    3       12.080042   0.000000
    4       16.007254   0.000000
    5       22.722602   0.000000
    6       23.718070   0.000000
    7       26.874567   0.000000
    8       28.024300   0.000000
 
  0.2250000E+00  0.1750000E+00  0.2500000E-01  0.6000000E-02
    1       -0.319805   1.000000
    2        9.912687   0.669415
    3       11.349997   0.000000
    4       15.483374   0.000000
    5       22.661329   0.000000
    6       24.009481   0.000000
    7       27.217193   0.000000
    8       29.049040   0.000000
 
  0.2750000E+00  0.1750000E+00  0.2500000E-01  0.6000000E-02
    1        0.729930   1.000000
    2        8.075016   1.000000
    3       10.916986   0.000000
    4       15.086067   0.000000
    5       22.424362   0.000000
    6       24.477944   0.000000
    7       27.347246   0.000000
    8       30.031325   0.000000
 
  0.3250000E+00  0.1750000E+00  0.2500000E-01  0.6000000E-02
    1        1.921285   1.000000
    2        6.348548   1.000000
    3       10.631898   0.000000
    4       14.819064   0.000000
    5       22.222787   0.000000
    6       24.846270   0.000000
    7       27.698829   0.000000
    8       30.104929   0.000000
 
  0.3750000E+00  0.1750000E+00  0.2500000E-01  0.6000000E-02
    1        3.240870   1.000000
    2        4.759906   1.000000
    3       10.490079   0.000000
    4       14.684959   0.000000
    5       22.114520   0.000000
    6       25.019958   0.000000
    7       28.281791   0.000000
    8       29.513181   0.000000
 
 -0.1750000E+00  0.1750000E+00  0.2500000E-01  0.3000000E-02
    1       -3.350699   1.000000
    2       15.366049   0.000000
    3       17.964141   0.000000
    4       20.072311   0.000000
    5       20.612794   0.000000
    6       22.477032   0.000000
    7       25.004961   0.000000
    8       26.853964   0.000000
 
 -0.1250000E+00  0.1750000E+00  0.2500000E-01  0.6000000E-02
    1       -3.503420   1.000000
    2       16.449222   0.000000
    3       17.564059   0.000000
    4       19.796403   0.000000
    5       21.603850   0.000000
    6       22.896112   0.000000
    7       24.516486   0.000000
    8       26.058646   0.000000
 
  0.2250000E+00  0.2250000E+00  0.2500000E-01  0.3000000E-02
    1        0.655340   1.000000
    2        9.275335   1.000000
    3        9.599210   1.000000
    4       15.023259   0.000000
    5       23.153889   0.000000
    6       24.107847   0.000000
    7       28.529188   0.000000
    8       28.916596   0.000000
 
  0.2750000E+00  0.2250000E+00  0.2500000E-01  0.6000000E-02
    1        1.773793   1.000000
    2        7.636558   1.000000
    3        9.098082   1.000000
    4       14.691420   0.000000
    5       23.219379   0.000000
    6       24.659680   0.000000
    7       28.400687   0.000000
    8       29.668620   0.000000
 
  0.3250000E+00  0.2250000E+00  0.2500000E-01  0.6000000E-02
    1        3.030064   1.000000
    2        5.985825   1.000000
    3        8.875707   1.000000
    4       14.490767   0.000000
    5       23.134310   0.000000
    6       25.401449   0.000000
    7       27.916003   0.000000
    8       29.904616   0.000000
 
  0.3750000E+00  0.2250000E+00  0.2500000E-01  0.3000000E-02
    1        4.258490   1.000000
    2        4.624413   1.000000
    3        8.802792   1.000000
    4       14.423861   0.000000
    5       23.095786   0.000000
    6       25.815870   0.000000
    7       27.598758   0.000000
    8       29.882108   0.000000
 
 -0.2250000E+00  0.2250000E+00  0.2500000E-01  0.3000000E-02
    1       -2.740917   1.000000
    2       13.251215   0.000000
    3       17.190669   0.000000
    4       19.534038   0.000000
    5       19.857765   0.000000
    6       21.825310   0.000000
    7       25.484602   0.000000
    8       27.453739   0.000000
 
 -0.1750000E+00  0.2250000E+00  0.2500000E-01  0.6000000E-02
    1       -2.969339   1.000000
    2       14.370802   0.000000
    3       16.704159   0.000000
    4       19.185196   0.000000
    5       20.975667   0.000000
    6       22.484717   0.000000
    7       24.700461   0.000000
    8       27.442149   0.000000
 
 -0.1250000E+00  0.2250000E+00  0.2500000E-01  0.3000000E-02
    1       -3.045541   1.000000
    2       15.364018   0.000000
    3       15.799117   0.000000
    4       19.146223   0.000000
    5       21.548310   0.000000
    6       22.486325   0.000000
    7       25.184462   0.000000
    8       26.410377   0.000000
 
  0.2750000E+00  0.2750000E+00  0.2500000E-01  0.3000000E-02
    1        2.958169   1.000000
    2        7.214745   1.000000
    3        7.517505   1.000000
    4       14.426098   0.000000
    5       23.858993   0.000000
    6       24.895951   0.000000
    7       28.008078   0.000000
    8       30.460439   0.000000
 
  0.3250000E+00  0.2750000E+00  0.2500000E-01  0.6000000E-02
    1        4.269194   1.000000
    2        5.770424   1.000000
    3        7.239221   1.000000
    4       14.292844   0.000000
    5       24.042636   0.000000
    6       25.595972   0.000000
    7       27.045854   0.000000
    8       31.165469   0.000000
 
 -0.2750000E+00  0.2750000E+00  0.2500000E-01  0.3000000E-02
    1       -1.981242   1.000000
    2       11.191290   0.000000
    3       16.543987   0.000000
    4       19.020780   0.000000
    5       19.194589   0.000000
    6       21.256022   0.000000
    7       26.088297   0.000000
    8       28.199750   0.000000
 
 -0.2250000E+00  0.2750000E+00  0.2500000E-01  0.6000000E-02
    1       -2.284754   1.000000
    2       12.290811   0.000000
    3       15.976636   0.000000
    4       18.585718   0.000000
    5       20.338865   0.000000
    6       22.138245   0.000000
    7       25.007430   0.000000
    8       28.551792   0.000000
 
 -0.1750000E+00  0.2750000E+00  0.2500000E-01  0.6000000E-02
    1       -2.436664   1.000000
    2       13.479765   0.000000
    3       14.814505   0.000000
    4       18.527596   0.000000
    5       21.189837   0.000000
    6       22.379934   0.000000
    7       25.380655   0.000000
    8       27.475897   0.000000
 
  0.3250000E+00  0.3250000E+00  0.2500000E-01  0.1000000E-02
    1        5.361577   1.000000
    2        5.856143   1.000000
    3        5.856144   1.000000
    4       14.226657   0.000000
    5       24.511474   0.000000
    6       26.072432   0.000000
    7       26.072432   0.000000
    8       32.594180   0.000000
 
 -0.3250000E+00  0.3250000E+00  0.2500000E-01  0.3000000E-02
    1       -1.073503   1.000000
    2        9.221693   1.000000
    3       16.025139   0.000000
    4       18.577694   0.000000
    5       18.646709   0.000000
    6       20.782102   0.000000
    7       26.826554   0.000000
    8       29.029539   0.000000
 
 -0.2750000E+00  0.3250000E+00  0.2500000E-01  0.6000000E-02
    1       -1.451150   1.000000
    2       10.278701   0.000000
    3       15.378947   0.000000
    4       18.056066   0.000000
    5       19.773685   0.000000
    6       21.795415   0.000000
    7       25.535201   0.000000
    8       29.448904   0.000000
 
 -0.2250000E+00  0.3250000E+00  0.2500000E-01  0.6000000E-02
    1       -1.678082   1.000000
    2       11.455002   0.000000
    3       14.121502   0.000000
    4       17.959698   0.000000
    5       20.663246   0.000000
    6       22.552737   0.000000
    7       25.344942   0.000000
    8       28.867860   0.000000
 
 -0.1750000E+00  0.3250000E+00  0.2500000E-01  0.3000000E-02
    1       -1.753794   1.000000
    2       12.571159   0.000000
    3       12.942381   0.000000
    4       17.942362   0.000000
    5       21.363458   0.000000
    6       22.113863   0.000000
    7       26.443279   0.000000
    8       27.596255   0.000000
 
 -0.3750000E+00  0.3750000E+00  0.2500000E-01  0.3000000E-02
    1       -0.020027   1.000000
    2        7.360799   1.000000
    3       15.635746   0.000000
    4       18.229446   0.000000
    5       18.230402   0.000000
    6       20.412500   0.000000
    7       27.690163   0.000000
    8       29.870690   0.000000
 
 -0.3250000E+00  0.3750000E+00  0.2500000E-01  0.6000000E-02
    1       -0.470622   1.000000
    2        8.364913   1.000000
    3       14.912289   0.000000
    4       17.626887   0.000000
    5       19.316764   0.000000
    6       21.482430   0.000000
    7       26.261961   0.000000
    8       30.221767   0.000000
 
 -0.2750000E+00  0.3750000E+00  0.2500000E-01  0.6000000E-02
    1       -0.771642   1.000000
    2        9.499099   1.000000
    3       13.571769   0.000000
    4       17.479796   0.000000
    5       20.176022   0.000000
    6       22.712431   0.000000
    7       25.516962   0.000000
    8       29.996693   0.000000
 
 -0.2250000E+00  0.3750000E+00  0.2500000E-01  0.6000000E-02
    1       -0.922294   1.000000
    2       10.745993   0.000000
    3       12.154784   0.000000
    4       17.424537   0.000000
    5       21.122747   0.000000
    6       22.391958   0.000000
    7       26.605385   0.000000
    8       28.680349   0.000000
 
 -0.4250000E+00  0.4250000E+00  0.2500000E-01  0.3000000E-02
    1        1.175507   1.000000
    2        5.623747   1.000000
    3       15.376145   0.000000
    4       17.948384   0.000000
    5       17.992830   0.000000
    6       20.162119   0.000000
    7       28.642795   0.000000
    8       30.516760   0.000000
 
 -0.3750000E+00  0.4250000E+00  0.2500000E-01  0.6000000E-02
    1        0.654009   1.000000
    2        6.565975   1.000000
    3       14.578209   0.000000
    4       17.313388   0.000000
    5       18.982604   0.000000
    6       21.235074   0.000000
    7       27.153542   0.000000
    8       30.609116   0.000000
 
 -0.3250000E+00  0.4250000E+00  0.2500000E-01  0.6000000E-02
    1        0.280332   1.000000
    2        7.645924   1.000000
    3       13.159126   0.000000
    4       17.108910   0.000000
    5       19.790887   0.000000
    6       22.751584   0.000000
    7       26.020986   0.000000
    8       30.418740   0.000000
 
 -0.2750000E+00  0.4250000E+00  0.2500000E-01  0.6000000E-02
    1        0.055701   1.000000
    2        8.855418   1.000000
    3       11.655469   0.000000
    4       17.001870   0.000000
    5       20.746055   0.000000
    6       22.964784   0.000000
    7       26.481465   0.000000
    8       29.680229   0.000000
 
 -0.2250000E+00  0.4250000E+00  0.2500000E-01  0.3000000E-02
    1       -0.019247   1.000000
    2       10.043619   0.000547
    3       10.361286   0.000000
    4       16.963857   0.000000
    5       21.557390   0.000000
    6       22.259960   0.000000
    7       27.985589   0.000000
    8       28.379522   0.000000
 
 -0.4750000E+00  0.4750000E+00  0.2500000E-01  0.3000000E-02
    1        2.498753   1.000000
    2        4.028701   1.000000
    3       15.246351   0.000000
    4       17.808143   0.000000
    5       17.872414   0.000000
    6       20.035453   0.000000
    7       29.601624   0.000000
    8       30.492348   0.000000
 
 -0.4250000E+00  0.4750000E+00  0.2500000E-01  0.6000000E-02
    1        1.916985   1.000000
    2        4.896593   1.000000
    3       14.377054   0.000000
    4       17.122545   0.000000
    5       18.778074   0.000000
    6       21.078780   0.000000
    7       28.157881   0.000000
    8       30.195340   0.000000
 
 -0.3750000E+00  0.4750000E+00  0.2500000E-01  0.6000000E-02
    1        1.474168   1.000000
    2        5.913226   1.000000
    3       12.883266   0.000000
    4       16.857355   0.000000
    5       19.527448   0.000000
    6       22.715095   0.000000
    7       26.811734   0.000000
    8       29.911503   0.000000
 
 -0.3250000E+00  0.4750000E+00  0.2500000E-01  0.6000000E-02
    1        1.177482   1.000000
    2        7.068052   1.000000
    3       11.302512   0.000000
    4       16.691690   0.000000
    5       20.443805   0.000000
    6       23.545645   0.000000
    7       26.505715   0.000000
    8       29.602061   0.000000
 
 -0.2750000E+00  0.4750000E+00  0.2500000E-01  0.6000000E-02
    1        1.028814   1.000000
    2        8.347471   1.000000
    3        9.793445   0.999931
    4       16.601962   0.000000
    5       21.470538   0.000000
    6       22.822780   0.000000
    7       27.715723   0.000000
    8       29.110915   0.000000
 
 -0.4750000E+00 -0.4750000E+00  0.2500000E-01  0.3000000E-02
    1        3.143370   1.000000
    2        3.534323   1.000000
    3       14.310098   0.000000
    4       17.058779   0.000000
    5       18.710555   0.000000
    6       21.025212   0.000000
    7       29.087437   0.000000
    8       29.372504   0.000000
 
 -0.4250000E+00 -0.4750000E+00  0.2500000E-01  0.6000000E-02
    1        2.795999   1.000000
    2        4.320864   1.000000
    3       12.745040   0.000000
    4       16.730484   0.000000
    5       19.394360   0.000000
    6       22.677993   0.000000
    7       27.773096   0.000000
    8       28.942897   0.000000
 
 -0.3750000E+00 -0.4750000E+00  0.2500000E-01  0.6000000E-02
    1        2.437419   1.000000
    2        5.405451   1.000000
    3       11.091051   0.000000
    4       16.503078   0.000000
    5       20.256314   0.000000
    6       23.956498   0.000000
    7       26.808341   0.000000
    8       28.840796   0.000000
 
 -0.3250000E+00 -0.4750000E+00  0.2500000E-01  0.6000000E-02
    1        2.218176   1.000000
    2        6.632703   1.000000
    3        9.501329   1.000000
    4       16.354518   0.000000
    5       21.274031   0.000000
    6       23.666420   0.000000
    7       27.050901   0.000000
    8       29.234782   0.000000
 
 -0.2750000E+00 -0.4750000E+00  0.2500000E-01  0.3000000E-02
    1        2.144755   1.000000
    2        7.857271   1.000000
    3        8.153184   1.000000
    4       16.302875   0.000000
    5       22.115958   0.000000
    6       22.866647   0.000000
    7       27.291360   0.000000
    8       29.822678   0.000000
 
 -0.4250000E+00 -0.4250000E+00  0.2500000E-01  0.3000000E-02
    1        3.666467   1.000000
    2        4.041721   1.000000
    3       11.020536   0.000000
    4       16.439574   0.000000
    5       20.192551   0.000000
    6       24.096300   0.000000
    7       27.147825   0.000000
    8       28.304657   0.000000
 
 -0.3750000E+00 -0.4250000E+00  0.2500000E-01  0.6000000E-02
    1        3.535784   1.000000
    2        5.048904   1.000000
    3        9.356784   1.000000
    4       16.229181   0.000000
    5       21.162870   0.000000
    6       24.441281   0.000000
    7       26.354554   0.000000
    8       29.106576   0.000000
 
 -0.3250000E+00 -0.4250000E+00  0.2500000E-01  0.6000000E-02
    1        3.397835   1.000000
    2        6.338211   1.000000
    3        7.805429   1.000000
    4       16.118804   0.000000
    5       22.203090   0.000000
    6       23.633256   0.000000
    7       26.161567   0.000000
    8       30.501575   0.000000
 
 -0.3750000E+00 -0.3750000E+00  0.2500000E-01  0.3000000E-02
    1        4.624770   1.000000
    2        4.983119   1.000000
    3        7.728789   1.000000
    4       16.056609   0.000000
    5       22.178080   0.000000
    6       24.359237   0.000000
    7       25.349741   0.000000
    8       30.658129   0.000000
 
 -0.3250000E+00 -0.3750000E+00  0.2500000E-01  0.3000000E-02
    1        4.698501   1.000000
    2        6.079087   1.000000
    3        6.355643   1.000000
    4       15.997991   0.000000
    5       22.923190   0.000000
    6       23.905483   0.000000
    7       24.975906   0.000000
    8       31.917690   0.000000
 
  0.7500000E-01  0.7500000E-01  0.7500000E-01  0.1000000E-02
    1       -3.274385   1.000000
    2       16.146407   0.000000
    3       17.098757   0.000000
    4       17.098757   0.000000
    5       23.617840   0.000000
    6       23.617840   0.000000
    7       25.691093   0.000000
    8       25.691093   0.000000
 
  0.1250000E+00  0.7500000E-01  0.7500000E-01  0.3000000E-02
    1       -2.740925   1.000000
    2       14.510822   0.000000
    3       15.742447   0.000000
    4       16.298743   0.000000
    5       23.463639   0.000000
    6       24.033467   0.000000
    7       25.904549   0.000000
    8       26.373001   0.000000
 
  0.1750000E+00  0.7500000E-01  0.7500000E-01  0.3000000E-02
    1       -2.057072   1.000000
    2       12.491696   0.000000
    3       14.930374   0.000000
    4       15.585188   0.000000
    5       23.203001   0.000000
    6       23.749830   0.000000
    7       26.774726   0.000000
    8       26.969710   0.000000
 
  0.2250000E+00  0.7500000E-01  0.7500000E-01  0.3000000E-02
    1       -1.224370   1.000000
    2       10.491010   0.000000
    3       14.308414   0.000000
    4       14.983932   0.000000
    5       22.893719   0.000000
    6       23.337676   0.000000
    7       27.613736   0.000000
    8       27.783042   0.000000
 
  0.2750000E+00  0.7500000E-01  0.7500000E-01  0.3000000E-02
    1       -0.244865   1.000000
    2        8.580954   1.000000
    3       13.831139   0.000000
    4       14.507835   0.000000
    5       22.599193   0.000000
    6       22.967997   0.000000
    7       28.356774   0.000000
    8       28.803718   0.000000
 
  0.3250000E+00  0.7500000E-01  0.7500000E-01  0.3000000E-02
    1        0.878686   1.000000
    2        6.784533   1.000000
    3       13.491011   0.000000
    4       14.164331   0.000000
    5       22.364630   0.000000
    6       22.687188   0.000000
    7       29.182306   0.000000
    8       29.799379   0.000000
 
  0.3750000E+00  0.7500000E-01  0.7500000E-01  0.3000000E-02
    1        2.140562   1.000000
    2        5.116638   1.000000
    3       13.287049   0.000000
    4       13.956402   0.000000
    5       22.214479   0.000000
    6       22.514342   0.000000
    7       29.989625   0.000000
    8       30.647656   0.000000
 
  0.4250000E+00  0.7500000E-01  0.7500000E-01  0.1500000E-02
    1        3.367644   1.000000
    2        3.753850   1.000000
    3       13.219141   0.000000
    4       13.887297   0.000000
    5       22.163343   0.000000
    6       22.456276   0.000000
    7       30.401693   0.000000
    8       31.018980   0.000000
 
 -0.7500000E-01  0.7500000E-01  0.7500000E-01  0.7500000E-03
    1       -3.962308   1.000000
    2       18.956775   0.000000
    3       18.956775   0.000000
    4       20.087220   0.000000
    5       22.843051   0.000000
    6       23.292653   0.000000
    7       24.022191   0.000000
    8       24.022191   0.000000
 
  0.1250000E+00  0.1250000E+00  0.7500000E-01  0.3000000E-02
    1       -2.132939   1.000000
    2       13.517025   0.000000
    3       14.065808   0.000000
    4       15.275976   0.000000
    5       23.907806   0.000000
    6       24.630818   0.000000
    7       26.179252   0.000000
    8       26.973754   0.000000
 
  0.1750000E+00  0.1250000E+00  0.7500000E-01  0.6000000E-02
    1       -1.375480   1.000000
    2       11.721831   0.000000
    3       13.144399   0.000000
    4       14.590301   0.000000
    5       23.908999   0.000000
    6       24.734149   0.000000
    7       26.821967   0.000000
    8       27.813143   0.000000
 
  0.2250000E+00  0.1250000E+00  0.7500000E-01  0.6000000E-02
    1       -0.470299   1.000000
    2        9.784098   0.999977
    3       12.570842   0.000000
    4       14.044938   0.000000
    5       23.710652   0.000000
    6       24.625551   0.000000
    7       27.526818   0.000000
    8       28.861089   0.000000
 
  0.2750000E+00  0.1250000E+00  0.7500000E-01  0.6000000E-02
    1        0.580282   1.000000
    2        7.936336   1.000000
    3       12.149508   0.000000
    4       13.633790   0.000000
    5       23.474705   0.000000
    6       24.483072   0.000000
    7       28.313719   0.000000
    8       29.888957   0.000000
 
  0.3250000E+00  0.1250000E+00  0.7500000E-01  0.6000000E-02
    1        1.772613   1.000000
    2        6.205758   1.000000
    3       11.869274   0.000000
    4       13.358042   0.000000
    5       23.288345   0.000000
    6       24.357669   0.000000
    7       29.179374   0.000000
    8       30.662880   0.000000
 