 running on    4 total cores
 distrk:  each k-point on    4 cores,    1 groups
 distr:  one band on    1 cores,    4 groups
 vasp.6.2.0 18Jan21 (build Aug 12 2022 13:00:08) complex                        
  
 POSCAR found type information on POSCAR Si
 POSCAR found :  1 types and       1 ions
 scaLAPACK will be used
 LDA part: xc-table for Pade appr. of Perdew
 POSCAR, INCAR and KPOINTS ok, starting setup
 FFT: planning ...
 WAVECAR not read
 entering main loop
       N       E                     dE             d eps       ncg     rms          rms(c)
DAV:   1    -0.333327246606E+01   -0.33333E+01   -0.14637E+03  4416   0.275E+02
DAV:   2    -0.489781957825E+01   -0.15645E+01   -0.14559E+01  6136   0.233E+01
DAV:   3    -0.490476250416E+01   -0.69429E-02   -0.69421E-02  4416   0.156E+00
DAV:   4    -0.490476787603E+01   -0.53719E-05   -0.53705E-05  6488   0.437E-02
DAV:   5    -0.490476787571E+01    0.31315E-09   -0.57779E-09  4360   0.301E-04    0.286E+00
DAV:   6    -0.489322193360E+01    0.11546E-01   -0.36279E-03  4192   0.267E-01    0.159E+00
DAV:   7    -0.488661786166E+01    0.66041E-02   -0.72563E-03  4344   0.377E-01    0.136E-01
DAV:   8    -0.488659620176E+01    0.21660E-04   -0.32905E-05  5792   0.433E-02    0.102E-02
DAV:   9    -0.488659671592E+01   -0.51415E-06   -0.37727E-07  4464   0.349E-03
   1 F= -.48865967E+01 E0= -.48862719E+01  d E =-.488660E+01
 curvature:   0.00 expect dE= 0.000E+00 dE for cont linesearch  0.000E+00
 trial: gam= 0.00000 g(F)=  0.211E-65 g(S)=  0.335E-01 ort = 0.000E+00 (trialstep = 0.100E+01)
 search vector abs. value=  0.335E-01
 bond charge predicted
       N       E                     dE             d eps       ncg     rms          rms(c)
DAV:   1    -0.490570047263E+01   -0.19104E-01   -0.48747E-01  4032   0.277E+00    0.652E-01
DAV:   2    -0.490048902182E+01    0.52115E-02   -0.26099E-03  4608   0.372E-01    0.373E-01
DAV:   3    -0.489742306975E+01    0.30660E-02   -0.33871E-03  4360   0.246E-01    0.113E-01
DAV:   4    -0.489741982297E+01    0.32468E-05   -0.60483E-06  5096   0.216E-02    0.936E-02
DAV:   5    -0.489740802910E+01    0.11794E-04   -0.11699E-06  5024   0.730E-03    0.153E-02
DAV:   6    -0.489740842591E+01   -0.39681E-06   -0.21708E-08  2176   0.119E-03
   2 F= -.48974084E+01 E0= -.48970820E+01  d E =-.108117E-01
 trial-energy change:   -0.010812  1 .order   -0.011620   -0.033510    0.010270
 step:   0.7443(harm=  0.7654)  dis= 0.00000  next Energy=    -4.898735 (dE=-0.121E-01)
 bond charge predicted
       N       E                     dE             d eps       ncg     rms          rms(c)
DAV:   1    -0.489926215367E+01   -0.18541E-02   -0.32773E-02  4064   0.731E-01    0.166E-01
DAV:   2    -0.489891100220E+01    0.35115E-03   -0.17092E-04  4664   0.958E-02    0.946E-02
DAV:   3    -0.489870694010E+01    0.20406E-03   -0.22768E-04  4312   0.640E-02    0.315E-02
DAV:   4    -0.489870701480E+01   -0.74704E-07   -0.39618E-07  4920   0.557E-03    0.270E-02
DAV:   5    -0.489870775599E+01   -0.74119E-06   -0.82734E-08  2376   0.202E-03    0.502E-03
DAV:   6    -0.489870759776E+01    0.15823E-06   -0.31063E-09  2024   0.467E-04
   3 F= -.48987076E+01 E0= -.48983962E+01  d E =-.121109E-01
 curvature:  -0.38 expect dE=-0.271E-07 dE for cont linesearch -0.271E-07
 trial: gam=-0.00146 g(F)=  0.350E-64 g(S)=  0.713E-07 ort = 0.489E-04 (trialstep = 0.949E+00)
 search vector abs. value=  0.100E-09
 reached required accuracy - stopping structural energy minimisation
