<?xml version="1.0" encoding="ISO-8859-1"?>
<modeling>
 <generator>
  <i name="program" type="string">vasp </i>
  <i name="version" type="string">6.2.0  </i>
  <i name="subversion" type="string">18Jan21 (build Aug 12 2022 13:00:08) complex                          parallel </i>
  <i name="platform" type="string">LinuxIFC </i>
  <i name="date" type="string">2024 11 03 </i>
  <i name="time" type="string">21:54:16 </i>
 </generator>
 <incar>
  <i type="int" name="ISTART">     0</i>
  <i type="string" name="PREC">Accurate      (Accurate strictly avoids</i>
  <i type="logical" name="ADDGRID"> T  </i>
  <i type="int" name="ISPIN">     1</i>
  <i type="int" name="NELM">    90</i>
  <i type="int" name="NELMIN">     6</i>
  <i type="int" name="IBRION">     2</i>
  <i name="EDIFF">      0.00000100</i>
  <i name="EDIFFG">     -0.00200000</i>
  <i type="int" name="NSW">   100</i>
  <i type="int" name="ISIF">     3</i>
  <i type="int" name="ISYM">     2</i>
  <i name="ENCUT">    350.00000000</i>
  <i type="logical" name="LREAL"> F  </i>
  <i type="int" name="ISMEAR">     0</i>
  <i name="SIGMA">      0.05000000</i>
  <i type="logical" name="LWAVE"> F  </i>
  <i type="logical" name="LCHARG"> F  </i>
  <i type="logical" name="LASPH"> T  </i>
 </incar>
 <primitive_cell>
  <structure name="primitive_cell" >
   <crystal>
    <varray name="basis" >
     <v>       1.51332563       1.51332563       1.51332563 </v>
     <v>       1.51332563      -1.51332563      -1.51332563 </v>
     <v>      -1.51332563       1.51332563      -1.51332563 </v>
    </varray>
    <i name="volume">     13.86299778 </i>
    <varray name="rec_basis" >
     <v>       0.33039816       0.33039816       0.00000000 </v>
     <v>       0.33039816       0.00000000      -0.33039816 </v>
     <v>       0.00000000       0.33039816      -0.33039816 </v>
    </varray>
   </crystal>
   <varray name="positions" >
    <v>       0.00000000       0.00000000       0.00000000 </v>
   </varray>
  </structure>
  <varray name="primitive_index" >
   <v type="int" >        1 </v>
  </varray>
 </primitive_cell>
 <kpoints>
  <generation param="Monkhorst-Pack">
   <v type="int" name="divisions">      20       20       20 </v>
   <v name="usershift">      0.00000000       0.00000000       0.00000000 </v>
   <v name="genvec1">      0.05000000       0.00000000       0.00000000 </v>
   <v name="genvec2">      0.00000000       0.05000000       0.00000000 </v>
   <v name="genvec3">      0.00000000       0.00000000       0.05000000 </v>
   <v name="shift">      0.50000000       0.50000000       0.50000000 </v>
  </generation>
  <varray name="kpointlist" >
   <v>       0.02500000       0.02500000       0.02500000 </v>
   <v>       0.07500000       0.02500000       0.02500000 </v>
   <v>       0.12500000       0.02500000       0.02500000 </v>
   <v>       0.17500000       0.02500000       0.02500000 </v>
   <v>       0.22500000       0.02500000       0.02500000 </v>
   <v>       0.27500000       0.02500000       0.02500000 </v>
   <v>       0.32500000       0.02500000       0.02500000 </v>
   <v>       0.37500000       0.02500000       0.02500000 </v>
   <v>       0.42500000       0.02500000       0.02500000 </v>
   <v>       0.47500000       0.02500000       0.02500000 </v>
   <v>      -0.02500000       0.02500000       0.02500000 </v>
   <v>       0.07500000       0.07500000       0.02500000 </v>
   <v>       0.12500000       0.07500000       0.02500000 </v>
   <v>       0.17500000       0.07500000       0.02500000 </v>
   <v>       0.22500000       0.07500000       0.02500000 </v>
   <v>       0.27500000       0.07500000       0.02500000 </v>
   <v>       0.32500000       0.07500000       0.02500000 </v>
   <v>       0.37500000       0.07500000       0.02500000 </v>
   <v>       0.42500000       0.07500000       0.02500000 </v>
   <v>      -0.07500000       0.07500000       0.02500000 </v>
   <v>       0.12500000       0.12500000       0.02500000 </v>
   <v>       0.17500000       0.12500000       0.02500000 </v>
   <v>       0.22500000       0.12500000       0.02500000 </v>
   <v>       0.27500000       0.12500000       0.02500000 </v>
   <v>       0.32500000       0.12500000       0.02500000 </v>
   <v>       0.37500000       0.12500000       0.02500000 </v>
   <v>       0.42500000       0.12500000       0.02500000 </v>
   <v>      -0.12500000       0.12500000       0.02500000 </v>
   <v>      -0.07500000       0.12500000       0.02500000 </v>
   <v>       0.17500000       0.17500000       0.02500000 </v>
   <v>       0.22500000       0.17500000       0.02500000 </v>
   <v>       0.27500000       0.17500000       0.02500000 </v>
   <v>       0.32500000       0.17500000       0.02500000 </v>
   <v>       0.37500000       0.17500000       0.02500000 </v>
   <v>      -0.17500000       0.17500000       0.02500000 </v>
   <v>      -0.12500000       0.17500000       0.02500000 </v>
   <v>       0.22500000       0.22500000       0.02500000 </v>
   <v>       0.27500000       0.22500000       0.02500000 </v>
   <v>       0.32500000       0.22500000       0.02500000 </v>
   <v>       0.37500000       0.22500000       0.02500000 </v>
   <v>      -0.22500000       0.22500000       0.02500000 </v>
   <v>      -0.17500000       0.22500000       0.02500000 </v>
   <v>      -0.12500000       0.22500000       0.02500000 </v>
   <v>       0.27500000       0.27500000       0.02500000 </v>
   <v>       0.32500000       0.27500000       0.02500000 </v>
   <v>      -0.27500000       0.27500000       0.02500000 </v>
   <v>      -0.22500000       0.27500000       0.02500000 </v>
   <v>      -0.17500000       0.27500000       0.02500000 </v>
   <v>       0.32500000       0.32500000       0.02500000 </v>
   <v>      -0.32500000       0.32500000       0.02500000 </v>
   <v>      -0.27500000       0.32500000       0.02500000 </v>
   <v>      -0.22500000       0.32500000       0.02500000 </v>
   <v>      -0.17500000       0.32500000       0.02500000 </v>
   <v>      -0.37500000       0.37500000       0.02500000 </v>
   <v>      -0.32500000       0.37500000       0.02500000 </v>
   <v>      -0.27500000       0.37500000       0.02500000 </v>
   <v>      -0.22500000       0.37500000       0.02500000 </v>
   <v>      -0.42500000       0.42500000       0.02500000 </v>
   <v>      -0.37500000       0.42500000       0.02500000 </v>
   <v>      -0.32500000       0.42500000       0.02500000 </v>
   <v>      -0.27500000       0.42500000       0.02500000 </v>
   <v>      -0.22500000       0.42500000       0.02500000 </v>
   <v>      -0.47500000       0.47500000       0.02500000 </v>
   <v>      -0.42500000       0.47500000       0.02500000 </v>
   <v>      -0.37500000       0.47500000       0.02500000 </v>
   <v>      -0.32500000       0.47500000       0.02500000 </v>
   <v>      -0.27500000       0.47500000       0.02500000 </v>
   <v>      -0.47500000      -0.47500000       0.02500000 </v>
   <v>      -0.42500000      -0.47500000       0.02500000 </v>
   <v>      -0.37500000      -0.47500000       0.02500000 </v>
   <v>      -0.32500000      -0.47500000       0.02500000 </v>
   <v>      -0.27500000      -0.47500000       0.02500000 </v>
   <v>      -0.42500000      -0.42500000       0.02500000 </v>
   <v>      -0.37500000      -0.42500000       0.02500000 </v>
   <v>      -0.32500000      -0.42500000       0.02500000 </v>
   <v>      -0.37500000      -0.37500000       0.02500000 </v>
   <v>      -0.32500000      -0.37500000       0.02500000 </v>
   <v>       0.07500000       0.07500000       0.07500000 </v>
   <v>       0.12500000       0.07500000       0.07500000 </v>
   <v>       0.17500000       0.07500000       0.07500000 </v>
   <v>       0.22500000       0.07500000       0.07500000 </v>
   <v>       0.27500000       0.07500000       0.07500000 </v>
   <v>       0.32500000       0.07500000       0.07500000 </v>
   <v>       0.37500000       0.07500000       0.07500000 </v>
   <v>       0.42500000       0.07500000       0.07500000 </v>
   <v>      -0.07500000       0.07500000       0.07500000 </v>
   <v>       0.12500000       0.12500000       0.07500000 </v>
   <v>       0.17500000       0.12500000       0.07500000 </v>
   <v>       0.22500000       0.12500000       0.07500000 </v>
   <v>       0.27500000       0.12500000       0.07500000 </v>
   <v>       0.32500000       0.12500000       0.07500000 </v>
   <v>       0.37500000       0.12500000       0.07500000 </v>
   <v>      -0.12500000       0.12500000       0.07500000 </v>
   <v>       0.17500000       0.17500000       0.07500000 </v>
   <v>       0.22500000       0.17500000       0.07500000 </v>
   <v>       0.27500000       0.17500000       0.07500000 </v>
   <v>       0.32500000       0.17500000       0.07500000 </v>
   <v>       0.37500000       0.17500000       0.07500000 </v>
   <v>      -0.17500000       0.17500000       0.07500000 </v>
   <v>      -0.12500000       0.17500000       0.07500000 </v>
   <v>       0.22500000       0.22500000       0.07500000 </v>
   <v>       0.27500000       0.22500000       0.07500000 </v>
   <v>       0.32500000       0.22500000       0.07500000 </v>
   <v>      -0.22500000       0.22500000       0.07500000 </v>
   <v>      -0.17500000       0.22500000       0.07500000 </v>
   <v>       0.27500000       0.27500000       0.07500000 </v>
   <v>       0.32500000       0.27500000       0.07500000 </v>
   <v>      -0.27500000       0.27500000       0.07500000 </v>
   <v>      -0.22500000       0.27500000       0.07500000 </v>
   <v>      -0.17500000       0.27500000       0.07500000 </v>
   <v>      -0.32500000       0.32500000       0.07500000 </v>
   <v>      -0.27500000       0.32500000       0.07500000 </v>
   <v>      -0.22500000       0.32500000       0.07500000 </v>
   <v>      -0.37500000       0.37500000       0.07500000 </v>
   <v>      -0.32500000       0.37500000       0.07500000 </v>
   <v>      -0.27500000       0.37500000       0.07500000 </v>
   <v>      -0.22500000       0.37500000       0.07500000 </v>
   <v>      -0.42500000       0.42500000       0.07500000 </v>
   <v>      -0.37500000       0.42500000       0.07500000 </v>
   <v>      -0.32500000       0.42500000       0.07500000 </v>
   <v>      -0.27500000       0.42500000       0.07500000 </v>
   <v>      -0.47500000       0.47500000       0.07500000 </v>
   <v>      -0.42500000       0.47500000       0.07500000 </v>
   <v>      -0.37500000       0.47500000       0.07500000 </v>
   <v>      -0.32500000       0.47500000       0.07500000 </v>
   <v>      -0.27500000       0.47500000       0.07500000 </v>
   <v>      -0.47500000      -0.47500000       0.07500000 </v>
   <v>      -0.42500000      -0.47500000       0.07500000 </v>
   <v>      -0.37500000      -0.47500000       0.07500000 </v>
   <v>      -0.32500000      -0.47500000       0.07500000 </v>
   <v>      -0.42500000      -0.42500000       0.07500000 </v>
   <v>      -0.37500000      -0.42500000       0.07500000 </v>
   <v>      -0.32500000      -0.42500000       0.07500000 </v>
   <v>      -0.37500000      -0.37500000       0.07500000 </v>
   <v>       0.12500000       0.12500000       0.12500000 </v>
   <v>       0.17500000       0.12500000       0.12500000 </v>
   <v>       0.22500000       0.12500000       0.12500000 </v>
   <v>       0.27500000       0.12500000       0.12500000 </v>
   <v>       0.32500000       0.12500000       0.12500000 </v>
   <v>       0.37500000       0.12500000       0.12500000 </v>
   <v>      -0.12500000       0.12500000       0.12500000 </v>
   <v>       0.17500000       0.17500000       0.12500000 </v>
   <v>       0.22500000       0.17500000       0.12500000 </v>
   <v>       0.27500000       0.17500000       0.12500000 </v>
   <v>       0.32500000       0.17500000       0.12500000 </v>
   <v>      -0.17500000       0.17500000       0.12500000 </v>
   <v>       0.22500000       0.22500000       0.12500000 </v>
   <v>       0.27500000       0.22500000       0.12500000 </v>
   <v>       0.32500000       0.22500000       0.12500000 </v>
   <v>      -0.22500000       0.22500000       0.12500000 </v>
   <v>      -0.17500000       0.22500000       0.12500000 </v>
   <v>       0.27500000       0.27500000       0.12500000 </v>
   <v>      -0.27500000       0.27500000       0.12500000 </v>
   <v>      -0.22500000       0.27500000       0.12500000 </v>
   <v>      -0.32500000       0.32500000       0.12500000 </v>
   <v>      -0.27500000       0.32500000       0.12500000 </v>
   <v>      -0.22500000       0.32500000       0.12500000 </v>
   <v>      -0.37500000       0.37500000       0.12500000 </v>
   <v>      -0.32500000       0.37500000       0.12500000 </v>
   <v>      -0.27500000       0.37500000       0.12500000 </v>
   <v>      -0.42500000       0.42500000       0.12500000 </v>
   <v>      -0.37500000       0.42500000       0.12500000 </v>
   <v>      -0.32500000       0.42500000       0.12500000 </v>
   <v>      -0.27500000       0.42500000       0.12500000 </v>
   <v>      -0.47500000       0.47500000       0.12500000 </v>
   <v>      -0.42500000       0.47500000       0.12500000 </v>
   <v>      -0.37500000       0.47500000       0.12500000 </v>
   <v>      -0.32500000       0.47500000       0.12500000 </v>
   <v>      -0.47500000      -0.47500000       0.12500000 </v>
   <v>      -0.42500000      -0.47500000       0.12500000 </v>
   <v>      -0.37500000      -0.47500000       0.12500000 </v>
   <v>      -0.32500000      -0.47500000       0.12500000 </v>
   <v>      -0.42500000      -0.42500000       0.12500000 </v>
   <v>      -0.37500000      -0.42500000       0.12500000 </v>
   <v>      -0.37500000      -0.37500000       0.12500000 </v>
   <v>       0.17500000       0.17500000       0.17500000 </v>
   <v>       0.22500000       0.17500000       0.17500000 </v>
   <v>       0.27500000       0.17500000       0.17500000 </v>
   <v>       0.32500000       0.17500000       0.17500000 </v>
   <v>      -0.17500000       0.17500000       0.17500000 </v>
   <v>       0.22500000       0.22500000       0.17500000 </v>
   <v>       0.27500000       0.22500000       0.17500000 </v>
   <v>      -0.22500000       0.22500000       0.17500000 </v>
   <v>       0.27500000       0.27500000       0.17500000 </v>
   <v>      -0.27500000       0.27500000       0.17500000 </v>
   <v>      -0.22500000       0.27500000       0.17500000 </v>
   <v>      -0.32500000       0.32500000       0.17500000 </v>
   <v>      -0.27500000       0.32500000       0.17500000 </v>
   <v>      -0.37500000       0.37500000       0.17500000 </v>
   <v>      -0.32500000       0.37500000       0.17500000 </v>
   <v>      -0.27500000       0.37500000       0.17500000 </v>
   <v>      -0.42500000       0.42500000       0.17500000 </v>
   <v>      -0.37500000       0.42500000       0.17500000 </v>
   <v>      -0.32500000       0.42500000       0.17500000 </v>
   <v>      -0.47500000       0.47500000       0.17500000 </v>
   <v>      -0.42500000       0.47500000       0.17500000 </v>
   <v>      -0.37500000       0.47500000       0.17500000 </v>
   <v>      -0.32500000       0.47500000       0.17500000 </v>
   <v>      -0.47500000      -0.47500000       0.17500000 </v>
   <v>      -0.42500000      -0.47500000       0.17500000 </v>
   <v>      -0.37500000      -0.47500000       0.17500000 </v>
   <v>      -0.42500000      -0.42500000       0.17500000 </v>
   <v>      -0.37500000      -0.42500000       0.17500000 </v>
   <v>       0.22500000       0.22500000       0.22500000 </v>
   <v>       0.27500000       0.22500000       0.22500000 </v>
   <v>      -0.22500000       0.22500000       0.22500000 </v>
   <v>      -0.27500000       0.27500000       0.22500000 </v>
   <v>      -0.32500000       0.32500000       0.22500000 </v>
   <v>      -0.27500000       0.32500000       0.22500000 </v>
   <v>      -0.37500000       0.37500000       0.22500000 </v>
   <v>      -0.32500000       0.37500000       0.22500000 </v>
   <v>      -0.42500000       0.42500000       0.22500000 </v>
   <v>      -0.37500000       0.42500000       0.22500000 </v>
   <v>      -0.32500000       0.42500000       0.22500000 </v>
   <v>      -0.47500000       0.47500000       0.22500000 </v>
   <v>      -0.42500000       0.47500000       0.22500000 </v>
   <v>      -0.37500000       0.47500000       0.22500000 </v>
   <v>      -0.47500000      -0.47500000       0.22500000 </v>
   <v>      -0.42500000      -0.47500000       0.22500000 </v>
   <v>      -0.37500000      -0.47500000       0.22500000 </v>
   <v>      -0.42500000      -0.42500000       0.22500000 </v>
   <v>      -0.27500000       0.27500000       0.27500000 </v>
   <v>      -0.32500000       0.32500000       0.27500000 </v>
   <v>      -0.37500000       0.37500000       0.27500000 </v>
   <v>      -0.32500000       0.37500000       0.27500000 </v>
   <v>      -0.42500000       0.42500000       0.27500000 </v>
   <v>      -0.37500000       0.42500000       0.27500000 </v>
   <v>      -0.47500000       0.47500000       0.27500000 </v>
   <v>      -0.42500000       0.47500000       0.27500000 </v>
   <v>      -0.37500000       0.47500000       0.27500000 </v>
   <v>      -0.47500000      -0.47500000       0.27500000 </v>
   <v>      -0.42500000      -0.47500000       0.27500000 </v>
   <v>      -0.42500000      -0.42500000       0.27500000 </v>
   <v>      -0.32500000       0.32500000       0.32500000 </v>
   <v>      -0.37500000       0.37500000       0.32500000 </v>
   <v>      -0.42500000       0.42500000       0.32500000 </v>
   <v>      -0.37500000       0.42500000       0.32500000 </v>
   <v>      -0.47500000       0.47500000       0.32500000 </v>
   <v>      -0.42500000       0.47500000       0.32500000 </v>
   <v>      -0.47500000      -0.47500000       0.32500000 </v>
   <v>      -0.42500000      -0.47500000       0.32500000 </v>
   <v>      -0.37500000       0.37500000       0.37500000 </v>
   <v>      -0.42500000       0.42500000       0.37500000 </v>
   <v>      -0.47500000       0.47500000       0.37500000 </v>
   <v>      -0.42500000       0.47500000       0.37500000 </v>
   <v>      -0.47500000      -0.47500000       0.37500000 </v>
   <v>      -0.42500000       0.42500000       0.42500000 </v>
   <v>      -0.47500000       0.47500000       0.42500000 </v>
   <v>      -0.47500000      -0.47500000       0.42500000 </v>
   <v>      -0.47500000       0.47500000       0.47500000 </v>
  </varray>
  <varray name="weights" >
   <v>       0.00100000 </v>
   <v>       0.00300000 </v>
   <v>       0.00300000 </v>
   <v>       0.00300000 </v>
   <v>       0.00300000 </v>
   <v>       0.00300000 </v>
   <v>       0.00300000 </v>
   <v>       0.00300000 </v>
   <v>       0.00300000 </v>
   <v>       0.00150000 </v>
   <v>       0.00075000 </v>
   <v>       0.00300000 </v>
   <v>       0.00600000 </v>
   <v>       0.00600000 </v>
   <v>       0.00600000 </v>
   <v>       0.00600000 </v>
   <v>       0.00600000 </v>
   <v>       0.00600000 </v>
   <v>       0.00600000 </v>
   <v>       0.00300000 </v>
   <v>       0.00300000 </v>
   <v>       0.00600000 </v>
   <v>       0.00600000 </v>
   <v>       0.00600000 </v>
   <v>       0.00600000 </v>
   <v>       0.00600000 </v>
   <v>       0.00300000 </v>
   <v>       0.00300000 </v>
   <v>       0.00300000 </v>
   <v>       0.00300000 </v>
   <v>       0.00600000 </v>
   <v>       0.00600000 </v>
   <v>       0.00600000 </v>
   <v>       0.00600000 </v>
   <v>       0.00300000 </v>
   <v>       0.00600000 </v>
   <v>       0.00300000 </v>
   <v>       0.00600000 </v>
   <v>       0.00600000 </v>
   <v>       0.00300000 </v>
   <v>       0.00300000 </v>
   <v>       0.00600000 </v>
   <v>       0.00300000 </v>
   <v>       0.00300000 </v>
   <v>       0.00600000 </v>
   <v>       0.00300000 </v>
   <v>       0.00600000 </v>
   <v>       0.00600000 </v>
   <v>       0.00100000 </v>
   <v>       0.00300000 </v>
   <v>       0.00600000 </v>
   <v>       0.00600000 </v>
   <v>       0.00300000 </v>
   <v>       0.00300000 </v>
   <v>       0.00600000 </v>
   <v>       0.00600000 </v>
   <v>       0.00600000 </v>
   <v>       0.00300000 </v>
   <v>       0.00600000 </v>
   <v>       0.00600000 </v>
   <v>       0.00600000 </v>
   <v>       0.00300000 </v>
   <v>       0.00300000 </v>
   <v>       0.00600000 </v>
   <v>       0.00600000 </v>
   <v>       0.00600000 </v>
   <v>       0.00600000 </v>
   <v>       0.00300000 </v>
   <v>       0.00600000 </v>
   <v>       0.00600000 </v>
   <v>       0.00600000 </v>
   <v>       0.00300000 </v>
   <v>       0.00300000 </v>
   <v>       0.00600000 </v>
   <v>       0.00600000 </v>
   <v>       0.00300000 </v>
   <v>       0.00300000 </v>
   <v>       0.00100000 </v>
   <v>       0.00300000 </v>
   <v>       0.00300000 </v>
   <v>       0.00300000 </v>
   <v>       0.00300000 </v>
   <v>       0.00300000 </v>
   <v>       0.00300000 </v>
   <v>       0.00150000 </v>
   <v>       0.00075000 </v>
   <v>       0.00300000 </v>
   <v>       0.00600000 </v>
   <v>       0.00600000 </v>
   <v>       0.00600000 </v>
   <v>       0.00600000 </v>
   <v>       0.00600000 </v>
   <v>       0.00300000 </v>
   <v>       0.00300000 </v>
   <v>       0.00600000 </v>
   <v>       0.00600000 </v>
   <v>       0.00600000 </v>
   <v>       0.00300000 </v>
   <v>       0.00300000 </v>
   <v>       0.00300000 </v>
   <v>       0.00300000 </v>
   <v>       0.00600000 </v>
   <v>       0.00600000 </v>
   <v>       0.00300000 </v>
   <v>       0.00600000 </v>
   <v>       0.00300000 </v>
   <v>       0.00300000 </v>
   <v>       0.00300000 </v>
   <v>       0.00600000 </v>
   <v>       0.00300000 </v>
   <v>       0.00300000 </v>
   <v>       0.00600000 </v>
   <v>       0.00600000 </v>
   <v>       0.00300000 </v>
   <v>       0.00600000 </v>
   <v>       0.00600000 </v>
   <v>       0.00300000 </v>
   <v>       0.00300000 </v>
   <v>       0.00600000 </v>
   <v>       0.00600000 </v>
   <v>       0.00600000 </v>
   <v>       0.00300000 </v>
   <v>       0.00600000 </v>
   <v>       0.00600000 </v>
   <v>       0.00600000 </v>
   <v>       0.00300000 </v>
   <v>       0.00300000 </v>
   <v>       0.00600000 </v>
   <v>       0.00600000 </v>
   <v>       0.00600000 </v>
   <v>       0.00300000 </v>
   <v>       0.00600000 </v>
   <v>       0.00300000 </v>
   <v>       0.00300000 </v>
   <v>       0.00100000 </v>
   <v>       0.00300000 </v>
   <v>       0.00300000 </v>
   <v>       0.00300000 </v>
   <v>       0.00300000 </v>
   <v>       0.00150000 </v>
   <v>       0.00075000 </v>
   <v>       0.00300000 </v>
   <v>       0.00600000 </v>
   <v>       0.00600000 </v>
   <v>       0.00600000 </v>
   <v>       0.00300000 </v>
   <v>       0.00300000 </v>
   <v>       0.00600000 </v>
   <v>       0.00300000 </v>
   <v>       0.00300000 </v>
   <v>       0.00300000 </v>
   <v>       0.00300000 </v>
   <v>       0.00300000 </v>
   <v>       0.00600000 </v>
   <v>       0.00300000 </v>
   <v>       0.00600000 </v>
   <v>       0.00300000 </v>
   <v>       0.00300000 </v>
   <v>       0.00600000 </v>
   <v>       0.00600000 </v>
   <v>       0.00300000 </v>
   <v>       0.00600000 </v>
   <v>       0.00600000 </v>
   <v>       0.00300000 </v>
   <v>       0.00300000 </v>
   <v>       0.00600000 </v>
   <v>       0.00600000 </v>
   <v>       0.00600000 </v>
   <v>       0.00300000 </v>
   <v>       0.00600000 </v>
   <v>       0.00600000 </v>
   <v>       0.00300000 </v>
   <v>       0.00300000 </v>
   <v>       0.00600000 </v>
   <v>       0.00100000 </v>
   <v>       0.00100000 </v>
   <v>       0.00300000 </v>
   <v>       0.00300000 </v>
   <v>       0.00150000 </v>
   <v>       0.00075000 </v>
   <v>       0.00300000 </v>
   <v>       0.00600000 </v>
   <v>       0.00300000 </v>
   <v>       0.00100000 </v>
   <v>       0.00300000 </v>
   <v>       0.00300000 </v>
   <v>       0.00300000 </v>
   <v>       0.00600000 </v>
   <v>       0.00300000 </v>
   <v>       0.00600000 </v>
   <v>       0.00300000 </v>
   <v>       0.00300000 </v>
   <v>       0.00600000 </v>
   <v>       0.00600000 </v>
   <v>       0.00300000 </v>
   <v>       0.00600000 </v>
   <v>       0.00600000 </v>
   <v>       0.00300000 </v>
   <v>       0.00300000 </v>
   <v>       0.00600000 </v>
   <v>       0.00600000 </v>
   <v>       0.00300000 </v>
   <v>       0.00300000 </v>
   <v>       0.00100000 </v>
   <v>       0.00150000 </v>
   <v>       0.00075000 </v>
   <v>       0.00300000 </v>
   <v>       0.00300000 </v>
   <v>       0.00300000 </v>
   <v>       0.00300000 </v>
   <v>       0.00600000 </v>
   <v>       0.00300000 </v>
   <v>       0.00600000 </v>
   <v>       0.00300000 </v>
   <v>       0.00300000 </v>
   <v>       0.00600000 </v>
   <v>       0.00600000 </v>
   <v>       0.00300000 </v>
   <v>       0.00600000 </v>
   <v>       0.00300000 </v>
   <v>       0.00300000 </v>
   <v>       0.00075000 </v>
   <v>       0.00300000 </v>
   <v>       0.00300000 </v>
   <v>       0.00300000 </v>
   <v>       0.00300000 </v>
   <v>       0.00600000 </v>
   <v>       0.00300000 </v>
   <v>       0.00600000 </v>
   <v>       0.00300000 </v>
   <v>       0.00300000 </v>
   <v>       0.00600000 </v>
   <v>       0.00100000 </v>
   <v>       0.00075000 </v>
   <v>       0.00300000 </v>
   <v>       0.00300000 </v>
   <v>       0.00300000 </v>
   <v>       0.00300000 </v>
   <v>       0.00600000 </v>
   <v>       0.00300000 </v>
   <v>       0.00300000 </v>
   <v>       0.00075000 </v>
   <v>       0.00300000 </v>
   <v>       0.00300000 </v>
   <v>       0.00300000 </v>
   <v>       0.00300000 </v>
   <v>       0.00075000 </v>
   <v>       0.00300000 </v>
   <v>       0.00100000 </v>
   <v>       0.00075000 </v>
  </varray>
 </kpoints>
 <parameters>
  <separator name="general" >
   <i type="string" name="SYSTEM">unknown system</i>
   <i type="logical" name="LCOMPAT"> F  </i>
  </separator>
  <separator name="electronic" >
   <i type="string" name="PREC">accura</i>
   <i name="ENMAX">    350.00000000</i>
   <i name="ENAUG">    322.06900000</i>
   <i name="EDIFF">      0.00000100</i>
   <i type="int" name="IALGO">    38</i>
   <i type="int" name="IWAVPR">    11</i>
   <i type="int" name="NBANDS">     8</i>
   <i type="int" name="NBANDSLOW">    -1</i>
   <i type="int" name="NBANDSHIGH">    -1</i>
   <i name="NELECT">      4.00000000</i>
   <i type="int" name="TURBO">     0</i>
   <i type="int" name="IRESTART">     0</i>
   <i type="int" name="NREBOOT">     0</i>
   <i type="int" name="NMIN">     0</i>
   <i name="EREF">      0.00000000</i>
   <separator name="electronic smearing" >
    <i type="int" name="ISMEAR">     0</i>
    <i name="SIGMA">      0.05000000</i>
    <i name="KSPACING">      0.50000000</i>
    <i type="logical" name="KGAMMA"> T  </i>
    <i type="logical" name="KBLOWUP"> T  </i>
   </separator>
   <separator name="electronic projectors" >
    <i type="logical" name="LREAL"> F  </i>
    <v name="ROPT">      0.00000000</v>
    <i type="int" name="LMAXPAW">  -100</i>
    <i type="int" name="LMAXMIX">     2</i>
    <i type="logical" name="NLSPLINE"> F  </i>
   </separator>
   <separator name="electronic startup" >
    <i type="int" name="ISTART">     0</i>
    <i type="int" name="ICHARG">     2</i>
    <i type="int" name="INIWAV">     1</i>
   </separator>
   <separator name="electronic spin" >
    <i type="int" name="ISPIN">     1</i>
    <i type="logical" name="LNONCOLLINEAR"> F  </i>
    <v name="MAGMOM">      1.00000000</v>
    <i name="NUPDOWN">     -1.00000000</i>
    <i type="logical" name="LSORBIT"> F  </i>
    <v name="SAXIS">      0.00000000      0.00000000      1.00000000</v>
    <i type="logical" name="LSPIRAL"> F  </i>
    <v name="QSPIRAL">      0.00000000      0.00000000      0.00000000</v>
    <i type="logical" name="LZEROZ"> F  </i>
   </separator>
   <separator name="electronic exchange-correlation" >
    <i type="logical" name="LASPH"> T  </i>
    <i type="logical" name="LMETAGGA"> F  </i>
   </separator>
   <separator name="electronic convergence" >
    <i type="int" name="NELM">    90</i>
    <i type="int" name="NELMDL">    -5</i>
    <i type="int" name="NELMIN">     6</i>
    <i name="ENINI">    350.00000000</i>
    <separator name="electronic convergence detail" >
     <i type="logical" name="LDIAG"> T  </i>
     <i type="logical" name="LSUBROT"> F  </i>
     <i name="WEIMIN">      0.00100000</i>
     <i name="EBREAK">      0.00000003</i>
     <i name="DEPER">      0.30000000</i>
     <i type="int" name="NRMM">     4</i>
     <i name="TIME">      0.40000000</i>
    </separator>
   </separator>
   <separator name="electronic mixer" >
    <i name="AMIX">      0.40000000</i>
    <i name="BMIX">      1.00000000</i>
    <i name="AMIN">      0.10000000</i>
    <i name="AMIX_MAG">      1.60000000</i>
    <i name="BMIX_MAG">      1.00000000</i>
    <separator name="electronic mixer details" >
     <i type="int" name="IMIX">     4</i>
     <i type="logical" name="MIXFIRST"> F  </i>
     <i type="int" name="MAXMIX">   -45</i>
     <i name="WC">    100.00000000</i>
     <i type="int" name="INIMIX">     1</i>
     <i type="int" name="MIXPRE">     1</i>
     <i type="int" name="MREMOVE">     5</i>
    </separator>
   </separator>
   <separator name="electronic dipolcorrection" >
    <i type="logical" name="LDIPOL"> F  </i>
    <i type="logical" name="LMONO"> F  </i>
    <i type="int" name="IDIPOL">     0</i>
    <i name="EPSILON">      1.00000000</i>
    <v name="DIPOL">   -100.00000000   -100.00000000   -100.00000000</v>
    <i name="EFIELD">      0.00000000</i>
   </separator>
  </separator>
  <separator name="grids" >
   <i type="int" name="NGX">    16</i>
   <i type="int" name="NGY">    16</i>
   <i type="int" name="NGZ">    16</i>
   <i type="int" name="NGXF">    32</i>
   <i type="int" name="NGYF">    32</i>
   <i type="int" name="NGZF">    32</i>
   <i type="logical" name="ADDGRID"> T  </i>
  </separator>
  <separator name="ionic" >
   <i type="int" name="NSW">   100</i>
   <i type="int" name="IBRION">     2</i>
   <i type="int" name="MDALGO">     0</i>
   <i type="int" name="ISIF">     3</i>
   <i name="PSTRESS">      0.00000000</i>
   <i name="EDIFFG">     -0.00200000</i>
   <i type="int" name="NFREE">     1</i>
   <i name="POTIM">      0.50000000</i>
   <i name="SMASS">     -3.00000000</i>
   <i name="SCALEE">      1.00000000</i>
  </separator>
  <separator name="ionic md" >
   <i name="TEBEG">      0.00010000</i>
   <i name="TEEND">      0.00010000</i>
   <i type="int" name="NBLOCK">     1</i>
   <i type="int" name="KBLOCK">   100</i>
   <i type="int" name="NPACO">   256</i>
   <i name="APACO">     16.00000000</i>
  </separator>
  <separator name="symmetry" >
   <i type="int" name="ISYM">     2</i>
   <i name="SYMPREC">      0.00001000</i>
  </separator>
  <separator name="dos" >
   <i type="int" name="LORBIT">     0</i>
   <v name="RWIGS">     -1.00000000</v>
   <i type="int" name="NEDOS">   301</i>
   <i name="EMIN">     10.00000000</i>
   <i name="EMAX">    -10.00000000</i>
   <i name="EFERMI">      0.00000000</i>
  </separator>
  <separator name="writing" >
   <i type="int" name="NWRITE">     2</i>
   <i type="logical" name="LWAVE"> F  </i>
   <i type="logical" name="LDOWNSAMPLE"> F  </i>
   <i type="logical" name="LCHARG"> F  </i>
   <i type="logical" name="LPARD"> F  </i>
   <i type="logical" name="LVTOT"> F  </i>
   <i type="logical" name="LVHAR"> F  </i>
   <i type="logical" name="LELF"> F  </i>
   <i type="logical" name="LOPTICS"> F  </i>
   <v name="STM">      0.00000000      0.00000000      0.00000000      0.00000000      0.00000000      0.00000000      0.00000000</v>
  </separator>
  <separator name="performance" >
   <i type="int" name="NPAR">     4</i>
   <i type="int" name="NSIM">     4</i>
   <i type="int" name="NBLK">    -1</i>
   <i type="logical" name="LPLANE"> T  </i>
   <i type="logical" name="LSCALAPACK"> T  </i>
   <i type="logical" name="LSCAAWARE"> F  </i>
   <i type="logical" name="LSCALU"> F  </i>
   <i type="logical" name="LASYNC"> F  </i>
   <i type="logical" name="LORBITALREAL"> F  </i>
  </separator>
  <separator name="miscellaneous" >
   <i type="int" name="IDIOT">     3</i>
   <i type="int" name="PHON_NSTRUCT">    -1</i>
   <i type="logical" name="LMUSIC"> F  </i>
   <v name="POMASS">     28.08500000</v>
   <v name="DARWINR">      0.00000000</v>
   <v name="DARWINV">      1.00000000</v>
   <i type="logical" name="LCORR"> T  </i>
  </separator>
  <i type="logical" name="GGA_COMPAT"> T  </i>
  <i type="logical" name="LBERRY"> F  </i>
  <i type="int" name="ICORELEVEL">     0</i>
  <i type="logical" name="LDAU"> F  </i>
  <i type="int" name="I_CONSTRAINED_M">     0</i>
  <separator name="electronic exchange-correlation" >
   <i type="string" name="GGA">--</i>
   <i type="int" name="VOSKOWN">     0</i>
   <i type="logical" name="LHFCALC"> F  </i>
   <i type="string" name="PRECFOCK"></i>
   <i type="logical" name="LSYMGRAD"> F  </i>
   <i type="logical" name="LHFONE"> F  </i>
   <i type="logical" name="LRHFCALC"> F  </i>
   <i type="logical" name="LTHOMAS"> F  </i>
   <i type="logical" name="LMODELHF"> F  </i>
   <i type="logical" name="LFOCKACE"> F  </i>
   <i name="ENCUT4O">     -1.00000000</i>
   <i type="int" name="EXXOEP">     0</i>
   <i type="int" name="FOURORBIT">     0</i>
   <i name="AEXX">      0.00000000</i>
   <i name="HFALPHA">      0.00000000</i>
   <i name="MCALPHA">      0.00000000</i>
   <i name="ALDAX">      1.00000000</i>
   <i name="AGGAX">      1.00000000</i>
   <i name="ALDAC">      1.00000000</i>
   <i name="AGGAC">      1.00000000</i>
   <i type="int" name="NKREDX">     1</i>
   <i type="int" name="NKREDY">     1</i>
   <i type="int" name="NKREDZ">     1</i>
   <i type="logical" name="SHIFTRED"> F  </i>
   <i type="logical" name="ODDONLY"> F  </i>
   <i type="logical" name="EVENONLY"> F  </i>
   <i type="int" name="LMAXFOCK">     0</i>
   <i type="int" name="NMAXFOCKAE">     0</i>
   <i type="logical" name="LFOCKAEDFT"> F  </i>
   <i name="HFSCREEN">      0.00000000</i>
   <i name="HFSCREENC">      0.00000000</i>
   <i type="int" name="NBANDSGWLOW">     0</i>
  </separator>
  <separator name="vdW DFT" >
   <i type="logical" name="LUSE_VDW"> F  </i>
   <i name="Zab_VDW">     -0.84910000</i>
   <i name="PARAM1">      0.12340000</i>
   <i name="PARAM2">      1.00000000</i>
   <i name="PARAM3">      0.00000000</i>
  </separator>
  <separator name="model GW" >
   <i type="int" name="MODEL_GW">     0</i>
   <i name="MODEL_EPS0">      8.31779867</i>
   <i name="MODEL_ALPHA">      1.00000000</i>
  </separator>
  <separator name="linear response parameters" >
   <i type="logical" name="LEPSILON"> F  </i>
   <i type="logical" name="LRPA"> F  </i>
   <i type="logical" name="LNABLA"> F  </i>
   <i type="logical" name="LVEL"> F  </i>
   <i type="int" name="KINTER">     0</i>
   <i name="CSHIFT">      0.10000000</i>
   <i name="OMEGAMAX">     -1.00000000</i>
   <i name="DEG_THRESHOLD">      0.00200000</i>
   <i name="RTIME">     -0.10000000</i>
   <i name="WPLASMAI">      0.00000000</i>
   <v name="DFIELD">      0.00000000      0.00000000      0.00000000</v>
   <v name="WPLASMA">      0.00000000      0.00000000      0.00000000      0.00000000      0.00000000      0.00000000      0.00000000      0.00000000      0.00000000</v>
  </separator>
  <separator name="orbital magnetization" >
   <i type="logical" name="NUCIND"> F  </i>
   <v name="MAGPOS">      0.00000000      0.00000000      0.00000000</v>
   <i type="logical" name="LNICSALL"> T  </i>
   <i type="logical" name="ORBITALMAG"> F  </i>
   <i type="logical" name="LMAGBLOCH"> F  </i>
   <i type="logical" name="LCHIMAG"> F  </i>
   <i type="logical" name="LGAUGE"> T  </i>
   <i type="int" name="MAGATOM">     0</i>
   <v name="MAGDIPOL">      0.00000000      0.00000000      0.00000000</v>
   <v name="AVECCONST">      0.00000000      0.00000000      0.00000000</v>
  </separator>
  <separator name="response functions" >
   <i type="logical" name="LFINITE_TEMPERATURE"> F  </i>
   <i type="logical" name="LADDER"> F  </i>
   <i type="logical" name="LRPAFORCE"> F  </i>
   <i type="logical" name="LFXC"> F  </i>
   <i type="logical" name="LHARTREE"> T  </i>
   <i type="int" name="IBSE">     0</i>
   <v type="int" name="KPOINT">    -1     0     0     0</v>
   <i type="logical" name="LTCTC"> F  </i>
   <i type="logical" name="LTCTE"> F  </i>
   <i type="logical" name="LTETE"> F  </i>
   <i type="logical" name="LTRIPLET"> F  </i>
   <i type="logical" name="LFXCEPS"> F  </i>
   <i type="logical" name="LFXHEG"> F  </i>
   <i type="int" name="NATURALO">     2</i>
   <i type="logical" name="LHOLEGF"> F  </i>
   <i type="logical" name="L2ORDER"> F  </i>
   <i type="logical" name="LDMP1"> F  </i>
   <i type="logical" name="LMP2LT"> F  </i>
   <i type="logical" name="LSMP2LT"> F  </i>
   <i type="logical" name="LGWLF"> F  </i>
   <i name="ENCUTGW">     -2.00000000</i>
   <i name="ENCUTGWSOFT">     -2.00000000</i>
   <i name="ENCUTLF">     -1.00000000</i>
   <i type="logical" name="LESF_SPLINES"> F  </i>
   <i type="int" name="LMAXMP2">    -1</i>
   <i name="SCISSOR">      0.00000000</i>
   <i type="int" name="NOMEGA">     0</i>
   <i type="int" name="NOMEGAR">     0</i>
   <i type="int" name="NBANDSGW">    -1</i>
   <i type="int" name="NBANDSO">    -1</i>
   <i type="int" name="NBANDSV">    -1</i>
   <i type="int" name="NELM">    90</i>
   <i type="int" name="NELMHF">     1</i>
   <i type="int" name="DIM">     3</i>
   <i type="int" name="IESPILON">     4</i>
   <i type="int" name="ANTIRES">     0</i>
   <i name="OMEGAMAX">    -30.00000000</i>
   <i name="OMEGAMIN">    -30.00000000</i>
   <i name="OMEGATL">   -200.00000000</i>
   <i type="int" name="OMEGAGRID">     0</i>
   <i name="CSHIFT">     -0.10000000</i>
   <i type="logical" name="LSELFENERGY"> F  </i>
   <i type="logical" name="LSPECTRAL"> F  </i>
   <i type="logical" name="LSPECTRALGW"> F  </i>
   <i type="logical" name="LSINGLES"> F  </i>
   <i type="logical" name="LFERMIGW"> F  </i>
   <i type="logical" name="ODDONLYGW"> F  </i>
   <i type="logical" name="EVENONLYGW"> F  </i>
   <i type="int" name="NKREDLFX">     1</i>
   <i type="int" name="NKREDLFY">     1</i>
   <i type="int" name="NKREDLFZ">     1</i>
   <i type="int" name="MAXMEM">  2800</i>
   <i type="int" name="TELESCOPE">     0</i>
   <i type="int" name="NTAUPAR">    -1</i>
   <i type="int" name="NOMEGAPAR">    -1</i>
   <i name="DAMP_NEWTON">      0.80000001</i>
   <i name="LAMBDA">      1.00000000</i>
  </separator>
  <separator name="External order field" >
   <i name="OFIELD_KAPPA">      0.00000000</i>
   <v name="OFIELD_K">      0.00000000      0.00000000      0.00000000</v>
   <i name="OFIELD_Q6_NEAR">      0.00000000</i>
   <i name="OFIELD_Q6_FAR">      0.00000000</i>
   <i name="OFIELD_A">      0.00000000</i>
  </separator>
 </parameters>
 <atominfo>
  <atoms>       1 </atoms>
  <types>       1 </types>
  <array name="atoms" >
   <dimension dim="1">ion</dimension>
   <field type="string">element</field>
   <field type="int">atomtype</field>
   <set>
    <rc><c>Si</c><c>   1</c></rc>
   </set>
  </array>
  <array name="atomtypes" >
   <dimension dim="1">type</dimension>
   <field type="int">atomspertype</field>
   <field type="string">element</field>
   <field>mass</field>
   <field>valence</field>
   <field type="string">pseudopotential</field>
   <set>
    <rc><c>   1</c><c>Si</c><c>     28.08500000</c><c>      4.00000000</c><c>  PAW_PBE Si 05Jan2001                  </c></rc>
   </set>
  </array>
 </atominfo>
 <structure name="initialpos" >
  <crystal>
   <varray name="basis" >
    <v>       1.51332563       1.51332563       1.51332563 </v>
    <v>       1.51332563      -1.51332563      -1.51332563 </v>
    <v>      -1.51332563       1.51332563      -1.51332563 </v>
   </varray>
   <i name="volume">     13.86299778 </i>
   <varray name="rec_basis" >
    <v>       0.33039816       0.33039816       0.00000000 </v>
    <v>       0.33039816       0.00000000      -0.33039816 </v>
    <v>       0.00000000       0.33039816      -0.33039816 </v>
   </varray>
  </crystal>
  <varray name="positions" >
   <v>       0.00000000       0.00000000       0.00000000 </v>
  </varray>
 </structure>
 <calculation>
  <scstep>
   <time name="dav">    0.73    0.73</time>
   <time name="total">    0.91    0.91</time>
   <energy>
    <i name="alphaZ">      2.42827211 </i>
    <i name="ewald">   -138.51397499 </i>
    <i name="hartreedc">     -0.48179554 </i>
    <i name="XCdc">     -8.69332224 </i>
    <i name="pawpsdc">     88.12379961 </i>
    <i name="pawaedc">    -70.53051779 </i>
    <i name="eentropy">     -0.00026971 </i>
    <i name="bandstr">     21.26890901 </i>
    <i name="atom">    103.06562707 </i>
    <i name="e_fr_energy">     -3.33327247 </i>
    <i name="e_wo_entrp">     -3.33300276 </i>
    <i name="e_0_energy">     -3.33313761 </i>
   </energy>
  </scstep>
  <scstep>
   <time name="dav">    1.06    1.07</time>
   <time name="total">    1.06    1.08</time>
   <energy>
    <i name="e_fr_energy">     -4.89781958 </i>
    <i name="e_wo_entrp">     -4.89714586 </i>
    <i name="e_0_energy">     -4.89748272 </i>
   </energy>
  </scstep>
  <scstep>
   <time name="dav">    0.74    0.75</time>
   <time name="total">    0.74    0.76</time>
   <energy>
    <i name="e_fr_energy">     -4.90476250 </i>
    <i name="e_wo_entrp">     -4.90407912 </i>
    <i name="e_0_energy">     -4.90442081 </i>
   </energy>
  </scstep>
  <scstep>
   <time name="dav">    1.25    1.26</time>
   <time name="total">    1.25    1.26</time>
   <energy>
    <i name="e_fr_energy">     -4.90476788 </i>
    <i name="e_wo_entrp">     -4.90408448 </i>
    <i name="e_0_energy">     -4.90442618 </i>
   </energy>
  </scstep>
  <scstep>
   <time name="dav">    0.78    0.81</time>
   <time name="total">    0.81    0.84</time>
   <energy>
    <i name="e_fr_energy">     -4.90476788 </i>
    <i name="e_wo_entrp">     -4.90408448 </i>
    <i name="e_0_energy">     -4.90442618 </i>
   </energy>
  </scstep>
  <scstep>
   <time name="dav">    0.70    0.70</time>
   <time name="total">    0.90    0.91</time>
   <energy>
    <i name="e_fr_energy">     -4.89322193 </i>
    <i name="e_wo_entrp">     -4.89255458 </i>
    <i name="e_0_energy">     -4.89288826 </i>
   </energy>
  </scstep>
  <scstep>
   <time name="dav">    0.72    0.72</time>
   <time name="total">    0.93    0.94</time>
   <energy>
    <i name="e_fr_energy">     -4.88661786 </i>
    <i name="e_wo_entrp">     -4.88596785 </i>
    <i name="e_0_energy">     -4.88629286 </i>
   </energy>
  </scstep>
  <scstep>
   <time name="dav">    1.00    1.00</time>
   <time name="total">    1.20    1.21</time>
   <energy>
    <i name="e_fr_energy">     -4.88659620 </i>
    <i name="e_wo_entrp">     -4.88594650 </i>
    <i name="e_0_energy">     -4.88627135 </i>
   </energy>
  </scstep>
  <scstep>
   <time name="dav">    0.75    0.75</time>
   <time name="total">    0.93    0.94</time>
   <energy>
    <i name="alphaZ">      2.42827211 </i>
    <i name="ewald">   -138.51397499 </i>
    <i name="hartreedc">     -0.35505854 </i>
    <i name="XCdc">     -8.62322622 </i>
    <i name="pawpsdc">    335.01576582 </i>
    <i name="pawaedc">   -317.44977124 </i>
    <i name="eentropy">     -0.00064962 </i>
    <i name="bandstr">     19.54641891 </i>
    <i name="atom">    103.06562707 </i>
    <i name="e_fr_energy">     -4.88659672 </i>
    <i name="e_wo_entrp">     -4.88594709 </i>
    <i name="e_0_energy">     -4.88627190 </i>
   </energy>
  </scstep>
  <structure>
   <crystal>
    <varray name="basis" >
     <v>       1.51332563       1.51332563       1.51332563 </v>
     <v>       1.51332563      -1.51332563      -1.51332563 </v>
     <v>      -1.51332563       1.51332563      -1.51332563 </v>
    </varray>
    <i name="volume">     13.86299778 </i>
    <varray name="rec_basis" >
     <v>       0.33039816       0.33039816       0.00000000 </v>
     <v>       0.33039816       0.00000000      -0.33039816 </v>
     <v>       0.00000000       0.33039816      -0.33039816 </v>
    </varray>
   </crystal>
   <varray name="positions" >
    <v>       0.00000000       0.00000000       0.00000000 </v>
   </varray>
  </structure>
  <varray name="forces" >
   <v>       0.00000000       0.00000000       0.00000000 </v>
  </varray>
  <varray name="stress" >
   <v>      55.61163308       0.00000000      -0.00000000 </v>
   <v>       0.00000000      55.61163308       0.00000000 </v>
   <v>       0.00000000      -0.00000000      55.61163308 </v>
  </varray>
  <energy>
   <i name="e_fr_energy">     -4.88659672 </i>
   <i name="e_wo_entrp">     -4.88594709 </i>
   <i name="e_0_energy">     -4.88627190 </i>
  </energy>
  <time name="totalsc">    9.94   10.35</time>
 </calculation>
 <calculation>
  <scstep>
   <time name="dav">    0.66    0.67</time>
   <time name="total">    0.87    0.87</time>
   <energy>
    <i name="alphaZ">      2.26672261 </i>
    <i name="ewald">   -135.37150832 </i>
    <i name="hartreedc">     -0.34698569 </i>
    <i name="XCdc">     -8.80349688 </i>
    <i name="pawpsdc">    335.08129971 </i>
    <i name="pawaedc">   -317.51495999 </i>
    <i name="eentropy">     -0.00067530 </i>
    <i name="bandstr">     16.71827632 </i>
    <i name="atom">    103.06562707 </i>
    <i name="e_fr_energy">     -4.90570047 </i>
    <i name="e_wo_entrp">     -4.90502517 </i>
    <i name="e_0_energy">     -4.90536282 </i>
   </energy>
  </scstep>
  <scstep>
   <time name="dav">    0.77    0.78</time>
   <time name="total">    0.98    0.99</time>
   <energy>
    <i name="e_fr_energy">     -4.90048902 </i>
    <i name="e_wo_entrp">     -4.89982315 </i>
    <i name="e_0_energy">     -4.90015609 </i>
   </energy>
  </scstep>
  <scstep>
   <time name="dav">    0.72    0.73</time>
   <time name="total">    0.93    0.94</time>
   <energy>
    <i name="e_fr_energy">     -4.89742307 </i>
    <i name="e_wo_entrp">     -4.89677033 </i>
    <i name="e_0_energy">     -4.89709670 </i>
   </energy>
  </scstep>
  <scstep>
   <time name="dav">    0.86    0.86</time>
   <time name="total">    1.07    1.09</time>
   <energy>
    <i name="e_fr_energy">     -4.89741982 </i>
    <i name="e_wo_entrp">     -4.89676701 </i>
    <i name="e_0_energy">     -4.89709342 </i>
   </energy>
  </scstep>
  <scstep>
   <time name="dav">    0.84    0.84</time>
   <time name="total">    1.05    1.06</time>
   <energy>
    <i name="e_fr_energy">     -4.89740803 </i>
    <i name="e_wo_entrp">     -4.89675519 </i>
    <i name="e_0_energy">     -4.89708161 </i>
   </energy>
  </scstep>
  <scstep>
   <time name="dav">    0.41    0.42</time>
   <time name="total">    0.59    0.61</time>
   <energy>
    <i name="alphaZ">      2.26672261 </i>
    <i name="ewald">   -135.37150832 </i>
    <i name="hartreedc">     -0.45408249 </i>
    <i name="XCdc">     -8.82514540 </i>
    <i name="pawpsdc">    288.78897106 </i>
    <i name="pawaedc">   -271.20733097 </i>
    <i name="eentropy">     -0.00065283 </i>
    <i name="bandstr">     16.83999084 </i>
    <i name="atom">    103.06562707 </i>
    <i name="e_fr_energy">     -4.89740843 </i>
    <i name="e_wo_entrp">     -4.89675560 </i>
    <i name="e_0_energy">     -4.89708201 </i>
   </energy>
  </scstep>
  <structure>
   <crystal>
    <varray name="basis" >
     <v>       1.54845544       1.54845544       1.54845544 </v>
     <v>       1.54845544      -1.54845544      -1.54845544 </v>
     <v>      -1.54845544       1.54845544      -1.54845544 </v>
    </varray>
    <i name="volume">     14.85101469 </i>
    <varray name="rec_basis" >
     <v>       0.32290241       0.32290241       0.00000000 </v>
     <v>       0.32290241       0.00000000      -0.32290241 </v>
     <v>       0.00000000       0.32290241      -0.32290241 </v>
    </varray>
   </crystal>
   <varray name="positions" >
    <v>       0.00000000       0.00000000       0.00000000 </v>
   </varray>
  </structure>
  <varray name="forces" >
   <v>      -0.00000000      -0.00000000       0.00000000 </v>
  </varray>
  <varray name="stress" >
   <v>     -15.90961190      -0.00000000       0.00000000 </v>
   <v>       0.00000000     -15.90961190       0.00000000 </v>
   <v>      -0.00000000       0.00000000     -15.90961190 </v>
  </varray>
  <energy>
   <i name="e_fr_energy">     -4.89740843 </i>
   <i name="e_wo_entrp">     -4.89675560 </i>
   <i name="e_0_energy">     -4.89708201 </i>
  </energy>
  <time name="totalsc">    6.65    6.99</time>
 </calculation>
 <calculation>
  <scstep>
   <time name="dav">    0.72    0.73</time>
   <time name="total">    0.93    0.94</time>
   <energy>
    <i name="alphaZ">      2.30662727 </i>
    <i name="ewald">   -136.16127712 </i>
    <i name="hartreedc">     -0.45671942 </i>
    <i name="XCdc">     -8.78062651 </i>
    <i name="pawpsdc">    288.56083454 </i>
    <i name="pawaedc">   -270.97921148 </i>
    <i name="eentropy">     -0.00062348 </i>
    <i name="bandstr">     17.54610698 </i>
    <i name="atom">    103.06562707 </i>
    <i name="e_fr_energy">     -4.89926215 </i>
    <i name="e_wo_entrp">     -4.89863867 </i>
    <i name="e_0_energy">     -4.89895041 </i>
   </energy>
  </scstep>
  <scstep>
   <time name="dav">    0.79    0.79</time>
   <time name="total">    1.00    1.03</time>
   <energy>
    <i name="e_fr_energy">     -4.89891100 </i>
    <i name="e_wo_entrp">     -4.89828788 </i>
    <i name="e_0_energy">     -4.89859944 </i>
   </energy>
  </scstep>
  <scstep>
   <time name="dav">    0.71    0.72</time>
   <time name="total">    0.92    0.93</time>
   <energy>
    <i name="e_fr_energy">     -4.89870694 </i>
    <i name="e_wo_entrp">     -4.89808414 </i>
    <i name="e_0_energy">     -4.89839554 </i>
   </energy>
  </scstep>
  <scstep>
   <time name="dav">    0.85    0.85</time>
   <time name="total">    1.05    1.07</time>
   <energy>
    <i name="e_fr_energy">     -4.89870701 </i>
    <i name="e_wo_entrp">     -4.89808421 </i>
    <i name="e_0_energy">     -4.89839561 </i>
   </energy>
  </scstep>
  <scstep>
   <time name="dav">    0.44    0.44</time>
   <time name="total">    0.65    0.66</time>
   <energy>
    <i name="e_fr_energy">     -4.89870776 </i>
    <i name="e_wo_entrp">     -4.89808493 </i>
    <i name="e_0_energy">     -4.89839634 </i>
   </energy>
  </scstep>
  <scstep>
   <time name="dav">    0.39    0.40</time>
   <time name="total">    0.57    0.58</time>
   <energy>
    <i name="alphaZ">      2.30662727 </i>
    <i name="ewald">   -136.16127712 </i>
    <i name="hartreedc">     -0.42609026 </i>
    <i name="XCdc">     -8.77482330 </i>
    <i name="pawpsdc">    299.14006675 </i>
    <i name="pawaedc">   -281.56202776 </i>
    <i name="eentropy">     -0.00062283 </i>
    <i name="bandstr">     17.51381257 </i>
    <i name="atom">    103.06562707 </i>
    <i name="e_fr_energy">     -4.89870760 </i>
    <i name="e_wo_entrp">     -4.89808477 </i>
    <i name="e_0_energy">     -4.89839618 </i>
   </energy>
  </scstep>
  <structure>
   <crystal>
    <varray name="basis" >
     <v>       1.53947402       1.53947402       1.53947402 </v>
     <v>       1.53947402      -1.53947402      -1.53947402 </v>
     <v>      -1.53947402       1.53947402      -1.53947402 </v>
    </varray>
    <i name="volume">     14.59409210 </i>
    <varray name="rec_basis" >
     <v>       0.32478625       0.32478625       0.00000000 </v>
     <v>       0.32478625       0.00000000      -0.32478625 </v>
     <v>       0.00000000       0.32478625      -0.32478625 </v>
    </varray>
   </crystal>
   <varray name="positions" >
    <v>       0.00000000       0.00000000       0.00000000 </v>
   </varray>
  </structure>
  <varray name="forces" >
   <v>      -0.00000000       0.00000000       0.00000000 </v>
  </varray>
  <varray name="stress" >
   <v>       0.07704984       0.00000000       0.00000000 </v>
   <v>      -0.00000000       0.07704984      -0.00000000 </v>
   <v>       0.00000000       0.00000000       0.07704984 </v>
  </varray>
  <energy>
   <i name="e_fr_energy">     -4.89870760 </i>
   <i name="e_wo_entrp">     -4.89808477 </i>
   <i name="e_0_energy">     -4.89839618 </i>
  </energy>
  <time name="totalsc">    6.20    6.52</time>
  <eigenvalues>
   <array>
    <dimension dim="1">band</dimension>
    <dimension dim="2">kpoint</dimension>
    <dimension dim="3">spin</dimension>
    <field>eigene</field>
    <field>occ</field>
    <set>
     <set comment="spin 1">
      <set comment="kpoint 1">
       <r>   -4.1921    1.0000 </r>
       <r>   19.9266    0.0000 </r>
       <r>   20.6458    0.0000 </r>
       <r>   20.6458    0.0000 </r>
       <r>   22.7260    0.0000 </r>
       <r>   22.7260    0.0000 </r>
       <r>   23.8416    0.0000 </r>
       <r>   25.7198    0.0000 </r>
      </set>
      <set comment="kpoint 2">
       <r>   -3.9623    1.0000 </r>
       <r>   18.4177    0.0000 </r>
       <r>   19.3075    0.0000 </r>
       <r>   20.1285    0.0000 </r>
       <r>   22.3099    0.0000 </r>
       <r>   23.3628    0.0000 </r>
       <r>   24.9066    0.0000 </r>
       <r>   25.2004    0.0000 </r>
      </set>
      <set comment="kpoint 3">
       <r>   -3.5798    1.0000 </r>
       <r>   16.4329    0.0000 </r>
       <r>   18.2634    0.0000 </r>
       <r>   19.4440    0.0000 </r>
       <r>   21.7909    0.0000 </r>
       <r>   23.0870    0.0000 </r>
       <r>   25.3271    0.0000 </r>
       <r>   26.0029    0.0000 </r>
      </set>
      <set comment="kpoint 4">
       <r>   -3.0456    1.0000 </r>
       <r>   14.3223    0.0000 </r>
       <r>   17.4058    0.0000 </r>
       <r>   18.7289    0.0000 </r>
       <r>   21.2297    0.0000 </r>
       <r>   22.4315    0.0000 </r>
       <r>   26.0523    0.0000 </r>
       <r>   26.2878    0.0000 </r>
      </set>
      <set comment="kpoint 5">
       <r>   -2.3607    1.0000 </r>
       <r>   12.2302    0.0000 </r>
       <r>   16.6875    0.0000 </r>
       <r>   18.0640    0.0000 </r>
       <r>   20.6812    0.0000 </r>
       <r>   21.7961    0.0000 </r>
       <r>   26.7370    0.0000 </r>
       <r>   26.8727    0.0000 </r>
      </set>
      <set comment="kpoint 6">
       <r>   -1.5269    1.0000 </r>
       <r>   10.2122    0.0000 </r>
       <r>   16.1009    0.0000 </r>
       <r>   17.4891    0.0000 </r>
       <r>   20.1889    0.0000 </r>
       <r>   21.2486    0.0000 </r>
       <r>   27.3480    0.0000 </r>
       <r>   27.7681    0.0000 </r>
      </set>
      <set comment="kpoint 7">
       <r>   -0.5459    1.0000 </r>
       <r>    8.2951    1.0000 </r>
       <r>   15.6451    0.0000 </r>
       <r>   17.0296    0.0000 </r>
       <r>   19.7857    0.0000 </r>
       <r>   20.8088    0.0000 </r>
       <r>   28.0971    0.0000 </r>
       <r>   28.7153    0.0000 </r>
      </set>
      <set comment="kpoint 8">
       <r>    0.5791    1.0000 </r>
       <r>    6.4947    1.0000 </r>
       <r>   15.3196    0.0000 </r>
       <r>   16.6956    0.0000 </r>
       <r>   19.4880    0.0000 </r>
       <r>   20.4874    0.0000 </r>
       <r>   28.9438    0.0000 </r>
       <r>   29.6748    0.0000 </r>
      </set>
      <set comment="kpoint 9">
       <r>    1.8425    1.0000 </r>
       <r>    4.8241    1.0000 </r>
       <r>   15.1243    0.0000 </r>
       <r>   16.4932    0.0000 </r>
       <r>   19.3065    0.0000 </r>
       <r>   20.2913    0.0000 </r>
       <r>   29.7905    0.0000 </r>
       <r>   30.5066    0.0000 </r>
      </set>
      <set comment="kpoint 10">
       <r>    3.0683    1.0000 </r>
       <r>    3.4623    1.0000 </r>
       <r>   15.0592    0.0000 </r>
       <r>   16.4250    0.0000 </r>
       <r>   19.2453    0.0000 </r>
       <r>   20.2262    0.0000 </r>
       <r>   30.2620    0.0000 </r>
       <r>   30.8824    0.0000 </r>
      </set>
      <set comment="kpoint 11">
       <r>   -4.2688    1.0000 </r>
       <r>   20.8407    0.0000 </r>
       <r>   20.8407    0.0000 </r>
       <r>   21.1801    0.0000 </r>
       <r>   22.5467    0.0000 </r>
       <r>   22.9076    0.0000 </r>
       <r>   22.9076    0.0000 </r>
       <r>   25.6290    0.0000 </r>
      </set>
      <set comment="kpoint 12">
       <r>   -3.6563    1.0000 </r>
       <r>   17.2419    0.0000 </r>
       <r>   17.9269    0.0000 </r>
       <r>   19.0234    0.0000 </r>
       <r>   22.6119    0.0000 </r>
       <r>   23.6391    0.0000 </r>
       <r>   24.8664    0.0000 </r>
       <r>   25.7620    0.0000 </r>
      </set>
      <set comment="kpoint 13">
       <r>   -3.1981    1.0000 </r>
       <r>   15.4470    0.0000 </r>
       <r>   16.7509    0.0000 </r>
       <r>   18.2033    0.0000 </r>
       <r>   22.3855    0.0000 </r>
       <r>   23.5220    0.0000 </r>
       <r>   25.1652    0.0000 </r>
       <r>   26.3994    0.0000 </r>
      </set>
      <set comment="kpoint 14">
       <r>   -2.5888    1.0000 </r>
       <r>   13.3772    0.0000 </r>
       <r>   15.9195    0.0000 </r>
       <r>   17.4676    0.0000 </r>
       <r>   21.9600    0.0000 </r>
       <r>   23.0848    0.0000 </r>
       <r>   25.6882    0.0000 </r>
       <r>   27.2192    0.0000 </r>
      </set>
      <set comment="kpoint 15">
       <r>   -1.8296    1.0000 </r>
       <r>   11.3289    0.0000 </r>
       <r>   15.2442    0.0000 </r>
       <r>   16.8307    0.0000 </r>
       <r>   21.4838    0.0000 </r>
       <r>   22.6467    0.0000 </r>
       <r>   26.2790    0.0000 </r>
       <r>   28.1098    0.0000 </r>
      </set>
      <set comment="kpoint 16">
       <r>   -0.9225    1.0000 </r>
       <r>    9.3635    1.0000 </r>
       <r>   14.7056    0.0000 </r>
       <r>   16.3081    0.0000 </r>
       <r>   21.0475    0.0000 </r>
       <r>   22.2573    0.0000 </r>
       <r>   26.9971    0.0000 </r>
       <r>   29.0153    0.0000 </r>
      </set>
      <set comment="kpoint 17">
       <r>    0.1302    1.0000 </r>
       <r>    7.5050    1.0000 </r>
       <r>   14.3011    0.0000 </r>
       <r>   15.9100    0.0000 </r>
       <r>   20.6974    0.0000 </r>
       <r>   21.9413    0.0000 </r>
       <r>   27.8427    0.0000 </r>
       <r>   29.8955    0.0000 </r>
      </set>
      <set comment="kpoint 18">
       <r>    1.3250    1.0000 </r>
       <r>    5.7695    1.0000 </r>
       <r>   14.0312    0.0000 </r>
       <r>   15.6425    0.0000 </r>
       <r>   20.4567    0.0000 </r>
       <r>   21.7221    0.0000 </r>
       <r>   28.7788    0.0000 </r>
       <r>   30.5681    0.0000 </r>
      </set>
      <set comment="kpoint 19">
       <r>    2.6476    1.0000 </r>
       <r>    4.1754    1.0000 </r>
       <r>   13.8960    0.0000 </r>
       <r>   15.5075    0.0000 </r>
       <r>   20.3333    0.0000 </r>
       <r>   21.6100    0.0000 </r>
       <r>   29.7063    0.0000 </r>
       <r>   30.5775    0.0000 </r>
      </set>
      <set comment="kpoint 20">
       <r>   -4.1155    1.0000 </r>
       <r>   19.4080    0.0000 </r>
       <r>   19.8548    0.0000 </r>
       <r>   20.9304    0.0000 </r>
       <r>   22.1459    0.0000 </r>
       <r>   23.4501    0.0000 </r>
       <r>   24.0559    0.0000 </r>
       <r>   24.7087    0.0000 </r>
      </set>
      <set comment="kpoint 21">
       <r>   -2.6648    1.0000 </r>
       <r>   14.3980    0.0000 </r>
       <r>   14.9055    0.0000 </r>
       <r>   17.3586    0.0000 </r>
       <r>   22.5667    0.0000 </r>
       <r>   23.6971    0.0000 </r>
       <r>   25.5267    0.0000 </r>
       <r>   26.8084    0.0000 </r>
      </set>
      <set comment="kpoint 22">
       <r>   -1.9812    1.0000 </r>
       <r>   12.5444    0.0000 </r>
       <r>   13.9440    0.0000 </r>
       <r>   16.6565    0.0000 </r>
       <r>   22.4139    0.0000 </r>
       <r>   23.6613    0.0000 </r>
       <r>   25.9455    0.0000 </r>
       <r>   27.7074    0.0000 </r>
      </set>
      <set comment="kpoint 23">
       <r>   -1.1488    1.0000 </r>
       <r>   10.5562    0.0000 </r>
       <r>   13.3087    0.0000 </r>
       <r>   16.0724    0.0000 </r>
       <r>   22.0563    0.0000 </r>
       <r>   23.6841    0.0000 </r>
       <r>   26.2620    0.0000 </r>
       <r>   28.9119    0.0000 </r>
      </set>
      <set comment="kpoint 24">
       <r>   -0.1697    1.0000 </r>
       <r>    8.6499    1.0000 </r>
       <r>   12.8219    0.0000 </r>
       <r>   15.6112    0.0000 </r>
       <r>   21.6934    0.0000 </r>
       <r>   23.6404    0.0000 </r>
       <r>   26.7923    0.0000 </r>
       <r>   29.9695    0.0000 </r>
      </set>
      <set comment="kpoint 25">
       <r>    0.9534    1.0000 </r>
       <r>    6.8555    1.0000 </r>
       <r>   12.4742    0.0000 </r>
       <r>   15.2785    0.0000 </r>
       <r>   21.4091    0.0000 </r>
       <r>   23.5451    0.0000 </r>
       <r>   27.5587    0.0000 </r>
       <r>   30.5781    0.0000 </r>
      </set>
      <set comment="kpoint 26">
       <r>    2.2148    1.0000 </r>
       <r>    5.1890    1.0000 </r>
       <r>   12.2656    0.0000 </r>
       <r>   15.0776    0.0000 </r>
       <r>   21.2315    0.0000 </r>
       <r>   23.4628    0.0000 </r>
       <r>   28.4784    0.0000 </r>
       <r>   30.3609    0.0000 </r>
      </set>
      <set comment="kpoint 27">
       <r>    3.4424    1.0000 </r>
       <r>    3.8258    1.0000 </r>
       <r>   12.1961    0.0000 </r>
       <r>   15.0104    0.0000 </r>
       <r>   21.1716    0.0000 </r>
       <r>   23.4310    0.0000 </r>
       <r>   29.2872    0.0000 </r>
       <r>   29.7042    0.0000 </r>
      </set>
      <set comment="kpoint 28">
       <r>   -3.8092    1.0000 </r>
       <r>   17.4657    0.0000 </r>
       <r>   18.8581    0.0000 </r>
       <r>   20.5644    0.0000 </r>
       <r>   21.4106    0.0000 </r>
       <r>   23.1702    0.0000 </r>
       <r>   24.6227    0.0000 </r>
       <r>   25.5570    0.0000 </r>
      </set>
      <set comment="kpoint 29">
       <r>   -3.8858    1.0000 </r>
       <r>   18.2715    0.0000 </r>
       <r>   18.6430    0.0000 </r>
       <r>   20.3551    0.0000 </r>
       <r>   22.0746    0.0000 </r>
       <r>   23.4825    0.0000 </r>
       <r>   24.2019    0.0000 </r>
       <r>   24.8715    0.0000 </r>
      </set>
      <set comment="kpoint 30">
       <r>   -1.2243    1.0000 </r>
       <r>   11.6939    0.0000 </r>
       <r>   12.0800    0.0000 </r>
       <r>   16.0073    0.0000 </r>
       <r>   22.7226    0.0000 </r>
       <r>   23.7181    0.0000 </r>
       <r>   26.8746    0.0000 </r>
       <r>   28.0243    0.0000 </r>
      </set>
      <set comment="kpoint 31">
       <r>   -0.3198    1.0000 </r>
       <r>    9.9127    0.6694 </r>
       <r>   11.3500    0.0000 </r>
       <r>   15.4834    0.0000 </r>
       <r>   22.6613    0.0000 </r>
       <r>   24.0095    0.0000 </r>
       <r>   27.2172    0.0000 </r>
       <r>   29.0490    0.0000 </r>
      </set>
      <set comment="kpoint 32">
       <r>    0.7299    1.0000 </r>
       <r>    8.0750    1.0000 </r>
       <r>   10.9170    0.0000 </r>
       <r>   15.0861    0.0000 </r>
       <r>   22.4244    0.0000 </r>
       <r>   24.4779    0.0000 </r>
       <r>   27.3472    0.0000 </r>
       <r>   30.0313    0.0000 </r>
      </set>
      <set comment="kpoint 33">
       <r>    1.9213    1.0000 </r>
       <r>    6.3485    1.0000 </r>
       <r>   10.6319    0.0000 </r>
       <r>   14.8191    0.0000 </r>
       <r>   22.2228    0.0000 </r>
       <r>   24.8463    0.0000 </r>
       <r>   27.6988    0.0000 </r>
       <r>   30.1049    0.0000 </r>
      </set>
      <set comment="kpoint 34">
       <r>    3.2409    1.0000 </r>
       <r>    4.7599    1.0000 </r>
       <r>   10.4901    0.0000 </r>
       <r>   14.6850    0.0000 </r>
       <r>   22.1145    0.0000 </r>
       <r>   25.0200    0.0000 </r>
       <r>   28.2818    0.0000 </r>
       <r>   29.5132    0.0000 </r>
      </set>
      <set comment="kpoint 35">
       <r>   -3.3507    1.0000 </r>
       <r>   15.3660    0.0000 </r>
       <r>   17.9641    0.0000 </r>
       <r>   20.0723    0.0000 </r>
       <r>   20.6128    0.0000 </r>
       <r>   22.4770    0.0000 </r>
       <r>   25.0050    0.0000 </r>
       <r>   26.8540    0.0000 </r>
      </set>
      <set comment="kpoint 36">
       <r>   -3.5034    1.0000 </r>
       <r>   16.4492    0.0000 </r>
       <r>   17.5641    0.0000 </r>
       <r>   19.7964    0.0000 </r>
       <r>   21.6039    0.0000 </r>
       <r>   22.8961    0.0000 </r>
       <r>   24.5165    0.0000 </r>
       <r>   26.0586    0.0000 </r>
      </set>
      <set comment="kpoint 37">
       <r>    0.6553    1.0000 </r>
       <r>    9.2753    1.0000 </r>
       <r>    9.5992    1.0000 </r>
       <r>   15.0233    0.0000 </r>
       <r>   23.1539    0.0000 </r>
       <r>   24.1078    0.0000 </r>
       <r>   28.5292    0.0000 </r>
       <r>   28.9166    0.0000 </r>
      </set>
      <set comment="kpoint 38">
       <r>    1.7738    1.0000 </r>
       <r>    7.6366    1.0000 </r>
       <r>    9.0981    1.0000 </r>
       <r>   14.6914    0.0000 </r>
       <r>   23.2194    0.0000 </r>
       <r>   24.6597    0.0000 </r>
       <r>   28.4007    0.0000 </r>
       <r>   29.6686    0.0000 </r>
      </set>
      <set comment="kpoint 39">
       <r>    3.0301    1.0000 </r>
       <r>    5.9858    1.0000 </r>
       <r>    8.8757    1.0000 </r>
       <r>   14.4908    0.0000 </r>
       <r>   23.1343    0.0000 </r>
       <r>   25.4014    0.0000 </r>
       <r>   27.9160    0.0000 </r>
       <r>   29.9046    0.0000 </r>
      </set>
      <set comment="kpoint 40">
       <r>    4.2585    1.0000 </r>
       <r>    4.6244    1.0000 </r>
       <r>    8.8028    1.0000 </r>
       <r>   14.4239    0.0000 </r>
       <r>   23.0958    0.0000 </r>
       <r>   25.8159    0.0000 </r>
       <r>   27.5988    0.0000 </r>
       <r>   29.8821    0.0000 </r>
      </set>
      <set comment="kpoint 41">
       <r>   -2.7409    1.0000 </r>
       <r>   13.2512    0.0000 </r>
       <r>   17.1907    0.0000 </r>
       <r>   19.5340    0.0000 </r>
       <r>   19.8578    0.0000 </r>
       <r>   21.8253    0.0000 </r>
       <r>   25.4846    0.0000 </r>
       <r>   27.4537    0.0000 </r>
      </set>
      <set comment="kpoint 42">
       <r>   -2.9693    1.0000 </r>
       <r>   14.3708    0.0000 </r>
       <r>   16.7042    0.0000 </r>
       <r>   19.1852    0.0000 </r>
       <r>   20.9757    0.0000 </r>
       <r>   22.4847    0.0000 </r>
       <r>   24.7005    0.0000 </r>
       <r>   27.4421    0.0000 </r>
      </set>
      <set comment="kpoint 43">
       <r>   -3.0455    1.0000 </r>
       <r>   15.3640    0.0000 </r>
       <r>   15.7991    0.0000 </r>
       <r>   19.1462    0.0000 </r>
       <r>   21.5483    0.0000 </r>
       <r>   22.4863    0.0000 </r>
       <r>   25.1845    0.0000 </r>
       <r>   26.4104    0.0000 </r>
      </set>
      <set comment="kpoint 44">
       <r>    2.9582    1.0000 </r>
       <r>    7.2147    1.0000 </r>
       <r>    7.5175    1.0000 </r>
       <r>   14.4261    0.0000 </r>
       <r>   23.8590    0.0000 </r>
       <r>   24.8960    0.0000 </r>
       <r>   28.0081    0.0000 </r>
       <r>   30.4604    0.0000 </r>
      </set>
      <set comment="kpoint 45">
       <r>    4.2692    1.0000 </r>
       <r>    5.7704    1.0000 </r>
       <r>    7.2392    1.0000 </r>
       <r>   14.2928    0.0000 </r>
       <r>   24.0426    0.0000 </r>
       <r>   25.5960    0.0000 </r>
       <r>   27.0459    0.0000 </r>
       <r>   31.1655    0.0000 </r>
      </set>
      <set comment="kpoint 46">
       <r>   -1.9812    1.0000 </r>
       <r>   11.1913    0.0000 </r>
       <r>   16.5440    0.0000 </r>
       <r>   19.0208    0.0000 </r>
       <r>   19.1946    0.0000 </r>
       <r>   21.2560    0.0000 </r>
       <r>   26.0883    0.0000 </r>
       <r>   28.1997    0.0000 </r>
      </set>
      <set comment="kpoint 47">
       <r>   -2.2848    1.0000 </r>
       <r>   12.2908    0.0000 </r>
       <r>   15.9766    0.0000 </r>
       <r>   18.5857    0.0000 </r>
       <r>   20.3389    0.0000 </r>
       <r>   22.1382    0.0000 </r>
       <r>   25.0074    0.0000 </r>
       <r>   28.5518    0.0000 </r>
      </set>
      <set comment="kpoint 48">
       <r>   -2.4367    1.0000 </r>
       <r>   13.4798    0.0000 </r>
       <r>   14.8145    0.0000 </r>
       <r>   18.5276    0.0000 </r>
       <r>   21.1898    0.0000 </r>
       <r>   22.3799    0.0000 </r>
       <r>   25.3807    0.0000 </r>
       <r>   27.4759    0.0000 </r>
      </set>
      <set comment="kpoint 49">
       <r>    5.3616    1.0000 </r>
       <r>    5.8561    1.0000 </r>
       <r>    5.8561    1.0000 </r>
       <r>   14.2267    0.0000 </r>
       <r>   24.5115    0.0000 </r>
       <r>   26.0724    0.0000 </r>
       <r>   26.0724    0.0000 </r>
       <r>   32.5942    0.0000 </r>
      </set>
      <set comment="kpoint 50">
       <r>   -1.0735    1.0000 </r>
       <r>    9.2217    1.0000 </r>
       <r>   16.0251    0.0000 </r>
       <r>   18.5777    0.0000 </r>
       <r>   18.6467    0.0000 </r>
       <r>   20.7821    0.0000 </r>
       <r>   26.8266    0.0000 </r>
       <r>   29.0295    0.0000 </r>
      </set>
      <set comment="kpoint 51">
       <r>   -1.4511    1.0000 </r>
       <r>   10.2787    0.0000 </r>
       <r>   15.3789    0.0000 </r>
       <r>   18.0561    0.0000 </r>
       <r>   19.7737    0.0000 </r>
       <r>   21.7954    0.0000 </r>
       <r>   25.5352    0.0000 </r>
       <r>   29.4489    0.0000 </r>
      </set>
      <set comment="kpoint 52">
       <r>   -1.6781    1.0000 </r>
       <r>   11.4550    0.0000 </r>
       <r>   14.1215    0.0000 </r>
       <r>   17.9597    0.0000 </r>
       <r>   20.6632    0.0000 </r>
       <r>   22.5527    0.0000 </r>
       <r>   25.3449    0.0000 </r>
       <r>   28.8679    0.0000 </r>
      </set>
      <set comment="kpoint 53">
       <r>   -1.7538    1.0000 </r>
       <r>   12.5712    0.0000 </r>
       <r>   12.9424    0.0000 </r>
       <r>   17.9424    0.0000 </r>
       <r>   21.3635    0.0000 </r>
       <r>   22.1139    0.0000 </r>
       <r>   26.4433    0.0000 </r>
       <r>   27.5963    0.0000 </r>
      </set>
      <set comment="kpoint 54">
       <r>   -0.0200    1.0000 </r>
       <r>    7.3608    1.0000 </r>
       <r>   15.6357    0.0000 </r>
       <r>   18.2294    0.0000 </r>
       <r>   18.2304    0.0000 </r>
       <r>   20.4125    0.0000 </r>
       <r>   27.6902    0.0000 </r>
       <r>   29.8707    0.0000 </r>
      </set>
      <set comment="kpoint 55">
       <r>   -0.4706    1.0000 </r>
       <r>    8.3649    1.0000 </r>
       <r>   14.9123    0.0000 </r>
       <r>   17.6269    0.0000 </r>
       <r>   19.3168    0.0000 </r>
       <r>   21.4824    0.0000 </r>
       <r>   26.2620    0.0000 </r>
       <r>   30.2218    0.0000 </r>
      </set>
      <set comment="kpoint 56">
       <r>   -0.7716    1.0000 </r>
       <r>    9.4991    1.0000 </r>
       <r>   13.5718    0.0000 </r>
       <r>   17.4798    0.0000 </r>
       <r>   20.1760    0.0000 </r>
       <r>   22.7124    0.0000 </r>
       <r>   25.5170    0.0000 </r>
       <r>   29.9967    0.0000 </r>
      </set>
      <set comment="kpoint 57">
       <r>   -0.9223    1.0000 </r>
       <r>   10.7460    0.0000 </r>
       <r>   12.1548    0.0000 </r>
       <r>   17.4245    0.0000 </r>
       <r>   21.1227    0.0000 </r>
       <r>   22.3920    0.0000 </r>
       <r>   26.6054    0.0000 </r>
       <r>   28.6803    0.0000 </r>
      </set>
      <set comment="kpoint 58">
       <r>    1.1755    1.0000 </r>
       <r>    5.6237    1.0000 </r>
       <r>   15.3761    0.0000 </r>
       <r>   17.9484    0.0000 </r>
       <r>   17.9928    0.0000 </r>
       <r>   20.1621    0.0000 </r>
       <r>   28.6428    0.0000 </r>
       <r>   30.5168    0.0000 </r>
      </set>
      <set comment="kpoint 59">
       <r>    0.6540    1.0000 </r>
       <r>    6.5660    1.0000 </r>
       <r>   14.5782    0.0000 </r>
       <r>   17.3134    0.0000 </r>
       <r>   18.9826    0.0000 </r>
       <r>   21.2351    0.0000 </r>
       <r>   27.1535    0.0000 </r>
       <r>   30.6091    0.0000 </r>
      </set>
      <set comment="kpoint 60">
       <r>    0.2803    1.0000 </r>
       <r>    7.6459    1.0000 </r>
       <r>   13.1591    0.0000 </r>
       <r>   17.1089    0.0000 </r>
       <r>   19.7909    0.0000 </r>
       <r>   22.7516    0.0000 </r>
       <r>   26.0210    0.0000 </r>
       <r>   30.4187    0.0000 </r>
      </set>
      <set comment="kpoint 61">
       <r>    0.0557    1.0000 </r>
       <r>    8.8554    1.0000 </r>
       <r>   11.6555    0.0000 </r>
       <r>   17.0019    0.0000 </r>
       <r>   20.7461    0.0000 </r>
       <r>   22.9648    0.0000 </r>
       <r>   26.4815    0.0000 </r>
       <r>   29.6802    0.0000 </r>
      </set>
      <set comment="kpoint 62">
       <r>   -0.0192    1.0000 </r>
       <r>   10.0436    0.0005 </r>
       <r>   10.3613    0.0000 </r>
       <r>   16.9639    0.0000 </r>
       <r>   21.5574    0.0000 </r>
       <r>   22.2600    0.0000 </r>
       <r>   27.9856    0.0000 </r>
       <r>   28.3795    0.0000 </r>
      </set>
      <set comment="kpoint 63">
       <r>    2.4988    1.0000 </r>
       <r>    4.0287    1.0000 </r>
       <r>   15.2464    0.0000 </r>
       <r>   17.8081    0.0000 </r>
       <r>   17.8724    0.0000 </r>
       <r>   20.0355    0.0000 </r>
       <r>   29.6016    0.0000 </r>
       <r>   30.4923    0.0000 </r>
      </set>
      <set comment="kpoint 64">
       <r>    1.9170    1.0000 </r>
       <r>    4.8966    1.0000 </r>
       <r>   14.3771    0.0000 </r>
       <r>   17.1225    0.0000 </r>
       <r>   18.7781    0.0000 </r>
       <r>   21.0788    0.0000 </r>
       <r>   28.1579    0.0000 </r>
       <r>   30.1953    0.0000 </r>
      </set>
      <set comment="kpoint 65">
       <r>    1.4742    1.0000 </r>
       <r>    5.9132    1.0000 </r>
       <r>   12.8833    0.0000 </r>
       <r>   16.8574    0.0000 </r>
       <r>   19.5274    0.0000 </r>
       <r>   22.7151    0.0000 </r>
       <r>   26.8117    0.0000 </r>
       <r>   29.9115    0.0000 </r>
      </set>
      <set comment="kpoint 66">
       <r>    1.1775    1.0000 </r>
       <r>    7.0681    1.0000 </r>
       <r>   11.3025    0.0000 </r>
       <r>   16.6917    0.0000 </r>
       <r>   20.4438    0.0000 </r>
       <r>   23.5456    0.0000 </r>
       <r>   26.5057    0.0000 </r>
       <r>   29.6021    0.0000 </r>
      </set>
      <set comment="kpoint 67">
       <r>    1.0288    1.0000 </r>
       <r>    8.3475    1.0000 </r>
       <r>    9.7934    0.9999 </r>
       <r>   16.6020    0.0000 </r>
       <r>   21.4705    0.0000 </r>
       <r>   22.8228    0.0000 </r>
       <r>   27.7157    0.0000 </r>
       <r>   29.1109    0.0000 </r>
      </set>
      <set comment="kpoint 68">
       <r>    3.1434    1.0000 </r>
       <r>    3.5343    1.0000 </r>
       <r>   14.3101    0.0000 </r>
       <r>   17.0588    0.0000 </r>
       <r>   18.7106    0.0000 </r>
       <r>   21.0252    0.0000 </r>
       <r>   29.0874    0.0000 </r>
       <r>   29.3725    0.0000 </r>
      </set>
      <set comment="kpoint 69">
       <r>    2.7960    1.0000 </r>
       <r>    4.3209    1.0000 </r>
       <r>   12.7450    0.0000 </r>
       <r>   16.7305    0.0000 </r>
       <r>   19.3944    0.0000 </r>
       <r>   22.6780    0.0000 </r>
       <r>   27.7731    0.0000 </r>
       <r>   28.9429    0.0000 </r>
      </set>
      <set comment="kpoint 70">
       <r>    2.4374    1.0000 </r>
       <r>    5.4055    1.0000 </r>
       <r>   11.0911    0.0000 </r>
       <r>   16.5031    0.0000 </r>
       <r>   20.2563    0.0000 </r>
       <r>   23.9565    0.0000 </r>
       <r>   26.8083    0.0000 </r>
       <r>   28.8408    0.0000 </r>
      </set>
      <set comment="kpoint 71">
       <r>    2.2182    1.0000 </r>
       <r>    6.6327    1.0000 </r>
       <r>    9.5013    1.0000 </r>
       <r>   16.3545    0.0000 </r>
       <r>   21.2740    0.0000 </r>
       <r>   23.6664    0.0000 </r>
       <r>   27.0509    0.0000 </r>
       <r>   29.2348    0.0000 </r>
      </set>
      <set comment="kpoint 72">
       <r>    2.1448    1.0000 </r>
       <r>    7.8573    1.0000 </r>
       <r>    8.1532    1.0000 </r>
       <r>   16.3029    0.0000 </r>
       <r>   22.1160    0.0000 </r>
       <r>   22.8666    0.0000 </r>
       <r>   27.2914    0.0000 </r>
       <r>   29.8227    0.0000 </r>
      </set>
      <set comment="kpoint 73">
       <r>    3.6665    1.0000 </r>
       <r>    4.0417    1.0000 </r>
       <r>   11.0205    0.0000 </r>
       <r>   16.4396    0.0000 </r>
       <r>   20.1926    0.0000 </r>
       <r>   24.0963    0.0000 </r>
       <r>   27.1478    0.0000 </r>
       <r>   28.3047    0.0000 </r>
      </set>
      <set comment="kpoint 74">
       <r>    3.5358    1.0000 </r>
       <r>    5.0489    1.0000 </r>
       <r>    9.3568    1.0000 </r>
       <r>   16.2292    0.0000 </r>
       <r>   21.1629    0.0000 </r>
       <r>   24.4413    0.0000 </r>
       <r>   26.3546    0.0000 </r>
       <r>   29.1066    0.0000 </r>
      </set>
      <set comment="kpoint 75">
       <r>    3.3978    1.0000 </r>
       <r>    6.3382    1.0000 </r>
       <r>    7.8054    1.0000 </r>
       <r>   16.1188    0.0000 </r>
       <r>   22.2031    0.0000 </r>
       <r>   23.6333    0.0000 </r>
       <r>   26.1616    0.0000 </r>
       <r>   30.5016    0.0000 </r>
      </set>
      <set comment="kpoint 76">
       <r>    4.6248    1.0000 </r>
       <r>    4.9831    1.0000 </r>
       <r>    7.7288    1.0000 </r>
       <r>   16.0566    0.0000 </r>
       <r>   22.1781    0.0000 </r>
       <r>   24.3592    0.0000 </r>
       <r>   25.3497    0.0000 </r>
       <r>   30.6581    0.0000 </r>
      </set>
      <set comment="kpoint 77">
       <r>    4.6985    1.0000 </r>
       <r>    6.0791    1.0000 </r>
       <r>    6.3556    1.0000 </r>
       <r>   15.9980    0.0000 </r>
       <r>   22.9232    0.0000 </r>
       <r>   23.9055    0.0000 </r>
       <r>   24.9759    0.0000 </r>
       <r>   31.9177    0.0000 </r>
      </set>
      <set comment="kpoint 78">
       <r>   -3.2744    1.0000 </r>
       <r>   16.1464    0.0000 </r>
       <r>   17.0988    0.0000 </r>
       <r>   17.0988    0.0000 </r>
       <r>   23.6178    0.0000 </r>
       <r>   23.6178    0.0000 </r>
       <r>   25.6911    0.0000 </r>
       <r>   25.6911    0.0000 </r>
      </set>
      <set comment="kpoint 79">
       <r>   -2.7409    1.0000 </r>
       <r>   14.5108    0.0000 </r>
       <r>   15.7424    0.0000 </r>
       <r>   16.2987    0.0000 </r>
       <r>   23.4636    0.0000 </r>
       <r>   24.0335    0.0000 </r>
       <r>   25.9045    0.0000 </r>
       <r>   26.3730    0.0000 </r>
      </set>
      <set comment="kpoint 80">
       <r>   -2.0571    1.0000 </r>
       <r>   12.4917    0.0000 </r>
       <r>   14.9304    0.0000 </r>
       <r>   15.5852    0.0000 </r>
       <r>   23.2030    0.0000 </r>
       <r>   23.7498    0.0000 </r>
       <r>   26.7747    0.0000 </r>
       <r>   26.9697    0.0000 </r>
      </set>
      <set comment="kpoint 81">
       <r>   -1.2244    1.0000 </r>
       <r>   10.4910    0.0000 </r>
       <r>   14.3084    0.0000 </r>
       <r>   14.9839    0.0000 </r>
       <r>   22.8937    0.0000 </r>
       <r>   23.3377    0.0000 </r>
       <r>   27.6137    0.0000 </r>
       <r>   27.7830    0.0000 </r>
      </set>
      <set comment="kpoint 82">
       <r>   -0.2449    1.0000 </r>
       <r>    8.5810    1.0000 </r>
       <r>   13.8311    0.0000 </r>
       <r>   14.5078    0.0000 </r>
       <r>   22.5992    0.0000 </r>
       <r>   22.9680    0.0000 </r>
       <r>   28.3568    0.0000 </r>
       <r>   28.8037    0.0000 </r>
      </set>
      <set comment="kpoint 83">
       <r>    0.8787    1.0000 </r>
       <r>    6.7845    1.0000 </r>
       <r>   13.4910    0.0000 </r>
       <r>   14.1643    0.0000 </r>
       <r>   22.3646    0.0000 </r>
       <r>   22.6872    0.0000 </r>
       <r>   29.1823    0.0000 </r>
       <r>   29.7994    0.0000 </r>
      </set>
      <set comment="kpoint 84">
[...]
      <set comment="kpoint 239">
       <r>    5.4334    1.0000 </r>
       <r>    8.2492    1.0000 </r>
       <r>    9.5040    1.0000 </r>
       <r>   13.1821    0.0000 </r>
       <r>   14.6195    0.0000 </r>
       <r>   17.2963    0.0000 </r>
       <r>   29.0485    0.0000 </r>
       <r>   32.0180    0.0000 </r>
      </set>
      <set comment="kpoint 240">
       <r>    6.6577    1.0000 </r>
       <r>    6.9310    1.0000 </r>
       <r>    9.4329    1.0000 </r>
       <r>   13.1479    0.0000 </r>
       <r>   15.5408    0.0000 </r>
       <r>   16.1709    0.0000 </r>
       <r>   29.0124    0.0000 </r>
       <r>   32.1358    0.0000 </r>
      </set>
      <set comment="kpoint 241">
       <r>    6.7036    1.0000 </r>
       <r>    8.0204    1.0000 </r>
       <r>    8.2161    1.0000 </r>
       <r>   13.9139    0.0000 </r>
       <r>   14.7520    0.0000 </r>
       <r>   15.8689    0.0000 </r>
       <r>   29.0880    0.0000 </r>
       <r>   33.3495    0.0000 </r>
      </set>
      <set comment="kpoint 242">
       <r>    4.1311    1.0000 </r>
       <r>   10.2985    0.0000 </r>
       <r>   10.2985    0.0000 </r>
       <r>   12.3430    0.0000 </r>
       <r>   13.2675    0.0000 </r>
       <r>   18.7547    0.0000 </r>
       <r>   30.6432    0.0000 </r>
       <r>   31.4425    0.0000 </r>
      </set>
      <set comment="kpoint 243">
       <r>    5.2900    1.0000 </r>
       <r>    9.3544    1.0000 </r>
       <r>   10.0234    0.0035 </r>
       <r>   12.3032    0.0000 </r>
       <r>   13.3636    0.0000 </r>
       <r>   17.1401    0.0000 </r>
       <r>   30.7489    0.0000 </r>
       <r>   32.0910    0.0000 </r>
      </set>
      <set comment="kpoint 244">
       <r>    6.5663    1.0000 </r>
       <r>    7.9708    1.0000 </r>
       <r>    9.8858    0.8845 </r>
       <r>   12.2691    0.0000 </r>
       <r>   14.2731    0.0000 </r>
       <r>   15.6972    0.0000 </r>
       <r>   30.6508    0.0000 </r>
       <r>   32.3757    0.0000 </r>
      </set>
      <set comment="kpoint 245">
       <r>    6.4986    1.0000 </r>
       <r>    9.0854    1.0000 </r>
       <r>    9.2081    1.0000 </r>
       <r>   12.5329    0.0000 </r>
       <r>   13.3298    0.0000 </r>
       <r>   15.6001    0.0000 </r>
       <r>   31.1313    0.0000 </r>
       <r>   33.1780    0.0000 </r>
      </set>
      <set comment="kpoint 246">
       <r>    7.6959    1.0000 </r>
       <r>    7.9302    1.0000 </r>
       <r>    9.0843    1.0000 </r>
       <r>   12.6862    0.0000 </r>
       <r>   13.9954    0.0000 </r>
       <r>   14.4547    0.0000 </r>
       <r>   31.1436    0.0000 </r>
       <r>   33.5551    0.0000 </r>
      </set>
      <set comment="kpoint 247">
       <r>    6.4284    1.0000 </r>
       <r>    9.7482    1.0000 </r>
       <r>    9.7482    1.0000 </r>
       <r>   11.7591    0.0000 </r>
       <r>   12.6473    0.0000 </r>
       <r>   15.5173    0.0000 </r>
       <r>   32.6743    0.0000 </r>
       <r>   33.1223    0.0000 </r>
      </set>
      <set comment="kpoint 248">
       <r>    7.6640    1.0000 </r>
       <r>    8.9353    1.0000 </r>
       <r>    9.6103    1.0000 </r>
       <r>   11.8272    0.0000 </r>
       <r>   12.8963    0.0000 </r>
       <r>   14.0941    0.0000 </r>
       <r>   32.7659    0.0000 </r>
       <r>   33.6516    0.0000 </r>
      </set>
      <set comment="kpoint 249">
       <r>    8.7242    1.0000 </r>
       <r>    8.9268    1.0000 </r>
       <r>    8.9268    1.0000 </r>
       <r>   11.9892    0.0000 </r>
       <r>   13.0243    0.0000 </r>
       <r>   13.0243    0.0000 </r>
       <r>   33.0795    0.0000 </r>
       <r>   34.4515    0.0000 </r>
      </set>
      <set comment="kpoint 250">
       <r>    8.7829    1.0000 </r>
       <r>    9.4723    1.0000 </r>
       <r>    9.4723    1.0000 </r>
       <r>   11.3280    0.0000 </r>
       <r>   12.3324    0.0000 </r>
       <r>   12.8155    0.0000 </r>
       <r>   34.3120    0.0000 </r>
       <r>   34.3960    0.0000 </r>
      </set>
     </set>
    </set>
   </array>
  </eigenvalues>
  <separator name="orbital magnetization" >
   <v name="MAGDIPOLOUT">      0.00000000      0.00000000      0.00000000</v>
  </separator>
  <dos>
   <i name="efermi">      9.92818345 </i>
   <total>
    <array>
     <dimension dim="1">gridpoints</dimension>
     <dimension dim="2">spin</dimension>
     <field>energy</field>
     <field>total</field>
     <field>integrated</field>
     <set>
      <set comment="spin 1">
       <r>    -6.2048     0.0000     0.0000 </r>
       <r>    -6.0628     0.0000     0.0000 </r>
       <r>    -5.9209     0.0000     0.0000 </r>
       <r>    -5.7789     0.0000     0.0000 </r>
       <r>    -5.6369     0.0000     0.0000 </r>
       <r>    -5.4949     0.0000     0.0000 </r>
       <r>    -5.3530     0.0000     0.0000 </r>
       <r>    -5.2110     0.0000     0.0000 </r>
       <r>    -5.0690     0.0000     0.0000 </r>
       <r>    -4.9270     0.0000     0.0000 </r>
       <r>    -4.7851     0.0000     0.0000 </r>
       <r>    -4.6431     0.0000     0.0000 </r>
       <r>    -4.5011     0.0000     0.0000 </r>
       <r>    -4.3592     0.0001     0.0000 </r>
       <r>    -4.2172     0.0132     0.0019 </r>
       <r>    -4.0752     0.0483     0.0087 </r>
       <r>    -3.9332     0.0511     0.0160 </r>
       <r>    -3.7913     0.0785     0.0271 </r>
       <r>    -3.6493     0.0630     0.0361 </r>
       <r>    -3.5073     0.1146     0.0524 </r>
       <r>    -3.3653     0.0650     0.0616 </r>
       <r>    -3.2234     0.1168     0.0782 </r>
       <r>    -3.0814     0.1141     0.0944 </r>
       <r>    -2.9394     0.1430     0.1147 </r>
       <r>    -2.7974     0.0643     0.1238 </r>
       <r>    -2.6555     0.1879     0.1505 </r>
       <r>    -2.5135     0.1404     0.1704 </r>
       <r>    -2.3715     0.1256     0.1882 </r>
       <r>    -2.2295     0.1742     0.2130 </r>
       <r>    -2.0876     0.1080     0.2283 </r>
       <r>    -1.9456     0.2174     0.2592 </r>
       <r>    -1.8036     0.1532     0.2809 </r>
       <r>    -1.6616     0.1925     0.3082 </r>
       <r>    -1.5197     0.1061     0.3233 </r>
       <r>    -1.3777     0.2099     0.3531 </r>
       <r>    -1.2357     0.1586     0.3756 </r>
       <r>    -1.0937     0.2546     0.4118 </r>
       <r>    -0.9518     0.1199     0.4288 </r>
       <r>    -0.8098     0.2857     0.4694 </r>
       <r>    -0.6678     0.0930     0.4826 </r>
       <r>    -0.5258     0.1840     0.5087 </r>
       <r>    -0.3839     0.3192     0.5540 </r>
       <r>    -0.2419     0.2332     0.5871 </r>
       <r>    -0.0999     0.1845     0.6133 </r>
       <r>     0.0421     0.1941     0.6409 </r>
       <r>     0.1840     0.2586     0.6776 </r>
       <r>     0.3260     0.1540     0.6995 </r>
       <r>     0.4680     0.2978     0.7418 </r>
       <r>     0.6100     0.2616     0.7789 </r>
       <r>     0.7519     0.3015     0.8217 </r>
       <r>     0.8939     0.1415     0.8418 </r>
       <r>     1.0359     0.2742     0.8807 </r>
       <r>     1.1779     0.1598     0.9034 </r>
       <r>     1.3198     0.3033     0.9465 </r>
       <r>     1.4618     0.2621     0.9837 </r>
       <r>     1.6038     0.3577     1.0345 </r>
       <r>     1.7458     0.1772     1.0596 </r>
       <r>     1.8877     0.3328     1.1069 </r>
       <r>     2.0297     0.1592     1.1295 </r>
       <r>     2.1717     0.3176     1.1746 </r>
       <r>     2.3137     0.3138     1.2191 </r>
       <r>     2.4556     0.2350     1.2525 </r>
       <r>     2.5976     0.2832     1.2927 </r>
       <r>     2.7396     0.3761     1.3461 </r>
       <r>     2.8816     0.3659     1.3980 </r>
       <r>     3.0235     0.1663     1.4216 </r>
       <r>     3.1655     0.3511     1.4715 </r>
       <r>     3.3075     0.2467     1.5065 </r>
       <r>     3.4494     0.3181     1.5517 </r>
       <r>     3.5914     0.3634     1.6033 </r>
       <r>     3.7334     0.2838     1.6436 </r>
       <r>     3.8754     0.2190     1.6747 </r>
       <r>     4.0173     0.4080     1.7326 </r>
       <r>     4.1593     0.3268     1.7790 </r>
       <r>     4.3013     0.3440     1.8278 </r>
       <r>     4.4433     0.2351     1.8612 </r>
       <r>     4.5852     0.2881     1.9021 </r>
       <r>     4.7272     0.3488     1.9516 </r>
       <r>     4.8692     0.3503     2.0014 </r>
       <r>     5.0112     0.3682     2.0536 </r>
       <r>     5.1531     0.3552     2.1041 </r>
       <r>     5.2951     0.2918     2.1455 </r>
       <r>     5.4371     0.2987     2.1879 </r>
       <r>     5.5791     0.4691     2.2545 </r>
       <r>     5.7210     0.2804     2.2943 </r>
       <r>     5.8630     0.4421     2.3571 </r>
       <r>     6.0050     0.2927     2.3986 </r>
       <r>     6.1470     0.2910     2.4399 </r>
       <r>     6.2889     0.3017     2.4828 </r>
       <r>     6.4309     0.4875     2.5520 </r>
       <r>     6.5729     0.2716     2.5906 </r>
       <r>     6.7149     0.5802     2.6729 </r>
       <r>     6.8568     0.3354     2.7205 </r>
       <r>     6.9988     0.3438     2.7694 </r>
       <r>     7.1408     0.4420     2.8321 </r>
       <r>     7.2828     0.3235     2.8780 </r>
       <r>     7.4247     0.2601     2.9150 </r>
       <r>     7.5667     0.4357     2.9768 </r>
       <r>     7.7087     0.4069     3.0346 </r>
       <r>     7.8507     0.4570     3.0995 </r>
       <r>     7.9926     0.4746     3.1669 </r>
       <r>     8.1346     0.3009     3.2096 </r>
       <r>     8.2766     0.4006     3.2665 </r>
       <r>     8.4186     0.5754     3.3481 </r>
       <r>     8.5605     0.3661     3.4001 </r>
       <r>     8.7025     0.4686     3.4666 </r>
       <r>     8.8445     0.2154     3.4972 </r>
       <r>     8.9865     0.4839     3.5659 </r>
       <r>     9.1284     0.3505     3.6157 </r>
       <r>     9.2704     0.4973     3.6863 </r>
       <r>     9.4124     0.6167     3.7738 </r>
       <r>     9.5544     0.4558     3.8386 </r>
       <r>     9.6963     0.3855     3.8933 </r>
       <r>     9.8383     0.5003     3.9643 </r>
       <r>     9.9803     0.4628     4.0300 </r>
       <r>    10.1223     0.5401     4.1067 </r>
       <r>    10.2642     0.4198     4.1663 </r>
       <r>    10.4062     0.3298     4.2131 </r>
       <r>    10.5482     0.3979     4.2696 </r>
       <r>    10.6902     0.5516     4.3479 </r>
       <r>    10.8321     0.4368     4.4099 </r>
       <r>    10.9741     0.3902     4.4653 </r>
       <r>    11.1161     0.3789     4.5191 </r>
       <r>    11.2580     0.4961     4.5896 </r>
       <r>    11.4000     0.5369     4.6658 </r>
       <r>    11.5420     0.2992     4.7083 </r>
       <r>    11.6840     0.5519     4.7866 </r>
       <r>    11.8259     0.4892     4.8561 </r>
       <r>    11.9679     0.3507     4.9059 </r>
       <r>    12.1099     0.2014     4.9345 </r>
       <r>    12.2519     0.4548     4.9990 </r>
       <r>    12.3938     0.4816     5.0674 </r>
       <r>    12.5358     0.5839     5.1503 </r>
       <r>    12.6778     0.3703     5.2029 </r>
       <r>    12.8198     0.4867     5.2720 </r>
       <r>    12.9617     0.4864     5.3410 </r>
       <r>    13.1037     0.3040     5.3842 </r>
       <r>    13.2457     0.6086     5.4706 </r>
       <r>    13.3877     0.6781     5.5669 </r>
       <r>    13.5296     0.4744     5.6342 </r>
       <r>    13.6716     0.3269     5.6806 </r>
       <r>    13.8136     0.2959     5.7226 </r>
       <r>    13.9556     0.5931     5.8068 </r>
       <r>    14.0975     0.5052     5.8786 </r>
       <r>    14.2395     0.2776     5.9180 </r>
       <r>    14.3815     0.6768     6.0141 </r>
       <r>    14.5235     0.6087     6.1005 </r>
       <r>    14.6654     0.5965     6.1852 </r>
       <r>    14.8074     0.4430     6.2480 </r>
       <r>    14.9494     0.5489     6.3260 </r>
       <r>    15.0914     0.4067     6.3837 </r>
       <r>    15.2333     0.4336     6.4453 </r>
       <r>    15.3753     0.7691     6.5545 </r>
       <r>    15.5173     0.4808     6.6227 </r>
       <r>    15.6593     0.4991     6.6936 </r>
       <r>    15.8012     0.3482     6.7430 </r>
       <r>    15.9432     0.3248     6.7891 </r>
       <r>    16.0852     0.7924     6.9017 </r>
       <r>    16.2272     0.5344     6.9775 </r>
       <r>    16.3691     0.7045     7.0775 </r>
       <r>    16.5111     0.4543     7.1420 </r>
       <r>    16.6531     0.4451     7.2052 </r>
       <r>    16.7951     0.6377     7.2958 </r>
       <r>    16.9370     0.5991     7.3808 </r>
       <r>    17.0790     0.6062     7.4669 </r>
       <r>    17.2210     0.4912     7.5366 </r>
       <r>    17.3630     0.5206     7.6106 </r>
       <r>    17.5049     0.7762     7.7207 </r>
       <r>    17.6469     0.8515     7.8416 </r>
       <r>    17.7889     0.6328     7.9315 </r>
       <r>    17.9309     0.4431     7.9944 </r>
       <r>    18.0728     0.6646     8.0888 </r>
       <r>    18.2148     0.3834     8.1432 </r>
       <r>    18.3568     0.5524     8.2216 </r>
       <r>    18.4987     0.1302     8.2401 </r>
       <r>    18.6407     0.3279     8.2867 </r>
       <r>    18.7827     0.3683     8.3389 </r>
       <r>    18.9247     0.3760     8.3923 </r>
       <r>    19.0666     0.3440     8.4412 </r>
       <r>    19.2086     0.5413     8.5180 </r>
       <r>    19.3506     0.4972     8.5886 </r>
       <r>    19.4926     0.5508     8.6668 </r>
       <r>    19.6345     0.5138     8.7397 </r>
       <r>    19.7765     0.5625     8.8196 </r>
       <r>    19.9185     0.4642     8.8855 </r>
       <r>    20.0605     0.3582     8.9364 </r>
       <r>    20.2024     0.6272     9.0254 </r>
       <r>    20.3444     0.6810     9.1221 </r>
       <r>    20.4864     0.6004     9.2073 </r>
       <r>    20.6284     0.5475     9.2851 </r>
       <r>    20.7703     0.7169     9.3868 </r>
       <r>    20.9123     0.3463     9.4360 </r>
       <r>    21.0543     0.5464     9.5136 </r>
       <r>    21.1963     0.6882     9.6113 </r>
       <r>    21.3382     0.6851     9.7086 </r>
       <r>    21.4802     0.7460     9.8145 </r>
       <r>    21.6222     0.8365     9.9332 </r>
       <r>    21.7642     0.7491    10.0396 </r>
       <r>    21.9061     0.5808    10.1220 </r>
       <r>    22.0481     0.5088    10.1943 </r>
       <r>    22.1901     0.7807    10.3051 </r>
       <r>    22.3321     0.7040    10.4051 </r>
       <r>    22.4740     1.0297    10.5513 </r>
       <r>    22.6160     0.6431    10.6426 </r>
       <r>    22.7580     0.7798    10.7533 </r>
       <r>    22.9000     0.4856    10.8222 </r>
       <r>    23.0419     0.4951    10.8925 </r>
       <r>    23.1839     0.7012    10.9921 </r>
       <r>    23.3259     0.4791    11.0601 </r>
       <r>    23.4679     0.4470    11.1235 </r>
       <r>    23.6098     0.6115    11.2103 </r>
       <r>    23.7518     0.8822    11.3356 </r>
       <r>    23.8938     0.3323    11.3828 </r>
       <r>    24.0358     0.4320    11.4441 </r>
       <r>    24.1777     0.4316    11.5054 </r>
       <r>    24.3197     0.4436    11.5684 </r>
       <r>    24.4617     0.5991    11.6534 </r>
       <r>    24.6037     0.4274    11.7141 </r>
       <r>    24.7456     0.6630    11.8082 </r>
       <r>    24.8876     0.6464    11.9000 </r>
       <r>    25.0296     0.9684    12.0375 </r>
       <r>    25.1716     0.7384    12.1423 </r>
       <r>    25.3135     0.5487    12.2202 </r>
       <r>    25.4555     0.6968    12.3192 </r>
       <r>    25.5975     0.7796    12.4298 </r>
       <r>    25.7395     0.5447    12.5072 </r>
       <r>    25.8814     0.4738    12.5744 </r>
       <r>    26.0234     0.6850    12.6717 </r>
       <r>    26.1654     0.7126    12.7729 </r>
       <r>    26.3073     0.5392    12.8494 </r>
       <r>    26.4493     0.4915    12.9192 </r>
       <r>    26.5913     0.4630    12.9849 </r>
       <r>    26.7333     0.3350    13.0325 </r>
       <r>    26.8752     0.7949    13.1453 </r>
       <r>    27.0172     0.9058    13.2739 </r>
       <r>    27.1592     0.8291    13.3917 </r>
       <r>    27.3012     0.4749    13.4591 </r>
       <r>    27.4431     0.3122    13.5034 </r>
       <r>    27.5851     0.6796    13.5999 </r>
       <r>    27.7271     0.6161    13.6874 </r>
       <r>    27.8691     0.7478    13.7935 </r>
       <r>    28.0110     0.7119    13.8946 </r>
       <r>    28.1530     0.5763    13.9764 </r>
       <r>    28.2950     0.4827    14.0450 </r>
       <r>    28.4370     0.7244    14.1478 </r>
       <r>    28.5789     0.5699    14.2287 </r>
       <r>    28.7209     0.4929    14.2987 </r>
       <r>    28.8629     0.8333    14.4170 </r>
       <r>    29.0049     0.8580    14.5388 </r>
       <r>    29.1468     1.0822    14.6925 </r>
       <r>    29.2888     0.6789    14.7888 </r>
       <r>    29.4308     0.3226    14.8346 </r>
       <r>    29.5728     0.5383    14.9111 </r>
       <r>    29.7147     0.5232    14.9854 </r>
       <r>    29.8567     0.5616    15.0651 </r>
       <r>    29.9987     0.9016    15.1931 </r>
       <r>    30.1407     0.6387    15.2838 </r>
       <r>    30.2826     0.3522    15.3338 </r>
       <r>    30.4246     0.5991    15.4188 </r>
       <r>    30.5666     0.7406    15.5240 </r>
       <r>    30.7086     0.9247    15.6552 </r>
       <r>    30.8505     0.3523    15.7053 </r>
       <r>    30.9925     0.3125    15.7496 </r>
       <r>    31.1345     0.2165    15.7804 </r>
       <r>    31.2765     0.2419    15.8147 </r>
       <r>    31.4184     0.2143    15.8451 </r>
       <r>    31.5604     0.1163    15.8617 </r>
       <r>    31.7024     0.0336    15.8664 </r>
       <r>    31.8444     0.1182    15.8832 </r>
       <r>    31.9863     0.1010    15.8975 </r>
       <r>    32.1283     0.1476    15.9185 </r>
       <r>    32.2703     0.1206    15.9356 </r>
       <r>    32.4123     0.0695    15.9455 </r>
       <r>    32.5542     0.0616    15.9542 </r>
       <r>    32.6962     0.0212    15.9572 </r>
       <r>    32.8382     0.0435    15.9634 </r>
       <r>    32.9802     0.0144    15.9655 </r>
       <r>    33.1221     0.0204    15.9684 </r>
       <r>    33.2641     0.0468    15.9750 </r>
       <r>    33.4061     0.0399    15.9807 </r>
       <r>    33.5481     0.0202    15.9835 </r>
       <r>    33.6900     0.0736    15.9940 </r>
       <r>    33.8320     0.0071    15.9950 </r>
       <r>    33.9740     0.0000    15.9950 </r>
       <r>    34.1159     0.0000    15.9950 </r>
       <r>    34.2579     0.0007    15.9951 </r>
       <r>    34.3999     0.0166    15.9975 </r>
       <r>    34.5419     0.0179    16.0000 </r>
       <r>    34.6838     0.0001    16.0000 </r>
       <r>    34.8258     0.0000    16.0000 </r>
       <r>    34.9678     0.0000    16.0000 </r>
       <r>    35.1098     0.0000    16.0000 </r>
       <r>    35.2517     0.0000    16.0000 </r>
       <r>    35.3937     0.0000    16.0000 </r>
       <r>    35.5357     0.0000    16.0000 </r>
       <r>    35.6777     0.0000    16.0000 </r>
       <r>    35.8196     0.0000    16.0000 </r>
       <r>    35.9616     0.0000    16.0000 </r>
       <r>    36.1036     0.0000    16.0000 </r>
       <r>    36.2456     0.0000    16.0000 </r>
       <r>    36.3875     0.0000    16.0000 </r>
      </set>
     </set>
    </array>
   </total>
  </dos>
 </calculation>
 <structure name="finalpos" >
  <crystal>
   <varray name="basis" >
    <v>       1.53947402       1.53947402       1.53947402 </v>
    <v>       1.53947402      -1.53947402      -1.53947402 </v>
    <v>      -1.53947402       1.53947402      -1.53947402 </v>
   </varray>
   <i name="volume">     14.59409210 </i>
   <varray name="rec_basis" >
    <v>       0.32478625       0.32478625       0.00000000 </v>
    <v>       0.32478625       0.00000000      -0.32478625 </v>
    <v>       0.00000000       0.32478625      -0.32478625 </v>
   </varray>
  </crystal>
  <varray name="positions" >
   <v>       0.00000000       0.00000000       0.00000000 </v>
  </varray>
 </structure>
</modeling>
