<?xml version="1.0" encoding="ISO-8859-1"?>
<modeling>
 <generator>
  <i name="program" type="string">vasp </i>
  <i name="version" type="string">6.2.0  </i>
  <i name="subversion" type="string">18Jan21 (build Aug 12 2022 13:00:08) complex                          parallel </i>
  <i name="platform" type="string">LinuxIFC </i>
  <i name="date" type="string">2024 11 04 </i>
  <i name="time" type="string">05:01:07 </i>
 </generator>
 <incar>
  <i type="int" name="ISTART">     0</i>
  <i type="string" name="PREC">Accurate      (Accurate strictly avoids</i>
  <i type="logical" name="ADDGRID"> T  </i>
  <i type="int" name="ISPIN">     2</i>
  <i type="int" name="NELM">    90</i>
  <i type="int" name="NELMIN">     6</i>
  <i type="int" name="IBRION">     2</i>
  <i name="EDIFF">      0.00000100</i>
  <i name="EDIFFG">     -0.00200000</i>
  <i type="int" name="NSW">   100</i>
  <i type="int" name="ISIF">     3</i>
  <i type="int" name="ISYM">     2</i>
  <i name="ENCUT">    350.00000000</i>
  <v name="MAGMOM">      5.00000000      5.00000000</v>
  <i type="logical" name="LREAL"> F  </i>
  <i type="int" name="ISMEAR">     1</i>
  <i name="SIGMA">      0.20000000</i>
  <i name="KSPACING">      0.25000000</i>
  <i type="int" name="LMAXMIX">     4</i>
  <i type="int" name="LORBIT">    11</i>
  <i type="logical" name="LASPH"> T  </i>
  <i type="logical" name="GGA_COMPAT"> F  </i>
  <i type="int" name="VOSKOWN">     1</i>
 </incar>
 <primitive_cell>
  <structure name="primitive_cell" >
   <crystal>
    <varray name="basis" >
     <v>       1.43151775       1.43151775      -1.43151775 </v>
     <v>      -1.43151775       1.43151775       1.43151775 </v>
     <v>       1.43151775      -1.43151775       1.43151775 </v>
    </varray>
    <i name="volume">     11.73411129 </i>
    <varray name="rec_basis" >
     <v>       0.34927964       0.34927964       0.00000000 </v>
     <v>       0.00000000       0.34927964       0.34927964 </v>
     <v>       0.34927964      -0.00000000       0.34927964 </v>
    </varray>
   </crystal>
   <varray name="positions" >
    <v>       0.00000000       0.00000000       0.00000000 </v>
   </varray>
  </structure>
  <varray name="primitive_index" >
   <v type="int" >        1 </v>
  </varray>
 </primitive_cell>
 <kpoints>
  <generation param="Gamma">
   <v type="int" name="divisions">       9        9        9 </v>
   <v name="usershift">      0.00000000       0.00000000       0.00000000 </v>
   <v name="genvec1">      0.11111111       0.00000000       0.00000000 </v>
   <v name="genvec2">      0.00000000       0.11111111       0.00000000 </v>
   <v name="genvec3">     -0.00000000      -0.00000000       0.11111111 </v>
   <v name="shift">      0.00000000       0.00000000       0.00000000 </v>
  </generation>
  <varray name="kpointlist" >
   <v>       0.00000000       0.00000000       0.00000000 </v>
   <v>       0.11111111       0.00000000       0.00000000 </v>
   <v>       0.22222222       0.00000000       0.00000000 </v>
   <v>       0.33333333       0.00000000       0.00000000 </v>
   <v>       0.44444444       0.00000000       0.00000000 </v>
   <v>       0.11111111       0.11111111       0.00000000 </v>
   <v>       0.22222222       0.11111111       0.00000000 </v>
   <v>       0.33333333       0.11111111       0.00000000 </v>
   <v>       0.44444444       0.11111111       0.00000000 </v>
   <v>       0.22222222       0.22222222       0.00000000 </v>
   <v>       0.33333333       0.22222222       0.00000000 </v>
   <v>       0.44444444       0.22222222       0.00000000 </v>
   <v>       0.33333333       0.33333333       0.00000000 </v>
   <v>       0.44444444       0.33333333       0.00000000 </v>
   <v>       0.44444444       0.44444444       0.00000000 </v>
   <v>       0.11111111       0.11111111       0.11111111 </v>
   <v>       0.22222222       0.11111111       0.11111111 </v>
   <v>       0.33333333       0.11111111       0.11111111 </v>
   <v>       0.44444444       0.11111111       0.11111111 </v>
   <v>       0.22222222       0.22222222       0.11111111 </v>
   <v>       0.33333333       0.22222222       0.11111111 </v>
   <v>       0.44444444       0.22222222       0.11111111 </v>
   <v>       0.33333333       0.33333333       0.11111111 </v>
   <v>       0.44444444       0.33333333       0.11111111 </v>
   <v>       0.44444444       0.44444444       0.11111111 </v>
   <v>       0.22222222       0.22222222       0.22222222 </v>
   <v>       0.33333333       0.22222222       0.22222222 </v>
   <v>       0.44444444       0.22222222       0.22222222 </v>
   <v>       0.33333333       0.33333333       0.22222222 </v>
   <v>       0.44444444       0.33333333       0.22222222 </v>
   <v>       0.44444444       0.44444444       0.22222222 </v>
   <v>       0.33333333       0.33333333       0.33333333 </v>
   <v>       0.44444444       0.33333333       0.33333333 </v>
   <v>       0.44444444       0.44444444       0.33333333 </v>
   <v>       0.44444444       0.44444444       0.44444444 </v>
  </varray>
  <varray name="weights" >
   <v>       0.00137174 </v>
   <v>       0.00823045 </v>
   <v>       0.00823045 </v>
   <v>       0.00823045 </v>
   <v>       0.00823045 </v>
   <v>       0.01646091 </v>
   <v>       0.03292181 </v>
   <v>       0.03292181 </v>
   <v>       0.03292181 </v>
   <v>       0.01646091 </v>
   <v>       0.03292181 </v>
   <v>       0.03292181 </v>
   <v>       0.01646091 </v>
   <v>       0.03292181 </v>
   <v>       0.01646091 </v>
   <v>       0.01097394 </v>
   <v>       0.03292181 </v>
   <v>       0.03292181 </v>
   <v>       0.03292181 </v>
   <v>       0.03292181 </v>
   <v>       0.06584362 </v>
   <v>       0.06584362 </v>
   <v>       0.03292181 </v>
   <v>       0.06584362 </v>
   <v>       0.03292181 </v>
   <v>       0.01097394 </v>
   <v>       0.03292181 </v>
   <v>       0.03292181 </v>
   <v>       0.03292181 </v>
   <v>       0.06584362 </v>
   <v>       0.03292181 </v>
   <v>       0.01097394 </v>
   <v>       0.03292181 </v>
   <v>       0.03292181 </v>
   <v>       0.01097394 </v>
  </varray>
 </kpoints>
 <parameters>
  <separator name="general" >
   <i type="string" name="SYSTEM">unknown system</i>
   <i type="logical" name="LCOMPAT"> F  </i>
  </separator>
  <separator name="electronic" >
   <i type="string" name="PREC">accura</i>
   <i name="ENMAX">    350.00000000</i>
   <i name="ENAUG">    511.36800000</i>
   <i name="EDIFF">      0.00000100</i>
   <i type="int" name="IALGO">    38</i>
   <i type="int" name="IWAVPR">    11</i>
   <i type="int" name="NBANDS">    20</i>
   <i type="int" name="NBANDSLOW">    -1</i>
   <i type="int" name="NBANDSHIGH">    -1</i>
   <i name="NELECT">     16.00000000</i>
   <i type="int" name="TURBO">     0</i>
   <i type="int" name="IRESTART">     0</i>
   <i type="int" name="NREBOOT">     0</i>
   <i type="int" name="NMIN">     0</i>
   <i name="EREF">      0.00000000</i>
   <separator name="electronic smearing" >
    <i type="int" name="ISMEAR">     1</i>
    <i name="SIGMA">      0.20000000</i>
    <i name="KSPACING">      0.25000000</i>
    <i type="logical" name="KGAMMA"> T  </i>
    <i type="logical" name="KBLOWUP"> T  </i>
   </separator>
   <separator name="electronic projectors" >
    <i type="logical" name="LREAL"> F  </i>
    <v name="ROPT">      0.00000000</v>
    <i type="int" name="LMAXPAW">  -100</i>
    <i type="int" name="LMAXMIX">     4</i>
    <i type="logical" name="NLSPLINE"> F  </i>
   </separator>
   <separator name="electronic startup" >
    <i type="int" name="ISTART">     0</i>
    <i type="int" name="ICHARG">     2</i>
    <i type="int" name="INIWAV">     1</i>
   </separator>
   <separator name="electronic spin" >
    <i type="int" name="ISPIN">     2</i>
    <i type="logical" name="LNONCOLLINEAR"> F  </i>
    <v name="MAGMOM">      5.00000000      5.00000000</v>
    <i name="NUPDOWN">     -1.00000000</i>
    <i type="logical" name="LSORBIT"> F  </i>
    <v name="SAXIS">      0.00000000      0.00000000      1.00000000</v>
    <i type="logical" name="LSPIRAL"> F  </i>
    <v name="QSPIRAL">      0.00000000      0.00000000      0.00000000</v>
    <i type="logical" name="LZEROZ"> F  </i>
   </separator>
   <separator name="electronic exchange-correlation" >
    <i type="logical" name="LASPH"> T  </i>
    <i type="logical" name="LMETAGGA"> F  </i>
   </separator>
   <separator name="electronic convergence" >
    <i type="int" name="NELM">    90</i>
    <i type="int" name="NELMDL">    -5</i>
    <i type="int" name="NELMIN">     6</i>
    <i name="ENINI">    350.00000000</i>
    <separator name="electronic convergence detail" >
     <i type="logical" name="LDIAG"> T  </i>
     <i type="logical" name="LSUBROT"> F  </i>
     <i name="WEIMIN">      0.00100000</i>
     <i name="EBREAK">      0.00000001</i>
     <i name="DEPER">      0.30000000</i>
     <i type="int" name="NRMM">     4</i>
     <i name="TIME">      0.40000000</i>
    </separator>
   </separator>
   <separator name="electronic mixer" >
    <i name="AMIX">      0.40000000</i>
    <i name="BMIX">      1.00000000</i>
    <i name="AMIN">      0.10000000</i>
    <i name="AMIX_MAG">      1.60000000</i>
    <i name="BMIX_MAG">      1.00000000</i>
    <separator name="electronic mixer details" >
     <i type="int" name="IMIX">     4</i>
     <i type="logical" name="MIXFIRST"> F  </i>
     <i type="int" name="MAXMIX">   -45</i>
     <i name="WC">    100.00000000</i>
     <i type="int" name="INIMIX">     1</i>
     <i type="int" name="MIXPRE">     1</i>
     <i type="int" name="MREMOVE">     5</i>
    </separator>
   </separator>
   <separator name="electronic dipolcorrection" >
    <i type="logical" name="LDIPOL"> F  </i>
    <i type="logical" name="LMONO"> F  </i>
    <i type="int" name="IDIPOL">     0</i>
    <i name="EPSILON">      1.00000000</i>
    <v name="DIPOL">   -100.00000000   -100.00000000   -100.00000000</v>
    <i name="EFIELD">      0.00000000</i>
   </separator>
  </separator>
  <separator name="grids" >
   <i type="int" name="NGX">    18</i>
   <i type="int" name="NGY">    18</i>
   <i type="int" name="NGZ">    18</i>
   <i type="int" name="NGXF">    36</i>
   <i type="int" name="NGYF">    36</i>
   <i type="int" name="NGZF">    36</i>
   <i type="logical" name="ADDGRID"> T  </i>
  </separator>
  <separator name="ionic" >
   <i type="int" name="NSW">   100</i>
   <i type="int" name="IBRION">     2</i>
   <i type="int" name="MDALGO">     0</i>
   <i type="int" name="ISIF">     3</i>
   <i name="PSTRESS">      0.00000000</i>
   <i name="EDIFFG">     -0.00200000</i>
   <i type="int" name="NFREE">     1</i>
   <i name="POTIM">      0.50000000</i>
   <i name="SMASS">     -3.00000000</i>
   <i name="SCALEE">      1.00000000</i>
  </separator>
  <separator name="ionic md" >
   <i name="TEBEG">      0.00010000</i>
   <i name="TEEND">      0.00010000</i>
   <i type="int" name="NBLOCK">     1</i>
   <i type="int" name="KBLOCK">   100</i>
   <i type="int" name="NPACO">   256</i>
   <i name="APACO">     16.00000000</i>
  </separator>
  <separator name="symmetry" >
   <i type="int" name="ISYM">     2</i>
   <i name="SYMPREC">      0.00001000</i>
  </separator>
  <separator name="dos" >
   <i type="int" name="LORBIT">    11</i>
   <v name="RWIGS">     -1.00000000</v>
   <i type="int" name="NEDOS">   301</i>
   <i name="EMIN">     10.00000000</i>
   <i name="EMAX">    -10.00000000</i>
   <i name="EFERMI">      0.00000000</i>
  </separator>
  <separator name="writing" >
   <i type="int" name="NWRITE">     2</i>
   <i type="logical" name="LWAVE"> T  </i>
   <i type="logical" name="LDOWNSAMPLE"> F  </i>
   <i type="logical" name="LCHARG"> T  </i>
   <i type="logical" name="LPARD"> F  </i>
   <i type="logical" name="LVTOT"> F  </i>
   <i type="logical" name="LVHAR"> F  </i>
   <i type="logical" name="LELF"> F  </i>
   <i type="logical" name="LOPTICS"> F  </i>
   <v name="STM">      0.00000000      0.00000000      0.00000000      0.00000000      0.00000000      0.00000000      0.00000000</v>
  </separator>
  <separator name="performance" >
   <i type="int" name="NPAR">     4</i>
   <i type="int" name="NSIM">     4</i>
   <i type="int" name="NBLK">    -1</i>
   <i type="logical" name="LPLANE"> T  </i>
   <i type="logical" name="LSCALAPACK"> T  </i>
   <i type="logical" name="LSCAAWARE"> F  </i>
   <i type="logical" name="LSCALU"> F  </i>
   <i type="logical" name="LASYNC"> F  </i>
   <i type="logical" name="LORBITALREAL"> F  </i>
  </separator>
  <separator name="miscellaneous" >
   <i type="int" name="IDIOT">     3</i>
   <i type="int" name="PHON_NSTRUCT">    -1</i>
   <i type="logical" name="LMUSIC"> F  </i>
   <v name="POMASS">     55.84700000</v>
   <v name="DARWINR">      0.00000000</v>
   <v name="DARWINV">      1.00000000</v>
   <i type="logical" name="LCORR"> T  </i>
  </separator>
  <i type="logical" name="GGA_COMPAT"> F  </i>
  <i type="logical" name="LBERRY"> F  </i>
  <i type="int" name="ICORELEVEL">     0</i>
  <i type="logical" name="LDAU"> F  </i>
  <i type="int" name="I_CONSTRAINED_M">     0</i>
  <separator name="electronic exchange-correlation" >
   <i type="string" name="GGA">--</i>
   <i type="int" name="VOSKOWN">     1</i>
   <i type="logical" name="LHFCALC"> F  </i>
   <i type="string" name="PRECFOCK"></i>
   <i type="logical" name="LSYMGRAD"> F  </i>
   <i type="logical" name="LHFONE"> F  </i>
   <i type="logical" name="LRHFCALC"> F  </i>
   <i type="logical" name="LTHOMAS"> F  </i>
   <i type="logical" name="LMODELHF"> F  </i>
   <i type="logical" name="LFOCKACE"> F  </i>
   <i name="ENCUT4O">     -1.00000000</i>
   <i type="int" name="EXXOEP">     0</i>
   <i type="int" name="FOURORBIT">     0</i>
   <i name="AEXX">      0.00000000</i>
   <i name="HFALPHA">      0.00000000</i>
   <i name="MCALPHA">      0.00000000</i>
   <i name="ALDAX">      1.00000000</i>
   <i name="AGGAX">      1.00000000</i>
   <i name="ALDAC">      1.00000000</i>
   <i name="AGGAC">      1.00000000</i>
   <i type="int" name="NKREDX">     1</i>
   <i type="int" name="NKREDY">     1</i>
   <i type="int" name="NKREDZ">     1</i>
   <i type="logical" name="SHIFTRED"> F  </i>
   <i type="logical" name="ODDONLY"> F  </i>
   <i type="logical" name="EVENONLY"> F  </i>
   <i type="int" name="LMAXFOCK">     0</i>
   <i type="int" name="NMAXFOCKAE">     0</i>
   <i type="logical" name="LFOCKAEDFT"> F  </i>
   <i name="HFSCREEN">      0.00000000</i>
   <i name="HFSCREENC">      0.00000000</i>
   <i type="int" name="NBANDSGWLOW">     0</i>
  </separator>
  <separator name="vdW DFT" >
   <i type="logical" name="LUSE_VDW"> F  </i>
   <i name="Zab_VDW">     -0.84910000</i>
   <i name="PARAM1">      0.12340000</i>
   <i name="PARAM2">      1.00000000</i>
   <i name="PARAM3">      0.00000000</i>
  </separator>
  <separator name="model GW" >
   <i type="int" name="MODEL_GW">     0</i>
   <i name="MODEL_EPS0">      7.04046678</i>
   <i name="MODEL_ALPHA">      1.00000000</i>
  </separator>
  <separator name="linear response parameters" >
   <i type="logical" name="LEPSILON"> F  </i>
   <i type="logical" name="LRPA"> F  </i>
   <i type="logical" name="LNABLA"> F  </i>
   <i type="logical" name="LVEL"> F  </i>
   <i type="int" name="KINTER">     0</i>
   <i name="CSHIFT">      0.10000000</i>
   <i name="OMEGAMAX">     -1.00000000</i>
   <i name="DEG_THRESHOLD">      0.00200000</i>
   <i name="RTIME">     -0.10000000</i>
   <i name="WPLASMAI">      0.00000000</i>
   <v name="DFIELD">      0.00000000      0.00000000      0.00000000</v>
   <v name="WPLASMA">      0.00000000      0.00000000      0.00000000      0.00000000      0.00000000      0.00000000      0.00000000      0.00000000      0.00000000</v>
  </separator>
  <separator name="orbital magnetization" >
   <i type="logical" name="NUCIND"> F  </i>
   <v name="MAGPOS">      0.00000000      0.00000000      0.00000000</v>
   <i type="logical" name="LNICSALL"> T  </i>
   <i type="logical" name="ORBITALMAG"> F  </i>
   <i type="logical" name="LMAGBLOCH"> F  </i>
   <i type="logical" name="LCHIMAG"> F  </i>
   <i type="logical" name="LGAUGE"> T  </i>
   <i type="int" name="MAGATOM">     0</i>
   <v name="MAGDIPOL">      0.00000000      0.00000000      0.00000000</v>
   <v name="AVECCONST">      0.00000000      0.00000000      0.00000000</v>
  </separator>
  <separator name="response functions" >
   <i type="logical" name="LFINITE_TEMPERATURE"> F  </i>
   <i type="logical" name="LADDER"> F  </i>
   <i type="logical" name="LRPAFORCE"> F  </i>
   <i type="logical" name="LFXC"> F  </i>
   <i type="logical" name="LHARTREE"> T  </i>
   <i type="int" name="IBSE">     0</i>
   <v type="int" name="KPOINT">    -1     0     0     0</v>
   <i type="logical" name="LTCTC"> F  </i>
   <i type="logical" name="LTCTE"> F  </i>
   <i type="logical" name="LTETE"> F  </i>
   <i type="logical" name="LTRIPLET"> F  </i>
   <i type="logical" name="LFXCEPS"> F  </i>
   <i type="logical" name="LFXHEG"> F  </i>
   <i type="int" name="NATURALO">     2</i>
   <i type="logical" name="LHOLEGF"> F  </i>
   <i type="logical" name="L2ORDER"> F  </i>
   <i type="logical" name="LDMP1"> F  </i>
   <i type="logical" name="LMP2LT"> F  </i>
   <i type="logical" name="LSMP2LT"> F  </i>
   <i type="logical" name="LGWLF"> F  </i>
   <i name="ENCUTGW">     -2.00000000</i>
   <i name="ENCUTGWSOFT">     -2.00000000</i>
   <i name="ENCUTLF">     -1.00000000</i>
   <i type="logical" name="LESF_SPLINES"> F  </i>
   <i type="int" name="LMAXMP2">    -1</i>
   <i name="SCISSOR">      0.00000000</i>
   <i type="int" name="NOMEGA">     0</i>
   <i type="int" name="NOMEGAR">     0</i>
   <i type="int" name="NBANDSGW">    -1</i>
   <i type="int" name="NBANDSO">    -1</i>
   <i type="int" name="NBANDSV">    -1</i>
   <i type="int" name="NELM">    90</i>
   <i type="int" name="NELMHF">     1</i>
   <i type="int" name="DIM">     3</i>
   <i type="int" name="IESPILON">     4</i>
   <i type="int" name="ANTIRES">     0</i>
   <i name="OMEGAMAX">    -30.00000000</i>
   <i name="OMEGAMIN">    -30.00000000</i>
   <i name="OMEGATL">   -200.00000000</i>
   <i type="int" name="OMEGAGRID">     0</i>
   <i name="CSHIFT">     -0.10000000</i>
   <i type="logical" name="LSELFENERGY"> F  </i>
   <i type="logical" name="LSPECTRAL"> F  </i>
   <i type="logical" name="LSPECTRALGW"> F  </i>
   <i type="logical" name="LSINGLES"> F  </i>
   <i type="logical" name="LFERMIGW"> F  </i>
   <i type="logical" name="ODDONLYGW"> F  </i>
   <i type="logical" name="EVENONLYGW"> F  </i>
   <i type="int" name="NKREDLFX">     1</i>
   <i type="int" name="NKREDLFY">     1</i>
   <i type="int" name="NKREDLFZ">     1</i>
   <i type="int" name="MAXMEM">  2800</i>
   <i type="int" name="TELESCOPE">     0</i>
   <i type="int" name="NTAUPAR">    -1</i>
   <i type="int" name="NOMEGAPAR">    -1</i>
   <i name="DAMP_NEWTON">      0.80000001</i>
   <i name="LAMBDA">      1.00000000</i>
  </separator>
  <separator name="External order field" >
   <i name="OFIELD_KAPPA">      0.00000000</i>
   <v name="OFIELD_K">      0.00000000      0.00000000      0.00000000</v>
   <i name="OFIELD_Q6_NEAR">      0.00000000</i>
   <i name="OFIELD_Q6_FAR">      0.00000000</i>
   <i name="OFIELD_A">      0.00000000</i>
  </separator>
 </parameters>
 <atominfo>
  <atoms>       2 </atoms>
  <types>       1 </types>
  <array name="atoms" >
   <dimension dim="1">ion</dimension>
   <field type="string">element</field>
   <field type="int">atomtype</field>
   <set>
    <rc><c>Fe</c><c>   1</c></rc>
    <rc><c>Fe</c><c>   1</c></rc>
   </set>
  </array>
  <array name="atomtypes" >
   <dimension dim="1">type</dimension>
   <field type="int">atomspertype</field>
   <field type="string">element</field>
   <field>mass</field>
   <field>valence</field>
   <field type="string">pseudopotential</field>
   <set>
    <rc><c>   2</c><c>Fe</c><c>     55.84700000</c><c>      8.00000000</c><c>  PAW_PBE Fe 06Sep2000                  </c></rc>
   </set>
  </array>
 </atominfo>
 <structure name="initialpos" >
  <crystal>
   <varray name="basis" >
    <v>       2.86303550       0.00000000       0.00000000 </v>
    <v>       0.00000000       2.86303550       0.00000000 </v>
    <v>       0.00000000       0.00000000       2.86303550 </v>
   </varray>
   <i name="volume">     23.46822259 </i>
   <varray name="rec_basis" >
    <v>       0.34927964      -0.00000000       0.00000000 </v>
    <v>       0.00000000       0.34927964       0.00000000 </v>
    <v>      -0.00000000      -0.00000000       0.34927964 </v>
   </varray>
  </crystal>
  <varray name="positions" >
   <v>       0.00000000       0.00000000       0.00000000 </v>
   <v>       0.50000000       0.50000000       0.50000000 </v>
  </varray>
 </structure>
 <calculation>
  <scstep>
   <time name="dav">    1.11    1.11</time>
   <time name="total">    2.70    2.70</time>
   <energy>
    <i name="alphaZ">    117.79976220 </i>
    <i name="ewald">  -1171.43779597 </i>
    <i name="hartreedc">   -228.04061711 </i>
    <i name="XCdc">     14.27160946 </i>
    <i name="pawpsdc">   1103.49540010 </i>
    <i name="pawaedc">  -1119.11610375 </i>
    <i name="eentropy">     -0.00818759 </i>
    <i name="bandstr">    159.88155711 </i>
    <i name="atom">   1188.58965621 </i>
    <i name="e_fr_energy">     65.43528066 </i>
    <i name="e_wo_entrp">     65.44346825 </i>
    <i name="e_0_energy">     65.43800986 </i>
   </energy>
  </scstep>
  <scstep>
   <time name="dav">    1.04    1.05</time>
   <time name="total">    1.04    1.06</time>
   <energy>
    <i name="e_fr_energy">    -13.39353506 </i>
    <i name="e_wo_entrp">    -13.39526022 </i>
    <i name="e_0_energy">    -13.39411011 </i>
   </energy>
  </scstep>
  <scstep>
   <time name="dav">    1.12    1.13</time>
   <time name="total">    1.12    1.14</time>
   <energy>
    <i name="e_fr_energy">    -16.06569456 </i>
    <i name="e_wo_entrp">    -16.06823200 </i>
    <i name="e_0_energy">    -16.06654037 </i>
   </energy>
  </scstep>
  <scstep>
   <time name="dav">    1.09    1.11</time>
   <time name="total">    1.10    1.11</time>
   <energy>
    <i name="e_fr_energy">    -16.08537942 </i>
    <i name="e_wo_entrp">    -16.08794167 </i>
    <i name="e_0_energy">    -16.08623351 </i>
   </energy>
  </scstep>
  <scstep>
   <time name="dav">    1.12    1.14</time>
   <time name="total">    1.22    1.24</time>
   <energy>
    <i name="e_fr_energy">    -16.08562393 </i>
    <i name="e_wo_entrp">    -16.08818611 </i>
    <i name="e_0_energy">    -16.08647799 </i>
   </energy>
  </scstep>
  <scstep>
   <time name="dav">    1.10    1.11</time>
   <time name="total">    2.78    2.80</time>
   <energy>
    <i name="e_fr_energy">    -16.56348983 </i>
    <i name="e_wo_entrp">    -16.56272930 </i>
    <i name="e_0_energy">    -16.56323632 </i>
   </energy>
  </scstep>
  <scstep>
   <time name="dav">    1.16    1.16</time>
   <time name="total">    2.83    2.85</time>
   <energy>
    <i name="e_fr_energy">    -16.50525947 </i>
    <i name="e_wo_entrp">    -16.50409944 </i>
    <i name="e_0_energy">    -16.50487279 </i>
   </energy>
  </scstep>
  <scstep>
   <time name="dav">    1.29    1.29</time>
   <time name="total">    2.96    2.98</time>
   <energy>
    <i name="e_fr_energy">    -16.48826150 </i>
    <i name="e_wo_entrp">    -16.48720478 </i>
    <i name="e_0_energy">    -16.48790926 </i>
   </energy>
  </scstep>
  <scstep>
   <time name="dav">    1.36    1.36</time>
   <time name="total">    3.02    3.04</time>
   <energy>
    <i name="e_fr_energy">    -16.47682851 </i>
    <i name="e_wo_entrp">    -16.47614063 </i>
    <i name="e_0_energy">    -16.47659922 </i>
   </energy>
  </scstep>
  <scstep>
   <time name="dav">    1.16    1.16</time>
   <time name="total">    2.83    2.85</time>
   <energy>
    <i name="e_fr_energy">    -16.47643588 </i>
    <i name="e_wo_entrp">    -16.47519285 </i>
    <i name="e_0_energy">    -16.47602154 </i>
   </energy>
  </scstep>
  <scstep>
   <time name="dav">    1.15    1.15</time>
   <time name="total">    2.82    2.84</time>
   <energy>
    <i name="e_fr_energy">    -16.47649565 </i>
    <i name="e_wo_entrp">    -16.47523556 </i>
    <i name="e_0_energy">    -16.47607562 </i>
   </energy>
  </scstep>
  <scstep>
   <time name="dav">    1.13    1.14</time>
   <time name="total">    2.82    2.84</time>
   <energy>
    <i name="e_fr_energy">    -16.47647383 </i>
    <i name="e_wo_entrp">    -16.47520842 </i>
    <i name="e_0_energy">    -16.47605202 </i>
   </energy>
  </scstep>
  <scstep>
   <time name="dav">    0.91    0.91</time>
   <time name="total">    2.58    2.59</time>
   <energy>
    <i name="e_fr_energy">    -16.47647619 </i>
    <i name="e_wo_entrp">    -16.47521469 </i>
    <i name="e_0_energy">    -16.47605569 </i>
   </energy>
  </scstep>
  <scstep>
   <time name="dav">    0.72    0.73</time>
   <time name="total">    2.40    2.42</time>
   <energy>
    <i name="e_fr_energy">    -16.47647476 </i>
    <i name="e_wo_entrp">    -16.47521826 </i>
    <i name="e_0_energy">    -16.47605593 </i>
   </energy>
  </scstep>
  <scstep>
   <time name="dav">    0.71    0.71</time>
   <time name="total">    2.29    2.31</time>
   <energy>
    <i name="alphaZ">    117.79976220 </i>
    <i name="ewald">  -1171.43779597 </i>
    <i name="hartreedc">   -195.00687733 </i>
    <i name="XCdc">      8.47497029 </i>
    <i name="pawpsdc">   1410.98188872 </i>
    <i name="pawaedc">  -1428.93509311 </i>
    <i name="eentropy">     -0.00125560 </i>
    <i name="bandstr">     53.05826995 </i>
    <i name="atom">   1188.58965621 </i>
    <i name="e_fr_energy">    -16.47647463 </i>
    <i name="e_wo_entrp">    -16.47521903 </i>
    <i name="e_0_energy">    -16.47605610 </i>
   </energy>
  </scstep>
  <structure>
   <crystal>
    <varray name="basis" >
     <v>       2.86303550       0.00000000       0.00000000 </v>
     <v>       0.00000000       2.86303550       0.00000000 </v>
     <v>       0.00000000       0.00000000       2.86303550 </v>
    </varray>
    <i name="volume">     23.46822259 </i>
    <varray name="rec_basis" >
     <v>       0.34927964      -0.00000000       0.00000000 </v>
     <v>       0.00000000       0.34927964       0.00000000 </v>
     <v>      -0.00000000      -0.00000000       0.34927964 </v>
    </varray>
   </crystal>
   <varray name="positions" >
    <v>       0.00000000       0.00000000       0.00000000 </v>
    <v>       0.50000000       0.50000000       0.50000000 </v>
   </varray>
  </structure>
  <varray name="forces" >
   <v>      -0.00000000       0.00000000       0.00000000 </v>
   <v>       0.00000000      -0.00000000      -0.00000000 </v>
  </varray>
  <varray name="stress" >
   <v>     -68.25801297      -0.00000000      -0.00000000 </v>
   <v>      -0.00000000     -68.25801297       0.00000000 </v>
   <v>       0.00000000      -0.00000000     -68.25801297 </v>
  </varray>
  <energy>
   <i name="e_fr_energy">    -16.47647463 </i>
   <i name="e_wo_entrp">    -16.47521903 </i>
   <i name="e_0_energy">    -16.47605610 </i>
  </energy>
  <time name="totalsc">   39.58   40.73</time>
 </calculation>
 <calculation>
  <scstep>
   <time name="dav">    1.09    1.09</time>
   <time name="total">    2.77    2.78</time>
   <energy>
    <i name="alphaZ">    126.75095576 </i>
    <i name="ewald">  -1200.38762235 </i>
    <i name="hartreedc">   -199.82613875 </i>
    <i name="XCdc">      9.90497071 </i>
    <i name="pawpsdc">   1410.98430564 </i>
    <i name="pawaedc">  -1428.93751611 </i>
    <i name="eentropy">      0.00001754 </i>
    <i name="bandstr">     75.60215168 </i>
    <i name="atom">   1188.58965621 </i>
    <i name="e_fr_energy">    -17.31921967 </i>
    <i name="e_wo_entrp">    -17.31923721 </i>
    <i name="e_0_energy">    -17.31922552 </i>
   </energy>
  </scstep>
  <scstep>
   <time name="dav">    1.09    1.09</time>
   <time name="total">    2.77    2.79</time>
   <energy>
    <i name="e_fr_energy">    -16.52691188 </i>
    <i name="e_wo_entrp">    -16.52442217 </i>
    <i name="e_0_energy">    -16.52608197 </i>
   </energy>
  </scstep>
  <scstep>
   <time name="dav">    1.15    1.15</time>
   <time name="total">    2.83    2.85</time>
   <energy>
    <i name="e_fr_energy">    -16.49120594 </i>
    <i name="e_wo_entrp">    -16.49098398 </i>
    <i name="e_0_energy">    -16.49113195 </i>
   </energy>
  </scstep>
  <scstep>
   <time name="dav">    1.19    1.19</time>
   <time name="total">    2.88    2.90</time>
   <energy>
    <i name="e_fr_energy">    -16.48248514 </i>
    <i name="e_wo_entrp">    -16.48274236 </i>
    <i name="e_0_energy">    -16.48257088 </i>
   </energy>
  </scstep>
  <scstep>
   <time name="dav">    1.19    1.19</time>
   <time name="total">    2.86    2.88</time>
   <energy>
    <i name="e_fr_energy">    -16.47556345 </i>
    <i name="e_wo_entrp">    -16.47594474 </i>
    <i name="e_0_energy">    -16.47569054 </i>
   </energy>
  </scstep>
  <scstep>
   <time name="dav">    1.11    1.11</time>
   <time name="total">    2.78    2.80</time>
   <energy>
    <i name="e_fr_energy">    -16.47570283 </i>
    <i name="e_wo_entrp">    -16.47595087 </i>
    <i name="e_0_energy">    -16.47578551 </i>
   </energy>
  </scstep>
  <scstep>
   <time name="dav">    1.11    1.11</time>
   <time name="total">    2.79    2.81</time>
   <energy>
    <i name="e_fr_energy">    -16.47571781 </i>
    <i name="e_wo_entrp">    -16.47595352 </i>
    <i name="e_0_energy">    -16.47579638 </i>
   </energy>
  </scstep>
  <scstep>
   <time name="dav">    1.03    1.03</time>
   <time name="total">    2.71    2.73</time>
   <energy>
    <i name="e_fr_energy">    -16.47571267 </i>
    <i name="e_wo_entrp">    -16.47596893 </i>
    <i name="e_0_energy">    -16.47579809 </i>
   </energy>
  </scstep>
  <scstep>
   <time name="dav">    0.70    0.70</time>
   <time name="total">    2.38    2.39</time>
   <energy>
    <i name="e_fr_energy">    -16.47571070 </i>
    <i name="e_wo_entrp">    -16.47596801 </i>
    <i name="e_0_energy">    -16.47579647 </i>
   </energy>
  </scstep>
  <scstep>
   <time name="dav">    0.70    0.70</time>
   <time name="total">    2.29    2.30</time>
   <energy>
    <i name="alphaZ">    126.75095576 </i>
    <i name="ewald">  -1200.38762235 </i>
    <i name="hartreedc">   -183.71591923 </i>
    <i name="XCdc">      8.74908659 </i>
    <i name="pawpsdc">   1480.93123499 </i>
    <i name="pawaedc">  -1499.42387910 </i>
    <i name="eentropy">      0.00025816 </i>
    <i name="bandstr">     62.03051823 </i>
    <i name="atom">   1188.58965621 </i>
    <i name="e_fr_energy">    -16.47571075 </i>
    <i name="e_wo_entrp">    -16.47596891 </i>
    <i name="e_0_energy">    -16.47579680 </i>
   </energy>
  </scstep>
  <structure>
   <crystal>
    <varray name="basis" >
     <v>       2.79398749      -0.00000000       0.00000000 </v>
     <v>       0.00000000       2.79398749       0.00000000 </v>
     <v>       0.00000000      -0.00000000       2.79398749 </v>
    </varray>
    <i name="volume">     21.81088911 </i>
    <varray name="rec_basis" >
     <v>       0.35791141      -0.00000000      -0.00000000 </v>
     <v>       0.00000000       0.35791141       0.00000000 </v>
     <v>      -0.00000000      -0.00000000       0.35791141 </v>
    </varray>
   </crystal>
   <varray name="positions" >
    <v>      -0.00000000       0.00000000       0.00000000 </v>
    <v>       0.50000000       0.50000000       0.50000000 </v>
   </varray>
  </structure>
  <varray name="forces" >
   <v>       0.00000000       0.00000000       0.00000000 </v>
   <v>      -0.00000000      -0.00000000       0.00000000 </v>
  </varray>
  <varray name="stress" >
   <v>      83.74143697       0.00000000       0.00000000 </v>
   <v>       0.00000000      83.74143697       0.00000000 </v>
   <v>       0.00000000       0.00000000      83.74143697 </v>
  </varray>
  <energy>
   <i name="e_fr_energy">    -16.47571075 </i>
   <i name="e_wo_entrp">    -16.47596891 </i>
   <i name="e_0_energy">    -16.47579680 </i>
  </energy>
  <time name="totalsc">   31.63   31.95</time>
 </calculation>
 <calculation>
  <scstep>
   <time name="dav">    1.09    1.09</time>
   <time name="total">    2.76    2.77</time>
   <energy>
    <i name="alphaZ">    122.24633444 </i>
    <i name="ewald">  -1185.99550463 </i>
    <i name="hartreedc">   -181.51395046 </i>
    <i name="XCdc">      8.06174772 </i>
    <i name="pawpsdc">   1480.92695019 </i>
    <i name="pawaedc">  -1499.41922496 </i>
    <i name="eentropy">      0.00065603 </i>
    <i name="bandstr">     50.38919698 </i>
    <i name="atom">   1188.58965621 </i>
    <i name="e_fr_energy">    -16.71413849 </i>
    <i name="e_wo_entrp">    -16.71479452 </i>
    <i name="e_0_energy">    -16.71435717 </i>
   </energy>
  </scstep>
  <scstep>
   <time name="dav">    1.10    1.10</time>
   <time name="total">    2.76    2.78</time>
   <energy>
    <i name="e_fr_energy">    -16.52009738 </i>
    <i name="e_wo_entrp">    -16.52010027 </i>
    <i name="e_0_energy">    -16.52009834 </i>
   </energy>
  </scstep>
  <scstep>
   <time name="dav">    1.13    1.13</time>
   <time name="total">    2.80    2.82</time>
   <energy>
    <i name="e_fr_energy">    -16.50009264 </i>
    <i name="e_wo_entrp">    -16.50060260 </i>
    <i name="e_0_energy">    -16.50026263 </i>
   </energy>
  </scstep>
  <scstep>
   <time name="dav">    1.28    1.28</time>
   <time name="total">    2.95    2.97</time>
   <energy>
    <i name="e_fr_energy">    -16.49769396 </i>
    <i name="e_wo_entrp">    -16.49834863 </i>
    <i name="e_0_energy">    -16.49791218 </i>
   </energy>
  </scstep>
  <scstep>
   <time name="dav">    1.08    1.08</time>
   <time name="total">    2.75    2.77</time>
   <energy>
    <i name="e_fr_energy">    -16.49582772 </i>
    <i name="e_wo_entrp">    -16.49680257 </i>
    <i name="e_0_energy">    -16.49615267 </i>
   </energy>
  </scstep>
  <scstep>
   <time name="dav">    1.16    1.17</time>
   <time name="total">    2.84    2.86</time>
   <energy>
    <i name="e_fr_energy">    -16.49585466 </i>
    <i name="e_wo_entrp">    -16.49685635 </i>
    <i name="e_0_energy">    -16.49618856 </i>
   </energy>
  </scstep>
  <scstep>
   <time name="dav">    1.03    1.04</time>
   <time name="total">    2.71    2.73</time>
   <energy>
    <i name="e_fr_energy">    -16.49586271 </i>
    <i name="e_wo_entrp">    -16.49686410 </i>
    <i name="e_0_energy">    -16.49619650 </i>
   </energy>
  </scstep>
  <scstep>
   <time name="dav">    1.00    1.00</time>
   <time name="total">    2.68    2.70</time>
   <energy>
    <i name="e_fr_energy">    -16.49586730 </i>
    <i name="e_wo_entrp">    -16.49687355 </i>
    <i name="e_0_energy">    -16.49620272 </i>
   </energy>
  </scstep>
  <scstep>
   <time name="dav">    0.69    0.70</time>
   <time name="total">    2.27    2.29</time>
   <energy>
    <i name="alphaZ">    122.24633444 </i>
    <i name="ewald">  -1185.99550463 </i>
    <i name="hartreedc">   -189.21604573 </i>
    <i name="XCdc">      8.59195199 </i>
    <i name="pawpsdc">   1444.11072546 </i>
    <i name="pawaedc">  -1462.30904006 </i>
    <i name="eentropy">      0.00100394 </i>
    <i name="bandstr">     57.48505096 </i>
    <i name="atom">   1188.58965621 </i>
    <i name="e_fr_energy">    -16.49586741 </i>
    <i name="e_wo_entrp">    -16.49687135 </i>
    <i name="e_0_energy">    -16.49620206 </i>
   </energy>
  </scstep>
  <structure>
   <crystal>
    <varray name="basis" >
     <v>       2.82789267      -0.00000000       0.00000000 </v>
     <v>       0.00000000       2.82789267       0.00000000 </v>
     <v>       0.00000000      -0.00000000       2.82789267 </v>
    </varray>
    <i name="volume">     22.61459252 </i>
    <varray name="rec_basis" >
     <v>       0.35362021      -0.00000000      -0.00000000 </v>
     <v>       0.00000000       0.35362021       0.00000000 </v>
     <v>      -0.00000000      -0.00000000       0.35362021 </v>
    </varray>
   </crystal>
   <varray name="positions" >
    <v>      -0.00000000       0.00000000       0.00000000 </v>
    <v>       0.50000000       0.50000000       0.50000000 </v>
   </varray>
  </structure>
  <varray name="forces" >
   <v>      -0.00000000      -0.00000000       0.00000000 </v>
   <v>       0.00000000       0.00000000      -0.00000000 </v>
  </varray>
  <varray name="stress" >
   <v>      -0.13651785       0.00000000       0.00000000 </v>
   <v>      -0.00000000      -0.13651785       0.00000000 </v>
   <v>       0.00000000       0.00000000      -0.13651785 </v>
  </varray>
  <energy>
   <i name="e_fr_energy">    -16.49586741 </i>
   <i name="e_wo_entrp">    -16.49687135 </i>
   <i name="e_0_energy">    -16.49620206 </i>
  </energy>
  <time name="totalsc">   29.11   29.67</time>
  <eigenvalues>
   <array>
    <dimension dim="1">band</dimension>
    <dimension dim="2">kpoint</dimension>
    <dimension dim="3">spin</dimension>
    <field>eigene</field>
    <field>occ</field>
    <set>
     <set comment="spin 1">
      <set comment="kpoint 1">
       <r>   -2.5924    1.0000 </r>
       <r>    0.9899    1.0000 </r>
       <r>    0.9899    1.0000 </r>
       <r>    3.5658    1.0000 </r>
       <r>    3.5658    1.0000 </r>
       <r>    3.5658    1.0000 </r>
       <r>    4.7693    1.0000 </r>
       <r>    4.7693    1.0000 </r>
       <r>    6.0020    0.0236 </r>
       <r>    6.0020    0.0236 </r>
       <r>    6.0020    0.0236 </r>
       <r>   15.8375    0.0000 </r>
       <r>   15.8375    0.0000 </r>
       <r>   15.8375    0.0000 </r>
       <r>   21.5615    0.0000 </r>
       <r>   21.5615    0.0000 </r>
       <r>   26.7366    0.0000 </r>
       <r>   30.9370    0.0000 </r>
       <r>   30.9370    0.0000 </r>
       <r>   30.9370    0.0000 </r>
      </set>
      <set comment="kpoint 2">
       <r>   -2.3363    1.0000 </r>
       <r>    1.0996    1.0000 </r>
       <r>    1.1020    1.0000 </r>
       <r>    3.5647    1.0000 </r>
       <r>    3.5647    1.0000 </r>
       <r>    3.6361    1.0000 </r>
       <r>    4.6547    1.0000 </r>
       <r>    4.8144    1.0000 </r>
       <r>    5.7917    0.7420 </r>
       <r>    5.7917    0.7420 </r>
       <r>    5.9258    0.2095 </r>
       <r>   14.2259    0.0000 </r>
       <r>   16.3180    0.0000 </r>
       <r>   16.3180    0.0000 </r>
       <r>   21.6363    0.0000 </r>
       <r>   22.6710    0.0000 </r>
       <r>   27.6201    0.0000 </r>
       <r>   29.4824    0.0000 </r>
       <r>   30.6657    0.0000 </r>
       <r>   30.6657    0.0000 </r>
      </set>
      <set comment="kpoint 3">
       <r>   -1.5981    1.0000 </r>
       <r>    1.3781    1.0000 </r>
       <r>    1.4172    1.0000 </r>
       <r>    3.5806    1.0000 </r>
       <r>    3.5806    1.0000 </r>
       <r>    3.8398    1.0000 </r>
       <r>    4.3232    1.0000 </r>
       <r>    4.9439    1.0000 </r>
       <r>    5.2849    1.0002 </r>
       <r>    5.2849    1.0002 </r>
       <r>    5.7065    0.9687 </r>
       <r>   11.4321    0.0000 </r>
       <r>   17.6272    0.0000 </r>
       <r>   17.6272    0.0000 </r>
       <r>   21.8721    0.0000 </r>
       <r>   23.7526    0.0000 </r>
       <r>   27.2906    0.0000 </r>
       <r>   29.2812    0.0000 </r>
       <r>   29.2812    0.0000 </r>
       <r>   30.5484    0.0000 </r>
      </set>
      <set comment="kpoint 4">
       <r>   -0.4886    1.0000 </r>
       <r>    1.6288    1.0000 </r>
       <r>    1.9102    1.0000 </r>
       <r>    3.6608    1.0000 </r>
       <r>    3.6608    1.0000 </r>
       <r>    3.8125    1.0000 </r>
       <r>    4.1549    1.0000 </r>
       <r>    4.7056    1.0000 </r>
       <r>    4.7056    1.0000 </r>
       <r>    5.1685    1.0000 </r>
       <r>    5.3736    1.0019 </r>
       <r>    8.7880   -0.0000 </r>
       <r>   19.5176    0.0000 </r>
       <r>   19.5176    0.0000 </r>
       <r>   22.3051    0.0000 </r>
       <r>   24.3992    0.0000 </r>
       <r>   25.4292    0.0000 </r>
       <r>   26.9054    0.0000 </r>
       <r>   26.9054    0.0000 </r>
       <r>   28.7033    0.0000 </r>
      </set>
      <set comment="kpoint 5">
       <r>    0.7184    1.0000 </r>
       <r>    1.5120    1.0000 </r>
       <r>    2.5243    1.0000 </r>
       <r>    3.1864    1.0000 </r>
       <r>    3.8586    1.0000 </r>
       <r>    3.8586    1.0000 </r>
       <r>    4.2081    1.0000 </r>
       <r>    4.2081    1.0000 </r>
       <r>    4.5469    1.0000 </r>
       <r>    4.9700    1.0000 </r>
       <r>    5.6362    1.0314 </r>
       <r>    6.7612   -0.0000 </r>
       <r>   21.7905    0.0000 </r>
       <r>   21.7905    0.0000 </r>
       <r>   22.9938    0.0000 </r>
       <r>   24.0114    0.0000 </r>
       <r>   24.3034    0.0000 </r>
       <r>   24.3034    0.0000 </r>
       <r>   25.2594    0.0000 </r>
       <r>   26.6611    0.0000 </r>
      </set>
      <set comment="kpoint 6">
       <r>   -2.0859    1.0000 </r>
       <r>    1.1970    1.0000 </r>
       <r>    1.2203    1.0000 </r>
       <r>    3.4298    1.0000 </r>
       <r>    3.5450    1.0000 </r>
       <r>    3.8382    1.0000 </r>
       <r>    4.6521    1.0000 </r>
       <r>    4.7814    1.0000 </r>
       <r>    5.4346    1.0060 </r>
       <r>    5.5835    1.0337 </r>
       <r>    6.0337   -0.0130 </r>
       <r>   14.2917    0.0000 </r>
       <r>   15.0135    0.0000 </r>
       <r>   16.7618    0.0000 </r>
       <r>   22.1946    0.0000 </r>
       <r>   23.5792    0.0000 </r>
       <r>   28.1013    0.0000 </r>
       <r>   28.3178    0.0000 </r>
       <r>   30.0911    0.0000 </r>
       <r>   30.6165    0.0000 </r>
      </set>
      <set comment="kpoint 7">
       <r>   -1.3683    1.0000 </r>
       <r>    1.4543    1.0000 </r>
       <r>    1.5351    1.0000 </r>
       <r>    3.3405    1.0000 </r>
       <r>    3.5070    1.0000 </r>
       <r>    4.1398    1.0000 </r>
       <r>    4.4358    1.0000 </r>
       <r>    4.8696    1.0000 </r>
       <r>    4.8937    1.0000 </r>
       <r>    5.1011    1.0000 </r>
       <r>    5.9538    0.1244 </r>
       <r>   11.7204    0.0000 </r>
       <r>   15.8781    0.0000 </r>
       <r>   17.9928    0.0000 </r>
       <r>   22.5610    0.0000 </r>
       <r>   25.0435    0.0000 </r>
       <r>   25.6904    0.0000 </r>
       <r>   28.6836    0.0000 </r>
       <r>   29.5344    0.0000 </r>
       <r>   30.9045    0.0000 </r>
      </set>
      <set comment="kpoint 8">
       <r>   -0.3048    1.0000 </r>
       <r>    1.6949    1.0000 </r>
       <r>    1.9857    1.0000 </r>
       <r>    3.3540    1.0000 </r>
       <r>    3.4214    1.0000 </r>
       <r>    4.1608    1.0000 </r>
       <r>    4.2950    1.0000 </r>
       <r>    4.5061    1.0000 </r>
       <r>    4.6068    1.0000 </r>
       <r>    5.1244    1.0000 </r>
       <r>    5.6964    0.9839 </r>
       <r>    9.0414   -0.0000 </r>
       <r>   17.4324    0.0000 </r>
       <r>   19.8085    0.0000 </r>
       <r>   23.0616    0.0000 </r>
       <r>   23.3712    0.0000 </r>
       <r>   26.0475    0.0000 </r>
       <r>   26.7604    0.0000 </r>
       <r>   27.1343    0.0000 </r>
       <r>   31.0385    0.0000 </r>
      </set>
      <set comment="kpoint 9">
       <r>    0.8222    1.0000 </r>
       <r>    1.5631    1.0000 </r>
       <r>    2.5318    1.0000 </r>
       <r>    3.0744    1.0000 </r>
       <r>    3.5068    1.0000 </r>
       <r>    3.8228    1.0000 </r>
       <r>    4.1328    1.0000 </r>
       <r>    4.2884    1.0000 </r>
       <r>    4.9156    1.0000 </r>
       <r>    5.3296    1.0007 </r>
       <r>    5.6430    1.0291 </r>
       <r>    6.9110   -0.0000 </r>
       <r>   19.2466    0.0000 </r>
       <r>   21.2300    0.0000 </r>
       <r>   22.0288    0.0000 </r>
       <r>   23.8569    0.0000 </r>
       <r>   24.5172    0.0000 </r>
       <r>   25.0732    0.0000 </r>
       <r>   27.2458    0.0000 </r>
       <r>   28.9146    0.0000 </r>
      </set>
      <set comment="kpoint 10">
       <r>   -0.7272    1.0000 </r>
       <r>    1.5798    1.0000 </r>
       <r>    1.9079    1.0000 </r>
       <r>    3.0962    1.0000 </r>
       <r>    3.4222    1.0000 </r>
       <r>    4.2543    1.0000 </r>
       <r>    4.5713    1.0000 </r>
       <r>    4.5870    1.0000 </r>
       <r>    4.7252    1.0000 </r>
       <r>    4.8237    1.0000 </r>
       <r>    6.1138   -0.0345 </r>
       <r>   11.6881    0.0000 </r>
       <r>   13.9684    0.0000 </r>
       <r>   19.0431    0.0000 </r>
       <r>   22.9356    0.0000 </r>
       <r>   23.0466    0.0000 </r>
       <r>   27.6436    0.0000 </r>
       <r>   27.7637    0.0000 </r>
       <r>   30.0649    0.0000 </r>
       <r>   30.9402    0.0000 </r>
      </set>
      <set comment="kpoint 11">
       <r>    0.1540    1.0000 </r>
       <r>    1.6418    1.0000 </r>
       <r>    2.4006    1.0000 </r>
       <r>    2.9784    1.0000 </r>
       <r>    3.4162    1.0000 </r>
       <r>    3.6903    1.0000 </r>
       <r>    4.4643    1.0000 </r>
       <r>    4.5409    1.0000 </r>
       <r>    5.0009    1.0000 </r>
       <r>    5.0187    1.0000 </r>
       <r>    6.0522   -0.0253 </r>
       <r>    9.5062   -0.0000 </r>
       <r>   14.7555    0.0000 </r>
       <r>   20.5314    0.0000 </r>
       <r>   20.6650    0.0000 </r>
       <r>   23.3319    0.0000 </r>
       <r>   26.3645    0.0000 </r>
       <r>   27.7684    0.0000 </r>
       <r>   29.4838    0.0000 </r>
       <r>   31.5842    0.0000 </r>
      </set>
      <set comment="kpoint 12">
       <r>    0.9653    1.0000 </r>
       <r>    1.4670    1.0000 </r>
       <r>    2.8884    1.0000 </r>
       <r>    3.0283    1.0000 </r>
       <r>    3.2674    1.0000 </r>
       <r>    3.2735    1.0000 </r>
       <r>    4.4590    1.0000 </r>
       <r>    4.5381    1.0000 </r>
       <r>    5.4462    1.0073 </r>
       <r>    5.6582    1.0215 </r>
       <r>    5.8093    0.6754 </r>
       <r>    7.2466   -0.0000 </r>
       <r>   16.3553    0.0000 </r>
       <r>   18.2921    0.0000 </r>
       <r>   22.7301    0.0000 </r>
       <r>   23.9812    0.0000 </r>
       <r>   24.9994    0.0000 </r>
       <r>   25.1293    0.0000 </r>
       <r>   30.9326    0.0000 </r>
       <r>   32.4062    0.0000 </r>
      </set>
      <set comment="kpoint 13">
       <r>    0.6305    1.0000 </r>
       <r>    1.4489    1.0000 </r>
       <r>    2.7337    1.0000 </r>
       <r>    3.0365    1.0000 </r>
       <r>    3.1713    1.0000 </r>
       <r>    3.8985    1.0000 </r>
       <r>    4.4743    1.0000 </r>
       <r>    4.7675    1.0000 </r>
       <r>    4.8931    1.0000 </r>
       <r>    5.4985    1.0158 </r>
       <r>    6.2058   -0.0156 </r>
       <r>    9.1400   -0.0000 </r>
       <r>   13.4518    0.0000 </r>
       <r>   17.9587    0.0000 </r>
       <r>   22.0377    0.0000 </r>
       <r>   23.5883    0.0000 </r>
       <r>   25.6220    0.0000 </r>
       <r>   28.0537    0.0000 </r>
       <r>   29.6563    0.0000 </r>
       <r>   32.7465    0.0000 </r>
      </set>
      <set comment="kpoint 14">
       <r>    0.9551    1.0000 </r>
       <r>    1.2064    1.0000 </r>
       <r>    2.6730    1.0000 </r>
       <r>    2.8200    1.0000 </r>
       <r>    3.6638    1.0000 </r>
       <r>    4.1005    1.0000 </r>
       <r>    4.6372    1.0000 </r>
       <r>    4.7994    1.0000 </r>
       <r>    5.6552    1.0233 </r>
       <r>    5.8893    0.3443 </r>
       <r>    6.1408   -0.0300 </r>
       <r>    7.4315   -0.0000 </r>
       <r>   14.1526    0.0000 </r>
       <r>   15.7936    0.0000 </r>
       <r>   23.8497    0.0000 </r>
       <r>   24.0365    0.0000 </r>
       <r>   24.7474    0.0000 </r>
       <r>   25.9976    0.0000 </r>
       <r>   30.6866    0.0000 </r>
       <r>   32.4393    0.0000 </r>
      </set>
      <set comment="kpoint 15">
       <r>    0.9224    1.0000 </r>
       <r>    0.9992    1.0000 </r>
       <r>    2.5061    1.0000 </r>
       <r>    2.5555    1.0000 </r>
       <r>    4.4924    1.0000 </r>
       <r>    4.7815    1.0000 </r>
       <r>    4.8071    1.0000 </r>
       <r>    4.9517    1.0000 </r>
       <r>    5.9109    0.2616 </r>
       <r>    6.1760   -0.0221 </r>
       <r>    6.2661   -0.0063 </r>
       <r>    6.9482   -0.0000 </r>
       <r>   13.2849    0.0000 </r>
       <r>   13.9891    0.0000 </r>
       <r>   24.1709    0.0000 </r>
       <r>   24.4289    0.0000 </r>
       <r>   25.2610    0.0000 </r>
       <r>   26.3880    0.0000 </r>
       <r>   29.4575    0.0000 </r>
       <r>   30.4459    0.0000 </r>
      </set>
      <set comment="kpoint 16">
       <r>   -1.8402    1.0000 </r>
       <r>    1.3147    1.0000 </r>
       <r>    1.3147    1.0000 </r>
       <r>    3.4023    1.0000 </r>
       <r>    3.4023    1.0000 </r>
       <r>    4.0473    1.0000 </r>
       <r>    4.7083    1.0000 </r>
       <r>    4.7083    1.0000 </r>
       <r>    4.9786    1.0000 </r>
       <r>    5.8239    0.6166 </r>
       <r>    5.8239    0.6166 </r>
       <r>   14.7150    0.0000 </r>
       <r>   14.7150    0.0000 </r>
       <r>   15.7075    0.0000 </r>
       <r>   23.7208    0.0000 </r>
       <r>   23.7208    0.0000 </r>
       <r>   27.8989    0.0000 </r>
       <r>   27.8989    0.0000 </r>
       <r>   28.9001    0.0000 </r>
       <r>   31.6307    0.0000 </r>
      </set>
      <set comment="kpoint 17">
       <r>   -1.1392    1.0000 </r>
       <r>    1.5857    1.0000 </r>
       <r>    1.6003    1.0000 </r>
       <r>    3.2701    1.0000 </r>
       <r>    3.3263    1.0000 </r>
       <r>    4.3806    1.0000 </r>
       <r>    4.4071    1.0000 </r>
       <r>    4.5112    1.0000 </r>
       <r>    4.8553    1.0000 </r>
       <r>    5.3314    1.0007 </r>
       <r>    5.8690    0.4276 </r>
       <r>   12.0331    0.0000 </r>
       <r>   15.8338    0.0000 </r>
       <r>   16.5164    0.0000 </r>
       <r>   24.1660    0.0000 </r>
       <r>   25.3720    0.0000 </r>
       <r>   25.5404    0.0000 </r>
       <r>   26.5914    0.0000 </r>
       <r>   30.8355    0.0000 </r>
       <r>   31.1803    0.0000 </r>
      </set>
      <set comment="kpoint 18">
       <r>   -0.1139    1.0000 </r>
       <r>    1.8309    1.0000 </r>
       <r>    1.9942    1.0000 </r>
       <r>    3.1888    1.0000 </r>
       <r>    3.2846    1.0000 </r>
       <r>    3.8879    1.0000 </r>
       <r>    4.2790    1.0000 </r>
       <r>    4.7949    1.0000 </r>
       <r>    4.8091    1.0000 </r>
       <r>    5.1090    1.0000 </r>
       <r>    5.6995    0.9795 </r>
       <r>    9.3368   -0.0000 </r>
       <r>   17.3733    0.0000 </r>
       <r>   17.9636    0.0000 </r>
       <r>   23.0808    0.0000 </r>
       <r>   24.2491    0.0000 </r>
       <r>   24.9684    0.0000 </r>
       <r>   26.6251    0.0000 </r>
       <r>   29.7323    0.0000 </r>
       <r>   30.3689    0.0000 </r>
      </set>
      <set comment="kpoint 19">
       <r>    0.9485    1.0000 </r>
       <r>    1.6614    1.0000 </r>
       <r>    2.4712    1.0000 </r>
       <r>    2.9087    1.0000 </r>
       <r>    3.4517    1.0000 </r>
       <r>    3.6323    1.0000 </r>
       <r>    4.1966    1.0000 </r>
       <r>    4.3830    1.0000 </r>
       <r>    5.1019    1.0000 </r>
       <r>    5.4032    1.0034 </r>
       <r>    5.7806    0.7813 </r>
       <r>    7.1646   -0.0000 </r>
       <r>   19.1311    0.0000 </r>
       <r>   19.7680    0.0000 </r>
       <r>   21.0248    0.0000 </r>
       <r>   21.8773    0.0000 </r>
       <r>   26.1879    0.0000 </r>
       <r>   27.7272    0.0000 </r>
       <r>   27.8282    0.0000 </r>
       <r>   29.1133    0.0000 </r>
      </set>
      <set comment="kpoint 20">
       <r>   -0.5021    1.0000 </r>
       <r>    1.7268    1.0000 </r>
       <r>    1.9577    1.0000 </r>
       <r>    3.0463    1.0000 </r>
       <r>    3.2093    1.0000 </r>
       <r>    3.7846    1.0000 </r>
       <r>    4.6271    1.0000 </r>
       <r>    4.8067    1.0000 </r>
       <r>    4.8772    1.0000 </r>
       <r>    5.0916    1.0000 </r>
       <r>    5.8931    0.3294 </r>
       <r>   12.1215    0.0000 </r>
       <r>   14.0374    0.0000 </r>
       <r>   17.1062    0.0000 </r>
       <r>   23.1397    0.0000 </r>
       <r>   25.1384    0.0000 </r>
       <r>   25.7775    0.0000 </r>
       <r>   27.8204    0.0000 </r>
       <r>   28.5175    0.0000 </r>
       <r>   31.9452    0.0000 </r>
      </set>
      <set comment="kpoint 21">
       <r>    0.3640    1.0000 </r>
       <r>    1.8110    1.0000 </r>
       <r>    2.3771    1.0000 </r>
       <r>    2.9113    1.0000 </r>
       <r>    3.1963    1.0000 </r>
       <r>    3.3801    1.0000 </r>
       <r>    4.5540    1.0000 </r>
       <r>    4.7248    1.0000 </r>
       <r>    4.9588    1.0000 </r>
       <r>    5.4251    1.0051 </r>
       <r>    5.8353    0.5695 </r>
       <r>    9.9133   -0.0000 </r>
       <r>   14.8750    0.0000 </r>
       <r>   18.3818    0.0000 </r>
       <r>   20.6539    0.0000 </r>
       <r>   24.0575    0.0000 </r>
       <r>   25.8643    0.0000 </r>
       <r>   27.9683    0.0000 </r>
       <r>   29.5648    0.0000 </r>
       <r>   31.2277    0.0000 </r>
      </set>
      <set comment="kpoint 22">
       <r>    1.1418    1.0000 </r>
       <r>    1.6309    1.0000 </r>
       <r>    2.6718    1.0000 </r>
       <r>    2.8240    1.0000 </r>
       <r>    3.2791    1.0000 </r>
       <r>    3.2902    1.0000 </r>
       <r>    4.5172    1.0000 </r>
       <r>    4.5454    1.0000 </r>
       <r>    5.2228    1.0000 </r>
       <r>    5.5841    1.0338 </r>
       <r>    6.2269   -0.0117 </r>
       <r>    7.7100   -0.0000 </r>
       <r>   16.4835    0.0000 </r>
       <r>   18.4198    0.0000 </r>
       <r>   20.0118    0.0000 </r>
       <r>   21.9302    0.0000 </r>
       <r>   26.8063    0.0000 </r>
       <r>   27.7167    0.0000 </r>
       <r>   30.3658    0.0000 </r>
       <r>   30.5249    0.0000 </r>
      </set>
      <set comment="kpoint 23">
       <r>    0.8469    1.0000 </r>
       <r>    1.6118    1.0000 </r>
       <r>    2.6934    1.0000 </r>
       <r>    2.9808    1.0000 </r>
       <r>    3.0064    1.0000 </r>
       <r>    3.5328    1.0000 </r>
       <r>    4.6390    1.0000 </r>
       <r>    4.7474    1.0000 </r>
       <r>    4.8972    1.0000 </r>
       <r>    5.9013    0.2975 </r>
       <r>    6.0149    0.0061 </r>
       <r>    9.7165   -0.0000 </r>
       <r>   13.4973    0.0000 </r>
       <r>   18.0951    0.0000 </r>
       <r>   19.4358    0.0000 </r>
       <r>   24.0192    0.0000 </r>
       <r>   26.0719    0.0000 </r>
       <r>   26.2473    0.0000 </r>
       <r>   31.4783    0.0000 </r>
       <r>   31.7801    0.0000 </r>
      </set>
      <set comment="kpoint 24">
       <r>    1.1449    1.0000 </r>
       <r>    1.3731    1.0000 </r>
       <r>    2.6241    1.0000 </r>
       <r>    2.7234    1.0000 </r>
       <r>    3.5926    1.0000 </r>
       <r>    3.8822    1.0000 </r>
       <r>    4.6975    1.0000 </r>
       <r>    4.7767    1.0000 </r>
       <r>    5.1760    1.0000 </r>
       <r>    5.7006    0.9780 </r>
       <r>    6.7935   -0.0000 </r>
       <r>    8.1649   -0.0000 </r>
       <r>   14.2372    0.0000 </r>
       <r>   15.9137    0.0000 </r>
       <r>   20.8592    0.0000 </r>
       <r>   22.5677    0.0000 </r>
       <r>   26.0292    0.0000 </r>
       <r>   26.3685    0.0000 </r>
       <r>   30.8255    0.0000 </r>
       <r>   30.9655    0.0000 </r>
      </set>
      <set comment="kpoint 25">
       <r>    1.1026    1.0000 </r>
       <r>    1.1697    1.0000 </r>
       <r>    2.4810    1.0000 </r>
       <r>    2.5209    1.0000 </r>
       <r>    4.3518    1.0000 </r>
       <r>    4.7614    1.0000 </r>
       <r>    4.8163    1.0000 </r>
       <r>    4.9260    1.0000 </r>
       <r>    4.9565    1.0000 </r>
       <r>    5.5324    1.0232 </r>
       <r>    7.4161   -0.0000 </r>
       <r>    8.0561   -0.0000 </r>
       <r>   13.3225    0.0000 </r>
       <r>   14.0649    0.0000 </r>
       <r>   22.0237    0.0000 </r>
       <r>   23.0253    0.0000 </r>
       <r>   24.6924    0.0000 </r>
       <r>   25.3234    0.0000 </r>
       <r>   30.8697    0.0000 </r>
       <r>   31.1418    0.0000 </r>
      </set>
      <set comment="kpoint 26">
       <r>    0.1156    1.0000 </r>
       <r>    2.0922    1.0000 </r>
       <r>    2.0922    1.0000 </r>
       <r>    2.9204    1.0000 </r>
       <r>    2.9204    1.0000 </r>
       <r>    3.1822    1.0000 </r>
       <r>    4.7552    1.0000 </r>
       <r>    4.7552    1.0000 </r>
       <r>    5.4209    1.0047 </r>
       <r>    5.4209    1.0047 </r>
       <r>    5.4524    1.0081 </r>
       <r>   13.2334    0.0000 </r>
       <r>   13.2334    0.0000 </r>
       <r>   15.4764    0.0000 </r>
       <r>   23.1495    0.0000 </r>
       <r>   23.1495    0.0000 </r>
       <r>   25.7629    0.0000 </r>
       <r>   28.3536    0.0000 </r>
       <r>   28.3536    0.0000 </r>
       <r>   31.5292    0.0000 </r>
      </set>
      <set comment="kpoint 27">
       <r>    0.9087    1.0000 </r>
       <r>    2.2556    1.0000 </r>
       <r>    2.2729    1.0000 </r>
       <r>    2.7659    1.0000 </r>
       <r>    2.8699    1.0000 </r>
       <r>    2.9596    1.0000 </r>
       <r>    4.6824    1.0000 </r>
       <r>    4.9217    1.0000 </r>
       <r>    4.9795    1.0000 </r>
       <r>    5.5035    1.0168 </r>
       <r>    6.1296   -0.0322 </r>
       <r>   10.7914   -0.0000 </r>
       <r>   14.7472    0.0000 </r>
       <r>   16.1342    0.0000 </r>
       <r>   20.7092    0.0000 </r>
       <r>   21.5922    0.0000 </r>
       <r>   25.2277    0.0000 </r>
       <r>   29.2336    0.0000 </r>
       <r>   29.2559    0.0000 </r>
       <r>   31.8362    0.0000 </r>
      </set>
      <set comment="kpoint 28">
       <r>    1.5183    1.0000 </r>
       <r>    1.9220    1.0000 </r>
       <r>    2.4531    1.0000 </r>
       <r>    2.6126    1.0000 </r>
       <r>    3.1177    1.0000 </r>
       <r>    3.1941    1.0000 </r>
       <r>    4.6395    1.0000 </r>
       <r>    4.7141    1.0000 </r>
       <r>    5.1150    1.0000 </r>
       <r>    5.3559    1.0013 </r>
       <r>    7.0629   -0.0000 </r>
       <r>    8.5932   -0.0000 </r>
       <r>   16.5183    0.0000 </r>
       <r>   17.4964    0.0000 </r>
       <r>   18.5035    0.0000 </r>
       <r>   19.3594    0.0000 </r>
       <r>   26.1873    0.0000 </r>
       <r>   27.6390    0.0000 </r>
       <r>   30.5190    0.0000 </r>
       <r>   32.0630    0.0000 </r>
      </set>
      <set comment="kpoint 29">
       <r>    1.4419    1.0000 </r>
       <r>    2.0223    1.0000 </r>
       <r>    2.5994    1.0000 </r>
       <r>    2.6541    1.0000 </r>
       <r>    2.9079    1.0000 </r>
       <r>    2.9334    1.0000 </r>
       <r>    4.8095    1.0000 </r>
       <r>    4.9033    1.0000 </r>
       <r>    4.9147    1.0000 </r>
       <r>    5.4098    1.0038 </r>
       <r>    6.9336   -0.0000 </r>
       <r>   11.0264   -0.0000 </r>
       <r>   13.5449    0.0000 </r>
       <r>   16.6351    0.0000 </r>
       <r>   18.5175    0.0000 </r>
       <r>   21.4949    0.0000 </r>
       <r>   23.0274    0.0000 </r>
       <r>   27.3198    0.0000 </r>
       <r>   31.2446    0.0000 </r>
       <r>   33.4842    0.0000 </r>
      </set>
      <set comment="kpoint 30">
       <r>    1.6421    1.0000 </r>
       <r>    1.7861    1.0000 </r>
       <r>    2.5274    1.0000 </r>
       <r>    2.5569    1.0000 </r>
       <r>    3.3386    1.0000 </r>
       <r>    3.3431    1.0000 </r>
       <r>    4.8154    1.0000 </r>
       <r>    4.8331    1.0000 </r>
       <r>    5.0318    1.0000 </r>
       <r>    5.2635    1.0001 </r>
       <r>    7.9581   -0.0000 </r>
       <r>    9.4485   -0.0000 </r>
       <r>   14.5090    0.0000 </r>
       <r>   16.3039    0.0000 </r>
       <r>   17.9884    0.0000 </r>
       <r>   19.8036    0.0000 </r>
       <r>   23.6145    0.0000 </r>
       <r>   25.2521    0.0000 </r>
       <r>   32.4834    0.0000 </r>
       <r>   33.8077    0.0000 </r>
      </set>
      <set comment="kpoint 31">
       <r>    1.5844    1.0000 </r>
       <r>    1.6168    1.0000 </r>
       <r>    2.4299    1.0000 </r>
       <r>    2.4581    1.0000 </r>
       <r>    3.8387    1.0000 </r>
       <r>    3.8853    1.0000 </r>
       <r>    4.8957    1.0000 </r>
       <r>    4.9034    1.0000 </r>
       <r>    4.9679    1.0000 </r>
       <r>    5.1107    1.0000 </r>
       <r>    8.9131   -0.0000 </r>
       <r>    9.6866   -0.0000 </r>
       <r>   13.4638    0.0000 </r>
       <r>   14.3427    0.0000 </r>
       <r>   19.2761    0.0000 </r>
       <r>   20.6070    0.0000 </r>
       <r>   21.7999    0.0000 </r>
       <r>   23.0737    0.0000 </r>
       <r>   33.7523    0.0000 </r>
       <r>   34.4066    0.0000 </r>
      </set>
      <set comment="kpoint 32">
       <r>    2.1798    1.0000 </r>
       <r>    2.1798    1.0000 </r>
       <r>    2.5150    1.0000 </r>
       <r>    2.5150    1.0000 </r>
       <r>    2.7477    1.0000 </r>
       <r>    2.7477    1.0000 </r>
       <r>    4.9031    1.0000 </r>
       <r>    4.9031    1.0000 </r>
       <r>    5.0822    1.0000 </r>
       <r>    5.0822    1.0000 </r>
       <r>    7.9590   -0.0000 </r>
       <r>   12.6930    0.0000 </r>
       <r>   12.6930    0.0000 </r>
       <r>   15.3760    0.0000 </r>
       <r>   19.0211    0.0000 </r>
       <r>   19.0211    0.0000 </r>
       <r>   20.5573    0.0000 </r>
       <r>   25.0294    0.0000 </r>
       <r>   34.3929    0.0000 </r>
       <r>   34.3929    0.0000 </r>
      </set>
      <set comment="kpoint 33">
       <r>    2.0695    1.0000 </r>
       <r>    2.1235    1.0000 </r>
       <r>    2.5017    1.0000 </r>
       <r>    2.5876    1.0000 </r>
       <r>    2.9545    1.0000 </r>
       <r>    3.0864    1.0000 </r>
       <r>    4.9041    1.0000 </r>
       <r>    4.9405    1.0000 </r>
       <r>    4.9924    1.0000 </r>
       <r>    5.0811    1.0000 </r>
       <r>    9.1825   -0.0000 </r>
       <r>   10.8036   -0.0000 </r>
       <r>   14.6010    0.0000 </r>
       <r>   16.0810    0.0000 </r>
       <r>   16.7152    0.0000 </r>
       <r>   17.6168    0.0000 </r>
       <r>   21.0119    0.0000 </r>
       <r>   22.7768    0.0000 </r>
       <r>   35.6086    0.0000 </r>
       <r>   36.9381    0.0000 </r>
      </set>
      <set comment="kpoint 34">
       <r>    2.1043    1.0000 </r>
       <r>    2.1841    1.0000 </r>
       <r>    2.4147    1.0000 </r>
       <r>    2.5072    1.0000 </r>
       <r>    3.1805    1.0000 </r>
       <r>    3.2256    1.0000 </r>
       <r>    4.9585    1.0000 </r>
       <r>    4.9677    1.0000 </r>
       <r>    4.9803    1.0000 </r>
       <r>    5.0149    1.0000 </r>
       <r>   10.4820   -0.0000 </r>
       <r>   11.5387    0.0000 </r>
       <r>   13.7480    0.0000 </r>
       <r>   14.9519    0.0000 </r>
       <r>   16.8106    0.0000 </r>
       <r>   18.1429    0.0000 </r>
       <r>   19.1355    0.0000 </r>
       <r>   20.5247    0.0000 </r>
       <r>   37.5288    0.0000 </r>
       <r>   38.2772    0.0000 </r>
      </set>
      <set comment="kpoint 35">
       <r>    2.3325    1.0000 </r>
       <r>    2.5074    1.0000 </r>
       <r>    2.5074    1.0000 </r>
       <r>    2.7682    1.0000 </r>
       <r>    2.7682    1.0000 </r>
       <r>    2.8309    1.0000 </r>
       <r>    4.9888    1.0000 </r>
       <r>    4.9889    1.0000 </r>
       <r>    4.9953    1.0000 </r>
       <r>    4.9953    1.0000 </r>
       <r>   12.0891    0.0000 </r>
       <r>   13.5786    0.0000 </r>
       <r>   13.5786    0.0000 </r>
       <r>   15.5261    0.0000 </r>
       <r>   15.7867    0.0000 </r>
       <r>   15.7867    0.0000 </r>
       <r>   17.3832    0.0000 </r>
       <r>   18.3316    0.0000 </r>
       <r>   41.5058    0.0000 </r>
       <r>   41.5058    0.0000 </r>
      </set>
     </set>
     <set comment="spin 2">
      <set comment="kpoint 1">
       <r>   -2.4200    1.0000 </r>
       <r>    2.8160    1.0000 </r>
       <r>    2.8161    1.0000 </r>
       <r>    5.4413    1.0067 </r>
       <r>    5.4414    1.0067 </r>
       <r>    5.4414    1.0067 </r>
       <r>    7.5266   -0.0000 </r>
       <r>    7.5268   -0.0000 </r>
       <r>    8.1475   -0.0000 </r>
       <r>    8.1476   -0.0000 </r>
       <r>    8.1476   -0.0000 </r>
       <r>   16.1088    0.0000 </r>
       <r>   16.1088    0.0000 </r>
       <r>   16.1089    0.0000 </r>
       <r>   22.6306    0.0000 </r>
       <r>   22.6306    0.0000 </r>
       <r>   27.8412    0.0000 </r>
       <r>   30.6949    0.0000 </r>
       <r>   30.6949    0.0000 </r>
       <r>   30.6949    0.0000 </r>
      </set>
      <set comment="kpoint 2">
       <r>   -2.1626    1.0000 </r>
       <r>    2.9045    1.0000 </r>
       <r>    2.9463    1.0000 </r>
       <r>    5.4310    1.0056 </r>
       <r>    5.4312    1.0056 </r>
       <r>    5.5188    1.0201 </r>
       <r>    7.3774   -0.0000 </r>
       <r>    7.5832   -0.0000 </r>
       <r>    7.8744   -0.0000 </r>
       <r>    7.8745   -0.0000 </r>
       <r>    8.0621   -0.0000 </r>
       <r>   14.7495    0.0000 </r>
       <r>   16.6542    0.0000 </r>
       <r>   16.6542    0.0000 </r>
       <r>   22.6826    0.0000 </r>
       <r>   23.5459    0.0000 </r>
       <r>   28.6781    0.0000 </r>
       <r>   29.4092    0.0000 </r>
       <r>   30.5430    0.0000 </r>
       <r>   30.5430    0.0000 </r>
      </set>
      <set comment="kpoint 3">
       <r>   -1.4149    1.0000 </r>
       <r>    3.0748    1.0000 </r>
       <r>    3.3257    1.0000 </r>
       <r>    5.4246    1.0050 </r>
       <r>    5.4248    1.0050 </r>
       <r>    5.7431    0.8932 </r>
       <r>    6.9474   -0.0000 </r>
       <r>    7.2500   -0.0000 </r>
       <r>    7.2501   -0.0000 </r>
       <r>    7.7341   -0.0000 </r>
       <r>    7.8165   -0.0000 </r>
       <r>   12.3139    0.0000 </r>
       <r>   18.0861    0.0000 </r>
       <r>   18.0861    0.0000 </r>
       <r>   22.8504    0.0000 </r>
       <r>   24.4855    0.0000 </r>
       <r>   27.4189    0.0000 </r>
       <r>   29.5330    0.0000 </r>
       <r>   29.5330    0.0000 </r>
       <r>   31.4627    0.0000 </r>
      </set>
      <set comment="kpoint 4">
       <r>   -0.2600    1.0000 </r>
       <r>    3.0291    1.0000 </r>
       <r>    3.9205    1.0000 </r>
       <r>    5.4811    1.0125 </r>
       <r>    5.4812    1.0125 </r>
       <r>    6.0909   -0.0353 </r>
       <r>    6.2907   -0.0041 </r>
       <r>    6.5784   -0.0000 </r>
       <r>    6.5786   -0.0000 </r>
       <r>    7.4443   -0.0000 </r>
       <r>    7.9406   -0.0000 </r>
       <r>   10.1603   -0.0000 </r>
       <r>   20.0749    0.0000 </r>
       <r>   20.0749    0.0000 </r>
       <r>   23.1712    0.0000 </r>
       <r>   25.0136    0.0000 </r>
       <r>   25.7577    0.0000 </r>
       <r>   27.4197    0.0000 </r>
       <r>   27.4197    0.0000 </r>
       <r>   29.1263    0.0000 </r>
      </set>
      <set comment="kpoint 5">
       <r>    1.1227    1.0000 </r>
       <r>    2.3727    1.0000 </r>
       <r>    4.6723    1.0000 </r>
       <r>    5.4972    1.0155 </r>
       <r>    5.6678    1.0147 </r>
       <r>    5.6680    1.0146 </r>
       <r>    6.0311   -0.0108 </r>
       <r>    6.0312   -0.0109 </r>
       <r>    6.5248   -0.0000 </r>
       <r>    6.9946   -0.0000 </r>
       <r>    8.2225   -0.0000 </r>
       <r>    8.8157   -0.0000 </r>
       <r>   22.3988    0.0000 </r>
       <r>   22.3988    0.0000 </r>
       <r>   23.7068    0.0000 </r>
       <r>   24.5397    0.0000 </r>
       <r>   24.9071    0.0000 </r>
       <r>   24.9071    0.0000 </r>
       <r>   25.7597    0.0000 </r>
       <r>   27.0934    0.0000 </r>
      </set>
      <set comment="kpoint 6">
       <r>   -1.9100    1.0000 </r>
       <r>    3.0256    1.0000 </r>
       <r>    3.0370    1.0000 </r>
       <r>    5.2784    1.0002 </r>
       <r>    5.4026    1.0033 </r>
       <r>    5.7377    0.9064 </r>
       <r>    7.3636   -0.0000 </r>
       <r>    7.4529   -0.0000 </r>
       <r>    7.5405   -0.0000 </r>
       <r>    7.6082   -0.0000 </r>
       <r>    8.1829   -0.0000 </r>
       <r>   14.8916    0.0000 </r>
       <r>   15.5798    0.0000 </r>
       <r>   17.1425    0.0000 </r>
       <r>   23.1306    0.0000 </r>
       <r>   24.3258    0.0000 </r>
       <r>   28.2438    0.0000 </r>
       <r>   29.3568    0.0000 </r>
       <r>   30.0091    0.0000 </r>
       <r>   30.5384    0.0000 </r>
      </set>
      <set comment="kpoint 7">
       <r>   -1.1785    1.0000 </r>
       <r>    3.1963    1.0000 </r>
       <r>    3.3877    1.0000 </r>
       <r>    5.1626    1.0000 </r>
       <r>    5.3452    1.0010 </r>
       <r>    6.0662   -0.0311 </r>
       <r>    6.7894   -0.0000 </r>
       <r>    7.0361   -0.0000 </r>
       <r>    7.0531   -0.0000 </r>
       <r>    7.6717   -0.0000 </r>
       <r>    8.0888   -0.0000 </r>
       <r>   12.6343    0.0000 </r>
       <r>   16.5737    0.0000 </r>
       <r>   18.4658    0.0000 </r>
       <r>   23.4073    0.0000 </r>
       <r>   25.6516    0.0000 </r>
       <r>   26.0515    0.0000 </r>
       <r>   28.8110    0.0000 </r>
       <r>   29.7832    0.0000 </r>
       <r>   31.8304    0.0000 </r>
      </set>
      <set comment="kpoint 8">
       <r>   -0.0558    1.0000 </r>
       <r>    3.1307    1.0000 </r>
       <r>    3.9284    1.0000 </r>
       <r>    5.1529    1.0000 </r>
       <r>    5.2890    1.0003 </r>
       <r>    6.1384   -0.0305 </r>
       <r>    6.4673   -0.0001 </r>
       <r>    6.5248   -0.0000 </r>
       <r>    6.5671   -0.0000 </r>
       <r>    7.7941   -0.0000 </r>
       <r>    7.8919   -0.0000 </r>
       <r>   10.3941   -0.0000 </r>
       <r>   18.1997    0.0000 </r>
       <r>   20.3637    0.0000 </r>
       <r>   23.7841    0.0000 </r>
       <r>   23.9225    0.0000 </r>
       <r>   26.5740    0.0000 </r>
       <r>   27.0485    0.0000 </r>
       <r>   27.6574    0.0000 </r>
       <r>   31.4615    0.0000 </r>
      </set>
      <set comment="kpoint 9">
       <r>    1.2741    1.0000 </r>
       <r>    2.4720    1.0000 </r>
       <r>    4.5643    1.0000 </r>
       <r>    5.0964    1.0000 </r>
       <r>    5.2954    1.0003 </r>
       <r>    5.6236    1.0342 </r>
       <r>    6.2071   -0.0154 </r>
       <r>    6.2439   -0.0091 </r>
       <r>    6.9194   -0.0000 </r>
       <r>    7.3808   -0.0000 </r>
       <r>    8.2022   -0.0000 </r>
       <r>    8.8970   -0.0000 </r>
       <r>   20.0146    0.0000 </r>
       <r>   21.9245    0.0000 </r>
       <r>   22.6310    0.0000 </r>
       <r>   24.4253    0.0000 </r>
       <r>   25.1194    0.0000 </r>
       <r>   25.4895    0.0000 </r>
       <r>   27.7074    0.0000 </r>
       <r>   29.3464    0.0000 </r>
      </set>
      <set comment="kpoint 10">
       <r>   -0.5025    1.0000 </r>
       <r>    3.3518    1.0000 </r>
       <r>    3.6549    1.0000 </r>
       <r>    4.8818    1.0000 </r>
       <r>    5.2010    1.0000 </r>
       <r>    6.0961   -0.0355 </r>
       <r>    6.5404   -0.0000 </r>
       <r>    6.6605   -0.0000 </r>
       <r>    7.1784   -0.0000 </r>
       <r>    7.5937   -0.0000 </r>
       <r>    8.2721   -0.0000 </r>
       <r>   12.6412    0.0000 </r>
       <r>   14.9510    0.0000 </r>
       <r>   19.5529    0.0000 </r>
       <r>   23.6027    0.0000 </r>
       <r>   23.6721    0.0000 </r>
       <r>   27.8587    0.0000 </r>
       <r>   28.0582    0.0000 </r>
       <r>   30.2542    0.0000 </r>
       <r>   31.7118    0.0000 </r>
      </set>
      <set comment="kpoint 11">
       <r>    0.5030    1.0000 </r>
       <r>    3.1820    1.0000 </r>
       <r>    4.1412    1.0000 </r>
       <r>    4.7345    1.0000 </r>
       <r>    5.0979    1.0000 </r>
       <r>    5.4726    1.0110 </r>
       <r>    6.5191   -0.0000 </r>
       <r>    7.0018   -0.0000 </r>
       <r>    7.0347   -0.0000 </r>
       <r>    7.7653   -0.0000 </r>
       <r>    8.1990   -0.0000 </r>
       <r>   10.7726   -0.0000 </r>
       <r>   15.7685    0.0000 </r>
       <r>   21.2185    0.0000 </r>
       <r>   21.2409    0.0000 </r>
       <r>   23.9296    0.0000 </r>
       <r>   26.5281    0.0000 </r>
       <r>   28.3260    0.0000 </r>
       <r>   29.8439    0.0000 </r>
       <r>   32.0495    0.0000 </r>
      </set>
      <set comment="kpoint 12">
       <r>    1.6273    1.0000 </r>
       <r>    2.5888    1.0000 </r>
       <r>    4.6361    1.0000 </r>
       <r>    4.7704    1.0000 </r>
       <r>    4.9699    1.0000 </r>
       <r>    5.0167    1.0000 </r>
       <r>    6.6435   -0.0000 </r>
       <r>    6.7956   -0.0000 </r>
       <r>    7.5109   -0.0000 </r>
       <r>    7.9204   -0.0000 </r>
       <r>    8.1271   -0.0000 </r>
       <r>    9.0476   -0.0000 </r>
       <r>   17.3038    0.0000 </r>
       <r>   19.1338    0.0000 </r>
       <r>   23.3176    0.0000 </r>
       <r>   24.4165    0.0000 </r>
       <r>   25.2813    0.0000 </r>
       <r>   25.7273    0.0000 </r>
       <r>   31.2980    0.0000 </r>
       <r>   32.8165    0.0000 </r>
      </set>
      <set comment="kpoint 13">
       <r>    1.2467    1.0000 </r>
       <r>    2.9127    1.0000 </r>
       <r>    4.4554    1.0000 </r>
       <r>    4.6977    1.0000 </r>
       <r>    4.9051    1.0000 </r>
       <r>    5.1755    1.0000 </r>
       <r>    6.7112   -0.0000 </r>
       <r>    7.2503   -0.0000 </r>
       <r>    7.5710   -0.0000 </r>
       <r>    7.6884   -0.0000 </r>
       <r>    8.3747   -0.0000 </r>
       <r>   10.3392   -0.0000 </r>
       <r>   14.6902    0.0000 </r>
       <r>   18.8212    0.0000 </r>
       <r>   22.5967    0.0000 </r>
       <r>   24.0275    0.0000 </r>
       <r>   25.7196    0.0000 </r>
       <r>   28.7259    0.0000 </r>
       <r>   30.0370    0.0000 </r>
       <r>   32.9547    0.0000 </r>
      </set>
      <set comment="kpoint 14">
       <r>    1.9411    1.0000 </r>
       <r>    2.4833    1.0000 </r>
       <r>    4.3770    1.0000 </r>
       <r>    4.5275    1.0000 </r>
       <r>    5.2465    1.0001 </r>
       <r>    5.4072    1.0036 </r>
       <r>    7.0132   -0.0000 </r>
       <r>    7.2114   -0.0000 </r>
       <r>    7.9576   -0.0000 </r>
       <r>    8.0117   -0.0000 </r>
       <r>    8.2987   -0.0000 </r>
       <r>    8.9616   -0.0000 </r>
       <r>   15.3369    0.0000 </r>
       <r>   16.8194    0.0000 </r>
       <r>   24.3043    0.0000 </r>
       <r>   24.4215    0.0000 </r>
       <r>   24.8846    0.0000 </r>
       <r>   26.5918    0.0000 </r>
       <r>   31.1518    0.0000 </r>
       <r>   32.9121    0.0000 </r>
      </set>
      <set comment="kpoint 15">
       <r>    2.1233    1.0000 </r>
       <r>    2.2881    1.0000 </r>
       <r>    4.1901    1.0000 </r>
       <r>    4.2404    1.0000 </r>
       <r>    6.0563   -0.0273 </r>
       <r>    6.1800   -0.0212 </r>
       <r>    7.2757   -0.0000 </r>
       <r>    7.3656   -0.0000 </r>
       <r>    7.7722   -0.0000 </r>
       <r>    8.3141   -0.0000 </r>
       <r>    8.3383   -0.0000 </r>
       <r>    8.4419   -0.0000 </r>
       <r>   14.6276    0.0000 </r>
       <r>   15.2254    0.0000 </r>
       <r>   24.2895    0.0000 </r>
       <r>   24.4934    0.0000 </r>
       <r>   25.8265    0.0000 </r>
       <r>   26.9732    0.0000 </r>
       <r>   29.9309    0.0000 </r>
       <r>   30.9325    0.0000 </r>
      </set>
      <set comment="kpoint 16">
       <r>   -1.6615    1.0000 </r>
       <r>    3.1358    1.0000 </r>
       <r>    3.1359    1.0000 </r>
       <r>    5.2434    1.0001 </r>
       <r>    5.2435    1.0001 </r>
       <r>    5.9589    0.1110 </r>
       <r>    6.8896   -0.0000 </r>
       <r>    7.4356   -0.0000 </r>
       <r>    7.4358   -0.0000 </r>
       <r>    7.9187   -0.0000 </r>
       <r>    7.9188   -0.0000 </r>
       <r>   15.3754    0.0000 </r>
       <r>   15.3755    0.0000 </r>
       <r>   16.2538    0.0000 </r>
       <r>   24.4441    0.0000 </r>
       <r>   24.4441    0.0000 </r>
       <r>   28.0652    0.0000 </r>
       <r>   28.0652    0.0000 </r>
       <r>   29.9269    0.0000 </r>
       <r>   31.3895    0.0000 </r>
      </set>
      <set comment="kpoint 17">
       <r>   -0.9438    1.0000 </r>
       <r>    3.3240    1.0000 </r>
       <r>    3.4514    1.0000 </r>
       <r>    5.0742    1.0000 </r>
       <r>    5.1560    1.0000 </r>
       <r>    6.1994   -0.0169 </r>
       <r>    6.3415   -0.0015 </r>
       <r>    7.1416   -0.0000 </r>
       <r>    7.3373   -0.0000 </r>
       <r>    7.6184   -0.0000 </r>
       <r>    7.9852   -0.0000 </r>
       <r>   12.9814    0.0000 </r>
       <r>   16.6003    0.0000 </r>
       <r>   17.1422    0.0000 </r>
       <r>   24.8236    0.0000 </r>
       <r>   25.7335    0.0000 </r>
       <r>   26.1033    0.0000 </r>
       <r>   26.9417    0.0000 </r>
       <r>   31.2728    0.0000 </r>
       <r>   31.5519    0.0000 </r>
      </set>
      <set comment="kpoint 18">
       <r>    0.1508    1.0000 </r>
       <r>    3.2566    1.0000 </r>
       <r>    3.9208    1.0000 </r>
       <r>    5.0378    1.0000 </r>
       <r>    5.0391    1.0000 </r>
       <r>    5.6907    0.9914 </r>
       <r>    6.7348   -0.0000 </r>
       <r>    6.7618   -0.0000 </r>
       <r>    6.7872   -0.0000 </r>
       <r>    7.8162   -0.0000 </r>
       <r>    7.8539   -0.0000 </r>
       <r>   10.6835   -0.0000 </r>
       <r>   18.2024    0.0000 </r>
       <r>   18.6290    0.0000 </r>
       <r>   23.6275    0.0000 </r>
       <r>   24.7720    0.0000 </r>
       <r>   25.5319    0.0000 </r>
       <r>   27.1144    0.0000 </r>
       <r>   29.9474    0.0000 </r>
       <r>   30.9173    0.0000 </r>
      </set>
      <set comment="kpoint 19">
       <r>    1.4345    1.0000 </r>
       <r>    2.5899    1.0000 </r>
       <r>    4.4391    1.0000 </r>
       <r>    4.8368    1.0000 </r>
       <r>    5.1737    1.0000 </r>
       <r>    5.4104    1.0039 </r>
       <r>    6.4032   -0.0003 </r>
       <r>    6.4041   -0.0003 </r>
       <r>    7.2277   -0.0000 </r>
       <r>    7.5500   -0.0000 </r>
       <r>    8.2142   -0.0000 </r>
       <r>    9.0610   -0.0000 </r>
       <r>   19.9438    0.0000 </r>
       <r>   20.4250    0.0000 </r>
       <r>   21.7348    0.0000 </r>
       <r>   22.4847    0.0000 </r>
       <r>   26.6506    0.0000 </r>
       <r>   28.1660    0.0000 </r>
       <r>   28.1909    0.0000 </r>
       <r>   29.5591    0.0000 </r>
      </set>
      <set comment="kpoint 20">
       <r>   -0.2744    1.0000 </r>
       <r>    3.5017    1.0000 </r>
       <r>    3.7057    1.0000 </r>
       <r>    4.8204    1.0000 </r>
       <r>    4.9861    1.0000 </r>
       <r>    5.5285    1.0223 </r>
       <r>    6.8316   -0.0000 </r>
       <r>    7.1140   -0.0000 </r>
       <r>    7.2541   -0.0000 </r>
       <r>    7.5584   -0.0000 </r>
       <r>    8.0227   -0.0000 </r>
       <r>   13.1116    0.0000 </r>
       <r>   15.0170    0.0000 </r>
       <r>   17.7938    0.0000 </r>
       <r>   23.6725    0.0000 </r>
       <r>   25.6883    0.0000 </r>
       <r>   26.0755    0.0000 </r>
       <r>   28.2224    0.0000 </r>
       <r>   29.2744    0.0000 </r>
       <r>   31.8767    0.0000 </r>
      </set>
      <set comment="kpoint 21">
       <r>    0.7156    1.0000 </r>
       <r>    3.3524    1.0000 </r>
       <r>    4.0989    1.0000 </r>
       <r>    4.6589    1.0000 </r>
       <r>    4.8737    1.0000 </r>
       <r>    5.1300    1.0000 </r>
       <r>    6.8169   -0.0000 </r>
       <r>    7.0752   -0.0000 </r>
       <r>    7.3571   -0.0000 </r>
       <r>    7.7580   -0.0000 </r>
       <r>    7.9898   -0.0000 </r>
       <r>   11.1933   -0.0000 </r>
       <r>   15.8706    0.0000 </r>
       <r>   19.0757    0.0000 </r>
       <r>   21.3400    0.0000 </r>
       <r>   24.4942    0.0000 </r>
       <r>   26.3218    0.0000 </r>
       <r>   28.5477    0.0000 </r>
       <r>   29.9231    0.0000 </r>
       <r>   31.3929    0.0000 </r>
      </set>
      <set comment="kpoint 22">
       <r>    1.8120    1.0000 </r>
       <r>    2.7505    1.0000 </r>
       <r>    4.4159    1.0000 </r>
       <r>    4.5781    1.0000 </r>
       <r>    4.8781    1.0000 </r>
       <r>    4.9802    1.0000 </r>
[...]
       </set>
       <set comment="band 16">
        <r>  0.0000  0.0732  0.0000  0.0732  0.0000  0.0949  0.0000  0.0949  0.0033 </r>
        <r>  0.0000  0.0732  0.0000  0.0732  0.0000  0.0949  0.0000  0.0949  0.0033 </r>
       </set>
       <set comment="band 17">
        <r>  0.1310  0.0015  0.2181  0.0015  0.0174  0.0032  0.0202  0.0032  0.0000 </r>
        <r>  0.1310  0.0015  0.2181  0.0015  0.0174  0.0032  0.0202  0.0032  0.0000 </r>
       </set>
       <set comment="band 18">
        <r>  0.0673  0.0333  0.1453  0.0333  0.0196  0.0291  0.0065  0.0291  0.0000 </r>
        <r>  0.0673  0.0333  0.1453  0.0333  0.0196  0.0291  0.0065  0.0291  0.0000 </r>
       </set>
       <set comment="band 19">
        <r>  0.0051  0.0001  0.0088  0.0001  0.0007  0.1190  0.0541  0.1190  0.0000 </r>
        <r>  0.0051  0.0001  0.0088  0.0001  0.0007  0.1190  0.0541  0.1190  0.0000 </r>
       </set>
       <set comment="band 20">
        <r>  0.0000  0.0008  0.0000  0.0008  0.0000  0.1376  0.0000  0.1376  0.0014 </r>
        <r>  0.0000  0.0008  0.0000  0.0008  0.0000  0.1376  0.0000  0.1376  0.0014 </r>
       </set>
      </set>
      <set comment="kpoint 32">
       <set comment="band 1">
        <r>  0.1290  0.0439  0.0439  0.0439  0.0444  0.0443  0.0000  0.0443  0.0000 </r>
        <r>  0.1290  0.0439  0.0439  0.0439  0.0444  0.0443  0.0000  0.0443  0.0000 </r>
       </set>
       <set comment="band 2">
        <r>  0.0328  0.0010  0.0010  0.0010  0.1424  0.1423  0.0000  0.1423  0.0000 </r>
        <r>  0.0328  0.0010  0.0010  0.0010  0.1424  0.1423  0.0000  0.1423  0.0000 </r>
       </set>
       <set comment="band 3">
        <r>  0.0000  0.0044  0.0187  0.0050  0.2708  0.0722  0.0289  0.0634  0.0000 </r>
        <r>  0.0000  0.0044  0.0187  0.0050  0.2708  0.0722  0.0289  0.0634  0.0000 </r>
       </set>
       <set comment="band 4">
        <r>  0.0000  0.0143  0.0000  0.0137  0.0001  0.1987  0.0000  0.2075  0.0289 </r>
        <r>  0.0000  0.0143  0.0000  0.0137  0.0001  0.1987  0.0000  0.2075  0.0289 </r>
       </set>
       <set comment="band 5">
        <r>  0.0000  0.0179  0.0651  0.0147  0.1376  0.0312  0.1266  0.0378  0.0001 </r>
        <r>  0.0000  0.0179  0.0651  0.0147  0.1376  0.0312  0.1266  0.0378  0.0001 </r>
       </set>
       <set comment="band 6">
        <r>  0.0000  0.0473  0.0001  0.0504  0.0001  0.1066  0.0001  0.0999  0.1266 </r>
        <r>  0.0000  0.0473  0.0001  0.0504  0.0001  0.1066  0.0001  0.0999  0.1266 </r>
       </set>
       <set comment="band 7">
        <r>  0.0000  0.0006  0.0019  0.0004  0.1141  0.0230  0.3136  0.0347  0.0011 </r>
        <r>  0.0000  0.0006  0.0019  0.0004  0.1141  0.0230  0.3136  0.0347  0.0011 </r>
       </set>
       <set comment="band 8">
        <r>  0.0000  0.0014  0.0000  0.0016  0.0004  0.0915  0.0011  0.0799  0.3136 </r>
        <r>  0.0000  0.0014  0.0000  0.0016  0.0004  0.0915  0.0011  0.0799  0.3136 </r>
       </set>
       <set comment="band 9">
        <r>  0.0000  0.0000  0.0000  0.0000  0.0246  0.0045  0.4502  0.0080  0.0030 </r>
        <r>  0.0000  0.0000  0.0000  0.0000  0.0246  0.0045  0.4502  0.0080  0.0030 </r>
       </set>
       <set comment="band 10">
        <r>  0.0000  0.0000  0.0000  0.0000  0.0002  0.0202  0.0030  0.0167  0.4502 </r>
        <r>  0.0000  0.0000  0.0000  0.0000  0.0002  0.0202  0.0030  0.0167  0.4502 </r>
       </set>
       <set comment="band 11">
        <r>  0.0256  0.0207  0.0207  0.0207  0.1273  0.1273  0.0000  0.1273  0.0000 </r>
        <r>  0.0256  0.0207  0.0207  0.0207  0.1273  0.1273  0.0000  0.1273  0.0000 </r>
       </set>
       <set comment="band 12">
        <r>  0.0000  0.0362  0.1283  0.0282  0.1112  0.0244  0.0698  0.0314  0.0001 </r>
        <r>  0.0000  0.0362  0.1283  0.0282  0.1112  0.0244  0.0698  0.0314  0.0001 </r>
       </set>
       <set comment="band 13">
        <r>  0.0000  0.0923  0.0002  0.1003  0.0001  0.0869  0.0001  0.0799  0.0698 </r>
        <r>  0.0000  0.0923  0.0002  0.1003  0.0001  0.0869  0.0001  0.0799  0.0698 </r>
       </set>
       <set comment="band 14">
        <r>  0.2855  0.0003  0.0003  0.0003  0.0441  0.0441  0.0000  0.0441  0.0000 </r>
        <r>  0.2855  0.0003  0.0003  0.0003  0.0441  0.0441  0.0000  0.0441  0.0000 </r>
       </set>
       <set comment="band 15">
        <r>  0.0000  0.0277  0.1048  0.0248  0.1316  0.0311  0.0322  0.0347  0.0000 </r>
        <r>  0.0000  0.0277  0.1048  0.0248  0.1316  0.0311  0.0322  0.0347  0.0000 </r>
       </set>
       <set comment="band 16">
        <r>  0.0000  0.0772  0.0000  0.0800  0.0000  0.1005  0.0000  0.0969  0.0322 </r>
        <r>  0.0000  0.0772  0.0000  0.0800  0.0000  0.1005  0.0000  0.0969  0.0322 </r>
       </set>
       <set comment="band 17">
        <r>  0.2338  0.0536  0.0536  0.0536  0.0042  0.0042  0.0000  0.0042  0.0000 </r>
        <r>  0.2338  0.0536  0.0536  0.0536  0.0042  0.0042  0.0000  0.0042  0.0000 </r>
       </set>
       <set comment="band 18">
        <r>  0.0405  0.0681  0.0681  0.0681  0.0423  0.0423  0.0000  0.0423  0.0000 </r>
        <r>  0.0405  0.0681  0.0681  0.0681  0.0423  0.0423  0.0000  0.0423  0.0000 </r>
       </set>
       <set comment="band 19">
        <r>  0.0000  0.0187  0.0005  0.0131  0.0006  0.0165  0.0039  0.0235  0.1651 </r>
        <r>  0.0000  0.0187  0.0005  0.0131  0.0006  0.0165  0.0039  0.0235  0.1651 </r>
       </set>
       <set comment="band 20">
        <r>  0.0000  0.0028  0.0211  0.0084  0.0264  0.0106  0.1651  0.0036  0.0039 </r>
        <r>  0.0000  0.0028  0.0211  0.0084  0.0264  0.0106  0.1651  0.0036  0.0039 </r>
       </set>
      </set>
      <set comment="kpoint 33">
       <set comment="band 1">
        <r>  0.0698  0.0329  0.0329  0.0203  0.1251  0.0018  0.0038  0.1251  0.0113 </r>
        <r>  0.0698  0.0329  0.0329  0.0203  0.1251  0.0018  0.0038  0.1251  0.0113 </r>
       </set>
       <set comment="band 2">
        <r>  0.0380  0.0129  0.0129  0.0033  0.1592  0.0494  0.0039  0.1591  0.0118 </r>
        <r>  0.0380  0.0129  0.0129  0.0033  0.1592  0.0494  0.0039  0.1591  0.0118 </r>
       </set>
       <set comment="band 3">
        <r>  0.0000  0.0243  0.0243  0.0000  0.1776  0.0000  0.0371  0.1776  0.0124 </r>
        <r>  0.0000  0.0243  0.0243  0.0000  0.1776  0.0000  0.0371  0.1776  0.0124 </r>
       </set>
       <set comment="band 4">
        <r>  0.0000  0.0365  0.0365  0.0000  0.1448  0.0000  0.0600  0.1448  0.0200 </r>
        <r>  0.0000  0.0365  0.0365  0.0000  0.1448  0.0000  0.0600  0.1448  0.0200 </r>
       </set>
       <set comment="band 5">
        <r>  0.0086  0.0032  0.0033  0.0659  0.0130  0.3415  0.0001  0.0131  0.0002 </r>
        <r>  0.0086  0.0032  0.0033  0.0659  0.0130  0.3415  0.0001  0.0131  0.0002 </r>
       </set>
       <set comment="band 6">
        <r>  0.0027  0.0125  0.0125  0.0840  0.0008  0.2841  0.0094  0.0008  0.0283 </r>
        <r>  0.0027  0.0125  0.0125  0.0840  0.0008  0.2841  0.0094  0.0008  0.0283 </r>
       </set>
       <set comment="band 7">
        <r>  0.0000  0.0004  0.0004  0.0000  0.0534  0.0000  0.2865  0.0533  0.0954 </r>
        <r>  0.0000  0.0004  0.0004  0.0000  0.0534  0.0000  0.2865  0.0533  0.0954 </r>
       </set>
       <set comment="band 8">
        <r>  0.0000  0.0001  0.0001  0.0000  0.0324  0.0000  0.3189  0.0324  0.1061 </r>
        <r>  0.0000  0.0001  0.0001  0.0000  0.0324  0.0000  0.3189  0.0324  0.1061 </r>
       </set>
       <set comment="band 9">
        <r>  0.0008  0.0002  0.0002  0.0007  0.0212  0.0395  0.1020  0.0213  0.3063 </r>
        <r>  0.0008  0.0002  0.0002  0.0007  0.0212  0.0395  0.1020  0.0213  0.3063 </r>
       </set>
       <set comment="band 10">
        <r>  0.0006  0.0000  0.0000  0.0001  0.0122  0.0001  0.1167  0.0122  0.3507 </r>
        <r>  0.0006  0.0000  0.0000  0.0001  0.0122  0.0001  0.1167  0.0122  0.3507 </r>
       </set>
       <set comment="band 11">
        <r>  0.0328  0.0229  0.0229  0.0467  0.0945  0.1332  0.0022  0.0945  0.0065 </r>
        <r>  0.0328  0.0229  0.0229  0.0467  0.0945  0.1332  0.0022  0.0945  0.0065 </r>
       </set>
       <set comment="band 12">
        <r>  0.0249  0.0266  0.0266  0.0903  0.0619  0.1099  0.0093  0.0619  0.0278 </r>
        <r>  0.0249  0.0266  0.0266  0.0903  0.0619  0.1099  0.0093  0.0619  0.0278 </r>
       </set>
       <set comment="band 13">
        <r>  0.0000  0.0937  0.0937  0.0000  0.0909  0.0000  0.0386  0.0909  0.0129 </r>
        <r>  0.0000  0.0937  0.0937  0.0000  0.0909  0.0000  0.0386  0.0909  0.0129 </r>
       </set>
       <set comment="band 14">
        <r>  0.2450  0.0031  0.0031  0.0337  0.0334  0.0578  0.0000  0.0334  0.0001 </r>
        <r>  0.2450  0.0031  0.0031  0.0337  0.0334  0.0578  0.0000  0.0334  0.0001 </r>
       </set>
       <set comment="band 15">
        <r>  0.0000  0.0877  0.0877  0.0000  0.0962  0.0000  0.0299  0.0962  0.0100 </r>
        <r>  0.0000  0.0877  0.0877  0.0000  0.0962  0.0000  0.0299  0.0962  0.0100 </r>
       </set>
       <set comment="band 16">
        <r>  0.1618  0.0012  0.0012  0.1001  0.0348  0.0606  0.0008  0.0348  0.0023 </r>
        <r>  0.1618  0.0012  0.0012  0.1001  0.0348  0.0606  0.0008  0.0348  0.0023 </r>
       </set>
       <set comment="band 17">
        <r>  0.1144  0.0811  0.0811  0.0132  0.0140  0.0609  0.0017  0.0140  0.0050 </r>
        <r>  0.1144  0.0811  0.0811  0.0132  0.0140  0.0609  0.0017  0.0140  0.0050 </r>
       </set>
       <set comment="band 18">
        <r>  0.0665  0.0758  0.0758  0.0412  0.0308  0.0536  0.0003  0.0308  0.0010 </r>
        <r>  0.0665  0.0758  0.0758  0.0412  0.0308  0.0536  0.0003  0.0308  0.0010 </r>
       </set>
       <set comment="band 19">
        <r>  0.0000  0.0116  0.0116  0.0000  0.0334  0.0000  0.0891  0.0334  0.0297 </r>
        <r>  0.0000  0.0116  0.0116  0.0000  0.0334  0.0000  0.0891  0.0334  0.0297 </r>
       </set>
       <set comment="band 20">
        <r>  0.0000  0.0044  0.0044  0.0000  0.0354  0.0000  0.0377  0.0354  0.0126 </r>
        <r>  0.0000  0.0044  0.0044  0.0000  0.0354  0.0000  0.0377  0.0354  0.0126 </r>
       </set>
      </set>
      <set comment="kpoint 34">
       <set comment="band 1">
        <r>  0.0351  0.0044  0.0561  0.0044  0.3029  0.0013  0.0322  0.0013  0.0000 </r>
        <r>  0.0351  0.0044  0.0561  0.0044  0.3029  0.0013  0.0322  0.0013  0.0000 </r>
       </set>
       <set comment="band 2">
        <r>  0.0275  0.0004  0.0400  0.0004  0.2807  0.0361  0.0272  0.0361  0.0000 </r>
        <r>  0.0275  0.0004  0.0400  0.0004  0.2807  0.0361  0.0272  0.0361  0.0000 </r>
       </set>
       <set comment="band 3">
        <r>  0.0000  0.0169  0.0000  0.0169  0.0000  0.2127  0.0000  0.2127  0.0036 </r>
        <r>  0.0000  0.0169  0.0000  0.0169  0.0000  0.2127  0.0000  0.2127  0.0036 </r>
       </set>
       <set comment="band 4">
        <r>  0.0001  0.0171  0.0167  0.0171  0.0373  0.1737  0.0197  0.1737  0.0000 </r>
        <r>  0.0001  0.0171  0.0167  0.0171  0.0373  0.1737  0.0197  0.1737  0.0000 </r>
       </set>
       <set comment="band 5">
        <r>  0.0071  0.0604  0.0001  0.0604  0.0183  0.1405  0.0049  0.1405  0.0000 </r>
        <r>  0.0071  0.0604  0.0001  0.0604  0.0183  0.1405  0.0049  0.1405  0.0000 </r>
       </set>
       <set comment="band 6">
        <r>  0.0000  0.0646  0.0000  0.0646  0.0000  0.1417  0.0000  0.1417  0.0178 </r>
        <r>  0.0000  0.0646  0.0000  0.0646  0.0000  0.1417  0.0000  0.1417  0.0178 </r>
       </set>
       <set comment="band 7">
        <r>  0.0004  0.0000  0.0002  0.0000  0.0587  0.0031  0.4259  0.0031  0.0000 </r>
        <r>  0.0004  0.0000  0.0002  0.0000  0.0587  0.0031  0.4259  0.0031  0.0000 </r>
       </set>
       <set comment="band 8">
        <r>  0.0003  0.0000  0.0001  0.0000  0.0491  0.0008  0.4406  0.0008  0.0000 </r>
        <r>  0.0003  0.0000  0.0001  0.0000  0.0491  0.0008  0.4406  0.0008  0.0000 </r>
       </set>
       <set comment="band 9">
        <r>  0.0000  0.0002  0.0000  0.0002  0.0000  0.0134  0.0000  0.0134  0.4660 </r>
        <r>  0.0000  0.0002  0.0000  0.0002  0.0000  0.0134  0.0000  0.0134  0.4660 </r>
       </set>
       <set comment="band 10">
        <r>  0.0000  0.0000  0.0000  0.0000  0.0000  0.0024  0.0000  0.0024  0.4883 </r>
        <r>  0.0000  0.0000  0.0000  0.0000  0.0000  0.0024  0.0000  0.0024  0.4883 </r>
       </set>
       <set comment="band 11">
        <r>  0.0280  0.0572  0.0139  0.0572  0.0514  0.1155  0.0016  0.1155  0.0000 </r>
        <r>  0.0280  0.0572  0.0139  0.0572  0.0514  0.1155  0.0016  0.1155  0.0000 </r>
       </set>
       <set comment="band 12">
        <r>  0.0000  0.0883  0.0000  0.0883  0.0000  0.1188  0.0000  0.1188  0.0119 </r>
        <r>  0.0000  0.0883  0.0000  0.0883  0.0000  0.1188  0.0000  0.1188  0.0119 </r>
       </set>
       <set comment="band 13">
        <r>  0.1144  0.0064  0.0782  0.0064  0.1970  0.0015  0.0272  0.0015  0.0000 </r>
        <r>  0.1144  0.0064  0.0782  0.0064  0.1970  0.0015  0.0272  0.0015  0.0000 </r>
       </set>
       <set comment="band 14">
        <r>  0.0992  0.0286  0.0551  0.0286  0.1584  0.0149  0.0212  0.0149  0.0000 </r>
        <r>  0.0992  0.0286  0.0551  0.0286  0.1584  0.0149  0.0212  0.0149  0.0000 </r>
       </set>
       <set comment="band 15">
        <r>  0.1419  0.0362  0.0379  0.0362  0.0002  0.0707  0.0052  0.0707  0.0000 </r>
        <r>  0.1419  0.0362  0.0379  0.0362  0.0002  0.0707  0.0052  0.0707  0.0000 </r>
       </set>
       <set comment="band 16">
        <r>  0.0000  0.0825  0.0000  0.0825  0.0000  0.1076  0.0000  0.1076  0.0038 </r>
        <r>  0.0000  0.0825  0.0000  0.0825  0.0000  0.1076  0.0000  0.1076  0.0038 </r>
       </set>
       <set comment="band 17">
        <r>  0.2248  0.0026  0.1351  0.0026  0.0211  0.0021  0.0072  0.0021  0.0000 </r>
        <r>  0.2248  0.0026  0.1351  0.0026  0.0211  0.0021  0.0072  0.0021  0.0000 </r>
       </set>
       <set comment="band 18">
        <r>  0.1068  0.0419  0.0902  0.0419  0.0264  0.0377  0.0022  0.0377  0.0000 </r>
        <r>  0.1068  0.0419  0.0902  0.0419  0.0264  0.0377  0.0022  0.0377  0.0000 </r>
       </set>
       <set comment="band 19">
        <r>  0.0009  0.0002  0.0098  0.0002  0.0069  0.0574  0.0539  0.0574  0.0000 </r>
        <r>  0.0009  0.0002  0.0098  0.0002  0.0069  0.0574  0.0539  0.0574  0.0000 </r>
       </set>
       <set comment="band 20">
        <r>  0.0000  0.0000  0.0000  0.0000  0.0000  0.0688  0.0000  0.0688  0.0023 </r>
        <r>  0.0000  0.0000  0.0000  0.0000  0.0000  0.0688  0.0000  0.0688  0.0023 </r>
       </set>
      </set>
      <set comment="kpoint 35">
       <set comment="band 1">
        <r>  0.0081  0.0147  0.0147  0.0147  0.1347  0.1346  0.0000  0.1346  0.0000 </r>
        <r>  0.0081  0.0147  0.0147  0.0147  0.1347  0.1346  0.0000  0.1346  0.0000 </r>
       </set>
       <set comment="band 2">
        <r>  0.0000  0.0090  0.0395  0.0108  0.2586  0.0707  0.0062  0.0586  0.0000 </r>
        <r>  0.0000  0.0090  0.0395  0.0108  0.2586  0.0707  0.0062  0.0586  0.0000 </r>
       </set>
       <set comment="band 3">
        <r>  0.0000  0.0305  0.0000  0.0287  0.0002  0.1878  0.0000  0.1999  0.0062 </r>
        <r>  0.0000  0.0305  0.0000  0.0287  0.0002  0.1878  0.0000  0.1999  0.0062 </r>
       </set>
       <set comment="band 4">
        <r>  0.0135  0.0358  0.0357  0.0358  0.1043  0.1045  0.0000  0.1045  0.0000 </r>
        <r>  0.0135  0.0358  0.0357  0.0358  0.1043  0.1045  0.0000  0.1045  0.0000 </r>
       </set>
       <set comment="band 5">
        <r>  0.0000  0.0140  0.0607  0.0165  0.2274  0.0617  0.0102  0.0523  0.0000 </r>
        <r>  0.0000  0.0140  0.0607  0.0165  0.2274  0.0617  0.0102  0.0523  0.0000 </r>
       </set>
       <set comment="band 6">
        <r>  0.0000  0.0468  0.0000  0.0443  0.0001  0.1659  0.0000  0.1753  0.0102 </r>
        <r>  0.0000  0.0468  0.0000  0.0443  0.0001  0.1659  0.0000  0.1753  0.0102 </r>
       </set>
       <set comment="band 7">
        <r>  0.0000  0.0000  0.0000  0.0000  0.0097  0.0018  0.4751  0.0032  0.0035 </r>
        <r>  0.0000  0.0000  0.0000  0.0000  0.0097  0.0018  0.4751  0.0032  0.0035 </r>
       </set>
       <set comment="band 8">
        <r>  0.0000  0.0000  0.0000  0.0000  0.0001  0.0080  0.0035  0.0066  0.4751 </r>
        <r>  0.0000  0.0000  0.0000  0.0000  0.0001  0.0080  0.0035  0.0066  0.4751 </r>
       </set>
       <set comment="band 9">
        <r>  0.0000  0.0000  0.0000  0.0000  0.0056  0.0010  0.4813  0.0019  0.0036 </r>
        <r>  0.0000  0.0000  0.0000  0.0000  0.0056  0.0010  0.4813  0.0019  0.0036 </r>
       </set>
       <set comment="band 10">
        <r>  0.0000  0.0000  0.0000  0.0000  0.0000  0.0046  0.0036  0.0038  0.4813 </r>
        <r>  0.0000  0.0000  0.0000  0.0000  0.0000  0.0046  0.0036  0.0038  0.4813 </r>
       </set>
       <set comment="band 11">
        <r>  0.0322  0.0485  0.0485  0.0485  0.0836  0.0836  0.0000  0.0836  0.0000 </r>
        <r>  0.0322  0.0485  0.0485  0.0485  0.0836  0.0836  0.0000  0.0836  0.0000 </r>
       </set>
       <set comment="band 12">
        <r>  0.0000  0.0266  0.1220  0.0346  0.1505  0.0427  0.0073  0.0329  0.0000 </r>
        <r>  0.0000  0.0266  0.1220  0.0346  0.1505  0.0427  0.0073  0.0329  0.0000 </r>
       </set>
       <set comment="band 13">
        <r>  0.0000  0.0956  0.0002  0.0876  0.0002  0.1080  0.0000  0.1178  0.0073 </r>
        <r>  0.0000  0.0956  0.0002  0.0876  0.0002  0.1080  0.0000  0.1178  0.0073 </r>
       </set>
       <set comment="band 14">
        <r>  0.2132  0.0175  0.0175  0.0175  0.0491  0.0491  0.0000  0.0491  0.0000 </r>
        <r>  0.2132  0.0175  0.0175  0.0175  0.0491  0.0491  0.0000  0.0491  0.0000 </r>
       </set>
       <set comment="band 15">
        <r>  0.0000  0.0247  0.1187  0.0351  0.1473  0.0436  0.0050  0.0306  0.0000 </r>
        <r>  0.0000  0.0247  0.1187  0.0351  0.1473  0.0436  0.0050  0.0306  0.0000 </r>
       </set>
       <set comment="band 16">
        <r>  0.0000  0.0943  0.0003  0.0839  0.0004  0.1041  0.0000  0.1170  0.0050 </r>
        <r>  0.0000  0.0943  0.0003  0.0839  0.0004  0.1041  0.0000  0.1170  0.0050 </r>
       </set>
       <set comment="band 17">
        <r>  0.3577  0.0145  0.0145  0.0145  0.0006  0.0006  0.0000  0.0006  0.0000 </r>
        <r>  0.3577  0.0145  0.0145  0.0145  0.0006  0.0006  0.0000  0.0006  0.0000 </r>
       </set>
       <set comment="band 18">
        <r>  0.1810  0.0429  0.0429  0.0429  0.0284  0.0284  0.0000  0.0284  0.0000 </r>
        <r>  0.1810  0.0429  0.0429  0.0429  0.0284  0.0284  0.0000  0.0284  0.0000 </r>
       </set>
       <set comment="band 19">
        <r>  0.0000  0.0057  0.0000  0.0051  0.0001  0.0251  0.0001  0.0281  0.0415 </r>
        <r>  0.0000  0.0057  0.0000  0.0051  0.0001  0.0251  0.0001  0.0281  0.0415 </r>
       </set>
       <set comment="band 20">
        <r>  0.0000  0.0015  0.0072  0.0021  0.0354  0.0104  0.0415  0.0074  0.0001 </r>
        <r>  0.0000  0.0015  0.0072  0.0021  0.0355  0.0104  0.0415  0.0074  0.0001 </r>
       </set>
      </set>
     </set>
    </set>
   </array>
  </projected>
 </calculation>
 <structure name="finalpos" >
  <crystal>
   <varray name="basis" >
    <v>       2.82789267      -0.00000000       0.00000000 </v>
    <v>       0.00000000       2.82789267       0.00000000 </v>
    <v>       0.00000000      -0.00000000       2.82789267 </v>
   </varray>
   <i name="volume">     22.61459252 </i>
   <varray name="rec_basis" >
    <v>       0.35362021      -0.00000000      -0.00000000 </v>
    <v>       0.00000000       0.35362021       0.00000000 </v>
    <v>      -0.00000000      -0.00000000       0.35362021 </v>
   </varray>
  </crystal>
  <varray name="positions" >
   <v>      -0.00000000       0.00000000       0.00000000 </v>
   <v>       0.50000000       0.50000000       0.50000000 </v>
  </varray>
 </structure>
</modeling>
