   2   2   0   0
  0.2104920E+02  0.3904752E-09  0.3904753E-09  0.3904752E-09  0.5000000E-15
  1.000000000000000E-004
  CAR 
 unknown system                          
     15.84058894     -7.32126411  301      5.49737394      1.00000000
     -7.321  0.0000E+00  0.0000E+00
     -7.244  0.0000E+00  0.0000E+00
     -7.167  0.0000E+00  0.0000E+00
     -7.090  0.0000E+00  0.0000E+00
     -7.012  0.0000E+00  0.0000E+00
     -6.935  0.0000E+00  0.0000E+00
     -6.858  0.0000E+00  0.0000E+00
     -6.781  0.0000E+00  0.0000E+00
     -6.704  0.0000E+00  0.0000E+00
     -6.626  0.0000E+00  0.0000E+00
     -6.549  0.2996E-18  0.2313E-19
     -6.472  0.1283E-11  0.9906E-13
     -6.395  0.5291E-07  0.4085E-08
     -6.318  0.2571E-04  0.1989E-05
     -6.240  0.3935E-03  0.3237E-04
     -6.163  0.1071E-02  0.1151E-03
     -6.086  0.1444E-02  0.2266E-03
     -6.009  0.1970E-02  0.3786E-03
     -5.932  0.1795E-02  0.5172E-03
     -5.854  0.2803E-02  0.7336E-03
     -5.777  0.2231E-02  0.9059E-03
     -5.700  0.2859E-02  0.1127E-02
     -5.623  0.3064E-02  0.1363E-02
     -5.546  0.3481E-02  0.1632E-02
     -5.468  0.3210E-02  0.1880E-02
     -5.391  0.2959E-02  0.2108E-02
     -5.314  0.4859E-02  0.2483E-02
     -5.237  0.3797E-02  0.2777E-02
     -5.159  0.3834E-02  0.3073E-02
     -5.082  0.3766E-02  0.3363E-02
     -5.005  0.5578E-02  0.3794E-02
     -4.928  0.4221E-02  0.4120E-02
     -4.851  0.5441E-02  0.4540E-02
     -4.773  0.4785E-02  0.4909E-02
     -4.696  0.4767E-02  0.5278E-02
     -4.619  0.5279E-02  0.5685E-02
     -4.542  0.6887E-02  0.6217E-02
     -4.465  0.6725E-02  0.6736E-02
     -4.387  0.4982E-02  0.7121E-02
     -4.310  0.6414E-02  0.7616E-02
     -4.233  0.6804E-02  0.8141E-02
     -4.156  0.8618E-02  0.8806E-02
     -4.079  0.8016E-02  0.9425E-02
     -4.001  0.9103E-02  0.1013E-01
     -3.924  0.1155E-01  0.1102E-01
     -3.847  0.5180E-02  0.1142E-01
     -3.770  0.8656E-02  0.1209E-01
     -3.693  0.9720E-02  0.1284E-01
     -3.615  0.7519E-02  0.1342E-01
     -3.538  0.7257E-02  0.1398E-01
     -3.461  0.8924E-02  0.1467E-01
     -3.384  0.8059E-02  0.1529E-01
     -3.307  0.4372E-02  0.1563E-01
     -3.229  0.3836E-02  0.1592E-01
     -3.152  0.7124E-02  0.1647E-01
     -3.075  0.8731E-02  0.1715E-01
     -2.998  0.6819E-02  0.1767E-01
     -2.921  0.5307E-02  0.1808E-01
     -2.843  0.2821E-02  0.1830E-01
     -2.766  0.2631E-02  0.1851E-01
     -2.689  0.2834E-02  0.1872E-01
     -2.612  0.5511E-02  0.1915E-01
     -2.534  0.5825E-02  0.1960E-01
     -2.457  0.3524E-02  0.1987E-01
     -2.380  0.1614E-02  0.2000E-01
     -2.303  0.5010E-04  0.2000E-01
     -2.226  0.3046E-07  0.2000E-01
     -2.148  0.6450E-07  0.2000E-01
     -2.071  0.8697E-04  0.2001E-01
     -1.994  0.2888E-02  0.2023E-01
     -1.917  0.7608E-02  0.2082E-01
     -1.840  0.3837E-02  0.2111E-01
     -1.762  0.2167E-02  0.2128E-01
     -1.685  0.2624E-02  0.2148E-01
     -1.608  0.1943E-02  0.2163E-01
     -1.531  0.3766E-02  0.2192E-01
     -1.454  0.7444E-02  0.2250E-01
     -1.376  0.1396E-01  0.2358E-01
     -1.299  0.1350E-01  0.2462E-01
     -1.222  0.1427E-01  0.2572E-01
     -1.145  0.1202E-01  0.2665E-01
     -1.068  0.8224E-02  0.2728E-01
     -0.990  0.8869E-02  0.2797E-01
     -0.913  0.1027E-01  0.2876E-01
     -0.836  0.4783E-02  0.2913E-01
     -0.759  0.7653E-02  0.2972E-01
     -0.682  0.1108E-01  0.3058E-01
     -0.604  0.4550E-02  0.3093E-01
     -0.527  0.2215E-02  0.3110E-01
     -0.450  0.4087E-02  0.3141E-01
     -0.373  0.8467E-02  0.3207E-01
     -0.296  0.5589E-02  0.3250E-01
     -0.218  0.1489E-02  0.3261E-01
     -0.141  0.3506E-02  0.3288E-01
     -0.064  0.5888E-02  0.3334E-01
      0.013  0.7878E-02  0.3395E-01
      0.091  0.2050E-02  0.3411E-01
      0.168  0.1536E-02  0.3422E-01
      0.245  0.2348E-02  0.3441E-01
      0.322  0.2893E-02  0.3463E-01
      0.399  0.7001E-02  0.3517E-01
      0.477  0.2729E-02  0.3538E-01
      0.554  0.6793E-03  0.3543E-01
      0.631  0.2655E-02  0.3564E-01
      0.708  0.3283E-02  0.3589E-01
      0.785  0.3731E-02  0.3618E-01
      0.863  0.3441E-02  0.3644E-01
      0.940  0.9429E-03  0.3652E-01
      1.017  0.1358E-02  0.3662E-01
      1.094  0.1535E-02  0.3674E-01
      1.171  0.2761E-02  0.3695E-01
      1.249  0.8141E-02  0.3758E-01
      1.326  0.8118E-02  0.3821E-01
      1.403  0.8063E-02  0.3883E-01
      1.480  0.1453E-01  0.3995E-01
      1.557  0.1151E-01  0.4084E-01
      1.635  0.1122E-01  0.4171E-01
      1.712  0.1154E-01  0.4260E-01
      1.789  0.1193E-01  0.4352E-01
      1.866  0.1112E-01  0.4438E-01
      1.943  0.1049E-01  0.4519E-01
      2.021  0.8041E-02  0.4581E-01
      2.098  0.1162E-01  0.4671E-01
      2.175  0.1284E-01  0.4770E-01
      2.252  0.1359E-01  0.4875E-01
      2.330  0.8907E-02  0.4943E-01
      2.407  0.1169E-01  0.5034E-01
      2.484  0.1366E-01  0.5139E-01
      2.561  0.1267E-01  0.5237E-01
      2.638  0.1540E-01  0.5356E-01
      2.716  0.1595E-01  0.5479E-01
      2.793  0.1789E-01  0.5617E-01
      2.870  0.1489E-01  0.5732E-01
      2.947  0.1503E-01  0.5848E-01
      3.024  0.1179E-01  0.5939E-01
      3.102  0.1584E-01  0.6062E-01
      3.179  0.1662E-01  0.6190E-01
      3.256  0.1558E-01  0.6310E-01
      3.333  0.1326E-01  0.6413E-01
      3.410  0.1110E-01  0.6498E-01
      3.488  0.1379E-01  0.6605E-01
      3.565  0.1512E-01  0.6721E-01
      3.642  0.1436E-01  0.6832E-01
      3.719  0.1203E-01  0.6925E-01
      3.796  0.1207E-01  0.7018E-01
      3.874  0.1252E-01  0.7115E-01
      3.951  0.1229E-01  0.7210E-01
      4.028  0.1405E-01  0.7318E-01
      4.105  0.1071E-01  0.7401E-01
      4.182  0.9168E-02  0.7472E-01
      4.260  0.1238E-01  0.7567E-01
      4.337  0.9850E-02  0.7644E-01
      4.414  0.5516E-02  0.7686E-01
      4.491  0.5368E-02  0.7728E-01
      4.568  0.5630E-02  0.7771E-01
      4.646  0.6065E-02  0.7818E-01
      4.723  0.5052E-02  0.7857E-01
      4.800  0.3696E-02  0.7885E-01
      4.877  0.2988E-02  0.7908E-01
      4.955  0.3407E-02  0.7935E-01
      5.032  0.2048E-02  0.7951E-01
      5.109  0.2990E-02  0.7974E-01
      5.186  0.1612E-02  0.7986E-01
      5.263  0.1066E-02  0.7994E-01
      5.341  0.6762E-03  0.8000E-01
      5.418  0.5961E-04  0.8000E-01
      5.495  0.1449E-06  0.8000E-01
      5.572  0.4181E-11  0.8000E-01
      5.649  0.1198E-17  0.8000E-01
      5.727  0.0000E+00  0.8000E-01
      5.804  0.1188E-16  0.8000E-01
      5.881  0.2898E-10  0.8000E-01
      5.958  0.7138E-06  0.8000E-01
      6.035  0.2169E-03  0.8002E-01
      6.113  0.1700E-02  0.8015E-01
      6.190  0.1523E-02  0.8027E-01
      6.267  0.1200E-02  0.8036E-01
      6.344  0.5153E-02  0.8076E-01
      6.421  0.3854E-02  0.8105E-01
      6.499  0.4195E-02  0.8138E-01
      6.576  0.5183E-02  0.8178E-01
      6.653  0.3170E-02  0.8202E-01
      6.730  0.5068E-02  0.8241E-01
      6.807  0.8344E-02  0.8306E-01
      6.885  0.1006E-01  0.8383E-01
      6.962  0.6324E-02  0.8432E-01
      7.039  0.7917E-02  0.8493E-01
      7.116  0.9331E-02  0.8565E-01
      7.193  0.1077E-01  0.8649E-01
      7.271  0.1029E-01  0.8728E-01
      7.348  0.1512E-01  0.8845E-01
      7.425  0.1115E-01  0.8931E-01
      7.502  0.1713E-01  0.9063E-01
      7.580  0.2025E-01  0.9219E-01
      7.657  0.1585E-01  0.9342E-01
      7.734  0.1374E-01  0.9448E-01
      7.811  0.1422E-01  0.9558E-01
      7.888  0.1497E-01  0.9673E-01
      7.966  0.1255E-01  0.9770E-01
      8.043  0.1431E-01  0.9881E-01
      8.120  0.9787E-02  0.9956E-01
      8.197  0.1273E-01  0.1005E+00
      8.274  0.1298E-01  0.1015E+00
      8.352  0.8018E-02  0.1022E+00
      8.429  0.1084E-01  0.1030E+00
      8.506  0.1015E-01  0.1038E+00
      8.583  0.1606E-01  0.1050E+00
      8.660  0.2830E-01  0.1072E+00
      8.738  0.2030E-01  0.1088E+00
      8.815  0.2057E-01  0.1104E+00
      8.892  0.1927E-01  0.1119E+00
      8.969  0.1648E-01  0.1131E+00
      9.046  0.1911E-01  0.1146E+00
      9.124  0.1696E-01  0.1159E+00
      9.201  0.1302E-01  0.1169E+00
      9.278  0.1291E-01  0.1179E+00
      9.355  0.1302E-01  0.1189E+00
      9.432  0.1422E-01  0.1200E+00
      9.510  0.1120E-01  0.1209E+00
      9.587  0.1166E-01  0.1218E+00
      9.664  0.1631E-01  0.1230E+00
      9.741  0.1038E-01  0.1238E+00
      9.819  0.1101E-01  0.1247E+00
      9.896  0.1803E-01  0.1261E+00
      9.973  0.1461E-01  0.1272E+00
     10.050  0.1176E-01  0.1281E+00
     10.127  0.1084E-01  0.1290E+00
     10.205  0.1407E-01  0.1300E+00
     10.282  0.1392E-01  0.1311E+00
     10.359  0.1171E-01  0.1320E+00
     10.436  0.1302E-01  0.1330E+00
     10.513  0.1279E-01  0.1340E+00
     10.591  0.1591E-01  0.1352E+00
     10.668  0.1033E-01  0.1360E+00
     10.745  0.8729E-02  0.1367E+00
     10.822  0.1134E-01  0.1376E+00
     10.899  0.1031E-01  0.1384E+00
     10.977  0.1205E-01  0.1393E+00
     11.054  0.1016E-01  0.1401E+00
     11.131  0.1396E-01  0.1412E+00
     11.208  0.1200E-01  0.1421E+00
     11.285  0.1011E-01  0.1429E+00
     11.363  0.1152E-01  0.1438E+00
     11.440  0.7706E-02  0.1444E+00
     11.517  0.8871E-02  0.1451E+00
     11.594  0.9425E-02  0.1458E+00
     11.671  0.7705E-02  0.1464E+00
     11.749  0.9322E-02  0.1471E+00
     11.826  0.1126E-01  0.1480E+00
     11.903  0.1298E-01  0.1490E+00
     11.980  0.9275E-02  0.1497E+00
     12.057  0.6888E-02  0.1502E+00
     12.135  0.1058E-01  0.1510E+00
     12.212  0.4411E-02  0.1514E+00
     12.289  0.3995E-02  0.1517E+00
     12.366  0.4880E-02  0.1521E+00
     12.444  0.9136E-02  0.1528E+00
     12.521  0.9495E-02  0.1535E+00
     12.598  0.7202E-02  0.1541E+00
     12.675  0.9419E-02  0.1548E+00
     12.752  0.5341E-02  0.1552E+00
     12.830  0.4014E-02  0.1555E+00
     12.907  0.5381E-02  0.1559E+00
     12.984  0.2382E-02  0.1561E+00
     13.061  0.3237E-02  0.1564E+00
     13.138  0.5813E-02  0.1568E+00
     13.216  0.5167E-02  0.1572E+00
     13.293  0.3623E-02  0.1575E+00
     13.370  0.7171E-02  0.1580E+00
     13.447  0.7163E-02  0.1586E+00
     13.524  0.1401E-02  0.1587E+00
     13.602  0.6797E-03  0.1587E+00
     13.679  0.2176E-04  0.1588E+00
     13.756  0.7229E-03  0.1588E+00
     13.833  0.2268E-02  0.1590E+00
     13.910  0.6738E-03  0.1590E+00
     13.988  0.7336E-03  0.1591E+00
     14.065  0.2258E-02  0.1593E+00
     14.142  0.4666E-02  0.1596E+00
     14.219  0.1245E-02  0.1597E+00
     14.296  0.1524E-04  0.1597E+00
     14.374  0.3711E-08  0.1597E+00
     14.451  0.8749E-06  0.1597E+00
     14.528  0.2375E-03  0.1597E+00
     14.605  0.1304E-02  0.1598E+00
     14.682  0.2815E-03  0.1599E+00
     14.760  0.7117E-03  0.1599E+00
     14.837  0.9816E-03  0.1600E+00
     14.914  0.8027E-04  0.1600E+00
     14.991  0.1601E-06  0.1600E+00
     15.069  0.3853E-11  0.1600E+00
     15.146  0.8987E-18  0.1600E+00
     15.223  0.0000E+00  0.1600E+00
     15.300  0.0000E+00  0.1600E+00
     15.377  0.0000E+00  0.1600E+00
     15.455  0.0000E+00  0.1600E+00
     15.532  0.0000E+00  0.1600E+00
     15.609  0.0000E+00  0.1600E+00
     15.686  0.0000E+00  0.1600E+00
     15.763  0.0000E+00  0.1600E+00
     15.841  0.0000E+00  0.1600E+00
