    2    2  100    1
  0.2104920E+02  0.3904752E-09  0.3904753E-09  0.3904752E-09  0.5000000E-15
  1.000000000000000E-004
  CAR 
 unknown system                          
      8    182      8
 
  0.4166667E-01  0.4166667E-01  0.4166667E-01  0.1157407E-02
    1       -6.268453   1.000000
    2        5.070028   1.000000
    3        5.294351   1.000000
    4        5.294354   1.000000
    5        7.892708   0.000000
    6        7.929264   0.000000
    7        7.929270   0.000000
    8        8.341259   0.000000
 
  0.1250000E+00  0.4166667E-01  0.4166667E-01  0.3472222E-02
    1       -6.152425   1.000000
    2        4.183311   1.000000
    3        4.895713   1.000000
    4        5.241984   1.000000
    5        7.904540   0.000000
    6        8.043069   0.000000
    7        8.204611   0.000000
    8        9.256373   0.000000
 
  0.2083333E+00  0.4166667E-01  0.4166667E-01  0.3472222E-02
    1       -5.866254   1.000000
    2        2.719923   1.000000
    3        4.539414   1.000000
    4        4.983572   1.000000
    5        7.606413   0.000000
    6        8.419348   0.000000
    7        8.698738   0.000000
    8       10.612187   0.000000
 
  0.2916667E+00  0.4166667E-01  0.4166667E-01  0.3472222E-02
    1       -5.422974   1.000000
    2        1.256696   1.000000
    3        4.252058   1.000000
    4        4.679095   1.000000
    5        7.293019   0.000000
    6        8.712074   0.000000
    7        8.954535   0.000000
    8       11.820542   0.000000
 
  0.3750000E+00  0.4166667E-01  0.4166667E-01  0.3472222E-02
    1       -4.858515   1.000000
    2       -0.054297   1.000000
    3        4.063104   1.000000
    4        4.415928   1.000000
    5        7.047564   0.000000
    6        8.770342   0.000000
    7        8.900593   0.000000
    8       12.792618   0.000000
 
  0.4583333E+00  0.4166667E-01  0.4166667E-01  0.3472222E-02
    1       -4.289014   1.000000
    2       -1.059414   1.000000
    3        3.982052   1.000000
    4        4.228916   1.000000
    5        6.901615   0.000000
    6        8.745615   0.000000
    7        8.749140   0.000000
    8       13.088152   0.000000
 
 -0.4583333E+00  0.4166667E-01  0.4166667E-01  0.3472222E-02
    1       -4.073728   1.000000
    2       -1.384534   1.000000
    3        4.007712   1.000000
    4        4.133566   1.000000
    5        6.866105   0.000000
    6        8.654749   0.000000
    7        8.779136   0.000000
    8       13.067559   0.000000
 
 -0.3750000E+00  0.4166667E-01  0.4166667E-01  0.3472222E-02
    1       -4.464179   1.000000
    2       -0.774923   1.000000
    3        4.133967   1.000000
    4        4.138707   1.000000
    5        6.942846   0.000000
    6        8.654709   0.000000
    7        8.900077   0.000000
    8       12.965380   0.000000
 
 -0.2916667E+00  0.4166667E-01  0.4166667E-01  0.3472222E-02
    1       -5.055729   1.000000
    2        0.358171   1.000000
    3        4.249212   1.000000
    4        4.351122   1.000000
    5        7.126558   0.000000
    6        8.682390   0.000000
    7        9.037760   0.000000
    8       12.166906   0.000000
 
 -0.2083333E+00  0.4166667E-01  0.4166667E-01  0.3472222E-02
    1       -5.586627   1.000000
    2        1.733297   1.000000
    3        4.462413   1.000000
    4        4.640373   1.000000
    5        7.399291   0.000000
    6        8.556529   0.000000
    7        9.010349   0.000000
    8       11.305954   0.000000
 
 -0.1250000E+00  0.4166667E-01  0.4166667E-01  0.3472222E-02
    1       -5.979943   1.000000
    2        3.223997   1.000000
    3        4.759506   1.000000
    4        4.954540   1.000000
    5        7.707002   0.000000
    6        8.202671   0.000000
    7        8.677152   0.000000
    8       10.129574   0.000000
 
 -0.4166667E-01  0.4166667E-01  0.4166667E-01  0.3472222E-02
    1       -6.210309   1.000000
    2        4.643135   1.000000
    3        5.082322   1.000000
    4        5.173208   1.000000
    5        7.793987   0.000000
    6        8.059488   0.000000
    7        8.210729   0.000000
    8        8.778923   0.000000
 
  0.1250000E+00  0.1250000E+00  0.4166667E-01  0.3472222E-02
    1       -6.094262   1.000000
    2        4.085341   1.000000
    3        4.754002   1.000000
    4        4.840824   1.000000
    5        7.566246   0.000000
    6        8.462411   0.000000
    7        8.677173   0.000000
    8        9.314778   0.000000
 
  0.2083333E+00  0.1250000E+00  0.4166667E-01  0.6944444E-02
    1       -5.864307   1.000000
    2        3.068658   1.000000
    3        4.190261   1.000000
    4        4.700124   1.000000
    5        7.576605   0.000000
    6        8.593872   0.000000
    7        9.160686   0.000000
    8       10.065463   0.000000
 
  0.2916667E+00  0.1250000E+00  0.4166667E-01  0.6944444E-02
    1       -5.471741   1.000000
    2        1.702097   1.000000
    3        3.814950   1.000000
    4        4.420472   1.000000
    5        7.733164   0.000000
    6        8.579856   0.000000
    7        9.540572   0.000000
    8       10.398157   0.000000
 
  0.3750000E+00  0.1250000E+00  0.4166667E-01  0.6944444E-02
    1       -4.941506   1.000000
    2        0.377206   1.000000
    3        3.556170   1.000000
    4        4.131850   1.000000
    5        7.638882   0.000000
    6        8.649586   0.000000
    7        9.561393   0.000000
    8       10.982628   0.000000
 
  0.4583333E+00  0.1250000E+00  0.4166667E-01  0.6944444E-02
    1       -4.349473   1.000000
    2       -0.733808   1.000000
    3        3.376018   1.000000
    4        3.950231   1.000000
    5        7.510177   0.000000
    6        8.605035   0.000000
    7        9.407423   0.000000
    8       12.066113   0.000000
 
 -0.4583333E+00  0.1250000E+00  0.4166667E-01  0.6944444E-02
    1       -3.957224   1.000000
    2       -1.336938   1.000000
    3        3.255397   1.000000
    4        3.927286   1.000000
    5        7.461820   0.000000
    6        8.578054   0.000000
    7        9.276716   0.000000
    8       13.181223   0.000000
 
 -0.3750000E+00  0.1250000E+00  0.4166667E-01  0.6944444E-02
    1       -4.175018   1.000000
    2       -1.012141   1.000000
    3        3.211919   1.000000
    4        4.055143   1.000000
    5        7.514645   0.000000
    6        8.625801   0.000000
    7        9.252649   0.000000
    8       12.872911   0.000000
 
 -0.2916667E+00  0.1250000E+00  0.4166667E-01  0.6944444E-02
    1       -4.745915   1.000000
    2       -0.022049   1.000000
    3        3.276264   1.000000
    4        4.298347   1.000000
    5        7.663129   0.000000
    6        8.693757   0.000000
    7        9.320129   0.000000
    8       11.741510   0.000000
 
 -0.2083333E+00  0.1250000E+00  0.4166667E-01  0.6944444E-02
    1       -5.309606   1.000000
    2        1.245599   1.000000
    3        3.474909   1.000000
    4        4.610888   1.000000
    5        7.881249   0.000000
    6        8.602700   0.000000
    7        9.325778   0.000000
    8       10.911218   0.000000
 
 -0.1250000E+00  0.1250000E+00  0.4166667E-01  0.6944444E-02
    1       -5.751696   1.000000
    2        2.585121   1.000000
    3        3.853752   1.000000
    4        4.914571   1.000000
    5        8.026386   0.000000
    6        8.324189   0.000000
    7        8.991418   0.000000
    8       10.486486   0.000000
 
 -0.4166667E-01  0.1250000E+00  0.4166667E-01  0.6944444E-02
    1       -6.036935   1.000000
    2        3.641905   1.000000
    3        4.563743   1.000000
    4        5.063969   1.000000
    5        7.829626   0.000000
    6        8.180244   0.000000
    7        8.597191   0.000000
    8        9.794501   0.000000
 
  0.2083333E+00  0.2083333E+00  0.4166667E-01  0.3472222E-02
    1       -5.690593   1.000000
    2        2.789905   1.000000
    3        4.030161   1.000000
    4        4.037959   1.000000
    5        6.994902   0.000000
    6        9.216439   0.000000
    7        9.867455   0.000000
    8        9.875817   0.000000
 
  0.2916667E+00  0.2083333E+00  0.4166667E-01  0.6944444E-02
    1       -5.351155   1.000000
    2        1.860723   1.000000
    3        3.469343   1.000000
    4        3.861471   1.000000
    5        7.027644   0.000000
    6        8.934534   0.000000
    7       10.053955   0.000000
    8       10.462934   0.000000
 
  0.3750000E+00  0.2083333E+00  0.4166667E-01  0.6944444E-02
    1       -4.863230   1.000000
    2        0.709537   1.000000
    3        3.021937   1.000000
    4        3.610691   1.000000
    5        7.279072   0.000000
    6        9.156007   0.000000
    7        9.855921   0.000000
    8       10.675054   0.000000
 
  0.4583333E+00  0.2083333E+00  0.4166667E-01  0.6944444E-02
    1       -4.276297   1.000000
    2       -0.389010   1.000000
    3        2.636385   1.000000
    4        3.480212   1.000000
    5        7.346785   0.000000
    6        9.569572   0.000000
    7       10.144475   0.000000
    8       10.567123   0.000000
 
 -0.4583333E+00  0.2083333E+00  0.4166667E-01  0.6944444E-02
    1       -3.764675   1.000000
    2       -1.168263   1.000000
    3        2.337527   1.000000
    4        3.514059   1.000000
    5        7.412682   0.000000
    6        9.374331   0.000000
    7       10.373928   0.000000
    8       11.525619   0.000000
 
 -0.3750000E+00  0.2083333E+00  0.4166667E-01  0.6944444E-02
    1       -3.775207   1.000000
    2       -1.150073   1.000000
    3        2.167130   1.000000
    4        3.694205   1.000000
    5        7.587930   0.000000
    6        9.251527   0.000000
    7       10.241294   0.000000
    8       12.838787   0.000000
 
 -0.2916667E+00  0.2083333E+00  0.4166667E-01  0.6944444E-02
    1       -4.293323   1.000000
    2       -0.358548   1.000000
    3        2.167174   1.000000
    4        3.989772   1.000000
    5        7.868846   0.000000
    6        9.182418   0.000000
    7       10.150187   0.000000
    8       11.515409   0.000000
 
 -0.2083333E+00  0.2083333E+00  0.4166667E-01  0.6944444E-02
    1       -4.877560   1.000000
    2        0.685410   1.000000
    3        2.418792   1.000000
    4        4.349945   1.000000
    5        8.185703   0.000000
    6        8.958611   0.000000
    7        9.973971   0.000000
    8       10.612323   0.000000
 
 -0.1250000E+00  0.2083333E+00  0.4166667E-01  0.6944444E-02
    1       -5.361269   1.000000
    2        1.587957   1.000000
    3        3.111452   1.000000
    4        4.674848   1.000000
    5        8.252598   0.000000
    6        8.519191   0.000000
    7        9.441580   0.000000
    8       10.539940   0.000000
 
 -0.4166667E-01  0.2083333E+00  0.4166667E-01  0.6944444E-02
    1       -5.696520   1.000000
    2        2.207235   1.000000
    3        4.191350   1.000000
    4        4.794782   1.000000
    5        7.722998   0.000000
    6        8.392581   0.000000
    7        9.053915   0.000000
    8       10.791467   0.000000
 
  0.2916667E+00  0.2916667E+00  0.4166667E-01  0.3472222E-02
    1       -5.064489   1.000000
    2        1.396736   1.000000
    3        3.349826   1.000000
    4        3.400837   1.000000
    5        6.481416   0.000000
    6        8.228223   0.000000
    7       11.149861   0.000000
    8       11.229916   0.000000
 
  0.3750000E+00  0.2916667E+00  0.4166667E-01  0.6944444E-02
    1       -4.623279   1.000000
    2        0.581100   1.000000
    3        2.880177   1.000000
    4        3.181496   1.000000
    5        6.593852   0.000000
    6        7.929596   0.000000
    7       11.286367   0.000000
    8       11.886651   0.000000
 
  0.4583333E+00  0.2916667E+00  0.4166667E-01  0.6944444E-02
    1       -4.059562   1.000000
    2       -0.316083   1.000000
    3        2.275622   1.000000
    4        3.057920   1.000000
    5        6.833083   0.000000
    6        8.433715   0.000000
    7       11.072111   0.000000
    8       11.975870   0.000000
 
 -0.4583333E+00  0.2916667E+00  0.4166667E-01  0.6944444E-02
    1       -3.483483   1.000000
    2       -1.095185   1.000000
    3        1.751315   1.000000
    4        3.095065   1.000000
    5        6.945416   0.000000
    6        9.649188   0.000000
    7       10.818630   0.000000
    8       11.811370   0.000000
 
 -0.3750000E+00  0.2916667E+00  0.4166667E-01  0.6944444E-02
    1       -3.294393   1.000000
    2       -1.319348   1.000000
    3        1.429857   1.000000
    4        3.279918   1.000000
    5        7.149498   0.000000
    6       10.534786   0.000000
    7       11.244602   0.000000
    8       11.623074   0.000000
 
 -0.2916667E+00  0.2916667E+00  0.4166667E-01  0.6944444E-02
    1       -3.734154   1.000000
    2       -0.778884   1.000000
    3        1.401988   1.000000
    4        3.588374   1.000000
    5        7.483503   0.000000
    6       10.293949   0.000000
    7       11.286087   0.000000
    8       11.558958   0.000000
 
 -0.2083333E+00  0.2916667E+00  0.4166667E-01  0.6944444E-02
    1       -4.322038   1.000000
    2       -0.106851   1.000000
    3        1.831452   1.000000
    4        3.973330   1.000000
    5        7.881869   0.000000
    6        9.565986   0.000000
    7       10.594077   0.000000
    8       10.959841   0.000000
 
 -0.1250000E+00  0.2916667E+00  0.4166667E-01  0.6944444E-02
    1       -4.833031   1.000000
    2        0.381480   1.000000
    3        2.777541   1.000000
    4        4.334138   1.000000
    5        8.014753   0.000000
    6        8.800982   0.000000
    7        9.647138   0.000000
    8       11.095369   0.000000
 
 -0.4166667E-01  0.2916667E+00  0.4166667E-01  0.6944444E-02
    1       -5.207136   1.000000
    2        0.802187   1.000000
    3        3.928533   1.000000
    4        4.487378   1.000000
    5        7.458354   0.000000
    6        8.629623   0.000000
    7        9.189182   0.000000
    8       11.485223   0.000000
 
  0.3750000E+00  0.3750000E+00  0.4166667E-01  0.3472222E-02
    1       -4.228180   1.000000
    2       -0.008279   1.000000
    3        2.858007   1.000000
    4        2.942522   1.000000
    5        6.154278   0.000000
    6        7.226328   0.000000
    7       12.616949   0.000000
    8       12.658498   0.000000
 
  0.4583333E+00  0.3750000E+00  0.4166667E-01  0.6944444E-02
    1       -3.697869   1.000000
    2       -0.728899   1.000000
    3        2.479495   1.000000
    4        2.752911   1.000000
    5        6.360690   0.000000
    6        7.126118   0.000000
    7       12.664596   0.000000
    8       13.376882   0.000000
 
 -0.4583333E+00  0.3750000E+00  0.4166667E-01  0.6944444E-02
    1       -3.098407   1.000000
    2       -1.406031   1.000000
    3        1.809054   1.000000
    4        2.767766   1.000000
    5        6.554914   0.000000
    6        7.996810   0.000000
    7       12.421948   0.000000
    8       13.383530   0.000000
 
 -0.3750000E+00  0.3750000E+00  0.4166667E-01  0.6944444E-02
    1       -2.777724   1.000000
    2       -1.713681   1.000000
    3        1.294934   1.000000
    4        2.934402   1.000000
    5        6.752108   0.000000
    6        9.438989   0.000000
    7       12.106145   0.000000
    8       12.887492   0.000000
 
 -0.2916667E+00  0.3750000E+00  0.4166667E-01  0.6944444E-02
    1       -3.184387   1.000000
    2       -1.320400   1.000000
    3        1.197338   1.000000
    4        3.232938   1.000000
    5        7.089485   0.000000
    6       10.960180   0.000000
    7       11.338211   0.000000
    8       12.051370   0.000000
 
 -0.2083333E+00  0.3750000E+00  0.4166667E-01  0.6944444E-02
    1       -3.744369   1.000000
    2       -0.943303   1.000000
    3        1.696560   1.000000
    4        3.624171   1.000000
    5        7.524375   0.000000
    6        9.794076   0.000000
    7       10.814760   0.000000
    8       12.121599   0.000000
 
 -0.1250000E+00  0.3750000E+00  0.4166667E-01  0.6944444E-02
    1       -4.240802   1.000000
    2       -0.695812   1.000000
    3        2.667697   1.000000
    4        4.019215   1.000000
    5        7.779593   0.000000
    6        8.805477   0.000000
    7        9.666767   0.000000
    8       12.205191   0.000000
 
 -0.4166667E-01  0.3750000E+00  0.4166667E-01  0.6944444E-02
    1       -4.620480   1.000000
    2       -0.421159   1.000000
    3        3.771883   1.000000
    4        4.235507   1.000000
    5        7.251955   0.000000
    6        8.648440   0.000000
    7        9.075393   0.000000
    8       12.437620   0.000000
 
  0.4583333E+00  0.4583333E+00  0.4166667E-01  0.3472222E-02
    1       -3.200807   1.000000
    2       -1.366043   1.000000
    3        2.581099   1.000000
    4        2.681941   1.000000
    5        6.073849   0.000000
    6        6.533177   0.000000
    7       14.116969   0.000000
    8       14.121262   0.000000
 
 -0.4583333E+00  0.4583333E+00  0.4166667E-01  0.6944444E-02
    1       -2.603138   1.000000
    2       -1.998729   1.000000
    3        2.302142   1.000000
    4        2.572638   1.000000
    5        6.330038   0.000000
    6        6.701584   0.000000
    7       14.078475   0.000000
    8       14.567490   0.000000
 
 -0.3750000E+00  0.4583333E+00  0.4166667E-01  0.6944444E-02
    1       -2.601949   1.000000
    2       -1.930843   1.000000
    3        1.714175   1.000000
    4        2.710624   1.000000
    5        6.496949   0.000000
    6        7.909975   0.000000
    7       13.099668   0.000000
    8       13.768874   0.000000
 
 -0.2916667E+00  0.4583333E+00  0.4166667E-01  0.6944444E-02
    1       -3.085382   1.000000
    2       -1.438695   1.000000
    3        1.452136   1.000000
    4        2.987809   1.000000
    5        6.817489   0.000000
    6        9.508717   0.000000
    7       11.472129   0.000000
    8       12.485241   0.000000
 
 -0.2083333E+00  0.4583333E+00  0.4166667E-01  0.6944444E-02
    1       -3.498397   1.000000
    2       -1.278046   1.000000
    3        1.834097   1.000000
    4        3.373593   1.000000
    5        7.263252   0.000000
    6        9.947620   0.000000
    7       10.971466   0.000000
    8       11.358244   0.000000
 
 -0.1250000E+00  0.4583333E+00  0.4166667E-01  0.6944444E-02
    1       -3.842742   1.000000
    2       -1.298282   1.000000
    3        2.712032   1.000000
    4        3.795796   1.000000
    5        7.612309   0.000000
    6        8.797885   0.000000
    7        9.713817   0.000000
    8       13.160727   0.000000
 
 -0.4166667E-01  0.4583333E+00  0.4166667E-01  0.6944444E-02
    1       -4.112602   1.000000
    2       -1.253456   1.000000
    3        3.706390   1.000000
    4        4.090645   1.000000
    5        7.143124   0.000000
    6        8.613372   0.000000
    7        8.951830   0.000000
    8       13.138981   0.000000
 
 -0.4583333E+00 -0.4583333E+00  0.4166667E-01  0.3472222E-02
    1       -2.624028   1.000000
    2       -2.010291   1.000000
    3        2.525438   1.000000
    4        2.629357   1.000000
    5        6.127758   0.000000
    6        6.322539   0.000000
    7       14.750220   0.000000
    8       14.787777   0.000000
 
 -0.3750000E+00 -0.4583333E+00  0.4166667E-01  0.6944444E-02
    1       -3.169125   1.000000
    2       -1.373624   1.000000
    3        2.361594   1.000000
    4        2.632497   1.000000
    5        6.326337   0.000000
    6        6.857645   0.000000
    7       13.376862   0.000000
    8       14.109431   0.000000
 
 -0.2916667E+00 -0.4583333E+00  0.4166667E-01  0.6944444E-02
    1       -3.594753   1.000000
    2       -0.856093   1.000000
    3        1.997892   1.000000
    4        2.882811   1.000000
    5        6.668634   0.000000
    6        8.171240   0.000000
    7       11.738036   0.000000
    8       12.679066   0.000000
 
 -0.2083333E+00 -0.4583333E+00  0.4166667E-01  0.6944444E-02
    1       -3.889805   1.000000
    2       -0.744611   1.000000
    3        2.161149   1.000000
    4        3.257701   1.000000
    5        7.127739   0.000000
    6        9.860387   0.000000
    7       10.184144   0.000000
    8       11.157628   0.000000
 
 -0.1250000E+00 -0.4583333E+00  0.4166667E-01  0.6944444E-02
    1       -4.057815   1.000000
    2       -0.985140   1.000000
    3        2.874833   1.000000
    4        3.703794   1.000000
    5        7.543605   0.000000
    6        8.877200   0.000000
    7        9.844331   0.000000
    8       11.762689   0.000000
 
 -0.3750000E+00 -0.3750000E+00  0.4166667E-01  0.3472222E-02
    1       -3.736861   1.000000
    2       -0.696477   1.000000
    3        2.692153   1.000000
    4        2.786633   1.000000
    5        6.080995   0.000000
    6        6.837596   0.000000
    7       13.370944   0.000000
    8       13.390245   0.000000
 
 -0.2916667E+00 -0.3750000E+00  0.4166667E-01  0.6944444E-02
    1       -4.183842   1.000000
    2       -0.074256   1.000000
    3        2.653589   1.000000
    4        2.935330   1.000000
    5        6.449478   0.000000
    6        7.486850   0.000000
    7       11.966247   0.000000
    8       12.626702   0.000000
 
 -0.2083333E+00 -0.3750000E+00  0.4166667E-01  0.6944444E-02
    1       -4.484104   1.000000
    2        0.205306   1.000000
    3        2.626963   1.000000
    4        3.297949   1.000000
    5        7.040388   0.000000
    6        8.779070   0.000000
    7       10.428585   0.000000
    8       11.304060   0.000000
 
 -0.1250000E+00 -0.3750000E+00  0.4166667E-01  0.6944444E-02
    1       -4.629515   1.000000
    2       -0.018161   1.000000
    3        3.120210   1.000000
    4        3.772063   1.000000
    5        7.559039   0.000000
    6        9.016509   0.000000
    7       10.007658   0.000000
    8       10.542731   0.000000
 
 -0.2916667E+00 -0.2916667E+00  0.4166667E-01  0.3472222E-02
    1       -4.671609   1.000000
    2        0.691850   1.000000
    3        3.077740   1.000000
    4        3.148065   1.000000
    5        6.289834   0.000000
    6        7.694644   0.000000
    7       11.874365   0.000000
    8       11.937115   0.000000
 
 -0.2083333E+00 -0.2916667E+00  0.4166667E-01  0.6944444E-02
    1       -5.013171   1.000000
    2        1.228362   1.000000
    3        3.154111   1.000000
    4        3.491747   1.000000
    5        6.789226   0.000000
    6        8.435287   0.000000
    7       10.632861   0.000000
    8       11.163649   0.000000
 
 -0.1250000E+00 -0.2916667E+00  0.4166667E-01  0.6944444E-02
    1       -5.193309   1.000000
    2        1.205132   1.000000
    3        3.424328   1.000000
    4        3.996608   1.000000
    5        7.528614   0.000000
    6        9.039729   0.000000
    7        9.870141   0.000000
    8       10.104643   0.000000
 
 -0.2083333E+00 -0.2083333E+00  0.4166667E-01  0.3472222E-02
    1       -5.404726   1.000000
    2        2.098976   1.000000
    3        3.671631   1.000000
    4        3.696932   1.000000
    5        6.720536   0.000000
    6        8.787537   0.000000
    7       10.457079   0.000000
    8       10.540788   0.000000
 
 -0.1250000E+00 -0.2083333E+00  0.4166667E-01  0.6944444E-02
    1       -5.635355   1.000000
    2        2.474428   1.000000
    3        3.818476   1.000000
    4        4.275616   1.000000
    5        7.296648   0.000000
    6        9.030888   0.000000
    7        9.790458   0.000000
    8        9.889546   0.000000
 
 -0.1250000E+00 -0.1250000E+00  0.4166667E-01  0.3472222E-02
    1       -5.920781   1.000000
    2        3.457864   1.000000
    3        4.389422   1.000000
    4        4.437500   1.000000
    5        7.286016   0.000000
    6        8.978724   0.000000
    7        9.246888   0.000000
    8        9.671612   0.000000
 
  0.1250000E+00  0.1250000E+00  0.1250000E+00  0.1157407E-02
    1       -6.094847   1.000000
    2        3.745134   1.000000
    3        5.056616   1.000000
    4        5.056619   1.000000
    5        7.679306   0.000000
    6        8.279362   0.000000
    7        8.279369   0.000000
    8        9.623093   0.000000
 
  0.2083333E+00  0.1250000E+00  0.1250000E+00  0.3472222E-02
    1       -5.922554   1.000000
    2        3.121403   1.000000
    3        4.228769   1.000000
    4        5.121794   1.000000
    5        8.016466   0.000000
    6        8.271220   0.000000
    7        8.515384   0.000000
    8       10.300419   0.000000
 
  0.2916667E+00  0.1250000E+00  0.1250000E+00  0.3472222E-02
    1       -5.583660   1.000000
    2        2.085354   1.000000
    3        3.479152   1.000000
    4        4.914744   1.000000
    5        8.139903   0.000000
    6        8.614230   0.000000
    7        8.877205   0.000000
    8       10.797079   0.000000
 
  0.3750000E+00  0.1250000E+00  0.1250000E+00  0.3472222E-02
    1       -5.095892   1.000000
    2        0.802151   1.000000
    3        3.121400   1.000000
    4        4.584678   1.000000
    5        7.892321   0.000000
    6        8.968019   0.000000
    7        9.137614   0.000000
    8       11.417269   0.000000
 
  0.4583333E+00  0.1250000E+00  0.1250000E+00  0.3472222E-02
    1       -4.509801   1.000000
    2       -0.382850   1.000000
    3        2.975373   1.000000
    4        4.257833   1.000000
    5        7.659849   0.000000
    6        9.008982   0.000000
    7        9.135140   0.000000
    8       12.482854   0.000000
 
 -0.4583333E+00  0.1250000E+00  0.1250000E+00  0.3472222E-02
    1       -3.998791   1.000000
    2       -1.206906   1.000000
    3        2.984930   1.000000
    4        3.997886   1.000000
    5        7.501816   0.000000
    6        8.848356   0.000000
    7        9.246188   0.000000
    8       13.391581   0.000000
 
 -0.3750000E+00  0.1250000E+00  0.1250000E+00  0.3472222E-02
    1       -3.995828   1.000000
    2       -1.212383   1.000000
    3        3.128670   1.000000
    4        3.837295   1.000000
    5        7.442658   0.000000
    6        8.787126   0.000000
    7        9.414430   0.000000
    8       12.544433   0.000000
 
 -0.2916667E+00  0.1250000E+00  0.1250000E+00  0.3472222E-02
    1       -4.504872   1.000000
    2       -0.393695   1.000000
    3        3.388353   1.000000
    4        3.793790   1.000000
    5        7.482972   0.000000
    6        8.825334   0.000000
    7        9.637875   0.000000
    8       11.265835   0.000000
 
 -0.2083333E+00  0.1250000E+00  0.1250000E+00  0.3472222E-02
    1       -5.091675   1.000000
    2        0.798446   1.000000
    3        3.738522   1.000000
    4        3.875280   1.000000
    5        7.557922   0.000000
    6        8.862499   0.000000
    7        9.805350   0.000000
    8       10.340986   0.000000
 
 -0.1250000E+00  0.1250000E+00  0.1250000E+00  0.3472222E-02
    1       -5.580654   1.000000
    2        2.142764   1.000000
    3        4.079797   1.000000
    4        4.127266   1.000000
    5        7.468804   0.000000
    6        8.832631   0.000000
    7        9.701389   0.000000
    8       10.047871   0.000000
 
  0.2083333E+00  0.2083333E+00  0.1250000E+00  0.3472222E-02
    1       -5.808245   1.000000
    2        2.685964   1.000000
    3        4.420176   1.000000
    4        4.597489   1.000000
    5        7.694650   0.000000
    6        8.364055   0.000000
    7        9.165244   0.000000
    8       10.350807   0.000000
 
  0.2916667E+00  0.2083333E+00  0.1250000E+00  0.6944444E-02
    1       -5.525288   1.000000
    2        2.044803   1.000000
    3        3.483221   1.000000
    4        4.533760   1.000000
    5        7.800227   0.000000
    6        8.677407   0.000000
    7        9.636703   0.000000
    8       10.129917   0.000000
 
  0.3750000E+00  0.2083333E+00  0.1250000E+00  0.6944444E-02
    1       -5.086088   1.000000
    2        1.096618   1.000000
    3        2.773480   1.000000
    4        4.274007   1.000000
    5        8.185825   0.000000
    6        8.670708   0.000000
    7        9.979034   0.000000
    8       10.198418   0.000000
 
  0.4583333E+00  0.2083333E+00  0.1250000E+00  0.6944444E-02
    1       -4.524475   1.000000
    2       -0.015033   1.000000
    3        2.455193   1.000000
    4        3.939012   1.000000
    5        8.213958   0.000000
    6        8.628994   0.000000
    7       10.280566   0.000000
    8       10.720340   0.000000
 
 -0.4583333E+00  0.2083333E+00  0.1250000E+00  0.6944444E-02
    1       -3.950643   1.000000
    2       -0.954307   1.000000
    3        2.356129   1.000000
    4        3.668203   1.000000
    5        8.038517   0.000000
    6        8.585896   0.000000
    7       10.347196   0.000000
    8       11.897857   0.000000
 
 -0.3750000E+00  0.2083333E+00  0.1250000E+00  0.6944444E-02
    1       -3.726761   1.000000
    2       -1.275727   1.000000
    3        2.392598   1.000000
    4        3.536153   1.000000
    5        7.877821   0.000000
    6        8.663418   0.000000
    7       10.376670   0.000000
    8       12.427714   0.000000
 
 -0.2916667E+00  0.2083333E+00  0.1250000E+00  0.6944444E-02
    1       -4.123142   1.000000
    2       -0.692731   1.000000
    3        2.524401   1.000000
    4        3.581864   1.000000
    5        7.798958   0.000000
    6        8.860933   0.000000
    7       10.438237   0.000000
    8       11.008085   0.000000
 
 -0.2083333E+00  0.2083333E+00  0.1250000E+00  0.6944444E-02
    1       -4.716049   1.000000
    2        0.348319   1.000000
    3        2.751975   1.000000
    4        3.794666   1.000000
    5        7.757966   0.000000
    6        9.087988   0.000000
    7        9.870490   0.000000
    8       10.552254   0.000000
 
 -0.1250000E+00  0.2083333E+00  0.1250000E+00  0.6944444E-02
    1       -5.244560   1.000000
    2        1.500247   1.000000
    3        3.139175   1.000000
    4        4.088286   1.000000
    5        7.547848   0.000000
    6        9.040611   0.000000
    7        9.699898   0.000000
    8       10.340424   0.000000
 