 vasp.6.2.0 18Jan21 (build Aug 12 2022 13:00:08) complex                        
  
 executed on             LinuxIFC date 2024.11.05  06:00:06
 running on    4 total cores
 distrk:  each k-point on    4 cores,    1 groups
 distr:  one band on NCORE=   1 cores,    4 groups


--------------------------------------------------------------------------------------------------------


 INCAR:
   ISTART = 0            (Read existing wavefunction, if there)
   ISPIN = 1            (Non-Spin polarised DFT)
   LREAL = .FALSE.       (Projection operators: automatic)
   LWAVE = .FALSE.        (Write WAVECAR or not)
   LCHARG = .FALSE.        (Write CHGCAR or not)
   ADDGRID = .TRUE.        (Increase grid, helps GGA convergence)
   LASPH = .TRUE.        (Give more accurate total energies and band structure calculations)
   PREC = Accurate      (Accurate strictly avoids any aliasing or wrap around errors)
   ENCUT = 350          (Cut-off energy for plane wave basis set, in eV)
   ISMEAR = 0            (Gaussian smearing, metals:1)
   SIGMA = 0.05         (Smearing value in eV, metals:0.2)
   NELM = 90           (Max electronic SCF steps)
   NELMIN = 6            (Min electronic SCF steps)
   EDIFF = 1E-06        (SCF energy convergence, in eV)
   NSW = 100          (Max ionic steps)
   IBRION = 2            (Algorithm: 0-MD, 1-Quasi-New, 2-CG)
   ISIF = 2            (Stress/relaxation: 2-Ions, 3-Shape/Ions/V, 4-Shape/Ions)
   EDIFFG = -2E-03        (Ionic convergence, eV/AA)
   ISYM = 2              (Symmetry: 0\=none, 2\=GGA, 3\=hybrids)

 POTCAR:    PAW_PBE Si 05Jan2001                  
 POTCAR:    PAW_PBE Si 05Jan2001                  
   VRHFIN =Si: s2p2                                                                                 
   LEXCH  = PE                                                                                      
   EATOM  =   103.0669 eV,    7.5752 Ry                                                             
                                                                                                    
   TITEL  = PAW_PBE Si 05Jan2001                                                                    
   LULTRA =        F    use ultrasoft PP ?                                                          
   IUNSCR =        1    unscreen: 0-lin 1-nonlin 2-no                                               
   RPACOR =    1.500    partial core radius                                                         
   POMASS =   28.085; ZVAL   =    4.000    mass and valenz                                          
   RCORE  =    1.900    outmost cutoff radius                                                       
   RWIGS  =    2.480; RWIGS  =    1.312    wigner-seitz radius (au A)                               
   ENMAX  =  245.345; ENMIN  =  184.009 eV                                                          
   ICORE  =        2    local potential                                                             
   LCOR   =        T    correct aug charges                                                         
   LPAW   =        T    paw PP                                                                      
   EAUG   =  322.069                                                                                
   DEXC   =    0.000                                                                                
   RMAX   =    1.950    core radius for proj-oper                                                   
   RAUG   =    1.300    factor for augmentation sphere                                              
   RDEP   =    1.993    radius for radial grids                                                     
   RDEPT  =    1.837    core radius for aug-charge                                                  
                                                                                                    
   Atomic configuration                                                                             
    6 entries                                                                                       
     n  l   j            E        occ.                                                              
     1  0  0.50     -1785.8828   2.0000                                                             
     2  0  0.50      -139.4969   2.0000                                                             
     2  1  1.50       -95.5546   6.0000                                                             
     3  0  0.50       -10.8127   2.0000                                                             
     3  1  0.50        -4.0811   2.0000                                                             
     3  2  1.50        -4.0817   0.0000                                                             
   Description                                                                                      
     l       E           TYP  RCUT    TYP  RCUT                                                     
     0    -10.8127223     23  1.900                                                                 
     0     -7.6451159     23  1.900                                                                 
     1     -4.0811372     23  1.900                                                                 
     1      2.4879257     23  1.900                                                                 
     2     -4.0817478      7  1.900                                                                 
  local pseudopotential read in
  partial core-charges read in
  partial kinetic energy density read in
  atomic valenz-charges read in
  non local Contribution for L=           0  read in
    real space projection operators read in
  non local Contribution for L=           0  read in
    real space projection operators read in
  non local Contribution for L=           1  read in
    real space projection operators read in
  non local Contribution for L=           1  read in
    real space projection operators read in
    PAW grid and wavefunctions read in
 
   number of l-projection  operators is LMAX  =           4
   number of lm-projection operators is LMMAX =           8
 
  PAW_PBE Si 05Jan2001                  :
 energy of atom  1       EATOM= -103.0669
 kinetic energy error for atom=    0.0013 (will be added to EATOM!!)
 
 
 POSCAR: Si2
  positions in direct lattice
  velocities in cartesian coordinates
 exchange correlation table for  LEXCH =        8
   RHO(1)=    0.500       N(1)  =     2000
   RHO(2)=  100.500       N(2)  =     4000
 


--------------------------------------------------------------------------------------------------------


 ion  position               nearest neighbor table
   1  0.875  0.875  0.875-   2 2.39   2 2.39   2 2.39   2 2.39
   2  0.125  0.125  0.125-   1 2.39   1 2.39   1 2.39   1 2.39
 
  LATTYP: Found a face centered cubic cell.
 ALAT       =     5.5221549848
  
  Lattice vectors:
  
 A1 = (   3.3816147240,   0.0000000000,   1.9523758960)
 A2 = (   1.1272049080,   3.1882182005,   1.9523758960)
 A3 = (   0.0000000000,   0.0000000000,   3.9047517921)


Analysis of symmetry for initial positions (statically):
=====================================================================
 Subroutine PRICEL returns:
 Original cell was already a primitive cell.
 

 Routine SETGRP: Setting up the symmetry group for a 
 face centered cubic supercell.


 Subroutine GETGRP returns: Found 48 space group operations
 (whereof 12 operations were pure point group operations)
 out of a pool of 48 trial point group operations.


The static configuration has the point symmetry D_3d.
 The point group associated with its full space group is O_h .


Analysis of symmetry for dynamics (positions and initial velocities):
=====================================================================
 Subroutine PRICEL returns:
 Original cell was already a primitive cell.
 

 Routine SETGRP: Setting up the symmetry group for a 
 face centered cubic supercell.


 Subroutine GETGRP returns: Found 48 space group operations
 (whereof 12 operations were pure point group operations)
 out of a pool of 48 trial point group operations.


The dynamic configuration has the point symmetry D_3d.
 The point group associated with its full space group is O_h .


 Subroutine INISYM returns: Found 48 space group operations
 (whereof 12 operations are pure point group operations),
 and found     1 'primitive' translations


----------------------------------------------------------------------------------------

                                     Primitive cell                                     

  volume of cell :      42.0984

  direct lattice vectors                    reciprocal lattice vectors
     3.381614724  0.000000000  1.952375896     0.295716716 -0.104551606  0.000000000
     1.127204908  3.188218200  1.952375896     0.000000000  0.313654818  0.000000000
     0.000000000  0.000000000  3.904751792    -0.147858358 -0.104551606  0.256098224

  length of vectors
     3.904752205  3.904753236  3.904751792     0.313654929  0.313654818  0.313654958

  position of ions in fractional coordinates (direct lattice)
     0.875000000  0.875000000  0.875000000
     0.125000000  0.125000000  0.125000000

  ion indices of the primitive-cell ions
   primitive index   ion index
                 1           1
                 2           2

----------------------------------------------------------------------------------------

 
 
 KPOINTS: Automatic                               

Automatic generation of k-mesh.
 Grid dimensions read from file:
 generate k-points for:   12   12   12

 Generating k-lattice:

  Cartesian coordinates                     Fractional coordinates (reciprocal lattice)
     0.024643060 -0.008712634  0.000000000     0.083333333  0.000000000  0.000000000
     0.000000000  0.026137902  0.000000000     0.000000000  0.083333333  0.000000000
    -0.012321530 -0.008712634  0.021341519     0.000000000  0.000000000  0.083333333

  Length of vectors
     0.026137911  0.026137902  0.026137913

  Shift w.r.t. Gamma in fractional coordinates (k-lattice)
     0.500000000  0.500000000  0.500000000

 
 Subroutine IBZKPT returns following result:
 ===========================================
 
 Found    182 irreducible k-points:
 
 Following reciprocal coordinates:
            Coordinates               Weight
  0.041667  0.041667  0.041667      8.000000
  0.125000  0.041667  0.041667     24.000000
  0.208333  0.041667  0.041667     24.000000
  0.291667  0.041667  0.041667     24.000000
  0.375000  0.041667  0.041667     24.000000
  0.458333  0.041667  0.041667     24.000000
 -0.458333  0.041667  0.041667     24.000000
 -0.375000  0.041667  0.041667     24.000000
 -0.291667  0.041667  0.041667     24.000000
 -0.208333  0.041667  0.041667     24.000000
 -0.125000  0.041667  0.041667     24.000000
 -0.041667  0.041667  0.041667     24.000000
  0.125000  0.125000  0.041667     24.000000
  0.208333  0.125000  0.041667     48.000000
  0.291667  0.125000  0.041667     48.000000
  0.375000  0.125000  0.041667     48.000000
  0.458333  0.125000  0.041667     48.000000
 -0.458333  0.125000  0.041667     48.000000
 -0.375000  0.125000  0.041667     48.000000
 -0.291667  0.125000  0.041667     48.000000
 -0.208333  0.125000  0.041667     48.000000
 -0.125000  0.125000  0.041667     48.000000
 -0.041667  0.125000  0.041667     48.000000
  0.208333  0.208333  0.041667     24.000000
  0.291667  0.208333  0.041667     48.000000
  0.375000  0.208333  0.041667     48.000000
  0.458333  0.208333  0.041667     48.000000
 -0.458333  0.208333  0.041667     48.000000
 -0.375000  0.208333  0.041667     48.000000
 -0.291667  0.208333  0.041667     48.000000
 -0.208333  0.208333  0.041667     48.000000
 -0.125000  0.208333  0.041667     48.000000
 -0.041667  0.208333  0.041667     48.000000
  0.291667  0.291667  0.041667     24.000000
  0.375000  0.291667  0.041667     48.000000
  0.458333  0.291667  0.041667     48.000000
 -0.458333  0.291667  0.041667     48.000000
 -0.375000  0.291667  0.041667     48.000000
 -0.291667  0.291667  0.041667     48.000000
 -0.208333  0.291667  0.041667     48.000000
 -0.125000  0.291667  0.041667     48.000000
 -0.041667  0.291667  0.041667     48.000000
  0.375000  0.375000  0.041667     24.000000
  0.458333  0.375000  0.041667     48.000000
 -0.458333  0.375000  0.041667     48.000000
 -0.375000  0.375000  0.041667     48.000000
 -0.291667  0.375000  0.041667     48.000000
 -0.208333  0.375000  0.041667     48.000000
 -0.125000  0.375000  0.041667     48.000000
 -0.041667  0.375000  0.041667     48.000000
  0.458333  0.458333  0.041667     24.000000
 -0.458333  0.458333  0.041667     48.000000
 -0.375000  0.458333  0.041667     48.000000
 -0.291667  0.458333  0.041667     48.000000
 -0.208333  0.458333  0.041667     48.000000
 -0.125000  0.458333  0.041667     48.000000
 -0.041667  0.458333  0.041667     48.000000
 -0.458333 -0.458333  0.041667     24.000000
 -0.375000 -0.458333  0.041667     48.000000
 -0.291667 -0.458333  0.041667     48.000000
 -0.208333 -0.458333  0.041667     48.000000
 -0.125000 -0.458333  0.041667     48.000000
 -0.375000 -0.375000  0.041667     24.000000
 -0.291667 -0.375000  0.041667     48.000000
 -0.208333 -0.375000  0.041667     48.000000
 -0.125000 -0.375000  0.041667     48.000000
 -0.291667 -0.291667  0.041667     24.000000
 -0.208333 -0.291667  0.041667     48.000000
 -0.125000 -0.291667  0.041667     48.000000
 -0.208333 -0.208333  0.041667     24.000000
 -0.125000 -0.208333  0.041667     48.000000
 -0.125000 -0.125000  0.041667     24.000000
  0.125000  0.125000  0.125000      8.000000
  0.208333  0.125000  0.125000     24.000000
  0.291667  0.125000  0.125000     24.000000
  0.375000  0.125000  0.125000     24.000000
  0.458333  0.125000  0.125000     24.000000
 -0.458333  0.125000  0.125000     24.000000
 -0.375000  0.125000  0.125000     24.000000
 -0.291667  0.125000  0.125000     24.000000
 -0.208333  0.125000  0.125000     24.000000
 -0.125000  0.125000  0.125000     24.000000
  0.208333  0.208333  0.125000     24.000000
  0.291667  0.208333  0.125000     48.000000
  0.375000  0.208333  0.125000     48.000000
  0.458333  0.208333  0.125000     48.000000
 -0.458333  0.208333  0.125000     48.000000
 -0.375000  0.208333  0.125000     48.000000
 -0.291667  0.208333  0.125000     48.000000
 -0.208333  0.208333  0.125000     48.000000
 -0.125000  0.208333  0.125000     48.000000
  0.291667  0.291667  0.125000     24.000000
  0.375000  0.291667  0.125000     48.000000
  0.458333  0.291667  0.125000     48.000000
 -0.458333  0.291667  0.125000     48.000000
 -0.375000  0.291667  0.125000     48.000000
 -0.291667  0.291667  0.125000     48.000000
 -0.208333  0.291667  0.125000     48.000000
 -0.125000  0.291667  0.125000     48.000000
  0.375000  0.375000  0.125000     24.000000
  0.458333  0.375000  0.125000     48.000000
 -0.458333  0.375000  0.125000     48.000000
 -0.375000  0.375000  0.125000     48.000000
 -0.291667  0.375000  0.125000     48.000000
 -0.208333  0.375000  0.125000     48.000000
 -0.125000  0.375000  0.125000     48.000000
  0.458333  0.458333  0.125000     24.000000
 -0.458333  0.458333  0.125000     48.000000
 -0.375000  0.458333  0.125000     48.000000
 -0.291667  0.458333  0.125000     48.000000
 -0.208333  0.458333  0.125000     48.000000
 -0.125000  0.458333  0.125000     48.000000
 -0.458333 -0.458333  0.125000     24.000000
 -0.375000 -0.458333  0.125000     48.000000
 -0.291667 -0.458333  0.125000     48.000000
 -0.208333 -0.458333  0.125000     48.000000
 -0.375000 -0.375000  0.125000     24.000000
 -0.291667 -0.375000  0.125000     48.000000
 -0.208333 -0.375000  0.125000     48.000000
 -0.291667 -0.291667  0.125000     24.000000
 -0.208333 -0.291667  0.125000     48.000000
 -0.208333 -0.208333  0.125000     24.000000
  0.208333  0.208333  0.208333      8.000000
  0.291667  0.208333  0.208333     24.000000
  0.375000  0.208333  0.208333     24.000000
  0.458333  0.208333  0.208333     24.000000
 -0.458333  0.208333  0.208333     24.000000
 -0.375000  0.208333  0.208333     24.000000
 -0.291667  0.208333  0.208333     24.000000
 -0.208333  0.208333  0.208333     24.000000
  0.291667  0.291667  0.208333     24.000000
  0.375000  0.291667  0.208333     48.000000
  0.458333  0.291667  0.208333     48.000000
 -0.458333  0.291667  0.208333     48.000000
 -0.375000  0.291667  0.208333     48.000000
 -0.291667  0.291667  0.208333     48.000000
 -0.208333  0.291667  0.208333     48.000000
  0.375000  0.375000  0.208333     24.000000
  0.458333  0.375000  0.208333     48.000000
 -0.458333  0.375000  0.208333     48.000000
 -0.375000  0.375000  0.208333     48.000000
 -0.291667  0.375000  0.208333     48.000000
 -0.208333  0.375000  0.208333     48.000000
  0.458333  0.458333  0.208333     24.000000
 -0.458333  0.458333  0.208333     48.000000
 -0.375000  0.458333  0.208333     48.000000
 -0.291667  0.458333  0.208333     48.000000
 -0.208333  0.458333  0.208333     48.000000
 -0.458333 -0.458333  0.208333     24.000000
 -0.375000 -0.458333  0.208333     48.000000
 -0.291667 -0.458333  0.208333     48.000000
 -0.375000 -0.375000  0.208333     24.000000
 -0.291667 -0.375000  0.208333     48.000000
 -0.291667 -0.291667  0.208333     24.000000
  0.291667  0.291667  0.291667      8.000000
  0.375000  0.291667  0.291667     24.000000
  0.458333  0.291667  0.291667     24.000000
 -0.458333  0.291667  0.291667     24.000000
 -0.375000  0.291667  0.291667     24.000000
 -0.291667  0.291667  0.291667     24.000000
  0.375000  0.375000  0.291667     24.000000
  0.458333  0.375000  0.291667     48.000000
 -0.458333  0.375000  0.291667     48.000000
 -0.375000  0.375000  0.291667     48.000000
 -0.291667  0.375000  0.291667     48.000000
  0.458333  0.458333  0.291667     24.000000
 -0.458333  0.458333  0.291667     48.000000
 -0.375000  0.458333  0.291667     48.000000
 -0.291667  0.458333  0.291667     48.000000
 -0.458333 -0.458333  0.291667     24.000000
 -0.375000 -0.458333  0.291667     48.000000
 -0.375000 -0.375000  0.291667     24.000000
  0.375000  0.375000  0.375000      8.000000
  0.458333  0.375000  0.375000     24.000000
 -0.458333  0.375000  0.375000     24.000000
 -0.375000  0.375000  0.375000     24.000000
  0.458333  0.458333  0.375000     24.000000
 -0.458333  0.458333  0.375000     48.000000
 -0.375000  0.458333  0.375000     48.000000
 -0.458333 -0.458333  0.375000     24.000000
  0.458333  0.458333  0.458333      8.000000
 -0.458333  0.458333  0.458333     24.000000
 
 Following cartesian coordinates:
            Coordinates               Weight
  0.006222  0.004400  0.010777      8.000000
  0.031112 -0.004400  0.010777     24.000000
  0.056001 -0.013200  0.010777     24.000000
  0.080891 -0.021999  0.010777     24.000000
  0.105780 -0.030799  0.010777     24.000000
  0.130670 -0.039599  0.010777     24.000000
 -0.143115  0.057198  0.010777     24.000000
 -0.118225  0.048399  0.010777     24.000000
 -0.093336  0.039599  0.010777     24.000000
 -0.068446  0.030799  0.010777     24.000000
 -0.043557  0.021999  0.010777     24.000000
 -0.018667  0.013200  0.010777     24.000000
  0.031112  0.021999  0.010777     24.000000
  0.056001  0.013200  0.010777     48.000000
  0.080891  0.004400  0.010777     48.000000
  0.105780 -0.004400  0.010777     48.000000
  0.130670 -0.013200  0.010777     48.000000
 -0.143115  0.083598  0.010777     48.000000
 -0.118225  0.074798  0.010777     48.000000
 -0.093336  0.065998  0.010777     48.000000
 -0.068446  0.057198  0.010777     48.000000
 -0.043557  0.048399  0.010777     48.000000
 -0.018667  0.039599  0.010777     48.000000
  0.056001  0.039599  0.010777     24.000000
  0.080891  0.030799  0.010777     48.000000
  0.105780  0.021999  0.010777     48.000000
  0.130670  0.013200  0.010777     48.000000
 -0.143115  0.109997  0.010777     48.000000
 -0.118225  0.101197  0.010777     48.000000
 -0.093336  0.092397  0.010777     48.000000
 -0.068446  0.083598  0.010777     48.000000
 -0.043557  0.074798  0.010777     48.000000
 -0.018667  0.065998  0.010777     48.000000
  0.080891  0.057198  0.010777     24.000000
  0.105780  0.048399  0.010777     48.000000
  0.130670  0.039599  0.010777     48.000000
 -0.143115  0.136396  0.010777     48.000000
 -0.118225  0.127597  0.010777     48.000000
 -0.093336  0.118797  0.010777     48.000000
 -0.068446  0.109997  0.010777     48.000000
 -0.043557  0.101197  0.010777     48.000000
 -0.018667  0.092397  0.010777     48.000000
  0.105780  0.074798  0.010777     24.000000
  0.130670  0.065998  0.010777     48.000000
 -0.143115  0.162796  0.010777     48.000000
 -0.118225  0.153996  0.010777     48.000000
 -0.093336  0.145196  0.010777     48.000000
 -0.068446  0.136396  0.010777     48.000000
 -0.043557  0.127597  0.010777     48.000000
 -0.018667  0.118797  0.010777     48.000000
  0.130670  0.092397  0.010777     24.000000
 -0.143115  0.189195  0.010777     48.000000
 -0.118225  0.180395  0.010777     48.000000
 -0.093336  0.171595  0.010777     48.000000
 -0.068446  0.162796  0.010777     48.000000
 -0.043557  0.153996  0.010777     48.000000
 -0.018667  0.145196  0.010777     48.000000
 -0.143115 -0.101197  0.010777     24.000000
 -0.118225 -0.109997  0.010777     48.000000
 -0.093336 -0.118797  0.010777     48.000000
 -0.068446 -0.127597  0.010777     48.000000
 -0.043557 -0.136396  0.010777     48.000000
 -0.118225 -0.083598  0.010777     24.000000
 -0.093336 -0.092397  0.010777     48.000000
 -0.068446 -0.101197  0.010777     48.000000
 -0.043557 -0.109997  0.010777     48.000000
 -0.093336 -0.065998  0.010777     24.000000
 -0.068446 -0.074798  0.010777     48.000000
 -0.043557 -0.083598  0.010777     48.000000
 -0.068446 -0.048399  0.010777     24.000000
 -0.043557 -0.057198  0.010777     48.000000
 -0.043557 -0.030799  0.010777     24.000000
  0.018667  0.013200  0.032332      8.000000
  0.043557  0.004400  0.032332     24.000000
  0.068446 -0.004400  0.032332     24.000000
  0.093336 -0.013200  0.032332     24.000000
  0.118225 -0.021999  0.032332     24.000000
 -0.155559  0.074798  0.032332     24.000000
 -0.130670  0.065998  0.032332     24.000000
 -0.105780  0.057198  0.032332     24.000000
 -0.080891  0.048399  0.032332     24.000000
 -0.056001  0.039599  0.032332     24.000000
  0.043557  0.030799  0.032332     24.000000
  0.068446  0.021999  0.032332     48.000000
  0.093336  0.013200  0.032332     48.000000
  0.118225  0.004400  0.032332     48.000000
 -0.155559  0.101197  0.032332     48.000000
 -0.130670  0.092397  0.032332     48.000000
 -0.105780  0.083598  0.032332     48.000000
 -0.080891  0.074798  0.032332     48.000000
 -0.056001  0.065998  0.032332     48.000000
  0.068446  0.048399  0.032332     24.000000
  0.093336  0.039599  0.032332     48.000000
  0.118225  0.030799  0.032332     48.000000
 -0.155559  0.127597  0.032332     48.000000
 -0.130670  0.118797  0.032332     48.000000
 -0.105780  0.109997  0.032332     48.000000
 -0.080891  0.101197  0.032332     48.000000
 -0.056001  0.092397  0.032332     48.000000
  0.093336  0.065998  0.032332     24.000000
  0.118225  0.057198  0.032332     48.000000
 -0.155559  0.153996  0.032332     48.000000
 -0.130670  0.145196  0.032332     48.000000
 -0.105780  0.136396  0.032332     48.000000
 -0.080891  0.127597  0.032332     48.000000
 -0.056001  0.118797  0.032332     48.000000
  0.118225  0.083598  0.032332     24.000000
 -0.155559  0.180395  0.032332     48.000000
 -0.130670  0.171595  0.032332     48.000000
 -0.105780  0.162796  0.032332     48.000000
 -0.080891  0.153996  0.032332     48.000000
 -0.056001  0.145196  0.032332     48.000000
 -0.155559 -0.109997  0.032332     24.000000
 -0.130670 -0.118797  0.032332     48.000000
 -0.105780 -0.127597  0.032332     48.000000
 -0.080891 -0.136396  0.032332     48.000000
 -0.130670 -0.092397  0.032332     24.000000
 -0.105780 -0.101197  0.032332     48.000000
 -0.080891 -0.109997  0.032332     48.000000
 -0.105780 -0.074798  0.032332     24.000000
 -0.080891 -0.083598  0.032332     48.000000
 -0.080891 -0.057198  0.032332     24.000000
  0.031112  0.021999  0.053887      8.000000
  0.056001  0.013200  0.053887     24.000000
  0.080891  0.004400  0.053887     24.000000
  0.105780 -0.004400  0.053887     24.000000
 -0.168004  0.092397  0.053887     24.000000
 -0.143115  0.083598  0.053887     24.000000
 -0.118225  0.074798  0.053887     24.000000
 -0.093336  0.065998  0.053887     24.000000
  0.056001  0.039599  0.053887     24.000000
  0.080891  0.030799  0.053887     48.000000
  0.105780  0.021999  0.053887     48.000000
 -0.168004  0.118797  0.053887     48.000000
 -0.143115  0.109997  0.053887     48.000000
 -0.118225  0.101197  0.053887     48.000000
 -0.093336  0.092397  0.053887     48.000000
  0.080891  0.057198  0.053887     24.000000
  0.105780  0.048399  0.053887     48.000000
 -0.168004  0.145196  0.053887     48.000000
 -0.143115  0.136396  0.053887     48.000000
 -0.118225  0.127597  0.053887     48.000000
 -0.093336  0.118797  0.053887     48.000000
  0.105780  0.074798  0.053887     24.000000
 -0.168004  0.171595  0.053887     48.000000
 -0.143115  0.162796  0.053887     48.000000
 -0.118225  0.153996  0.053887     48.000000
 -0.093336  0.145196  0.053887     48.000000
 -0.168004 -0.118797  0.053887     24.000000
 -0.143115 -0.127597  0.053887     48.000000
 -0.118225 -0.136396  0.053887     48.000000
 -0.143115 -0.101197  0.053887     24.000000
 -0.118225 -0.109997  0.053887     48.000000
 -0.118225 -0.083598  0.053887     24.000000
  0.043557  0.030799  0.075442      8.000000
  0.068446  0.021999  0.075442     24.000000
  0.093336  0.013200  0.075442     24.000000
 -0.180449  0.109997  0.075442     24.000000
 -0.155559  0.101197  0.075442     24.000000
 -0.130670  0.092397  0.075442     24.000000
  0.068446  0.048399  0.075442     24.000000
  0.093336  0.039599  0.075442     48.000000
 -0.180449  0.136396  0.075442     48.000000
 -0.155559  0.127597  0.075442     48.000000
 -0.130670  0.118797  0.075442     48.000000
  0.093336  0.065998  0.075442     24.000000
 -0.180449  0.162796  0.075442     48.000000
 -0.155559  0.153996  0.075442     48.000000
 -0.130670  0.145196  0.075442     48.000000
 -0.180449 -0.127597  0.075442     24.000000
 -0.155559 -0.136396  0.075442     48.000000
 -0.155559 -0.109997  0.075442     24.000000
  0.056001  0.039599  0.096997      8.000000
  0.080891  0.030799  0.096997     24.000000
 -0.192894  0.127597  0.096997     24.000000
 -0.168004  0.118797  0.096997     24.000000
  0.080891  0.057198  0.096997     24.000000
 -0.192894  0.153996  0.096997     48.000000
 -0.168004  0.145196  0.096997     48.000000
 -0.192894 -0.136396  0.096997     24.000000
  0.068446  0.048399  0.118552      8.000000
 -0.205338  0.145196  0.118552     24.000000
 


--------------------------------------------------------------------------------------------------------




 Dimension of arrays:
   k-points           NKPTS =    182   k-points in BZ     NKDIM =    182   number of bands    NBANDS=      8
   number of dos      NEDOS =    301   number of ions     NIONS =      2
   non local maximal  LDIM  =      4   non local SUM 2l+1 LMDIM =      8
   total plane-waves  NPLWV =  13824
   max r-space proj   IRMAX =      1   max aug-charges    IRDMAX=  88022
   dimension x,y,z NGX =    24 NGY =   24 NGZ =   24
   dimension x,y,z NGXF=    48 NGYF=   48 NGZF=   48
   support grid    NGXF=    96 NGYF=   96 NGZF=   96
   ions per type =               2
   NGX,Y,Z   is equivalent  to a cutoff of  10.22, 10.22, 10.22 a.u.
   NGXF,Y,Z  is equivalent  to a cutoff of  20.44, 20.44, 20.44 a.u.

 SYSTEM =  unknown system                          
 POSCAR =  Si2                                     

 Startparameter for this run:
   NWRITE =      2    write-flag & timer
   PREC   = accura    normal or accurate (medium, high low for compatibility)
   ISTART =      0    job   : 0-new  1-cont  2-samecut
   ICHARG =      2    charge: 1-file 2-atom 10-const
   ISPIN  =      1    spin polarized calculation?
   LNONCOLLINEAR =      F non collinear calculations
   LSORBIT =      F    spin-orbit coupling
   INIWAV =      1    electr: 0-lowe 1-rand  2-diag
   LASPH  =      T    aspherical Exc in radial PAW
   METAGGA=      F    non-selfconsistent MetaGGA calc.

 Electronic Relaxation 1
   ENCUT  =  350.0 eV  25.72 Ry    5.07 a.u.   5.96  5.96  5.96*2*pi/ulx,y,z
   ENINI  =  350.0     initial cutoff
   ENAUG  =  322.1 eV  augmentation charge cutoff
   NELM   =     90;   NELMIN=  6; NELMDL= -5     # of ELM steps 
   EDIFF  = 0.1E-05   stopping-criterion for ELM
   LREAL  =      F    real-space projection
   NLSPLINE    = F    spline interpolate recip. space projectors
   LCOMPAT=      F    compatible to vasp.4.4
   GGA_COMPAT  = T    GGA compatible to vasp.4.4-vasp.4.6
   LMAXPAW     = -100 max onsite density
   LMAXMIX     =    2 max onsite mixed and CHGCAR
   VOSKOWN=      0    Vosko Wilk Nusair interpolation
   ROPT   =    0.00000
 Ionic relaxation
   EDIFFG = -.2E-02   stopping-criterion for IOM
   NSW    =    100    number of steps for IOM
   NBLOCK =      1;   KBLOCK =    100    inner block; outer block 
   IBRION =      2    ionic relax: 0-MD 1-quasi-New 2-CG
   NFREE  =      1    steps in history (QN), initial steepest desc. (CG)
   ISIF   =      2    stress and relaxation
   IWAVPR =     11    prediction:  0-non 1-charg 2-wave 3-comb
   ISYM   =      2    0-nonsym 1-usesym 2-fastsym
   LCORR  =      T    Harris-Foulkes like correction to forces

   POTIM  = 0.5000    time-step for ionic-motion
   TEIN   =    0.0    initial temperature
   TEBEG  =    0.0;   TEEND  =   0.0 temperature during run
   SMASS  =  -3.00    Nose mass-parameter (am)
   estimated Nose-frequenzy (Omega)   =  0.10E-29 period in steps = 0.13E+47 mass=  -0.348E-27a.u.
   SCALEE = 1.0000    scale energy and forces
   NPACO  =    256;   APACO  = 16.0  distance and # of slots for P.C.
   PSTRESS=    0.0 pullay stress

  Mass of Ions in am
   POMASS =  28.09
  Ionic Valenz
   ZVAL   =   4.00
  Atomic Wigner-Seitz radii
   RWIGS  =  -1.00
  virtual crystal weights 
   VCA    =   1.00
   NELECT =       8.0000    total number of electrons
   NUPDOWN=      -1.0000    fix difference up-down

 DOS related values:
   EMIN   =  10.00;   EMAX   =-10.00  energy-range for DOS
   EFERMI =   0.00
   ISMEAR =     0;   SIGMA  =   0.05  broadening in eV -4-tet -1-fermi 0-gaus

 Electronic relaxation 2 (details)
   IALGO  =     38    algorithm
   LDIAG  =      T    sub-space diagonalisation (order eigenvalues)
   LSUBROT=      F    optimize rotation matrix (better conditioning)
   TURBO    =      0    0=normal 1=particle mesh
   IRESTART =      0    0=no restart 2=restart with 2 vectors
   NREBOOT  =      0    no. of reboots
   NMIN     =      0    reboot dimension
   EREF     =   0.00    reference energy to select bands
   IMIX   =      4    mixing-type and parameters
     AMIX     =   0.40;   BMIX     =  1.00
     AMIX_MAG =   1.60;   BMIX_MAG =  1.00
     AMIN     =   0.10
     WC   =   100.;   INIMIX=   1;  MIXPRE=   1;  MAXMIX= -45

 Intra band minimization:
   WEIMIN = 0.0010     energy-eigenvalue tresh-hold
   EBREAK =  0.31E-07  absolut break condition
   DEPER  =   0.30     relativ break condition  

   TIME   =   0.40     timestep for ELM

  volume/ion in A,a.u.               =      21.05       142.05
  Fermi-wavevector in a.u.,A,eV,Ry     =   0.941202  1.778614 12.052880  0.885862
  Thomas-Fermi vector in A             =   2.068690
 
 Write flags
   LWAVE        =      F    write WAVECAR
   LDOWNSAMPLE  =      F    k-point downsampling of WAVECAR
   LCHARG       =      F    write CHGCAR
   LVTOT        =      F    write LOCPOT, total local potential
   LVHAR        =      F    write LOCPOT, Hartree potential only
   LELF         =      F    write electronic localiz. function (ELF)
   LORBIT       =      0    0 simple, 1 ext, 2 COOP (PROOUT), +10 PAW based schemes


 Dipole corrections
   LMONO  =      F    monopole corrections only (constant potential shift)
   LDIPOL =      F    correct potential (dipole corrections)
   IDIPOL =      0    1-x, 2-y, 3-z, 4-all directions 
   EPSILON=  1.0000000 bulk dielectric constant

 Exchange correlation treatment:
   GGA     =    --    GGA type
   LEXCH   =     8    internal setting for exchange type
   VOSKOWN=      0    Vosko Wilk Nusair interpolation
   LHFCALC =     F    Hartree Fock is set to
   LHFONE  =     F    Hartree Fock one center treatment
   AEXX    =    0.0000 exact exchange contribution

 Linear response parameters
   LEPSILON=     F    determine dielectric tensor
   LRPA    =     F    only Hartree local field effects (RPA)
   LNABLA  =     F    use nabla operator in PAW spheres
   LVEL    =     F    velocity operator in full k-point grid
   LINTERFAST=   F  fast interpolation
   KINTER  =     0    interpolate to denser k-point grid
   CSHIFT  =0.1000    complex shift for real part using Kramers Kronig
   OMEGAMAX=  -1.0    maximum frequency
   DEG_THRESHOLD= 0.2000000E-02 threshold for treating states as degnerate
   RTIME   =   -0.100 relaxation time in fs
  (WPLASMAI=    0.000 imaginary part of plasma frequency in eV, 0.658/RTIME)
   DFIELD  = 0.0000000 0.0000000 0.0000000 field for delta impulse in time
 
 Orbital magnetization related:
   ORBITALMAG=     F  switch on orbital magnetization
   LCHIMAG   =     F  perturbation theory with respect to B field
   DQ        =  0.001000  dq finite difference perturbation B field
   LLRAUG    =     F  two centre corrections for induced B field



--------------------------------------------------------------------------------------------------------


 conjugate gradient relaxation of ions
 charge density and potential will be updated during run
 non-spin polarized calculation
 Variant of blocked Davidson
 Davidson routine will perform the subspace rotation
 perform sub-space diagonalisation
    after iterative eigenvector-optimisation
 modified Broyden-mixing scheme, WC =      100.0
 initial mixing is a Kerker type mixing with AMIX =  0.4000 and BMIX =      1.0000
 Hartree-type preconditioning will be used
 using additional bands            4
 reciprocal scheme for non local part
 use partial core corrections
 calculate Harris-corrections to forces 
   (improved forces if not selfconsistent)
 use gradient corrections 
 use of overlap-Matrix (Vanderbilt PP)
 Gauss-broadening in eV      SIGMA  =   0.05


--------------------------------------------------------------------------------------------------------


  energy-cutoff  :      350.00
  volume of cell :       42.10
      direct lattice vectors                 reciprocal lattice vectors
     3.381614724  0.000000000  1.952375896     0.295716716 -0.104551606  0.000000000
     1.127204908  3.188218200  1.952375896     0.000000000  0.313654818  0.000000000
     0.000000000  0.000000000  3.904751792    -0.147858358 -0.104551606  0.256098224

  length of vectors
     3.904752205  3.904753236  3.904751792     0.313654929  0.313654818  0.313654958


 
 k-points in units of 2pi/SCALE and weight: Automatic                               
   0.00622237  0.00439988  0.01077747       0.001
   0.03111186 -0.00439988  0.01077747       0.003
   0.05600135 -0.01319964  0.01077747       0.003
   0.08089084 -0.02199940  0.01077747       0.003
   0.10578033 -0.03079916  0.01077747       0.003
   0.13066982 -0.03959892  0.01077747       0.003
  -0.14311457  0.05719844  0.01077747       0.003
  -0.11822508  0.04839868  0.01077747       0.003
  -0.09333559  0.03959892  0.01077747       0.003
  -0.06844610  0.03079916  0.01077747       0.003
  -0.04355661  0.02199940  0.01077747       0.003
  -0.01866712  0.01319964  0.01077747       0.003
   0.03111186  0.02199940  0.01077747       0.003
   0.05600135  0.01319964  0.01077747       0.007
   0.08089084  0.00439988  0.01077747       0.007
   0.10578033 -0.00439988  0.01077747       0.007
   0.13066982 -0.01319964  0.01077747       0.007
  -0.14311457  0.08359772  0.01077747       0.007
  -0.11822508  0.07479796  0.01077747       0.007
  -0.09333559  0.06599820  0.01077747       0.007
  -0.06844610  0.05719844  0.01077747       0.007
  -0.04355661  0.04839868  0.01077747       0.007
  -0.01866712  0.03959892  0.01077747       0.007
   0.05600135  0.03959892  0.01077747       0.003
   0.08089084  0.03079916  0.01077747       0.007
   0.10578033  0.02199940  0.01077747       0.007
   0.13066982  0.01319964  0.01077747       0.007
  -0.14311457  0.10999700  0.01077747       0.007
  -0.11822508  0.10119724  0.01077747       0.007
  -0.09333559  0.09239748  0.01077747       0.007
  -0.06844610  0.08359772  0.01077747       0.007
  -0.04355661  0.07479796  0.01077747       0.007
  -0.01866712  0.06599820  0.01077747       0.007
   0.08089084  0.05719844  0.01077747       0.003
   0.10578033  0.04839868  0.01077747       0.007
   0.13066982  0.03959892  0.01077747       0.007
  -0.14311457  0.13639628  0.01077747       0.007
  -0.11822508  0.12759652  0.01077747       0.007
  -0.09333559  0.11879676  0.01077747       0.007
  -0.06844610  0.10999700  0.01077747       0.007
  -0.04355661  0.10119724  0.01077747       0.007
  -0.01866712  0.09239748  0.01077747       0.007
   0.10578033  0.07479796  0.01077747       0.003
   0.13066982  0.06599820  0.01077747       0.007
  -0.14311457  0.16279556  0.01077747       0.007
  -0.11822508  0.15399580  0.01077747       0.007
  -0.09333559  0.14519604  0.01077747       0.007
  -0.06844610  0.13639628  0.01077747       0.007
  -0.04355661  0.12759652  0.01077747       0.007
  -0.01866712  0.11879676  0.01077747       0.007
   0.13066982  0.09239748  0.01077747       0.003
  -0.14311457  0.18919484  0.01077747       0.007
  -0.11822508  0.18039508  0.01077747       0.007
  -0.09333559  0.17159532  0.01077747       0.007
  -0.06844610  0.16279556  0.01077747       0.007
  -0.04355661  0.15399580  0.01077747       0.007
  -0.01866712  0.14519604  0.01077747       0.007
  -0.14311457 -0.10119724  0.01077747       0.003
  -0.11822508 -0.10999700  0.01077747       0.007
  -0.09333559 -0.11879676  0.01077747       0.007
  -0.06844610 -0.12759652  0.01077747       0.007
  -0.04355661 -0.13639628  0.01077747       0.007
  -0.11822508 -0.08359772  0.01077747       0.003
  -0.09333559 -0.09239748  0.01077747       0.007
  -0.06844610 -0.10119724  0.01077747       0.007
  -0.04355661 -0.10999700  0.01077747       0.007
  -0.09333559 -0.06599820  0.01077747       0.003
  -0.06844610 -0.07479796  0.01077747       0.007
  -0.04355661 -0.08359772  0.01077747       0.007
  -0.06844610 -0.04839868  0.01077747       0.003
  -0.04355661 -0.05719844  0.01077747       0.007
  -0.04355661 -0.03079916  0.01077747       0.003
   0.01866712  0.01319964  0.03233240       0.001
   0.04355661  0.00439988  0.03233240       0.003
   0.06844610 -0.00439988  0.03233240       0.003
   0.09333559 -0.01319964  0.03233240       0.003
   0.11822508 -0.02199940  0.03233240       0.003
  -0.15555931  0.07479796  0.03233240       0.003
  -0.13066982  0.06599820  0.03233240       0.003
  -0.10578033  0.05719844  0.03233240       0.003
  -0.08089084  0.04839868  0.03233240       0.003
  -0.05600135  0.03959892  0.03233240       0.003
   0.04355661  0.03079916  0.03233240       0.003
   0.06844610  0.02199940  0.03233240       0.007
   0.09333559  0.01319964  0.03233240       0.007
   0.11822508  0.00439988  0.03233240       0.007
  -0.15555931  0.10119724  0.03233240       0.007
  -0.13066982  0.09239748  0.03233240       0.007
  -0.10578033  0.08359772  0.03233240       0.007
  -0.08089084  0.07479796  0.03233240       0.007
  -0.05600135  0.06599820  0.03233240       0.007
   0.06844610  0.04839868  0.03233240       0.003
   0.09333559  0.03959892  0.03233240       0.007
   0.11822508  0.03079916  0.03233240       0.007
  -0.15555931  0.12759652  0.03233240       0.007
  -0.13066982  0.11879676  0.03233240       0.007
  -0.10578033  0.10999700  0.03233240       0.007
  -0.08089084  0.10119724  0.03233240       0.007
  -0.05600135  0.09239748  0.03233240       0.007
   0.09333559  0.06599820  0.03233240       0.003
   0.11822508  0.05719844  0.03233240       0.007
  -0.15555931  0.15399580  0.03233240       0.007
  -0.13066982  0.14519604  0.03233240       0.007
  -0.10578033  0.13639628  0.03233240       0.007
  -0.08089084  0.12759652  0.03233240       0.007
  -0.05600135  0.11879676  0.03233240       0.007
   0.11822508  0.08359772  0.03233240       0.003
  -0.15555931  0.18039508  0.03233240       0.007
  -0.13066982  0.17159532  0.03233240       0.007
  -0.10578033  0.16279556  0.03233240       0.007
  -0.08089084  0.15399580  0.03233240       0.007
  -0.05600135  0.14519604  0.03233240       0.007
  -0.15555931 -0.10999700  0.03233240       0.003
  -0.13066982 -0.11879676  0.03233240       0.007
  -0.10578033 -0.12759652  0.03233240       0.007
  -0.08089084 -0.13639628  0.03233240       0.007
  -0.13066982 -0.09239748  0.03233240       0.003
  -0.10578033 -0.10119724  0.03233240       0.007
  -0.08089084 -0.10999700  0.03233240       0.007
  -0.10578033 -0.07479796  0.03233240       0.003
  -0.08089084 -0.08359772  0.03233240       0.007
  -0.08089084 -0.05719844  0.03233240       0.003
   0.03111186  0.02199940  0.05388733       0.001
   0.05600135  0.01319964  0.05388733       0.003
   0.08089084  0.00439988  0.05388733       0.003
   0.10578033 -0.00439988  0.05388733       0.003
  -0.16800406  0.09239748  0.05388733       0.003
  -0.14311457  0.08359772  0.05388733       0.003
  -0.11822508  0.07479796  0.05388733       0.003
  -0.09333559  0.06599820  0.05388733       0.003
   0.05600135  0.03959892  0.05388733       0.003
   0.08089084  0.03079916  0.05388733       0.007
   0.10578033  0.02199940  0.05388733       0.007
  -0.16800406  0.11879676  0.05388733       0.007
  -0.14311457  0.10999700  0.05388733       0.007
  -0.11822508  0.10119724  0.05388733       0.007
  -0.09333559  0.09239748  0.05388733       0.007
   0.08089084  0.05719844  0.05388733       0.003
   0.10578033  0.04839868  0.05388733       0.007
  -0.16800406  0.14519604  0.05388733       0.007
  -0.14311457  0.13639628  0.05388733       0.007
  -0.11822508  0.12759652  0.05388733       0.007
  -0.09333559  0.11879676  0.05388733       0.007
   0.10578033  0.07479796  0.05388733       0.003
  -0.16800406  0.17159532  0.05388733       0.007
  -0.14311457  0.16279556  0.05388733       0.007
  -0.11822508  0.15399580  0.05388733       0.007
  -0.09333559  0.14519604  0.05388733       0.007
  -0.16800406 -0.11879676  0.05388733       0.003
  -0.14311457 -0.12759652  0.05388733       0.007
  -0.11822508 -0.13639628  0.05388733       0.007
  -0.14311457 -0.10119724  0.05388733       0.003
  -0.11822508 -0.10999700  0.05388733       0.007
  -0.11822508 -0.08359772  0.05388733       0.003
   0.04355661  0.03079916  0.07544227       0.001
   0.06844610  0.02199940  0.07544227       0.003
   0.09333559  0.01319964  0.07544227       0.003
  -0.18044880  0.10999700  0.07544227       0.003
  -0.15555931  0.10119724  0.07544227       0.003
  -0.13066982  0.09239748  0.07544227       0.003
   0.06844610  0.04839868  0.07544227       0.003
   0.09333559  0.03959892  0.07544227       0.007
  -0.18044880  0.13639628  0.07544227       0.007
  -0.15555931  0.12759652  0.07544227       0.007
  -0.13066982  0.11879676  0.07544227       0.007
   0.09333559  0.06599820  0.07544227       0.003
  -0.18044880  0.16279556  0.07544227       0.007
  -0.15555931  0.15399580  0.07544227       0.007
  -0.13066982  0.14519604  0.07544227       0.007
  -0.18044880 -0.12759652  0.07544227       0.003
  -0.15555931 -0.13639628  0.07544227       0.007
  -0.15555931 -0.10999700  0.07544227       0.003
   0.05600135  0.03959892  0.09699720       0.001
   0.08089084  0.03079916  0.09699720       0.003
  -0.19289355  0.12759652  0.09699720       0.003
  -0.16800406  0.11879676  0.09699720       0.003
   0.08089084  0.05719844  0.09699720       0.003
  -0.19289355  0.15399580  0.09699720       0.007
  -0.16800406  0.14519604  0.09699720       0.007
  -0.19289355 -0.13639628  0.09699720       0.003
   0.06844610  0.04839868  0.11855214       0.001
  -0.20533829  0.14519604  0.11855214       0.003
 
 k-points in reciprocal lattice and weights: Automatic                               
   0.04166667  0.04166667  0.04166667       0.001
   0.12500000  0.04166667  0.04166667       0.003
   0.20833333  0.04166667  0.04166667       0.003
   0.29166667  0.04166667  0.04166667       0.003
   0.37500000  0.04166667  0.04166667       0.003
   0.45833333  0.04166667  0.04166667       0.003
  -0.45833333  0.04166667  0.04166667       0.003
  -0.37500000  0.04166667  0.04166667       0.003
  -0.29166667  0.04166667  0.04166667       0.003
  -0.20833333  0.04166667  0.04166667       0.003
  -0.12500000  0.04166667  0.04166667       0.003
  -0.04166667  0.04166667  0.04166667       0.003
   0.12500000  0.12500000  0.04166667       0.003
   0.20833333  0.12500000  0.04166667       0.007
   0.29166667  0.12500000  0.04166667       0.007
   0.37500000  0.12500000  0.04166667       0.007
   0.45833333  0.12500000  0.04166667       0.007
  -0.45833333  0.12500000  0.04166667       0.007
  -0.37500000  0.12500000  0.04166667       0.007
  -0.29166667  0.12500000  0.04166667       0.007
  -0.20833333  0.12500000  0.04166667       0.007
  -0.12500000  0.12500000  0.04166667       0.007
  -0.04166667  0.12500000  0.04166667       0.007
   0.20833333  0.20833333  0.04166667       0.003
   0.29166667  0.20833333  0.04166667       0.007
   0.37500000  0.20833333  0.04166667       0.007
   0.45833333  0.20833333  0.04166667       0.007
  -0.45833333  0.20833333  0.04166667       0.007
  -0.37500000  0.20833333  0.04166667       0.007
  -0.29166667  0.20833333  0.04166667       0.007
  -0.20833333  0.20833333  0.04166667       0.007
  -0.12500000  0.20833333  0.04166667       0.007
  -0.04166667  0.20833333  0.04166667       0.007
   0.29166667  0.29166667  0.04166667       0.003
   0.37500000  0.29166667  0.04166667       0.007
   0.45833333  0.29166667  0.04166667       0.007
  -0.45833333  0.29166667  0.04166667       0.007
  -0.37500000  0.29166667  0.04166667       0.007
  -0.29166667  0.29166667  0.04166667       0.007
  -0.20833333  0.29166667  0.04166667       0.007
  -0.12500000  0.29166667  0.04166667       0.007
  -0.04166667  0.29166667  0.04166667       0.007
   0.37500000  0.37500000  0.04166667       0.003
   0.45833333  0.37500000  0.04166667       0.007
  -0.45833333  0.37500000  0.04166667       0.007
  -0.37500000  0.37500000  0.04166667       0.007
  -0.29166667  0.37500000  0.04166667       0.007
  -0.20833333  0.37500000  0.04166667       0.007
  -0.12500000  0.37500000  0.04166667       0.007
  -0.04166667  0.37500000  0.04166667       0.007
   0.45833333  0.45833333  0.04166667       0.003
  -0.45833333  0.45833333  0.04166667       0.007
  -0.37500000  0.45833333  0.04166667       0.007
  -0.29166667  0.45833333  0.04166667       0.007
  -0.20833333  0.45833333  0.04166667       0.007
  -0.12500000  0.45833333  0.04166667       0.007
  -0.04166667  0.45833333  0.04166667       0.007
  -0.45833333 -0.45833333  0.04166667       0.003
  -0.37500000 -0.45833333  0.04166667       0.007
  -0.29166667 -0.45833333  0.04166667       0.007
  -0.20833333 -0.45833333  0.04166667       0.007
  -0.12500000 -0.45833333  0.04166667       0.007
  -0.37500000 -0.37500000  0.04166667       0.003
  -0.29166667 -0.37500000  0.04166667       0.007
  -0.20833333 -0.37500000  0.04166667       0.007
  -0.12500000 -0.37500000  0.04166667       0.007
  -0.29166667 -0.29166667  0.04166667       0.003
  -0.20833333 -0.29166667  0.04166667       0.007
  -0.12500000 -0.29166667  0.04166667       0.007
  -0.20833333 -0.20833333  0.04166667       0.003
  -0.12500000 -0.20833333  0.04166667       0.007
  -0.12500000 -0.12500000  0.04166667       0.003
   0.12500000  0.12500000  0.12500000       0.001
   0.20833333  0.12500000  0.12500000       0.003
   0.29166667  0.12500000  0.12500000       0.003
   0.37500000  0.12500000  0.12500000       0.003
   0.45833333  0.12500000  0.12500000       0.003
  -0.45833333  0.12500000  0.12500000       0.003
  -0.37500000  0.12500000  0.12500000       0.003
  -0.29166667  0.12500000  0.12500000       0.003
  -0.20833333  0.12500000  0.12500000       0.003
  -0.12500000  0.12500000  0.12500000       0.003
   0.20833333  0.20833333  0.12500000       0.003
   0.29166667  0.20833333  0.12500000       0.007
   0.37500000  0.20833333  0.12500000       0.007
   0.45833333  0.20833333  0.12500000       0.007
  -0.45833333  0.20833333  0.12500000       0.007
  -0.37500000  0.20833333  0.12500000       0.007
  -0.29166667  0.20833333  0.12500000       0.007
  -0.20833333  0.20833333  0.12500000       0.007
  -0.12500000  0.20833333  0.12500000       0.007
   0.29166667  0.29166667  0.12500000       0.003
   0.37500000  0.29166667  0.12500000       0.007
   0.45833333  0.29166667  0.12500000       0.007
  -0.45833333  0.29166667  0.12500000       0.007
  -0.37500000  0.29166667  0.12500000       0.007
  -0.29166667  0.29166667  0.12500000       0.007
  -0.20833333  0.29166667  0.12500000       0.007
  -0.12500000  0.29166667  0.12500000       0.007
   0.37500000  0.37500000  0.12500000       0.003
   0.45833333  0.37500000  0.12500000       0.007
  -0.45833333  0.37500000  0.12500000       0.007
  -0.37500000  0.37500000  0.12500000       0.007
  -0.29166667  0.37500000  0.12500000       0.007
  -0.20833333  0.37500000  0.12500000       0.007
  -0.12500000  0.37500000  0.12500000       0.007
   0.45833333  0.45833333  0.12500000       0.003
  -0.45833333  0.45833333  0.12500000       0.007
  -0.37500000  0.45833333  0.12500000       0.007
  -0.29166667  0.45833333  0.12500000       0.007
  -0.20833333  0.45833333  0.12500000       0.007
  -0.12500000  0.45833333  0.12500000       0.007
  -0.45833333 -0.45833333  0.12500000       0.003
  -0.37500000 -0.45833333  0.12500000       0.007
  -0.29166667 -0.45833333  0.12500000       0.007
  -0.20833333 -0.45833333  0.12500000       0.007
  -0.37500000 -0.37500000  0.12500000       0.003
  -0.29166667 -0.37500000  0.12500000       0.007
  -0.20833333 -0.37500000  0.12500000       0.007
  -0.29166667 -0.29166667  0.12500000       0.003
  -0.20833333 -0.29166667  0.12500000       0.007
  -0.20833333 -0.20833333  0.12500000       0.003
   0.20833333  0.20833333  0.20833333       0.001
   0.29166667  0.20833333  0.20833333       0.003
   0.37500000  0.20833333  0.20833333       0.003
   0.45833333  0.20833333  0.20833333       0.003
  -0.45833333  0.20833333  0.20833333       0.003
  -0.37500000  0.20833333  0.20833333       0.003
  -0.29166667  0.20833333  0.20833333       0.003
  -0.20833333  0.20833333  0.20833333       0.003
   0.29166667  0.29166667  0.20833333       0.003
   0.37500000  0.29166667  0.20833333       0.007
   0.45833333  0.29166667  0.20833333       0.007
  -0.45833333  0.29166667  0.20833333       0.007
  -0.37500000  0.29166667  0.20833333       0.007
  -0.29166667  0.29166667  0.20833333       0.007
  -0.20833333  0.29166667  0.20833333       0.007
   0.37500000  0.37500000  0.20833333       0.003
   0.45833333  0.37500000  0.20833333       0.007
  -0.45833333  0.37500000  0.20833333       0.007
  -0.37500000  0.37500000  0.20833333       0.007
  -0.29166667  0.37500000  0.20833333       0.007
  -0.20833333  0.37500000  0.20833333       0.007
   0.45833333  0.45833333  0.20833333       0.003
  -0.45833333  0.45833333  0.20833333       0.007
  -0.37500000  0.45833333  0.20833333       0.007
  -0.29166667  0.45833333  0.20833333       0.007
  -0.20833333  0.45833333  0.20833333       0.007
  -0.45833333 -0.45833333  0.20833333       0.003
  -0.37500000 -0.45833333  0.20833333       0.007
  -0.29166667 -0.45833333  0.20833333       0.007
  -0.37500000 -0.37500000  0.20833333       0.003
  -0.29166667 -0.37500000  0.20833333       0.007
  -0.29166667 -0.29166667  0.20833333       0.003
   0.29166667  0.29166667  0.29166667       0.001
   0.37500000  0.29166667  0.29166667       0.003
   0.45833333  0.29166667  0.29166667       0.003
  -0.45833333  0.29166667  0.29166667       0.003
  -0.37500000  0.29166667  0.29166667       0.003
  -0.29166667  0.29166667  0.29166667       0.003
   0.37500000  0.37500000  0.29166667       0.003
   0.45833333  0.37500000  0.29166667       0.007
  -0.45833333  0.37500000  0.29166667       0.007
  -0.37500000  0.37500000  0.29166667       0.007
  -0.29166667  0.37500000  0.29166667       0.007
   0.45833333  0.45833333  0.29166667       0.003
  -0.45833333  0.45833333  0.29166667       0.007
  -0.37500000  0.45833333  0.29166667       0.007
  -0.29166667  0.45833333  0.29166667       0.007
  -0.45833333 -0.45833333  0.29166667       0.003
  -0.37500000 -0.45833333  0.29166667       0.007
  -0.37500000 -0.37500000  0.29166667       0.003
   0.37500000  0.37500000  0.37500000       0.001
   0.45833333  0.37500000  0.37500000       0.003
  -0.45833333  0.37500000  0.37500000       0.003
  -0.37500000  0.37500000  0.37500000       0.003
   0.45833333  0.45833333  0.37500000       0.003
  -0.45833333  0.45833333  0.37500000       0.007
  -0.37500000  0.45833333  0.37500000       0.007
  -0.45833333 -0.45833333  0.37500000       0.003
   0.45833333  0.45833333  0.45833333       0.001
  -0.45833333  0.45833333  0.45833333       0.003
 
 position of ions in fractional coordinates (direct lattice) 
   0.87500000  0.87500000  0.87500000
   0.12500000  0.12500000  0.12500000
 
 position of ions in cartesian coordinates  (Angst):
   3.94521718  2.78969093  6.83331564
   0.56360245  0.39852728  0.97618795
 


--------------------------------------------------------------------------------------------------------


 k-point   1 :   0.0417 0.0417 0.0417  plane waves:     609
 k-point   2 :   0.1250 0.0417 0.0417  plane waves:     621
 k-point   3 :   0.2083 0.0417 0.0417  plane waves:     621
 k-point   4 :   0.2917 0.0417 0.0417  plane waves:     618
 k-point   5 :   0.3750 0.0417 0.0417  plane waves:     614
 k-point   6 :   0.4583 0.0417 0.0417  plane waves:     620
 k-point   7 :  -0.4583 0.0417 0.0417  plane waves:     619
 k-point   8 :  -0.3750 0.0417 0.0417  plane waves:     618
 k-point   9 :  -0.2917 0.0417 0.0417  plane waves:     615
 k-point  10 :  -0.2083 0.0417 0.0417  plane waves:     620
 k-point  11 :  -0.1250 0.0417 0.0417  plane waves:     619
 k-point  12 :  -0.0417 0.0417 0.0417  plane waves:     617
 k-point  13 :   0.1250 0.1250 0.0417  plane waves:     616
 k-point  14 :   0.2083 0.1250 0.0417  plane waves:     618
 k-point  15 :   0.2917 0.1250 0.0417  plane waves:     619
 k-point  16 :   0.3750 0.1250 0.0417  plane waves:     620
 k-point  17 :   0.4583 0.1250 0.0417  plane waves:     621
 k-point  18 :  -0.4583 0.1250 0.0417  plane waves:     623
 k-point  19 :  -0.3750 0.1250 0.0417  plane waves:     619
 k-point  20 :  -0.2917 0.1250 0.0417  plane waves:     621
 k-point  21 :  -0.2083 0.1250 0.0417  plane waves:     620
 k-point  22 :  -0.1250 0.1250 0.0417  plane waves:     616
 k-point  23 :  -0.0417 0.1250 0.0417  plane waves:     614
 k-point  24 :   0.2083 0.2083 0.0417  plane waves:     616
 k-point  25 :   0.2917 0.2083 0.0417  plane waves:     620
 k-point  26 :   0.3750 0.2083 0.0417  plane waves:     620
 k-point  27 :   0.4583 0.2083 0.0417  plane waves:     626
 k-point  28 :  -0.4583 0.2083 0.0417  plane waves:     627
 k-point  29 :  -0.3750 0.2083 0.0417  plane waves:     625
 k-point  30 :  -0.2917 0.2083 0.0417  plane waves:     628
 k-point  31 :  -0.2083 0.2083 0.0417  plane waves:     625
 k-point  32 :  -0.1250 0.2083 0.0417  plane waves:     620
 k-point  33 :  -0.0417 0.2083 0.0417  plane waves:     618
 k-point  34 :   0.2917 0.2917 0.0417  plane waves:     626
 k-point  35 :   0.3750 0.2917 0.0417  plane waves:     625
 k-point  36 :   0.4583 0.2917 0.0417  plane waves:     626
 k-point  37 :  -0.4583 0.2917 0.0417  plane waves:     629
 k-point  38 :  -0.3750 0.2917 0.0417  plane waves:     630
 k-point  39 :  -0.2917 0.2917 0.0417  plane waves:     626
 k-point  40 :  -0.2083 0.2917 0.0417  plane waves:     623
 k-point  41 :  -0.1250 0.2917 0.0417  plane waves:     626
 k-point  42 :  -0.0417 0.2917 0.0417  plane waves:     619
 k-point  43 :   0.3750 0.3750 0.0417  plane waves:     632
 k-point  44 :   0.4583 0.3750 0.0417  plane waves:     628
 k-point  45 :  -0.4583 0.3750 0.0417  plane waves:     631
 k-point  46 :  -0.3750 0.3750 0.0417  plane waves:     626
 k-point  47 :  -0.2917 0.3750 0.0417  plane waves:     631
 k-point  48 :  -0.2083 0.3750 0.0417  plane waves:     630
 k-point  49 :  -0.1250 0.3750 0.0417  plane waves:     623
 k-point  50 :  -0.0417 0.3750 0.0417  plane waves:     615
 k-point  51 :   0.4583 0.4583 0.0417  plane waves:     628
 k-point  52 :  -0.4583 0.4583 0.0417  plane waves:     632
 k-point  53 :  -0.3750 0.4583 0.0417  plane waves:     633
 k-point  54 :  -0.2917 0.4583 0.0417  plane waves:     633
 k-point  55 :  -0.2083 0.4583 0.0417  plane waves:     631
 k-point  56 :  -0.1250 0.4583 0.0417  plane waves:     622
 k-point  57 :  -0.0417 0.4583 0.0417  plane waves:     622
 k-point  58 :  -0.4583-0.4583 0.0417  plane waves:     634
 k-point  59 :  -0.3750-0.4583 0.0417  plane waves:     628
 k-point  60 :  -0.2917-0.4583 0.0417  plane waves:     631
 k-point  61 :  -0.2083-0.4583 0.0417  plane waves:     628
 k-point  62 :  -0.1250-0.4583 0.0417  plane waves:     625
 k-point  63 :  -0.3750-0.3750 0.0417  plane waves:     626
 k-point  64 :  -0.2917-0.3750 0.0417  plane waves:     631
 k-point  65 :  -0.2083-0.3750 0.0417  plane waves:     621
 k-point  66 :  -0.1250-0.3750 0.0417  plane waves:     624
 k-point  67 :  -0.2917-0.2917 0.0417  plane waves:     630
 k-point  68 :  -0.2083-0.2917 0.0417  plane waves:     622
 k-point  69 :  -0.1250-0.2917 0.0417  plane waves:     617
 k-point  70 :  -0.2083-0.2083 0.0417  plane waves:     621
 k-point  71 :  -0.1250-0.2083 0.0417  plane waves:     619
 k-point  72 :  -0.1250-0.1250 0.0417  plane waves:     613
 k-point  73 :   0.1250 0.1250 0.1250  plane waves:     618
 k-point  74 :   0.2083 0.1250 0.1250  plane waves:     614
 k-point  75 :   0.2917 0.1250 0.1250  plane waves:     617
 k-point  76 :   0.3750 0.1250 0.1250  plane waves:     622
 k-point  77 :   0.4583 0.1250 0.1250  plane waves:     620
 k-point  78 :  -0.4583 0.1250 0.1250  plane waves:     621
 k-point  79 :  -0.3750 0.1250 0.1250  plane waves:     624
 k-point  80 :  -0.2917 0.1250 0.1250  plane waves:     618
 k-point  81 :  -0.2083 0.1250 0.1250  plane waves:     618
 k-point  82 :  -0.1250 0.1250 0.1250  plane waves:     619
 k-point  83 :   0.2083 0.2083 0.1250  plane waves:     619
 k-point  84 :   0.2917 0.2083 0.1250  plane waves:     620
 k-point  85 :   0.3750 0.2083 0.1250  plane waves:     622
 k-point  86 :   0.4583 0.2083 0.1250  plane waves:     624
 k-point  87 :  -0.4583 0.2083 0.1250  plane waves:     624
 k-point  88 :  -0.3750 0.2083 0.1250  plane waves:     627
 k-point  89 :  -0.2917 0.2083 0.1250  plane waves:     627
 k-point  90 :  -0.2083 0.2083 0.1250  plane waves:     622
 k-point  91 :  -0.1250 0.2083 0.1250  plane waves:     621
 k-point  92 :   0.2917 0.2917 0.1250  plane waves:     616
 k-point  93 :   0.3750 0.2917 0.1250  plane waves:     621
 k-point  94 :   0.4583 0.2917 0.1250  plane waves:     630
 k-point  95 :  -0.4583 0.2917 0.1250  plane waves:     632
 k-point  96 :  -0.3750 0.2917 0.1250  plane waves:     632
 k-point  97 :  -0.2917 0.2917 0.1250  plane waves:     632
 k-point  98 :  -0.2083 0.2917 0.1250  plane waves:     630
 k-point  99 :  -0.1250 0.2917 0.1250  plane waves:     626
 k-point 100 :   0.3750 0.3750 0.1250  plane waves:     625
 k-point 101 :   0.4583 0.3750 0.1250  plane waves:     627
 k-point 102 :  -0.4583 0.3750 0.1250  plane waves:     634
 k-point 103 :  -0.3750 0.3750 0.1250  plane waves:     635
 k-point 104 :  -0.2917 0.3750 0.1250  plane waves:     635
 k-point 105 :  -0.2083 0.3750 0.1250  plane waves:     634
 k-point 106 :  -0.1250 0.3750 0.1250  plane waves:     627
 k-point 107 :   0.4583 0.4583 0.1250  plane waves:     628
 k-point 108 :  -0.4583 0.4583 0.1250  plane waves:     634
 k-point 109 :  -0.3750 0.4583 0.1250  plane waves:     633
 k-point 110 :  -0.2917 0.4583 0.1250  plane waves:     629
 k-point 111 :  -0.2083 0.4583 0.1250  plane waves:     632
 k-point 112 :  -0.1250 0.4583 0.1250  plane waves:     630
 k-point 113 :  -0.4583-0.4583 0.1250  plane waves:     628
 k-point 114 :  -0.3750-0.4583 0.1250  plane waves:     629
 k-point 115 :  -0.2917-0.4583 0.1250  plane waves:     634
 k-point 116 :  -0.2083-0.4583 0.1250  plane waves:     635
 k-point 117 :  -0.3750-0.3750 0.1250  plane waves:     628
 k-point 118 :  -0.2917-0.3750 0.1250  plane waves:     634
 k-point 119 :  -0.2083-0.3750 0.1250  plane waves:     631
 k-point 120 :  -0.2917-0.2917 0.1250  plane waves:     629
 k-point 121 :  -0.2083-0.2917 0.1250  plane waves:     624
 k-point 122 :  -0.2083-0.2083 0.1250  plane waves:     620
 k-point 123 :   0.2083 0.2083 0.2083  plane waves:     628
 k-point 124 :   0.2917 0.2083 0.2083  plane waves:     620
 k-point 125 :   0.3750 0.2083 0.2083  plane waves:     624
 k-point 126 :   0.4583 0.2083 0.2083  plane waves:     626
 k-point 127 :  -0.4583 0.2083 0.2083  plane waves:     629
 k-point 128 :  -0.3750 0.2083 0.2083  plane waves:     629
 k-point 129 :  -0.2917 0.2083 0.2083  plane waves:     630
 k-point 130 :  -0.2083 0.2083 0.2083  plane waves:     621
 k-point 131 :   0.2917 0.2917 0.2083  plane waves:     618
 k-point 132 :   0.3750 0.2917 0.2083  plane waves:     620
 k-point 133 :   0.4583 0.2917 0.2083  plane waves:     625
 k-point 134 :  -0.4583 0.2917 0.2083  plane waves:     630
 k-point 135 :  -0.3750 0.2917 0.2083  plane waves:     631
 k-point 136 :  -0.2917 0.2917 0.2083  plane waves:     631
 k-point 137 :  -0.2083 0.2917 0.2083  plane waves:     629
 k-point 138 :   0.3750 0.3750 0.2083  plane waves:     621
 k-point 139 :   0.4583 0.3750 0.2083  plane waves:     624
 k-point 140 :  -0.4583 0.3750 0.2083  plane waves:     634
 k-point 141 :  -0.3750 0.3750 0.2083  plane waves:     635
 k-point 142 :  -0.2917 0.3750 0.2083  plane waves:     633
 k-point 143 :  -0.2083 0.3750 0.2083  plane waves:     636
 k-point 144 :   0.4583 0.4583 0.2083  plane waves:     626
 k-point 145 :  -0.4583 0.4583 0.2083  plane waves:     632
 k-point 146 :  -0.3750 0.4583 0.2083  plane waves:     632
 k-point 147 :  -0.2917 0.4583 0.2083  plane waves:     628
 k-point 148 :  -0.2083 0.4583 0.2083  plane waves:     630
 k-point 149 :  -0.4583-0.4583 0.2083  plane waves:     631
 k-point 150 :  -0.3750-0.4583 0.2083  plane waves:     631
 k-point 151 :  -0.2917-0.4583 0.2083  plane waves:     625
 k-point 152 :  -0.3750-0.3750 0.2083  plane waves:     630
 k-point 153 :  -0.2917-0.3750 0.2083  plane waves:     632
 k-point 154 :  -0.2917-0.2917 0.2083  plane waves:     627
 k-point 155 :   0.2917 0.2917 0.2917  plane waves:     613
 k-point 156 :   0.3750 0.2917 0.2917  plane waves:     620
 k-point 157 :   0.4583 0.2917 0.2917  plane waves:     622
 k-point 158 :  -0.4583 0.2917 0.2917  plane waves:     626
 k-point 159 :  -0.3750 0.2917 0.2917  plane waves:     628
 k-point 160 :  -0.2917 0.2917 0.2917  plane waves:     634
 k-point 161 :   0.3750 0.3750 0.2917  plane waves:     621
 k-point 162 :   0.4583 0.3750 0.2917  plane waves:     624
 k-point 163 :  -0.4583 0.3750 0.2917  plane waves:     626
 k-point 164 :  -0.3750 0.3750 0.2917  plane waves:     630
 k-point 165 :  -0.2917 0.3750 0.2917  plane waves:     630
 k-point 166 :   0.4583 0.4583 0.2917  plane waves:     625
 k-point 167 :  -0.4583 0.4583 0.2917  plane waves:     627
 k-point 168 :  -0.3750 0.4583 0.2917  plane waves:     633
 k-point 169 :  -0.2917 0.4583 0.2917  plane waves:     630
 k-point 170 :  -0.4583-0.4583 0.2917  plane waves:     631
 k-point 171 :  -0.3750-0.4583 0.2917  plane waves:     631
 k-point 172 :  -0.3750-0.3750 0.2917  plane waves:     628
 k-point 173 :   0.3750 0.3750 0.3750  plane waves:     613
 k-point 174 :   0.4583 0.3750 0.3750  plane waves:     618
 k-point 175 :  -0.4583 0.3750 0.3750  plane waves:     628
 k-point 176 :  -0.3750 0.3750 0.3750  plane waves:     630
 k-point 177 :   0.4583 0.4583 0.3750  plane waves:     620
 k-point 178 :  -0.4583 0.4583 0.3750  plane waves:     627
 k-point 179 :  -0.3750 0.4583 0.3750  plane waves:     629
 k-point 180 :  -0.4583-0.4583 0.3750  plane waves:     622
 k-point 181 :   0.4583 0.4583 0.4583  plane waves:     619
 k-point 182 :  -0.4583 0.4583 0.4583  plane waves:     625

 maximum and minimum number of plane-waves per node :       636      609

 maximum number of plane-waves:       636
 maximum index in each direction: 
   IXMAX=    6   IYMAX=    6   IZMAX=    5
   IXMIN=   -6   IYMIN=   -6   IZMIN=   -6


 serial   3D FFT for wavefunctions
 parallel 3D FFT for charge:
    minimum data exchange during FFTs selected (reduces bandwidth)


 total amount of memory used by VASP MPI-rank0    47334. kBytes
=======================================================================

   base      :      30000. kBytes
   nonl-proj :       7428. kBytes
   fftplans  :       4177. kBytes
   grid      :       1926. kBytes
   one-center:          6. kBytes
   wavefun   :       3797. kBytes
 
     INWAV:  cpu time    0.0000: real time    0.0008
 Broyden mixing: mesh for mixing (old mesh)
   NGX = 11   NGY = 11   NGZ = 11
  (NGX  = 48   NGY  = 48   NGZ  = 48)
  gives a total of   1331 points

 initial charge density was supplied:
 charge density of overlapping atoms calculated
 number of electron       8.0000000 magnetization 
 keeping initial charge density in first step


--------------------------------------------------------------------------------------------------------


 Maximum index for augmentation-charges        21317 (set IRDMAX)


--------------------------------------------------------------------------------------------------------


 First call to EWALD:  gamma=   0.510
 Maximum number of real-space cells 3x 3x 3
 Maximum number of reciprocal cells 3x 3x 3

    FEWALD:  cpu time    0.0030: real time    0.0035


--------------------------------------- Iteration      1(   1)  ---------------------------------------


    POTLOK:  cpu time    0.0310: real time    0.0350
    SETDIJ:  cpu time    0.1780: real time    0.1777
     EDDAV:  cpu time    1.4828: real time    1.4837
       DOS:  cpu time    0.0020: real time    0.0029
    --------------------------------------------
      LOOP:  cpu time    1.6937: real time    1.6997

 eigenvalue-minimisations  :  2944
 total energy-change (2. order) : 0.1451980E+01  (-0.2546109E+03)
 number of electron       8.0000000 magnetization 
 augmentation part        8.0000000 magnetization 

 Free energy of the ion-electron system (eV)
  ---------------------------------------------------
  alpha Z        PSCENC =         3.19851875
  Ewald energy   TEWEN  =      -224.74923690
  -Hartree energ DENC   =       -11.77182593
  -exchange      EXHF   =         0.00000000
  -V(xc)+E(xc)   XCENC  =       -18.79736220
  PAW double counting   =       176.24759923     -141.06103558
  entropy T*S    EENTRO =        -0.00039799
  eigenvalues    EBANDS =        12.25446630
  atomic energy  EATOM  =       206.13125414
  Solvation  Ediel_sol  =         0.00000000
  ---------------------------------------------------
  free energy    TOTEN  =         1.45197982 eV

  energy without entropy =        1.45237781  energy(sigma->0) =        1.45217881


--------------------------------------------------------------------------------------------------------




--------------------------------------- Iteration      1(   2)  ---------------------------------------


     EDDAV:  cpu time    2.1267: real time    2.1454
       DOS:  cpu time    0.0020: real time    0.0021
    --------------------------------------------
      LOOP:  cpu time    2.1297: real time    2.1475

 eigenvalue-minimisations  :  4512
 total energy-change (2. order) :-0.1229819E+02  (-0.1181442E+02)
 number of electron       8.0000000 magnetization 
 augmentation part        8.0000000 magnetization 

 Free energy of the ion-electron system (eV)
  ---------------------------------------------------
  alpha Z        PSCENC =         3.19851875
  Ewald energy   TEWEN  =      -224.74923690
  -Hartree energ DENC   =       -11.77182593
  -exchange      EXHF   =         0.00000000
  -V(xc)+E(xc)   XCENC  =       -18.79736220
  PAW double counting   =       176.24759923     -141.06103558
  entropy T*S    EENTRO =        -0.00000000
  eigenvalues    EBANDS =        -0.04411835
  atomic energy  EATOM  =       206.13125414
  Solvation  Ediel_sol  =         0.00000000
  ---------------------------------------------------
  free energy    TOTEN  =       -10.84620684 eV

  energy without entropy =      -10.84620684  energy(sigma->0) =      -10.84620684


--------------------------------------------------------------------------------------------------------




--------------------------------------- Iteration      1(   3)  ---------------------------------------


     EDDAV:  cpu time    1.7997: real time    1.8174
       DOS:  cpu time    0.0010: real time    0.0021
    --------------------------------------------
      LOOP:  cpu time    1.7997: real time    1.8195

 eigenvalue-minimisations  :  3696
 total energy-change (2. order) :-0.1438905E+00  (-0.1438905E+00)
 number of electron       8.0000000 magnetization 
 augmentation part        8.0000000 magnetization 

 Free energy of the ion-electron system (eV)
  ---------------------------------------------------
  alpha Z        PSCENC =         3.19851875
  Ewald energy   TEWEN  =      -224.74923690
  -Hartree energ DENC   =       -11.77182593
  -exchange      EXHF   =         0.00000000
  -V(xc)+E(xc)   XCENC  =       -18.79736220
  PAW double counting   =       176.24759923     -141.06103558
  entropy T*S    EENTRO =        -0.00000000
  eigenvalues    EBANDS =        -0.18800888
  atomic energy  EATOM  =       206.13125414
  Solvation  Ediel_sol  =         0.00000000
  ---------------------------------------------------
  free energy    TOTEN  =       -10.99009736 eV

  energy without entropy =      -10.99009736  energy(sigma->0) =      -10.99009736


--------------------------------------------------------------------------------------------------------




--------------------------------------- Iteration      1(   4)  ---------------------------------------


     EDDAV:  cpu time    2.1977: real time    2.2154
       DOS:  cpu time    0.0010: real time    0.0021
    --------------------------------------------
      LOOP:  cpu time    2.1997: real time    2.2175

 eigenvalue-minimisations  :  4648
 total energy-change (2. order) :-0.5998158E-03  (-0.5998158E-03)
 number of electron       8.0000000 magnetization 
 augmentation part        8.0000000 magnetization 

 Free energy of the ion-electron system (eV)
  ---------------------------------------------------
  alpha Z        PSCENC =         3.19851875
  Ewald energy   TEWEN  =      -224.74923690
  -Hartree energ DENC   =       -11.77182593
  -exchange      EXHF   =         0.00000000
  -V(xc)+E(xc)   XCENC  =       -18.79736220
  PAW double counting   =       176.24759923     -141.06103558
  entropy T*S    EENTRO =        -0.00000000
  eigenvalues    EBANDS =        -0.18860869
  atomic energy  EATOM  =       206.13125414
  Solvation  Ediel_sol  =         0.00000000
  ---------------------------------------------------
  free energy    TOTEN  =       -10.99069718 eV

  energy without entropy =      -10.99069718  energy(sigma->0) =      -10.99069718


--------------------------------------------------------------------------------------------------------




--------------------------------------- Iteration      1(   5)  ---------------------------------------


     EDDAV:  cpu time    1.8337: real time    1.8521
       DOS:  cpu time    0.0010: real time    0.0021
    CHARGE:  cpu time    0.1140: real time    0.1136
    MIXING:  cpu time    0.0010: real time    0.0015
    --------------------------------------------
      LOOP:  cpu time    1.9497: real time    1.9693

 eigenvalue-minimisations  :  3792
 total energy-change (2. order) :-0.6890496E-06  (-0.6890488E-06)
 number of electron       8.0000000 magnetization 
 augmentation part       -0.4683638 magnetization 

 Broyden mixing:
  rms(total) = 0.45936E+00    rms(broyden)= 0.45935E+00
  rms(prec ) = 0.89934E+00
  weight for this iteration     100.00

 Free energy of the ion-electron system (eV)
  ---------------------------------------------------
  alpha Z        PSCENC =         3.19851875
  Ewald energy   TEWEN  =      -224.74923690
  -Hartree energ DENC   =       -11.77182593
  -exchange      EXHF   =         0.00000000
  -V(xc)+E(xc)   XCENC  =       -18.79736220
  PAW double counting   =       176.24759923     -141.06103558
  entropy T*S    EENTRO =        -0.00000000
  eigenvalues    EBANDS =        -0.18860938
  atomic energy  EATOM  =       206.13125414
  Solvation  Ediel_sol  =         0.00000000
  ---------------------------------------------------
  free energy    TOTEN  =       -10.99069787 eV

  energy without entropy =      -10.99069787  energy(sigma->0) =      -10.99069787


--------------------------------------------------------------------------------------------------------




--------------------------------------- Iteration      1(   6)  ---------------------------------------


    POTLOK:  cpu time    0.0320: real time    0.0485
    SETDIJ:  cpu time    0.1750: real time    0.1754
     EDDAV:  cpu time    1.7427: real time    1.7434
       DOS:  cpu time    0.0010: real time    0.0021
    CHARGE:  cpu time    0.1130: real time    0.1134
    MIXING:  cpu time    0.0020: real time    0.0016
    --------------------------------------------
      LOOP:  cpu time    2.0647: real time    2.0843

 eigenvalue-minimisations  :  3576
 total energy-change (2. order) : 0.1042572E+00  (-0.6646649E-02)
 number of electron       8.0000000 magnetization 
 augmentation part       -0.4632125 magnetization 

 Broyden mixing:
  rms(total) = 0.27997E+00    rms(broyden)= 0.27997E+00
  rms(prec ) = 0.53750E+00
  weight for this iteration     100.00

 eigenvalues of (default mixing * dielectric matrix)
  average eigenvalue GAMMA=   2.5529
  2.5529

 Free energy of the ion-electron system (eV)
  ---------------------------------------------------
  alpha Z        PSCENC =         3.19851875
  Ewald energy   TEWEN  =      -224.74923690
  -Hartree energ DENC   =       -13.18614854
  -exchange      EXHF   =         0.00000000
  -V(xc)+E(xc)   XCENC  =       -18.57483972
  PAW double counting   =       361.28129478     -326.18661689
  entropy T*S    EENTRO =        -0.00000000
  eigenvalues    EBANDS =         1.19933368
  atomic energy  EATOM  =       206.13125414
  Solvation  Ediel_sol  =         0.00000000
  ---------------------------------------------------
  free energy    TOTEN  =       -10.88644070 eV

  energy without entropy =      -10.88644070  energy(sigma->0) =      -10.88644070


--------------------------------------------------------------------------------------------------------




--------------------------------------- Iteration      1(   7)  ---------------------------------------


    POTLOK:  cpu time    0.0320: real time    0.0481
    SETDIJ:  cpu time    0.1740: real time    0.1745
     EDDAV:  cpu time    1.8077: real time    1.8099
       DOS:  cpu time    0.0020: real time    0.0021
    CHARGE:  cpu time    0.1130: real time    0.1140
    MIXING:  cpu time    0.0020: real time    0.0015
    --------------------------------------------
      LOOP:  cpu time    2.1317: real time    2.1503

 eigenvalue-minimisations  :  3736
 total energy-change (2. order) : 0.4929902E-01  (-0.1309948E-01)
 number of electron       8.0000000 magnetization 
 augmentation part       -0.4569617 magnetization 

 Broyden mixing:
  rms(total) = 0.15497E-01    rms(broyden)= 0.15497E-01
  rms(prec ) = 0.37606E-01
  weight for this iteration     100.00

 eigenvalues of (default mixing * dielectric matrix)
  average eigenvalue GAMMA=   2.0359
  1.6846  2.3871

 Free energy of the ion-electron system (eV)
  ---------------------------------------------------
  alpha Z        PSCENC =         3.19851875
  Ewald energy   TEWEN  =      -224.74923690
  -Hartree energ DENC   =       -15.53191015
  -exchange      EXHF   =         0.00000000
  -V(xc)+E(xc)   XCENC  =       -18.19834689
  PAW double counting   =       795.41091363     -760.43414356
  entropy T*S    EENTRO =        -0.00000000
  eigenvalues    EBANDS =         3.33580930
  atomic energy  EATOM  =       206.13125414
  Solvation  Ediel_sol  =         0.00000000
  ---------------------------------------------------
  free energy    TOTEN  =       -10.83714169 eV

  energy without entropy =      -10.83714169  energy(sigma->0) =      -10.83714169


--------------------------------------------------------------------------------------------------------




--------------------------------------- Iteration      1(   8)  ---------------------------------------


    POTLOK:  cpu time    0.0320: real time    0.0477
    SETDIJ:  cpu time    0.1740: real time    0.1746
     EDDAV:  cpu time    1.6388: real time    1.6396
       DOS:  cpu time    0.0010: real time    0.0021
    CHARGE:  cpu time    0.1140: real time    0.1139
    MIXING:  cpu time    0.0020: real time    0.0022
    --------------------------------------------
      LOOP:  cpu time    1.9607: real time    1.9802

 eigenvalue-minimisations  :  3328
 total energy-change (2. order) :-0.1117785E-02  (-0.3393456E-03)
 number of electron       8.0000000 magnetization 
 augmentation part       -0.4578466 magnetization 

 Broyden mixing:
  rms(total) = 0.72662E-02    rms(broyden)= 0.72659E-02
  rms(prec ) = 0.13074E-01
  weight for this iteration     100.00

 eigenvalues of (default mixing * dielectric matrix)
  average eigenvalue GAMMA=   2.2518
  2.8725  1.9414  1.9414

 Free energy of the ion-electron system (eV)
  ---------------------------------------------------
  alpha Z        PSCENC =         3.19851875
  Ewald energy   TEWEN  =      -224.74923690
  -Hartree energ DENC   =       -15.46793063
  -exchange      EXHF   =         0.00000000
  -V(xc)+E(xc)   XCENC  =       -18.19912853
  PAW double counting   =       795.19982271     -760.19814753
  entropy T*S    EENTRO =        -0.00000000
  eigenvalues    EBANDS =         3.24658852
  atomic energy  EATOM  =       206.13125414
  Solvation  Ediel_sol  =         0.00000000
  ---------------------------------------------------
  free energy    TOTEN  =       -10.83825947 eV

  energy without entropy =      -10.83825947  energy(sigma->0) =      -10.83825947


--------------------------------------------------------------------------------------------------------




--------------------------------------- Iteration      1(   9)  ---------------------------------------


    POTLOK:  cpu time    0.0330: real time    0.0496
    SETDIJ:  cpu time    0.1780: real time    0.1786
     EDDAV:  cpu time    2.0537: real time    2.0554
       DOS:  cpu time    0.0010: real time    0.0020
    CHARGE:  cpu time    0.1140: real time    0.1140
    MIXING:  cpu time    0.0020: real time    0.0019
    --------------------------------------------
      LOOP:  cpu time    2.3816: real time    2.4015

 eigenvalue-minimisations  :  4352
 total energy-change (2. order) :-0.2114366E-03  (-0.2168365E-04)
 number of electron       8.0000000 magnetization 
 augmentation part       -0.4579678 magnetization 

 Broyden mixing:
  rms(total) = 0.53660E-02    rms(broyden)= 0.53659E-02
  rms(prec ) = 0.62176E-02
  weight for this iteration     100.00

[...]
      3       1.5355      2.00000
      4       1.9175      2.00000
      5       9.0391      0.00000
      6       9.6232      0.00000
      7      10.1651      0.00000
      8      10.7906      0.00000

 k-point   148 :      -0.2083    0.4583    0.2083
  band No.  band energies     occupation 
      1      -2.8231      2.00000
      2      -1.5773      2.00000
      3       1.4477      2.00000
      4       2.2057      2.00000
      5       9.0619      0.00000
      6       9.3603      0.00000
      7       9.9140      0.00000
      8      11.5158      0.00000

 k-point   149 :      -0.4583   -0.4583    0.2083
  band No.  band energies     occupation 
      1      -3.0859      2.00000
      2      -1.4260      2.00000
      3       1.5848      2.00000
      4       2.9519      2.00000
      5       6.5393      0.00000
      6       8.7123      0.00000
      7      12.4524      0.00000
      8      12.4526      0.00000

 k-point   150 :      -0.3750   -0.4583    0.2083
  band No.  band energies     occupation 
      1      -2.6188      2.00000
      2      -1.8627      2.00000
      3       1.5030      2.00000
      4       2.5823      2.00000
      5       6.9946      0.00000
      6       8.6839      0.00000
      7      12.0869      0.00000
      8      12.8578      0.00000

 k-point   151 :      -0.2917   -0.4583    0.2083
  band No.  band energies     occupation 
      1      -2.4760      2.00000
      2      -1.9386      2.00000
      3       1.6266      2.00000
      4       2.0166      2.00000
      5       8.1973      0.00000
      6       8.8262      0.00000
      7      11.0573      0.00000
      8      11.7700      0.00000

 k-point   152 :      -0.3750   -0.3750    0.2083
  band No.  band energies     occupation 
      1      -2.6734      2.00000
      2      -1.8400      2.00000
      3       1.4570      2.00000
      4       2.9028      2.00000
      5       6.4731      0.00000
      6       8.6359      0.00000
      7      12.9778      0.00000
      8      13.2344      0.00000

 k-point   153 :      -0.2917   -0.3750    0.2083
  band No.  band energies     occupation 
      1      -3.0415      2.00000
      2      -1.4390      2.00000
      3       1.6085      2.00000
      4       2.6582      2.00000
      5       7.0531      0.00000
      6       8.7617      0.00000
      7      11.4195      0.00000
      8      13.3054      0.00000

 k-point   154 :      -0.2917   -0.2917    0.2083
  band No.  band energies     occupation 
      1      -3.5453      2.00000
      2      -0.9636      2.00000
      3       1.8375      2.00000
      4       3.0495      2.00000
      5       6.6691      0.00000
      6       8.8659      0.00000
      7      11.6808      0.00000
      8      11.8582      0.00000

 k-point   155 :       0.2917    0.2917    0.2917
  band No.  band energies     occupation 
      1      -5.2642      2.00000
      2       0.7935      2.00000
      3       4.4771      2.00000
      4       4.4772      2.00000
      5       7.0436      0.00000
      6       8.8413      0.00000
      7       8.8413      0.00000
      8      12.5121      0.00000

 k-point   156 :       0.3750    0.2917    0.2917
  band No.  band energies     occupation 
      1      -4.9996      2.00000
      2       0.3726      2.00000
      3       3.6151      2.00000
      4       4.5169      2.00000
      5       7.4722      0.00000
      6       8.8430      0.00000
      7       9.0006      0.00000
      8      12.1114      0.00000

 k-point   157 :       0.4583    0.2917    0.2917
  band No.  band energies     occupation 
      1      -4.5833      2.00000
      2      -0.0033      2.00000
      3       2.4584      2.00000
      4       4.2577      2.00000
      5       7.8558      0.00000
      6       9.4106      0.00000
      7       9.4200      0.00000
      8      11.7714      0.00000

 k-point   158 :      -0.4583    0.2917    0.2917
  band No.  band energies     occupation 
      1      -4.0435      2.00000
      2      -0.4513      2.00000
      3       1.5829      2.00000
      4       3.8677      2.00000
      5       7.5509      0.00000
      6      10.3322      0.00000
      7      10.5674      0.00000
      8      11.6314      0.00000

 k-point   159 :      -0.3750    0.2917    0.2917
  band No.  band energies     occupation 
      1      -3.4637      2.00000
      2      -1.0597      2.00000
      3       1.2555      2.00000
      4       3.4934      2.00000
      5       7.1447      0.00000
      6      11.1254      0.00000
      7      11.3063      0.00000
      8      12.0687      0.00000

 k-point   160 :      -0.2917    0.2917    0.2917
  band No.  band energies     occupation 
      1      -3.1684      2.00000
      2      -1.4057      2.00000
      3       1.3946      2.00000
      4       3.2093      2.00000
      5       6.8387      0.00000
      6      10.3176      0.00000
      7      11.5416      0.00000
      8      11.5455      0.00000

 k-point   161 :       0.3750    0.3750    0.2917
  band No.  band energies     occupation 
      1      -4.8009      2.00000
      2      -0.0389      2.00000
      3       3.9350      2.00000
      4       4.0159      2.00000
      5       7.3919      0.00000
      6       8.5980      0.00000
      7       9.3037      0.00000
      8      11.6817      0.00000

 k-point   162 :       0.4583    0.3750    0.2917
  band No.  band energies     occupation 
      1      -4.4512      2.00000
      2      -0.3773      2.00000
      3       2.9145      2.00000
      4       3.9462      2.00000
      5       7.8522      0.00000
      6       8.6084      0.00000
      7       9.8352      0.00000
      8      11.3358      0.00000

 k-point   163 :      -0.4583    0.3750    0.2917
  band No.  band energies     occupation 
      1      -3.9703      2.00000
      2      -0.6834      2.00000
      3       1.9135      2.00000
      4       3.5916      2.00000
      5       8.0756      0.00000
      6       8.9665      0.00000
      7      10.8766      0.00000
      8      11.2623      0.00000

 k-point   164 :      -0.3750    0.3750    0.2917
  band No.  band energies     occupation 
      1      -3.4033      2.00000
      2      -1.0900      2.00000
      3       1.2996      2.00000
      4       3.1789      2.00000
      5       7.6556      0.00000
      6      10.1741      0.00000
      7      11.1678      0.00000
      8      12.0947      0.00000

 k-point   165 :      -0.2917    0.3750    0.2917
  band No.  band energies     occupation 
      1      -2.9106      2.00000
      2      -1.5598      2.00000
      3       1.2386      2.00000
      4       2.8473      2.00000
      5       7.2892      0.00000
      6      10.2708      0.00000
      7      11.1532      0.00000
      8      11.9658      0.00000

 k-point   166 :       0.4583    0.4583    0.2917
  band No.  band energies     occupation 
      1      -4.1755      2.00000
      2      -0.7059      2.00000
      3       2.8084      2.00000
      4       3.5948      2.00000
      5       7.3424      0.00000
      6       9.3670      0.00000
      7      10.0364      0.00000
      8      10.9274      0.00000

 k-point   167 :      -0.4583    0.4583    0.2917
  band No.  band energies     occupation 
      1      -3.7741      2.00000
      2      -0.9710      2.00000
      3       2.1141      2.00000
      4       3.2781      2.00000
      5       7.6276      0.00000
      6       9.3181      0.00000
      7      10.7175      0.00000
      8      11.1423      0.00000

 k-point   168 :      -0.3750    0.4583    0.2917
  band No.  band energies     occupation 
      1      -3.2760      2.00000
      2      -1.2540      2.00000
      3       1.5398      2.00000
      4       2.7482      2.00000
      5       8.6323      0.00000
      6       8.8903      0.00000
      7      10.6858      0.00000
      8      12.3420      0.00000

 k-point   169 :      -0.2917    0.4583    0.2917
  band No.  band energies     occupation 
      1      -2.7310      2.00000
      2      -1.6756      2.00000
      3       1.3683      2.00000
      4       2.2773      2.00000
      5       8.4798      0.00000
      6       9.9568      0.00000
      7      10.5334      0.00000
      8      10.8977      0.00000

 k-point   170 :      -0.4583   -0.4583    0.2917
  band No.  band energies     occupation 
      1      -3.4768      2.00000
      2      -1.2118      2.00000
      3       1.7639      2.00000
      4       3.2978      2.00000
      5       6.9661      0.00000
      6      10.4270      0.00000
      7      10.8067      0.00000
      8      11.0059      0.00000

 k-point   171 :      -0.3750   -0.4583    0.2917
  band No.  band energies     occupation 
      1      -3.1132      2.00000
      2      -1.4229      2.00000
      3       1.4124      2.00000
      4       2.9161      2.00000
      5       7.3494      0.00000
      6      10.2504      0.00000
      7      10.6219      0.00000
      8      12.4371      0.00000

 k-point   172 :      -0.3750   -0.3750    0.2917
  band No.  band energies     occupation 
      1      -2.9712      2.00000
      2      -1.5304      2.00000
      3       1.1929      2.00000
      4       3.1646      2.00000
      5       6.7730      0.00000
      6      10.2560      0.00000
      7      12.0148      0.00000
      8      12.3046      0.00000

 k-point   173 :       0.3750    0.3750    0.3750
  band No.  band energies     occupation 
      1      -4.6775      2.00000
      2      -0.4428      2.00000
      3       4.2866      2.00000
      4       4.2866      2.00000
      5       6.8235      0.00000
      6       8.7856      0.00000
      7       8.7856      0.00000
      8      13.0963      0.00000

 k-point   174 :       0.4583    0.3750    0.3750
  band No.  band energies     occupation 
      1      -4.4078      2.00000
      2      -0.7504      2.00000
      3       3.5201      2.00000
      4       4.2504      2.00000
      5       7.2950      0.00000
      6       8.8163      0.00000
      7       8.8955      0.00000
      8      13.0248      0.00000

 k-point   175 :      -0.4583    0.3750    0.3750
  band No.  band energies     occupation 
      1      -4.0098      2.00000
      2      -0.9580      2.00000
      3       2.4132      2.00000
      4       3.9369      2.00000
      5       7.5863      0.00000
      6       9.3139      0.00000
      7       9.6068      0.00000
      8      13.0291      0.00000

 k-point   176 :      -0.3750    0.3750    0.3750
  band No.  band energies     occupation 
      1      -3.5124      2.00000
      2      -1.1583      2.00000
      3       1.5295      2.00000
      4       3.5305      2.00000
      5       7.1987      0.00000
      6      10.6414      0.00000
      7      10.7201      0.00000
      8      12.1131      0.00000

 k-point   177 :       0.4583    0.4583    0.3750
  band No.  band energies     occupation 
      1      -4.2309      2.00000
      2      -1.0364      2.00000
      3       3.6924      2.00000
      4       3.9847      2.00000
      5       7.2550      0.00000
      6       8.5915      0.00000
      7       9.1125      0.00000
      8      12.7552      0.00000

 k-point   178 :      -0.4583    0.4583    0.3750
  band No.  band energies     occupation 
      1      -3.9400      2.00000
      2      -1.1918      2.00000
      3       2.8340      2.00000
      4       3.7816      2.00000
      5       7.7873      0.00000
      6       8.4993      0.00000
      7       9.7678      0.00000
      8      12.6333      0.00000

 k-point   179 :      -0.3750    0.4583    0.3750
  band No.  band energies     occupation 
      1      -3.5599      2.00000
      2      -1.2607      2.00000
      3       1.9360      2.00000
      4       3.3543      2.00000
      5       7.7958      0.00000
      6       9.1004      0.00000
      7      11.0347      0.00000
      8      12.2507      0.00000

 k-point   180 :      -0.4583   -0.4583    0.3750
  band No.  band energies     occupation 
      1      -3.7833      2.00000
      2      -1.2885      2.00000
      3       2.5400      2.00000
      4       3.7073      2.00000
      5       7.4074      0.00000
      6       9.2898      0.00000
      7       9.7957      0.00000
      8      12.3592      0.00000

 k-point   181 :       0.4583    0.4583    0.4583
  band No.  band energies     occupation 
      1      -4.1706      2.00000
      2      -1.2793      2.00000
      3       4.1897      2.00000
      4       4.1897      2.00000
      5       6.7098      0.00000
      6       8.7050      0.00000
      7       8.7050      0.00000
      8      13.0115      0.00000

 k-point   182 :      -0.4583    0.4583    0.4583
  band No.  band energies     occupation 
      1      -4.0156      2.00000
      2      -1.3590      2.00000
      3       3.5494      2.00000
      4       4.0666      2.00000
      5       7.2205      0.00000
      6       8.6542      0.00000
      7       8.9635      0.00000
      8      13.2506      0.00000


--------------------------------------------------------------------------------------------------------


 soft charge-density along one line, spin component           1
         0         1         2         3         4         5         6         7         8         9
 total charge-density along one line
 
 pseudopotential strength for first ion, spin component:           1
 18.470  25.769   0.000   0.000   0.000   0.000   0.000   0.000
 25.769  35.958   0.000   0.000   0.000   0.000   0.000   0.000
  0.000   0.000   4.184  -0.000  -0.000   7.797  -0.000  -0.000
  0.000   0.000  -0.000   4.184  -0.000  -0.000   7.797  -0.000
  0.000   0.000  -0.000  -0.000   4.184  -0.000  -0.000   7.797
  0.000   0.000   7.797  -0.000  -0.000  14.541  -0.000  -0.000
  0.000   0.000  -0.000   7.797  -0.000  -0.000  14.541  -0.000
  0.000   0.000  -0.000  -0.000   7.797  -0.000  -0.000  14.541
 total augmentation occupancy for first ion, spin component:           1
  5.281  -1.928   0.000  -0.000   0.000   0.000   0.000   0.000
 -1.928   0.822   0.000   0.000   0.000   0.000  -0.000  -0.000
 -0.000   0.000   2.827  -0.000   0.000  -0.628  -0.000  -0.000
 -0.000   0.000   0.000   2.827   0.000  -0.000  -0.628   0.000
  0.000   0.000   0.000  -0.000   2.827  -0.000   0.000  -0.628
 -0.000   0.000  -0.628   0.000  -0.000   0.148   0.000   0.000
  0.000  -0.000  -0.000  -0.628   0.000   0.000   0.148  -0.000
  0.000  -0.000  -0.000  -0.000  -0.628   0.000   0.000   0.148


------------------------ aborting loop because EDIFF is reached ----------------------------------------


    CHARGE:  cpu time    0.1120: real time    0.1127
    FORLOC:  cpu time    0.0010: real time    0.0024
    FORNL :  cpu time    0.1860: real time    0.1852
    STRESS:  cpu time    1.5088: real time    1.5092
    FORCOR:  cpu time    0.0300: real time    0.0318
    FORHAR:  cpu time    0.0060: real time    0.0059
    MIXING:  cpu time    0.0010: real time    0.0013
    OFIELD:  cpu time    0.0000: real time    0.0002

  FORCE on cell =-STRESS in cart. coord.  units (eV):
  Direction    XX          YY          ZZ          XY          YZ          ZX
  --------------------------------------------------------------------------------------
  Alpha Z     3.19852     3.19852     3.19852
  Ewald     -74.91643   -74.91650   -74.91641     0.00001     0.00000    -0.00000
  Hartree     5.17391     5.17390     5.17391     0.00000     0.00000     0.00000
  E(xc)     -25.08254   -25.08254   -25.08254    -0.00000    -0.00000    -0.00000
  Local     -29.94838   -29.94837   -29.94836    -0.00000     0.00001     0.00001
  n-local    74.68524    77.00722    79.25334    -1.03209    -1.41570     0.11210
  augment   -11.64770   -11.64770   -11.64772    -0.00001    -0.00001    -0.00001
  Kinetic    54.03377    55.61598    57.12124    -0.23090     0.36975    -1.04967
  Fock        0.00000     0.00000     0.00000     0.00000     0.00000     0.00000
  -------------------------------------------------------------------------------------
  Total      -0.65038    -0.65038    -0.65038     0.00000    -0.00000     0.00000
  in kB     -24.75221   -24.75223   -24.75221     0.00000    -0.00000     0.00000
  external pressure =      -24.75 kB  Pullay stress =        0.00 kB


 VOLUME and BASIS-vectors are now :
 -----------------------------------------------------------------------------
  energy-cutoff  :      350.00
  volume of cell :       42.10
      direct lattice vectors                 reciprocal lattice vectors
     3.381614724  0.000000000  1.952375896     0.295716716 -0.104551606  0.000000000
     1.127204908  3.188218200  1.952375896     0.000000000  0.313654818  0.000000000
     0.000000000  0.000000000  3.904751792    -0.147858358 -0.104551606  0.256098224

  length of vectors
     3.904752205  3.904753236  3.904751792     0.313654929  0.313654818  0.313654958


 FORCES acting on ions
    electron-ion (+dipol)            ewald-force                    non-local-force                 convergence-correction
 -----------------------------------------------------------------------------------------------
   0.521E-05 0.243E-04 0.729E-07   -.874E-05 -.410E-04 -.399E-14   0.362E-16 0.809E-17 0.000E+00   0.635E-07 0.463E-07 0.109E-06
   -.521E-05 -.243E-04 -.729E-07   0.874E-05 0.410E-04 0.386E-14   -.360E-16 -.806E-17 0.694E-17   -.635E-07 -.463E-07 -.109E-06
 -----------------------------------------------------------------------------------------------
   0.270E-13 -.504E-13 0.117E-12   -.102E-14 0.557E-16 -.136E-15   0.295E-18 0.271E-19 0.694E-17   0.573E-15 -.285E-16 0.139E-15
 
 
 POSITION                                       TOTAL-FORCE (eV/Angst)
 -----------------------------------------------------------------------------------
      3.94522      2.78969      6.83332         0.000000      0.000000      0.000000
      0.56360      0.39853      0.97619        -0.000000     -0.000000     -0.000000
 -----------------------------------------------------------------------------------
    total drift:                                0.000000     -0.000000      0.000000


--------------------------------------------------------------------------------------------------------



  FREE ENERGIE OF THE ION-ELECTRON SYSTEM (eV)
  ---------------------------------------------------
  free  energy   TOTEN  =       -10.83849418 eV

  energy  without entropy=      -10.83849418  energy(sigma->0) =      -10.83849418
 


--------------------------------------------------------------------------------------------------------


    POTLOK:  cpu time    0.2120: real time    0.2177


--------------------------------------------------------------------------------------------------------




--------------------------------------------------------------------------------------------------------


  
 reached required accuracy - stopping structural energy minimisation
     LOOP+:  cpu time   24.7792: real time   25.1385
    4ORBIT:  cpu time    0.0000: real time    0.0000

 total amount of memory used by VASP MPI-rank0    47334. kBytes
=======================================================================

   base      :      30000. kBytes
   nonl-proj :       7428. kBytes
   fftplans  :       4177. kBytes
   grid      :       1926. kBytes
   one-center:          6. kBytes
   wavefun   :       3797. kBytes
 
  
  
 General timing and accounting informations for this job:
 ========================================================
  
                  Total CPU time used (sec):       27.437
                            User time (sec):       26.856
                          System time (sec):        0.581
                         Elapsed time (sec):       28.595
  
                   Maximum memory used (kb):       71732.
                   Average memory used (kb):          N/A
  
                          Minor page faults:        57721
                          Major page faults:            1
                 Voluntary context switches:        19702
