 running on    4 total cores
 distrk:  each k-point on    4 cores,    1 groups
 distr:  one band on    1 cores,    4 groups
 vasp.6.2.0 18Jan21 (build Aug 12 2022 13:00:08) complex                        
  
 POSCAR found type information on POSCAR Si
 POSCAR found :  1 types and       2 ions
 scaLAPACK will be used
 LDA part: xc-table for Pade appr. of Perdew
 POSCAR, INCAR and KPOINTS ok, starting setup
 FFT: planning ...
 WAVECAR not read
 entering main loop
       N       E                     dE             d eps       ncg     rms          rms(c)
DAV:   1     0.145197982156E+01    0.14520E+01   -0.25461E+03  2944   0.578E+02
DAV:   2    -0.108462068353E+02   -0.12298E+02   -0.11814E+02  4512   0.659E+01
DAV:   3    -0.109900973637E+02   -0.14389E+00   -0.14389E+00  3696   0.894E+00
DAV:   4    -0.109906971795E+02   -0.59982E-03   -0.59982E-03  4648   0.622E-01
DAV:   5    -0.109906978685E+02   -0.68905E-06   -0.68905E-06  3792   0.147E-02    0.459E+00
DAV:   6    -0.108864407040E+02    0.10426E+00   -0.66466E-02  3576   0.134E+00    0.280E+00
DAV:   7    -0.108371416858E+02    0.49299E-01   -0.13099E-01  3736   0.201E+00    0.155E-01
DAV:   8    -0.108382594705E+02   -0.11178E-02   -0.33935E-03  3328   0.430E-01    0.727E-02
DAV:   9    -0.108384709071E+02   -0.21144E-03   -0.21684E-04  4352   0.111E-01    0.537E-02
DAV:  10    -0.108384943329E+02   -0.23426E-04   -0.26998E-05  3400   0.387E-02    0.746E-03
DAV:  11    -0.108384941819E+02    0.15100E-06   -0.57562E-07  4112   0.512E-03
   1 F= -.10838494E+02 E0= -.10838494E+02  d E =-.108385E+02
 curvature:   0.00 expect dE= 0.000E+00 dE for cont linesearch  0.000E+00
 trial: gam= 0.00000 g(F)=  0.207E-43 g(S)=  0.000E+00 ort = 0.000E+00 (trialstep = 0.100E+01)
 search vector abs. value=  0.100E-09
 reached required accuracy - stopping structural energy minimisation
