<?xml version="1.0" encoding="ISO-8859-1"?>
<modeling>
 <generator>
  <i name="program" type="string">vasp </i>
  <i name="version" type="string">6.2.0  </i>
  <i name="subversion" type="string">18Jan21 (build Aug 12 2022 13:00:08) complex                          parallel </i>
  <i name="platform" type="string">LinuxIFC </i>
  <i name="date" type="string">2024 11 05 </i>
  <i name="time" type="string">06:00:06 </i>
 </generator>
 <incar>
  <i type="int" name="ISTART">     0</i>
  <i type="string" name="PREC">Accurate      (Accurate strictly avoids</i>
  <i type="logical" name="ADDGRID"> T  </i>
  <i type="int" name="ISPIN">     1</i>
  <i type="int" name="NELM">    90</i>
  <i type="int" name="NELMIN">     6</i>
  <i type="int" name="IBRION">     2</i>
  <i name="EDIFF">      0.00000100</i>
  <i name="EDIFFG">     -0.00200000</i>
  <i type="int" name="NSW">   100</i>
  <i type="int" name="ISIF">     2</i>
  <i type="int" name="ISYM">     2</i>
  <i name="ENCUT">    350.00000000</i>
  <i type="logical" name="LREAL"> F  </i>
  <i type="int" name="ISMEAR">     0</i>
  <i name="SIGMA">      0.05000000</i>
  <i type="logical" name="LWAVE"> F  </i>
  <i type="logical" name="LCHARG"> F  </i>
  <i type="logical" name="LASPH"> T  </i>
 </incar>
 <primitive_cell>
  <structure name="primitive_cell" >
   <crystal>
    <varray name="basis" >
     <v>       3.38161472       0.00000000       1.95237590 </v>
     <v>       1.12720491       3.18821820       1.95237590 </v>
     <v>       0.00000000       0.00000000       3.90475179 </v>
    </varray>
    <i name="volume">     42.09840050 </i>
    <varray name="rec_basis" >
     <v>       0.29571672      -0.10455161       0.00000000 </v>
     <v>       0.00000000       0.31365482       0.00000000 </v>
     <v>      -0.14785836      -0.10455161       0.25609822 </v>
    </varray>
   </crystal>
   <varray name="positions" >
    <v>       0.87500000       0.87500000       0.87500000 </v>
    <v>       0.12500000       0.12500000       0.12500000 </v>
   </varray>
  </structure>
  <varray name="primitive_index" >
   <v type="int" >        1 </v>
   <v type="int" >        2 </v>
  </varray>
 </primitive_cell>
 <kpoints>
  <generation param="Monkhorst-Pack">
   <v type="int" name="divisions">      12       12       12 </v>
   <v name="usershift">      0.00000000       0.00000000       0.00000000 </v>
   <v name="genvec1">      0.08333333       0.00000000       0.00000000 </v>
   <v name="genvec2">      0.00000000       0.08333333       0.00000000 </v>
   <v name="genvec3">      0.00000000       0.00000000       0.08333333 </v>
   <v name="shift">      0.50000000       0.50000000       0.50000000 </v>
  </generation>
  <varray name="kpointlist" >
   <v>       0.04166667       0.04166667       0.04166667 </v>
   <v>       0.12500000       0.04166667       0.04166667 </v>
   <v>       0.20833333       0.04166667       0.04166667 </v>
   <v>       0.29166667       0.04166667       0.04166667 </v>
   <v>       0.37500000       0.04166667       0.04166667 </v>
   <v>       0.45833333       0.04166667       0.04166667 </v>
   <v>      -0.45833333       0.04166667       0.04166667 </v>
   <v>      -0.37500000       0.04166667       0.04166667 </v>
   <v>      -0.29166667       0.04166667       0.04166667 </v>
   <v>      -0.20833333       0.04166667       0.04166667 </v>
   <v>      -0.12500000       0.04166667       0.04166667 </v>
   <v>      -0.04166667       0.04166667       0.04166667 </v>
   <v>       0.12500000       0.12500000       0.04166667 </v>
   <v>       0.20833333       0.12500000       0.04166667 </v>
   <v>       0.29166667       0.12500000       0.04166667 </v>
   <v>       0.37500000       0.12500000       0.04166667 </v>
   <v>       0.45833333       0.12500000       0.04166667 </v>
   <v>      -0.45833333       0.12500000       0.04166667 </v>
   <v>      -0.37500000       0.12500000       0.04166667 </v>
   <v>      -0.29166667       0.12500000       0.04166667 </v>
   <v>      -0.20833333       0.12500000       0.04166667 </v>
   <v>      -0.12500000       0.12500000       0.04166667 </v>
   <v>      -0.04166667       0.12500000       0.04166667 </v>
   <v>       0.20833333       0.20833333       0.04166667 </v>
   <v>       0.29166667       0.20833333       0.04166667 </v>
   <v>       0.37500000       0.20833333       0.04166667 </v>
   <v>       0.45833333       0.20833333       0.04166667 </v>
   <v>      -0.45833333       0.20833333       0.04166667 </v>
   <v>      -0.37500000       0.20833333       0.04166667 </v>
   <v>      -0.29166667       0.20833333       0.04166667 </v>
   <v>      -0.20833333       0.20833333       0.04166667 </v>
   <v>      -0.12500000       0.20833333       0.04166667 </v>
   <v>      -0.04166667       0.20833333       0.04166667 </v>
   <v>       0.29166667       0.29166667       0.04166667 </v>
   <v>       0.37500000       0.29166667       0.04166667 </v>
   <v>       0.45833333       0.29166667       0.04166667 </v>
   <v>      -0.45833333       0.29166667       0.04166667 </v>
   <v>      -0.37500000       0.29166667       0.04166667 </v>
   <v>      -0.29166667       0.29166667       0.04166667 </v>
   <v>      -0.20833333       0.29166667       0.04166667 </v>
   <v>      -0.12500000       0.29166667       0.04166667 </v>
   <v>      -0.04166667       0.29166667       0.04166667 </v>
   <v>       0.37500000       0.37500000       0.04166667 </v>
   <v>       0.45833333       0.37500000       0.04166667 </v>
   <v>      -0.45833333       0.37500000       0.04166667 </v>
   <v>      -0.37500000       0.37500000       0.04166667 </v>
   <v>      -0.29166667       0.37500000       0.04166667 </v>
   <v>      -0.20833333       0.37500000       0.04166667 </v>
   <v>      -0.12500000       0.37500000       0.04166667 </v>
   <v>      -0.04166667       0.37500000       0.04166667 </v>
   <v>       0.45833333       0.45833333       0.04166667 </v>
   <v>      -0.45833333       0.45833333       0.04166667 </v>
   <v>      -0.37500000       0.45833333       0.04166667 </v>
   <v>      -0.29166667       0.45833333       0.04166667 </v>
   <v>      -0.20833333       0.45833333       0.04166667 </v>
   <v>      -0.12500000       0.45833333       0.04166667 </v>
   <v>      -0.04166667       0.45833333       0.04166667 </v>
   <v>      -0.45833333      -0.45833333       0.04166667 </v>
   <v>      -0.37500000      -0.45833333       0.04166667 </v>
   <v>      -0.29166667      -0.45833333       0.04166667 </v>
   <v>      -0.20833333      -0.45833333       0.04166667 </v>
   <v>      -0.12500000      -0.45833333       0.04166667 </v>
   <v>      -0.37500000      -0.37500000       0.04166667 </v>
   <v>      -0.29166667      -0.37500000       0.04166667 </v>
   <v>      -0.20833333      -0.37500000       0.04166667 </v>
   <v>      -0.12500000      -0.37500000       0.04166667 </v>
   <v>      -0.29166667      -0.29166667       0.04166667 </v>
   <v>      -0.20833333      -0.29166667       0.04166667 </v>
   <v>      -0.12500000      -0.29166667       0.04166667 </v>
   <v>      -0.20833333      -0.20833333       0.04166667 </v>
   <v>      -0.12500000      -0.20833333       0.04166667 </v>
   <v>      -0.12500000      -0.12500000       0.04166667 </v>
   <v>       0.12500000       0.12500000       0.12500000 </v>
   <v>       0.20833333       0.12500000       0.12500000 </v>
   <v>       0.29166667       0.12500000       0.12500000 </v>
   <v>       0.37500000       0.12500000       0.12500000 </v>
   <v>       0.45833333       0.12500000       0.12500000 </v>
   <v>      -0.45833333       0.12500000       0.12500000 </v>
   <v>      -0.37500000       0.12500000       0.12500000 </v>
   <v>      -0.29166667       0.12500000       0.12500000 </v>
   <v>      -0.20833333       0.12500000       0.12500000 </v>
   <v>      -0.12500000       0.12500000       0.12500000 </v>
   <v>       0.20833333       0.20833333       0.12500000 </v>
   <v>       0.29166667       0.20833333       0.12500000 </v>
   <v>       0.37500000       0.20833333       0.12500000 </v>
   <v>       0.45833333       0.20833333       0.12500000 </v>
   <v>      -0.45833333       0.20833333       0.12500000 </v>
   <v>      -0.37500000       0.20833333       0.12500000 </v>
   <v>      -0.29166667       0.20833333       0.12500000 </v>
   <v>      -0.20833333       0.20833333       0.12500000 </v>
   <v>      -0.12500000       0.20833333       0.12500000 </v>
   <v>       0.29166667       0.29166667       0.12500000 </v>
   <v>       0.37500000       0.29166667       0.12500000 </v>
   <v>       0.45833333       0.29166667       0.12500000 </v>
   <v>      -0.45833333       0.29166667       0.12500000 </v>
   <v>      -0.37500000       0.29166667       0.12500000 </v>
   <v>      -0.29166667       0.29166667       0.12500000 </v>
   <v>      -0.20833333       0.29166667       0.12500000 </v>
   <v>      -0.12500000       0.29166667       0.12500000 </v>
   <v>       0.37500000       0.37500000       0.12500000 </v>
   <v>       0.45833333       0.37500000       0.12500000 </v>
   <v>      -0.45833333       0.37500000       0.12500000 </v>
   <v>      -0.37500000       0.37500000       0.12500000 </v>
   <v>      -0.29166667       0.37500000       0.12500000 </v>
   <v>      -0.20833333       0.37500000       0.12500000 </v>
   <v>      -0.12500000       0.37500000       0.12500000 </v>
   <v>       0.45833333       0.45833333       0.12500000 </v>
   <v>      -0.45833333       0.45833333       0.12500000 </v>
   <v>      -0.37500000       0.45833333       0.12500000 </v>
   <v>      -0.29166667       0.45833333       0.12500000 </v>
   <v>      -0.20833333       0.45833333       0.12500000 </v>
   <v>      -0.12500000       0.45833333       0.12500000 </v>
   <v>      -0.45833333      -0.45833333       0.12500000 </v>
   <v>      -0.37500000      -0.45833333       0.12500000 </v>
   <v>      -0.29166667      -0.45833333       0.12500000 </v>
   <v>      -0.20833333      -0.45833333       0.12500000 </v>
   <v>      -0.37500000      -0.37500000       0.12500000 </v>
   <v>      -0.29166667      -0.37500000       0.12500000 </v>
   <v>      -0.20833333      -0.37500000       0.12500000 </v>
   <v>      -0.29166667      -0.29166667       0.12500000 </v>
   <v>      -0.20833333      -0.29166667       0.12500000 </v>
   <v>      -0.20833333      -0.20833333       0.12500000 </v>
   <v>       0.20833333       0.20833333       0.20833333 </v>
   <v>       0.29166667       0.20833333       0.20833333 </v>
   <v>       0.37500000       0.20833333       0.20833333 </v>
   <v>       0.45833333       0.20833333       0.20833333 </v>
   <v>      -0.45833333       0.20833333       0.20833333 </v>
   <v>      -0.37500000       0.20833333       0.20833333 </v>
   <v>      -0.29166667       0.20833333       0.20833333 </v>
   <v>      -0.20833333       0.20833333       0.20833333 </v>
   <v>       0.29166667       0.29166667       0.20833333 </v>
   <v>       0.37500000       0.29166667       0.20833333 </v>
   <v>       0.45833333       0.29166667       0.20833333 </v>
   <v>      -0.45833333       0.29166667       0.20833333 </v>
   <v>      -0.37500000       0.29166667       0.20833333 </v>
   <v>      -0.29166667       0.29166667       0.20833333 </v>
   <v>      -0.20833333       0.29166667       0.20833333 </v>
   <v>       0.37500000       0.37500000       0.20833333 </v>
   <v>       0.45833333       0.37500000       0.20833333 </v>
   <v>      -0.45833333       0.37500000       0.20833333 </v>
   <v>      -0.37500000       0.37500000       0.20833333 </v>
   <v>      -0.29166667       0.37500000       0.20833333 </v>
   <v>      -0.20833333       0.37500000       0.20833333 </v>
   <v>       0.45833333       0.45833333       0.20833333 </v>
   <v>      -0.45833333       0.45833333       0.20833333 </v>
   <v>      -0.37500000       0.45833333       0.20833333 </v>
   <v>      -0.29166667       0.45833333       0.20833333 </v>
   <v>      -0.20833333       0.45833333       0.20833333 </v>
   <v>      -0.45833333      -0.45833333       0.20833333 </v>
   <v>      -0.37500000      -0.45833333       0.20833333 </v>
   <v>      -0.29166667      -0.45833333       0.20833333 </v>
   <v>      -0.37500000      -0.37500000       0.20833333 </v>
   <v>      -0.29166667      -0.37500000       0.20833333 </v>
   <v>      -0.29166667      -0.29166667       0.20833333 </v>
   <v>       0.29166667       0.29166667       0.29166667 </v>
   <v>       0.37500000       0.29166667       0.29166667 </v>
   <v>       0.45833333       0.29166667       0.29166667 </v>
   <v>      -0.45833333       0.29166667       0.29166667 </v>
   <v>      -0.37500000       0.29166667       0.29166667 </v>
   <v>      -0.29166667       0.29166667       0.29166667 </v>
   <v>       0.37500000       0.37500000       0.29166667 </v>
   <v>       0.45833333       0.37500000       0.29166667 </v>
   <v>      -0.45833333       0.37500000       0.29166667 </v>
   <v>      -0.37500000       0.37500000       0.29166667 </v>
   <v>      -0.29166667       0.37500000       0.29166667 </v>
   <v>       0.45833333       0.45833333       0.29166667 </v>
   <v>      -0.45833333       0.45833333       0.29166667 </v>
   <v>      -0.37500000       0.45833333       0.29166667 </v>
   <v>      -0.29166667       0.45833333       0.29166667 </v>
   <v>      -0.45833333      -0.45833333       0.29166667 </v>
   <v>      -0.37500000      -0.45833333       0.29166667 </v>
   <v>      -0.37500000      -0.37500000       0.29166667 </v>
   <v>       0.37500000       0.37500000       0.37500000 </v>
   <v>       0.45833333       0.37500000       0.37500000 </v>
   <v>      -0.45833333       0.37500000       0.37500000 </v>
   <v>      -0.37500000       0.37500000       0.37500000 </v>
   <v>       0.45833333       0.45833333       0.37500000 </v>
   <v>      -0.45833333       0.45833333       0.37500000 </v>
   <v>      -0.37500000       0.45833333       0.37500000 </v>
   <v>      -0.45833333      -0.45833333       0.37500000 </v>
   <v>       0.45833333       0.45833333       0.45833333 </v>
   <v>      -0.45833333       0.45833333       0.45833333 </v>
  </varray>
  <varray name="weights" >
   <v>       0.00115741 </v>
   <v>       0.00347222 </v>
   <v>       0.00347222 </v>
   <v>       0.00347222 </v>
   <v>       0.00347222 </v>
   <v>       0.00347222 </v>
   <v>       0.00347222 </v>
   <v>       0.00347222 </v>
   <v>       0.00347222 </v>
   <v>       0.00347222 </v>
   <v>       0.00347222 </v>
   <v>       0.00347222 </v>
   <v>       0.00347222 </v>
   <v>       0.00694444 </v>
   <v>       0.00694444 </v>
   <v>       0.00694444 </v>
   <v>       0.00694444 </v>
   <v>       0.00694444 </v>
   <v>       0.00694444 </v>
   <v>       0.00694444 </v>
   <v>       0.00694444 </v>
   <v>       0.00694444 </v>
   <v>       0.00694444 </v>
   <v>       0.00347222 </v>
   <v>       0.00694444 </v>
   <v>       0.00694444 </v>
   <v>       0.00694444 </v>
   <v>       0.00694444 </v>
   <v>       0.00694444 </v>
   <v>       0.00694444 </v>
   <v>       0.00694444 </v>
   <v>       0.00694444 </v>
   <v>       0.00694444 </v>
   <v>       0.00347222 </v>
   <v>       0.00694444 </v>
   <v>       0.00694444 </v>
   <v>       0.00694444 </v>
   <v>       0.00694444 </v>
   <v>       0.00694444 </v>
   <v>       0.00694444 </v>
   <v>       0.00694444 </v>
   <v>       0.00694444 </v>
   <v>       0.00347222 </v>
   <v>       0.00694444 </v>
   <v>       0.00694444 </v>
   <v>       0.00694444 </v>
   <v>       0.00694444 </v>
   <v>       0.00694444 </v>
   <v>       0.00694444 </v>
   <v>       0.00694444 </v>
   <v>       0.00347222 </v>
   <v>       0.00694444 </v>
   <v>       0.00694444 </v>
   <v>       0.00694444 </v>
   <v>       0.00694444 </v>
   <v>       0.00694444 </v>
   <v>       0.00694444 </v>
   <v>       0.00347222 </v>
   <v>       0.00694444 </v>
   <v>       0.00694444 </v>
   <v>       0.00694444 </v>
   <v>       0.00694444 </v>
   <v>       0.00347222 </v>
   <v>       0.00694444 </v>
   <v>       0.00694444 </v>
   <v>       0.00694444 </v>
   <v>       0.00347222 </v>
   <v>       0.00694444 </v>
   <v>       0.00694444 </v>
   <v>       0.00347222 </v>
   <v>       0.00694444 </v>
   <v>       0.00347222 </v>
   <v>       0.00115741 </v>
   <v>       0.00347222 </v>
   <v>       0.00347222 </v>
   <v>       0.00347222 </v>
   <v>       0.00347222 </v>
   <v>       0.00347222 </v>
   <v>       0.00347222 </v>
   <v>       0.00347222 </v>
   <v>       0.00347222 </v>
   <v>       0.00347222 </v>
   <v>       0.00347222 </v>
   <v>       0.00694444 </v>
   <v>       0.00694444 </v>
   <v>       0.00694444 </v>
   <v>       0.00694444 </v>
   <v>       0.00694444 </v>
   <v>       0.00694444 </v>
   <v>       0.00694444 </v>
   <v>       0.00694444 </v>
   <v>       0.00347222 </v>
   <v>       0.00694444 </v>
   <v>       0.00694444 </v>
   <v>       0.00694444 </v>
   <v>       0.00694444 </v>
   <v>       0.00694444 </v>
   <v>       0.00694444 </v>
   <v>       0.00694444 </v>
   <v>       0.00347222 </v>
   <v>       0.00694444 </v>
   <v>       0.00694444 </v>
   <v>       0.00694444 </v>
   <v>       0.00694444 </v>
   <v>       0.00694444 </v>
   <v>       0.00694444 </v>
   <v>       0.00347222 </v>
   <v>       0.00694444 </v>
   <v>       0.00694444 </v>
   <v>       0.00694444 </v>
   <v>       0.00694444 </v>
   <v>       0.00694444 </v>
   <v>       0.00347222 </v>
   <v>       0.00694444 </v>
   <v>       0.00694444 </v>
   <v>       0.00694444 </v>
   <v>       0.00347222 </v>
   <v>       0.00694444 </v>
   <v>       0.00694444 </v>
   <v>       0.00347222 </v>
   <v>       0.00694444 </v>
   <v>       0.00347222 </v>
   <v>       0.00115741 </v>
   <v>       0.00347222 </v>
   <v>       0.00347222 </v>
   <v>       0.00347222 </v>
   <v>       0.00347222 </v>
   <v>       0.00347222 </v>
   <v>       0.00347222 </v>
   <v>       0.00347222 </v>
   <v>       0.00347222 </v>
   <v>       0.00694444 </v>
   <v>       0.00694444 </v>
   <v>       0.00694444 </v>
   <v>       0.00694444 </v>
   <v>       0.00694444 </v>
   <v>       0.00694444 </v>
   <v>       0.00347222 </v>
   <v>       0.00694444 </v>
   <v>       0.00694444 </v>
   <v>       0.00694444 </v>
   <v>       0.00694444 </v>
   <v>       0.00694444 </v>
   <v>       0.00347222 </v>
   <v>       0.00694444 </v>
   <v>       0.00694444 </v>
   <v>       0.00694444 </v>
   <v>       0.00694444 </v>
   <v>       0.00347222 </v>
   <v>       0.00694444 </v>
   <v>       0.00694444 </v>
   <v>       0.00347222 </v>
   <v>       0.00694444 </v>
   <v>       0.00347222 </v>
   <v>       0.00115741 </v>
   <v>       0.00347222 </v>
   <v>       0.00347222 </v>
   <v>       0.00347222 </v>
   <v>       0.00347222 </v>
   <v>       0.00347222 </v>
   <v>       0.00347222 </v>
   <v>       0.00694444 </v>
   <v>       0.00694444 </v>
   <v>       0.00694444 </v>
   <v>       0.00694444 </v>
   <v>       0.00347222 </v>
   <v>       0.00694444 </v>
   <v>       0.00694444 </v>
   <v>       0.00694444 </v>
   <v>       0.00347222 </v>
   <v>       0.00694444 </v>
   <v>       0.00347222 </v>
   <v>       0.00115741 </v>
   <v>       0.00347222 </v>
   <v>       0.00347222 </v>
   <v>       0.00347222 </v>
   <v>       0.00347222 </v>
   <v>       0.00694444 </v>
   <v>       0.00694444 </v>
   <v>       0.00347222 </v>
   <v>       0.00115741 </v>
   <v>       0.00347222 </v>
  </varray>
 </kpoints>
 <parameters>
  <separator name="general" >
   <i type="string" name="SYSTEM">unknown system</i>
   <i type="logical" name="LCOMPAT"> F  </i>
  </separator>
  <separator name="electronic" >
   <i type="string" name="PREC">accura</i>
   <i name="ENMAX">    350.00000000</i>
   <i name="ENAUG">    322.06900000</i>
   <i name="EDIFF">      0.00000100</i>
   <i type="int" name="IALGO">    38</i>
   <i type="int" name="IWAVPR">    11</i>
   <i type="int" name="NBANDS">     8</i>
   <i type="int" name="NBANDSLOW">    -1</i>
   <i type="int" name="NBANDSHIGH">    -1</i>
   <i name="NELECT">      8.00000000</i>
   <i type="int" name="TURBO">     0</i>
   <i type="int" name="IRESTART">     0</i>
   <i type="int" name="NREBOOT">     0</i>
   <i type="int" name="NMIN">     0</i>
   <i name="EREF">      0.00000000</i>
   <separator name="electronic smearing" >
    <i type="int" name="ISMEAR">     0</i>
    <i name="SIGMA">      0.05000000</i>
    <i name="KSPACING">      0.50000000</i>
    <i type="logical" name="KGAMMA"> T  </i>
    <i type="logical" name="KBLOWUP"> T  </i>
   </separator>
   <separator name="electronic projectors" >
    <i type="logical" name="LREAL"> F  </i>
    <v name="ROPT">      0.00000000</v>
    <i type="int" name="LMAXPAW">  -100</i>
    <i type="int" name="LMAXMIX">     2</i>
    <i type="logical" name="NLSPLINE"> F  </i>
   </separator>
   <separator name="electronic startup" >
    <i type="int" name="ISTART">     0</i>
    <i type="int" name="ICHARG">     2</i>
    <i type="int" name="INIWAV">     1</i>
   </separator>
   <separator name="electronic spin" >
    <i type="int" name="ISPIN">     1</i>
    <i type="logical" name="LNONCOLLINEAR"> F  </i>
    <v name="MAGMOM">      1.00000000      1.00000000</v>
    <i name="NUPDOWN">     -1.00000000</i>
    <i type="logical" name="LSORBIT"> F  </i>
    <v name="SAXIS">      0.00000000      0.00000000      1.00000000</v>
    <i type="logical" name="LSPIRAL"> F  </i>
    <v name="QSPIRAL">      0.00000000      0.00000000      0.00000000</v>
    <i type="logical" name="LZEROZ"> F  </i>
   </separator>
   <separator name="electronic exchange-correlation" >
    <i type="logical" name="LASPH"> T  </i>
    <i type="logical" name="LMETAGGA"> F  </i>
   </separator>
   <separator name="electronic convergence" >
    <i type="int" name="NELM">    90</i>
    <i type="int" name="NELMDL">    -5</i>
    <i type="int" name="NELMIN">     6</i>
    <i name="ENINI">    350.00000000</i>
    <separator name="electronic convergence detail" >
     <i type="logical" name="LDIAG"> T  </i>
     <i type="logical" name="LSUBROT"> F  </i>
     <i name="WEIMIN">      0.00100000</i>
     <i name="EBREAK">      0.00000003</i>
     <i name="DEPER">      0.30000000</i>
     <i type="int" name="NRMM">     4</i>
     <i name="TIME">      0.40000000</i>
    </separator>
   </separator>
   <separator name="electronic mixer" >
    <i name="AMIX">      0.40000000</i>
    <i name="BMIX">      1.00000000</i>
    <i name="AMIN">      0.10000000</i>
    <i name="AMIX_MAG">      1.60000000</i>
    <i name="BMIX_MAG">      1.00000000</i>
    <separator name="electronic mixer details" >
     <i type="int" name="IMIX">     4</i>
     <i type="logical" name="MIXFIRST"> F  </i>
     <i type="int" name="MAXMIX">   -45</i>
     <i name="WC">    100.00000000</i>
     <i type="int" name="INIMIX">     1</i>
     <i type="int" name="MIXPRE">     1</i>
     <i type="int" name="MREMOVE">     5</i>
    </separator>
   </separator>
   <separator name="electronic dipolcorrection" >
    <i type="logical" name="LDIPOL"> F  </i>
    <i type="logical" name="LMONO"> F  </i>
    <i type="int" name="IDIPOL">     0</i>
    <i name="EPSILON">      1.00000000</i>
    <v name="DIPOL">   -100.00000000   -100.00000000   -100.00000000</v>
    <i name="EFIELD">      0.00000000</i>
   </separator>
  </separator>
  <separator name="grids" >
   <i type="int" name="NGX">    24</i>
   <i type="int" name="NGY">    24</i>
   <i type="int" name="NGZ">    24</i>
   <i type="int" name="NGXF">    48</i>
   <i type="int" name="NGYF">    48</i>
   <i type="int" name="NGZF">    48</i>
   <i type="logical" name="ADDGRID"> T  </i>
  </separator>
  <separator name="ionic" >
   <i type="int" name="NSW">   100</i>
   <i type="int" name="IBRION">     2</i>
   <i type="int" name="MDALGO">     0</i>
   <i type="int" name="ISIF">     2</i>
   <i name="PSTRESS">      0.00000000</i>
   <i name="EDIFFG">     -0.00200000</i>
   <i type="int" name="NFREE">     1</i>
   <i name="POTIM">      0.50000000</i>
   <i name="SMASS">     -3.00000000</i>
   <i name="SCALEE">      1.00000000</i>
  </separator>
  <separator name="ionic md" >
   <i name="TEBEG">      0.00010000</i>
   <i name="TEEND">      0.00010000</i>
   <i type="int" name="NBLOCK">     1</i>
   <i type="int" name="KBLOCK">   100</i>
   <i type="int" name="NPACO">   256</i>
   <i name="APACO">     16.00000000</i>
  </separator>
  <separator name="symmetry" >
   <i type="int" name="ISYM">     2</i>
   <i name="SYMPREC">      0.00001000</i>
  </separator>
  <separator name="dos" >
   <i type="int" name="LORBIT">     0</i>
   <v name="RWIGS">     -1.00000000</v>
   <i type="int" name="NEDOS">   301</i>
   <i name="EMIN">     10.00000000</i>
   <i name="EMAX">    -10.00000000</i>
   <i name="EFERMI">      0.00000000</i>
  </separator>
  <separator name="writing" >
   <i type="int" name="NWRITE">     2</i>
   <i type="logical" name="LWAVE"> F  </i>
   <i type="logical" name="LDOWNSAMPLE"> F  </i>
   <i type="logical" name="LCHARG"> F  </i>
   <i type="logical" name="LPARD"> F  </i>
   <i type="logical" name="LVTOT"> F  </i>
   <i type="logical" name="LVHAR"> F  </i>
   <i type="logical" name="LELF"> F  </i>
   <i type="logical" name="LOPTICS"> F  </i>
   <v name="STM">      0.00000000      0.00000000      0.00000000      0.00000000      0.00000000      0.00000000      0.00000000</v>
  </separator>
  <separator name="performance" >
   <i type="int" name="NPAR">     4</i>
   <i type="int" name="NSIM">     4</i>
   <i type="int" name="NBLK">    -1</i>
   <i type="logical" name="LPLANE"> T  </i>
   <i type="logical" name="LSCALAPACK"> T  </i>
   <i type="logical" name="LSCAAWARE"> F  </i>
   <i type="logical" name="LSCALU"> F  </i>
   <i type="logical" name="LASYNC"> F  </i>
   <i type="logical" name="LORBITALREAL"> F  </i>
  </separator>
  <separator name="miscellaneous" >
   <i type="int" name="IDIOT">     3</i>
   <i type="int" name="PHON_NSTRUCT">    -1</i>
   <i type="logical" name="LMUSIC"> F  </i>
   <v name="POMASS">     28.08500000</v>
   <v name="DARWINR">      0.00000000</v>
   <v name="DARWINV">      1.00000000</v>
   <i type="logical" name="LCORR"> T  </i>
  </separator>
  <i type="logical" name="GGA_COMPAT"> T  </i>
  <i type="logical" name="LBERRY"> F  </i>
  <i type="int" name="ICORELEVEL">     0</i>
  <i type="logical" name="LDAU"> F  </i>
  <i type="int" name="I_CONSTRAINED_M">     0</i>
  <separator name="electronic exchange-correlation" >
   <i type="string" name="GGA">--</i>
   <i type="int" name="VOSKOWN">     0</i>
   <i type="logical" name="LHFCALC"> F  </i>
   <i type="string" name="PRECFOCK"></i>
   <i type="logical" name="LSYMGRAD"> F  </i>
   <i type="logical" name="LHFONE"> F  </i>
   <i type="logical" name="LRHFCALC"> F  </i>
   <i type="logical" name="LTHOMAS"> F  </i>
   <i type="logical" name="LMODELHF"> F  </i>
   <i type="logical" name="LFOCKACE"> F  </i>
   <i name="ENCUT4O">     -1.00000000</i>
   <i type="int" name="EXXOEP">     0</i>
   <i type="int" name="FOURORBIT">     0</i>
   <i name="AEXX">      0.00000000</i>
   <i name="HFALPHA">      0.00000000</i>
   <i name="MCALPHA">      0.00000000</i>
   <i name="ALDAX">      1.00000000</i>
   <i name="AGGAX">      1.00000000</i>
   <i name="ALDAC">      1.00000000</i>
   <i name="AGGAC">      1.00000000</i>
   <i type="int" name="NKREDX">     1</i>
   <i type="int" name="NKREDY">     1</i>
   <i type="int" name="NKREDZ">     1</i>
   <i type="logical" name="SHIFTRED"> F  </i>
   <i type="logical" name="ODDONLY"> F  </i>
   <i type="logical" name="EVENONLY"> F  </i>
   <i type="int" name="LMAXFOCK">     0</i>
   <i type="int" name="NMAXFOCKAE">     0</i>
   <i type="logical" name="LFOCKAEDFT"> F  </i>
   <i name="HFSCREEN">      0.00000000</i>
   <i name="HFSCREENC">      0.00000000</i>
   <i type="int" name="NBANDSGWLOW">     0</i>
  </separator>
  <separator name="vdW DFT" >
   <i type="logical" name="LUSE_VDW"> F  </i>
   <i name="Zab_VDW">     -0.84910000</i>
   <i name="PARAM1">      0.12340000</i>
   <i name="PARAM2">      1.00000000</i>
   <i name="PARAM3">      0.00000000</i>
  </separator>
  <separator name="model GW" >
   <i type="int" name="MODEL_GW">     0</i>
   <i name="MODEL_EPS0">     12.62952015</i>
   <i name="MODEL_ALPHA">      1.00000000</i>
  </separator>
  <separator name="linear response parameters" >
   <i type="logical" name="LEPSILON"> F  </i>
   <i type="logical" name="LRPA"> F  </i>
   <i type="logical" name="LNABLA"> F  </i>
   <i type="logical" name="LVEL"> F  </i>
   <i type="int" name="KINTER">     0</i>
   <i name="CSHIFT">      0.10000000</i>
   <i name="OMEGAMAX">     -1.00000000</i>
   <i name="DEG_THRESHOLD">      0.00200000</i>
   <i name="RTIME">     -0.10000000</i>
   <i name="WPLASMAI">      0.00000000</i>
   <v name="DFIELD">      0.00000000      0.00000000      0.00000000</v>
   <v name="WPLASMA">      0.00000000      0.00000000      0.00000000      0.00000000      0.00000000      0.00000000      0.00000000      0.00000000      0.00000000</v>
  </separator>
  <separator name="orbital magnetization" >
   <i type="logical" name="NUCIND"> F  </i>
   <v name="MAGPOS">      0.00000000      0.00000000      0.00000000</v>
   <i type="logical" name="LNICSALL"> T  </i>
   <i type="logical" name="ORBITALMAG"> F  </i>
   <i type="logical" name="LMAGBLOCH"> F  </i>
   <i type="logical" name="LCHIMAG"> F  </i>
   <i type="logical" name="LGAUGE"> T  </i>
   <i type="int" name="MAGATOM">     0</i>
   <v name="MAGDIPOL">      0.00000000      0.00000000      0.00000000</v>
   <v name="AVECCONST">      0.00000000      0.00000000      0.00000000</v>
  </separator>
  <separator name="response functions" >
   <i type="logical" name="LFINITE_TEMPERATURE"> F  </i>
   <i type="logical" name="LADDER"> F  </i>
   <i type="logical" name="LRPAFORCE"> F  </i>
   <i type="logical" name="LFXC"> F  </i>
   <i type="logical" name="LHARTREE"> T  </i>
   <i type="int" name="IBSE">     0</i>
   <v type="int" name="KPOINT">    -1     0     0     0</v>
   <i type="logical" name="LTCTC"> F  </i>
   <i type="logical" name="LTCTE"> F  </i>
   <i type="logical" name="LTETE"> F  </i>
   <i type="logical" name="LTRIPLET"> F  </i>
   <i type="logical" name="LFXCEPS"> F  </i>
   <i type="logical" name="LFXHEG"> F  </i>
   <i type="int" name="NATURALO">     2</i>
   <i type="logical" name="LHOLEGF"> F  </i>
   <i type="logical" name="L2ORDER"> F  </i>
   <i type="logical" name="LDMP1"> F  </i>
   <i type="logical" name="LMP2LT"> F  </i>
   <i type="logical" name="LSMP2LT"> F  </i>
   <i type="logical" name="LGWLF"> F  </i>
   <i name="ENCUTGW">     -2.00000000</i>
   <i name="ENCUTGWSOFT">     -2.00000000</i>
   <i name="ENCUTLF">     -1.00000000</i>
   <i type="logical" name="LESF_SPLINES"> F  </i>
   <i type="int" name="LMAXMP2">    -1</i>
   <i name="SCISSOR">      0.00000000</i>
   <i type="int" name="NOMEGA">     0</i>
   <i type="int" name="NOMEGAR">     0</i>
   <i type="int" name="NBANDSGW">    -1</i>
   <i type="int" name="NBANDSO">    -1</i>
   <i type="int" name="NBANDSV">    -1</i>
   <i type="int" name="NELM">    90</i>
   <i type="int" name="NELMHF">     1</i>
   <i type="int" name="DIM">     3</i>
   <i type="int" name="IESPILON">     4</i>
   <i type="int" name="ANTIRES">     0</i>
   <i name="OMEGAMAX">    -30.00000000</i>
   <i name="OMEGAMIN">    -30.00000000</i>
   <i name="OMEGATL">   -200.00000000</i>
   <i type="int" name="OMEGAGRID">     0</i>
   <i name="CSHIFT">     -0.10000000</i>
   <i type="logical" name="LSELFENERGY"> F  </i>
   <i type="logical" name="LSPECTRAL"> F  </i>
   <i type="logical" name="LSPECTRALGW"> F  </i>
   <i type="logical" name="LSINGLES"> F  </i>
   <i type="logical" name="LFERMIGW"> F  </i>
   <i type="logical" name="ODDONLYGW"> F  </i>
   <i type="logical" name="EVENONLYGW"> F  </i>
   <i type="int" name="NKREDLFX">     1</i>
   <i type="int" name="NKREDLFY">     1</i>
   <i type="int" name="NKREDLFZ">     1</i>
   <i type="int" name="MAXMEM">  2800</i>
   <i type="int" name="TELESCOPE">     0</i>
   <i type="int" name="NTAUPAR">    -1</i>
   <i type="int" name="NOMEGAPAR">    -1</i>
   <i name="DAMP_NEWTON">      0.80000001</i>
   <i name="LAMBDA">      1.00000000</i>
  </separator>
  <separator name="External order field" >
   <i name="OFIELD_KAPPA">      0.00000000</i>
   <v name="OFIELD_K">      0.00000000      0.00000000      0.00000000</v>
   <i name="OFIELD_Q6_NEAR">      0.00000000</i>
   <i name="OFIELD_Q6_FAR">      0.00000000</i>
   <i name="OFIELD_A">      0.00000000</i>
  </separator>
 </parameters>
 <atominfo>
  <atoms>       2 </atoms>
  <types>       1 </types>
  <array name="atoms" >
   <dimension dim="1">ion</dimension>
   <field type="string">element</field>
   <field type="int">atomtype</field>
   <set>
    <rc><c>Si</c><c>   1</c></rc>
    <rc><c>Si</c><c>   1</c></rc>
   </set>
  </array>
  <array name="atomtypes" >
   <dimension dim="1">type</dimension>
   <field type="int">atomspertype</field>
   <field type="string">element</field>
   <field>mass</field>
   <field>valence</field>
   <field type="string">pseudopotential</field>
   <set>
    <rc><c>   2</c><c>Si</c><c>     28.08500000</c><c>      4.00000000</c><c>  PAW_PBE Si 05Jan2001                  </c></rc>
   </set>
  </array>
 </atominfo>
 <structure name="initialpos" >
  <crystal>
   <varray name="basis" >
    <v>       3.38161472       0.00000000       1.95237590 </v>
    <v>       1.12720491       3.18821820       1.95237590 </v>
    <v>       0.00000000       0.00000000       3.90475179 </v>
   </varray>
   <i name="volume">     42.09840050 </i>
   <varray name="rec_basis" >
    <v>       0.29571672      -0.10455161       0.00000000 </v>
    <v>       0.00000000       0.31365482       0.00000000 </v>
    <v>      -0.14785836      -0.10455161       0.25609822 </v>
   </varray>
  </crystal>
  <varray name="positions" >
   <v>       0.87500000       0.87500000       0.87500000 </v>
   <v>       0.12500000       0.12500000       0.12500000 </v>
  </varray>
 </structure>
 <calculation>
  <scstep>
   <time name="dav">    1.48    1.48</time>
   <time name="total">    1.69    1.70</time>
   <energy>
    <i name="alphaZ">      3.19851875 </i>
    <i name="ewald">   -224.74923690 </i>
    <i name="hartreedc">    -11.77182593 </i>
    <i name="XCdc">    -18.79736220 </i>
    <i name="pawpsdc">    176.24759923 </i>
    <i name="pawaedc">   -141.06103558 </i>
    <i name="eentropy">     -0.00039799 </i>
    <i name="bandstr">     12.25446630 </i>
    <i name="atom">    206.13125414 </i>
    <i name="e_fr_energy">      1.45197982 </i>
    <i name="e_wo_entrp">      1.45237781 </i>
    <i name="e_0_energy">      1.45217881 </i>
   </energy>
  </scstep>
  <scstep>
   <time name="dav">    2.13    2.15</time>
   <time name="total">    2.13    2.15</time>
   <energy>
    <i name="e_fr_energy">    -10.84620684 </i>
    <i name="e_wo_entrp">    -10.84620684 </i>
    <i name="e_0_energy">    -10.84620684 </i>
   </energy>
  </scstep>
  <scstep>
   <time name="dav">    1.80    1.82</time>
   <time name="total">    1.80    1.82</time>
   <energy>
    <i name="e_fr_energy">    -10.99009736 </i>
    <i name="e_wo_entrp">    -10.99009736 </i>
    <i name="e_0_energy">    -10.99009736 </i>
   </energy>
  </scstep>
  <scstep>
   <time name="dav">    2.20    2.22</time>
   <time name="total">    2.20    2.22</time>
   <energy>
    <i name="e_fr_energy">    -10.99069718 </i>
    <i name="e_wo_entrp">    -10.99069718 </i>
    <i name="e_0_energy">    -10.99069718 </i>
   </energy>
  </scstep>
  <scstep>
   <time name="dav">    1.83    1.85</time>
   <time name="total">    1.95    1.97</time>
   <energy>
    <i name="e_fr_energy">    -10.99069787 </i>
    <i name="e_wo_entrp">    -10.99069787 </i>
    <i name="e_0_energy">    -10.99069787 </i>
   </energy>
  </scstep>
  <scstep>
   <time name="dav">    1.74    1.74</time>
   <time name="total">    2.06    2.08</time>
   <energy>
    <i name="e_fr_energy">    -10.88644070 </i>
    <i name="e_wo_entrp">    -10.88644070 </i>
    <i name="e_0_energy">    -10.88644070 </i>
   </energy>
  </scstep>
  <scstep>
   <time name="dav">    1.81    1.81</time>
   <time name="total">    2.13    2.15</time>
   <energy>
    <i name="e_fr_energy">    -10.83714169 </i>
    <i name="e_wo_entrp">    -10.83714169 </i>
    <i name="e_0_energy">    -10.83714169 </i>
   </energy>
  </scstep>
  <scstep>
   <time name="dav">    1.64    1.64</time>
   <time name="total">    1.96    1.98</time>
   <energy>
    <i name="e_fr_energy">    -10.83825947 </i>
    <i name="e_wo_entrp">    -10.83825947 </i>
    <i name="e_0_energy">    -10.83825947 </i>
   </energy>
  </scstep>
  <scstep>
   <time name="dav">    2.05    2.06</time>
   <time name="total">    2.38    2.40</time>
   <energy>
    <i name="e_fr_energy">    -10.83847091 </i>
    <i name="e_wo_entrp">    -10.83847091 </i>
    <i name="e_0_energy">    -10.83847091 </i>
   </energy>
  </scstep>
  <scstep>
   <time name="dav">    1.67    1.67</time>
   <time name="total">    1.99    2.01</time>
   <energy>
    <i name="e_fr_energy">    -10.83849433 </i>
    <i name="e_wo_entrp">    -10.83849433 </i>
    <i name="e_0_energy">    -10.83849433 </i>
   </energy>
  </scstep>
  <scstep>
   <time name="dav">    1.97    1.97</time>
   <time name="total">    2.19    2.20</time>
   <energy>
    <i name="alphaZ">      3.19851875 </i>
    <i name="ewald">   -224.74923690 </i>
    <i name="hartreedc">    -15.51982387 </i>
    <i name="XCdc">    -18.19056029 </i>
    <i name="pawpsdc">    786.52582327 </i>
    <i name="pawaedc">   -751.52108587 </i>
    <i name="eentropy">     -0.00000000 </i>
    <i name="bandstr">      3.28661659 </i>
    <i name="atom">    206.13125414 </i>
    <i name="e_fr_energy">    -10.83849418 </i>
    <i name="e_wo_entrp">    -10.83849418 </i>
    <i name="e_0_energy">    -10.83849418 </i>
   </energy>
  </scstep>
  <structure>
   <crystal>
    <varray name="basis" >
     <v>       3.38161472       0.00000000       1.95237590 </v>
     <v>       1.12720491       3.18821820       1.95237590 </v>
     <v>       0.00000000       0.00000000       3.90475179 </v>
    </varray>
    <i name="volume">     42.09840050 </i>
    <varray name="rec_basis" >
     <v>       0.29571672      -0.10455161       0.00000000 </v>
     <v>       0.00000000       0.31365482       0.00000000 </v>
     <v>      -0.14785836      -0.10455161       0.25609822 </v>
    </varray>
   </crystal>
   <varray name="positions" >
    <v>       0.87500000       0.87500000       0.87500000 </v>
    <v>       0.12500000       0.12500000       0.12500000 </v>
   </varray>
  </structure>
  <varray name="forces" >
   <v>       0.00000000       0.00000000       0.00000000 </v>
   <v>      -0.00000000      -0.00000000      -0.00000000 </v>
  </varray>
  <varray name="stress" >
   <v>     -24.75221311       0.00000000       0.00000000 </v>
   <v>       0.00000000     -24.75223273       0.00000000 </v>
   <v>      -0.00000000      -0.00000000     -24.75220613 </v>
  </varray>
  <energy>
   <i name="e_fr_energy">    -10.83849418 </i>
   <i name="e_wo_entrp">    -10.83849418 </i>
   <i name="e_0_energy">    -10.83849418 </i>
  </energy>
  <time name="totalsc">   24.78   25.14</time>
  <eigenvalues>
   <array>
    <dimension dim="1">band</dimension>
    <dimension dim="2">kpoint</dimension>
    <dimension dim="3">spin</dimension>
    <field>eigene</field>
    <field>occ</field>
    <set>
     <set comment="spin 1">
      <set comment="kpoint 1">
       <r>   -6.2685    1.0000 </r>
       <r>    5.0700    1.0000 </r>
       <r>    5.2944    1.0000 </r>
       <r>    5.2944    1.0000 </r>
       <r>    7.8927    0.0000 </r>
       <r>    7.9293    0.0000 </r>
       <r>    7.9293    0.0000 </r>
       <r>    8.3413    0.0000 </r>
      </set>
      <set comment="kpoint 2">
       <r>   -6.1524    1.0000 </r>
       <r>    4.1833    1.0000 </r>
       <r>    4.8957    1.0000 </r>
       <r>    5.2420    1.0000 </r>
       <r>    7.9045    0.0000 </r>
       <r>    8.0431    0.0000 </r>
       <r>    8.2046    0.0000 </r>
       <r>    9.2564    0.0000 </r>
      </set>
      <set comment="kpoint 3">
       <r>   -5.8663    1.0000 </r>
       <r>    2.7199    1.0000 </r>
       <r>    4.5394    1.0000 </r>
       <r>    4.9836    1.0000 </r>
       <r>    7.6064    0.0000 </r>
       <r>    8.4193    0.0000 </r>
       <r>    8.6987    0.0000 </r>
       <r>   10.6122    0.0000 </r>
      </set>
      <set comment="kpoint 4">
       <r>   -5.4230    1.0000 </r>
       <r>    1.2567    1.0000 </r>
       <r>    4.2521    1.0000 </r>
       <r>    4.6791    1.0000 </r>
       <r>    7.2930    0.0000 </r>
       <r>    8.7121    0.0000 </r>
       <r>    8.9545    0.0000 </r>
       <r>   11.8205    0.0000 </r>
      </set>
      <set comment="kpoint 5">
       <r>   -4.8585    1.0000 </r>
       <r>   -0.0543    1.0000 </r>
       <r>    4.0631    1.0000 </r>
       <r>    4.4159    1.0000 </r>
       <r>    7.0476    0.0000 </r>
       <r>    8.7703    0.0000 </r>
       <r>    8.9006    0.0000 </r>
       <r>   12.7926    0.0000 </r>
      </set>
      <set comment="kpoint 6">
       <r>   -4.2890    1.0000 </r>
       <r>   -1.0594    1.0000 </r>
       <r>    3.9821    1.0000 </r>
       <r>    4.2289    1.0000 </r>
       <r>    6.9016    0.0000 </r>
       <r>    8.7456    0.0000 </r>
       <r>    8.7491    0.0000 </r>
       <r>   13.0882    0.0000 </r>
      </set>
      <set comment="kpoint 7">
       <r>   -4.0737    1.0000 </r>
       <r>   -1.3845    1.0000 </r>
       <r>    4.0077    1.0000 </r>
       <r>    4.1336    1.0000 </r>
       <r>    6.8661    0.0000 </r>
       <r>    8.6547    0.0000 </r>
       <r>    8.7791    0.0000 </r>
       <r>   13.0676    0.0000 </r>
      </set>
      <set comment="kpoint 8">
       <r>   -4.4642    1.0000 </r>
       <r>   -0.7749    1.0000 </r>
       <r>    4.1340    1.0000 </r>
       <r>    4.1387    1.0000 </r>
       <r>    6.9428    0.0000 </r>
       <r>    8.6547    0.0000 </r>
       <r>    8.9001    0.0000 </r>
       <r>   12.9654    0.0000 </r>
      </set>
      <set comment="kpoint 9">
       <r>   -5.0557    1.0000 </r>
       <r>    0.3582    1.0000 </r>
       <r>    4.2492    1.0000 </r>
       <r>    4.3511    1.0000 </r>
       <r>    7.1266    0.0000 </r>
       <r>    8.6824    0.0000 </r>
       <r>    9.0378    0.0000 </r>
       <r>   12.1669    0.0000 </r>
      </set>
      <set comment="kpoint 10">
       <r>   -5.5866    1.0000 </r>
       <r>    1.7333    1.0000 </r>
       <r>    4.4624    1.0000 </r>
       <r>    4.6404    1.0000 </r>
       <r>    7.3993    0.0000 </r>
       <r>    8.5565    0.0000 </r>
       <r>    9.0103    0.0000 </r>
       <r>   11.3060    0.0000 </r>
      </set>
      <set comment="kpoint 11">
       <r>   -5.9799    1.0000 </r>
       <r>    3.2240    1.0000 </r>
       <r>    4.7595    1.0000 </r>
       <r>    4.9545    1.0000 </r>
       <r>    7.7070    0.0000 </r>
       <r>    8.2027    0.0000 </r>
       <r>    8.6772    0.0000 </r>
       <r>   10.1296    0.0000 </r>
      </set>
      <set comment="kpoint 12">
       <r>   -6.2103    1.0000 </r>
       <r>    4.6431    1.0000 </r>
       <r>    5.0823    1.0000 </r>
       <r>    5.1732    1.0000 </r>
       <r>    7.7940    0.0000 </r>
       <r>    8.0595    0.0000 </r>
       <r>    8.2107    0.0000 </r>
       <r>    8.7789    0.0000 </r>
      </set>
      <set comment="kpoint 13">
       <r>   -6.0943    1.0000 </r>
       <r>    4.0853    1.0000 </r>
       <r>    4.7540    1.0000 </r>
       <r>    4.8408    1.0000 </r>
       <r>    7.5662    0.0000 </r>
       <r>    8.4624    0.0000 </r>
       <r>    8.6772    0.0000 </r>
       <r>    9.3148    0.0000 </r>
      </set>
      <set comment="kpoint 14">
       <r>   -5.8643    1.0000 </r>
       <r>    3.0687    1.0000 </r>
       <r>    4.1903    1.0000 </r>
       <r>    4.7001    1.0000 </r>
       <r>    7.5766    0.0000 </r>
       <r>    8.5939    0.0000 </r>
       <r>    9.1607    0.0000 </r>
       <r>   10.0655    0.0000 </r>
      </set>
      <set comment="kpoint 15">
       <r>   -5.4717    1.0000 </r>
       <r>    1.7021    1.0000 </r>
       <r>    3.8149    1.0000 </r>
       <r>    4.4205    1.0000 </r>
       <r>    7.7332    0.0000 </r>
       <r>    8.5799    0.0000 </r>
       <r>    9.5406    0.0000 </r>
       <r>   10.3982    0.0000 </r>
      </set>
      <set comment="kpoint 16">
       <r>   -4.9415    1.0000 </r>
       <r>    0.3772    1.0000 </r>
       <r>    3.5562    1.0000 </r>
       <r>    4.1319    1.0000 </r>
       <r>    7.6389    0.0000 </r>
       <r>    8.6496    0.0000 </r>
       <r>    9.5614    0.0000 </r>
       <r>   10.9826    0.0000 </r>
      </set>
      <set comment="kpoint 17">
       <r>   -4.3495    1.0000 </r>
       <r>   -0.7338    1.0000 </r>
       <r>    3.3760    1.0000 </r>
       <r>    3.9502    1.0000 </r>
       <r>    7.5102    0.0000 </r>
       <r>    8.6050    0.0000 </r>
       <r>    9.4074    0.0000 </r>
       <r>   12.0661    0.0000 </r>
      </set>
      <set comment="kpoint 18">
       <r>   -3.9572    1.0000 </r>
       <r>   -1.3369    1.0000 </r>
       <r>    3.2554    1.0000 </r>
       <r>    3.9273    1.0000 </r>
       <r>    7.4618    0.0000 </r>
       <r>    8.5781    0.0000 </r>
       <r>    9.2767    0.0000 </r>
       <r>   13.1812    0.0000 </r>
      </set>
      <set comment="kpoint 19">
       <r>   -4.1750    1.0000 </r>
       <r>   -1.0121    1.0000 </r>
       <r>    3.2119    1.0000 </r>
       <r>    4.0551    1.0000 </r>
       <r>    7.5146    0.0000 </r>
       <r>    8.6258    0.0000 </r>
       <r>    9.2526    0.0000 </r>
       <r>   12.8729    0.0000 </r>
      </set>
      <set comment="kpoint 20">
       <r>   -4.7459    1.0000 </r>
       <r>   -0.0220    1.0000 </r>
       <r>    3.2763    1.0000 </r>
       <r>    4.2983    1.0000 </r>
       <r>    7.6631    0.0000 </r>
       <r>    8.6938    0.0000 </r>
       <r>    9.3201    0.0000 </r>
       <r>   11.7415    0.0000 </r>
      </set>
      <set comment="kpoint 21">
       <r>   -5.3096    1.0000 </r>
       <r>    1.2456    1.0000 </r>
       <r>    3.4749    1.0000 </r>
       <r>    4.6109    1.0000 </r>
       <r>    7.8812    0.0000 </r>
       <r>    8.6027    0.0000 </r>
       <r>    9.3258    0.0000 </r>
       <r>   10.9112    0.0000 </r>
      </set>
      <set comment="kpoint 22">
       <r>   -5.7517    1.0000 </r>
       <r>    2.5851    1.0000 </r>
       <r>    3.8538    1.0000 </r>
       <r>    4.9146    1.0000 </r>
       <r>    8.0264    0.0000 </r>
       <r>    8.3242    0.0000 </r>
       <r>    8.9914    0.0000 </r>
       <r>   10.4865    0.0000 </r>
      </set>
      <set comment="kpoint 23">
       <r>   -6.0369    1.0000 </r>
       <r>    3.6419    1.0000 </r>
       <r>    4.5637    1.0000 </r>
       <r>    5.0640    1.0000 </r>
       <r>    7.8296    0.0000 </r>
       <r>    8.1802    0.0000 </r>
       <r>    8.5972    0.0000 </r>
       <r>    9.7945    0.0000 </r>
      </set>
      <set comment="kpoint 24">
       <r>   -5.6906    1.0000 </r>
       <r>    2.7899    1.0000 </r>
       <r>    4.0302    1.0000 </r>
       <r>    4.0380    1.0000 </r>
       <r>    6.9949    0.0000 </r>
       <r>    9.2164    0.0000 </r>
       <r>    9.8675    0.0000 </r>
       <r>    9.8758    0.0000 </r>
      </set>
      <set comment="kpoint 25">
       <r>   -5.3512    1.0000 </r>
       <r>    1.8607    1.0000 </r>
       <r>    3.4693    1.0000 </r>
       <r>    3.8615    1.0000 </r>
       <r>    7.0276    0.0000 </r>
       <r>    8.9345    0.0000 </r>
       <r>   10.0540    0.0000 </r>
       <r>   10.4629    0.0000 </r>
      </set>
      <set comment="kpoint 26">
       <r>   -4.8632    1.0000 </r>
       <r>    0.7095    1.0000 </r>
       <r>    3.0219    1.0000 </r>
       <r>    3.6107    1.0000 </r>
       <r>    7.2791    0.0000 </r>
       <r>    9.1560    0.0000 </r>
       <r>    9.8559    0.0000 </r>
       <r>   10.6751    0.0000 </r>
      </set>
      <set comment="kpoint 27">
       <r>   -4.2763    1.0000 </r>
       <r>   -0.3890    1.0000 </r>
       <r>    2.6364    1.0000 </r>
       <r>    3.4802    1.0000 </r>
       <r>    7.3468    0.0000 </r>
       <r>    9.5696    0.0000 </r>
       <r>   10.1445    0.0000 </r>
       <r>   10.5671    0.0000 </r>
      </set>
      <set comment="kpoint 28">
       <r>   -3.7647    1.0000 </r>
       <r>   -1.1683    1.0000 </r>
       <r>    2.3375    1.0000 </r>
       <r>    3.5141    1.0000 </r>
       <r>    7.4127    0.0000 </r>
       <r>    9.3743    0.0000 </r>
       <r>   10.3739    0.0000 </r>
       <r>   11.5256    0.0000 </r>
      </set>
      <set comment="kpoint 29">
       <r>   -3.7752    1.0000 </r>
       <r>   -1.1501    1.0000 </r>
       <r>    2.1671    1.0000 </r>
       <r>    3.6942    1.0000 </r>
       <r>    7.5879    0.0000 </r>
       <r>    9.2515    0.0000 </r>
       <r>   10.2413    0.0000 </r>
       <r>   12.8388    0.0000 </r>
      </set>
      <set comment="kpoint 30">
       <r>   -4.2933    1.0000 </r>
       <r>   -0.3585    1.0000 </r>
       <r>    2.1672    1.0000 </r>
       <r>    3.9898    1.0000 </r>
       <r>    7.8688    0.0000 </r>
       <r>    9.1824    0.0000 </r>
       <r>   10.1502    0.0000 </r>
       <r>   11.5154    0.0000 </r>
      </set>
      <set comment="kpoint 31">
       <r>   -4.8776    1.0000 </r>
       <r>    0.6854    1.0000 </r>
       <r>    2.4188    1.0000 </r>
       <r>    4.3499    1.0000 </r>
       <r>    8.1857    0.0000 </r>
       <r>    8.9586    0.0000 </r>
       <r>    9.9740    0.0000 </r>
       <r>   10.6123    0.0000 </r>
      </set>
      <set comment="kpoint 32">
       <r>   -5.3613    1.0000 </r>
       <r>    1.5880    1.0000 </r>
       <r>    3.1115    1.0000 </r>
       <r>    4.6748    1.0000 </r>
       <r>    8.2526    0.0000 </r>
       <r>    8.5192    0.0000 </r>
       <r>    9.4416    0.0000 </r>
       <r>   10.5399    0.0000 </r>
      </set>
      <set comment="kpoint 33">
       <r>   -5.6965    1.0000 </r>
       <r>    2.2072    1.0000 </r>
       <r>    4.1913    1.0000 </r>
       <r>    4.7948    1.0000 </r>
       <r>    7.7230    0.0000 </r>
       <r>    8.3926    0.0000 </r>
       <r>    9.0539    0.0000 </r>
       <r>   10.7915    0.0000 </r>
      </set>
      <set comment="kpoint 34">
       <r>   -5.0645    1.0000 </r>
       <r>    1.3967    1.0000 </r>
       <r>    3.3498    1.0000 </r>
       <r>    3.4008    1.0000 </r>
       <r>    6.4814    0.0000 </r>
       <r>    8.2282    0.0000 </r>
       <r>   11.1499    0.0000 </r>
       <r>   11.2299    0.0000 </r>
      </set>
      <set comment="kpoint 35">
       <r>   -4.6233    1.0000 </r>
       <r>    0.5811    1.0000 </r>
       <r>    2.8802    1.0000 </r>
       <r>    3.1815    1.0000 </r>
       <r>    6.5939    0.0000 </r>
       <r>    7.9296    0.0000 </r>
       <r>   11.2864    0.0000 </r>
       <r>   11.8867    0.0000 </r>
      </set>
      <set comment="kpoint 36">
       <r>   -4.0596    1.0000 </r>
       <r>   -0.3161    1.0000 </r>
       <r>    2.2756    1.0000 </r>
       <r>    3.0579    1.0000 </r>
       <r>    6.8331    0.0000 </r>
       <r>    8.4337    0.0000 </r>
       <r>   11.0721    0.0000 </r>
       <r>   11.9759    0.0000 </r>
      </set>
      <set comment="kpoint 37">
       <r>   -3.4835    1.0000 </r>
       <r>   -1.0952    1.0000 </r>
       <r>    1.7513    1.0000 </r>
       <r>    3.0951    1.0000 </r>
       <r>    6.9454    0.0000 </r>
       <r>    9.6492    0.0000 </r>
       <r>   10.8186    0.0000 </r>
       <r>   11.8114    0.0000 </r>
      </set>
      <set comment="kpoint 38">
       <r>   -3.2944    1.0000 </r>
       <r>   -1.3193    1.0000 </r>
       <r>    1.4299    1.0000 </r>
       <r>    3.2799    1.0000 </r>
       <r>    7.1495    0.0000 </r>
       <r>   10.5348    0.0000 </r>
       <r>   11.2446    0.0000 </r>
       <r>   11.6231    0.0000 </r>
      </set>
      <set comment="kpoint 39">
       <r>   -3.7342    1.0000 </r>
       <r>   -0.7789    1.0000 </r>
       <r>    1.4020    1.0000 </r>
       <r>    3.5884    1.0000 </r>
       <r>    7.4835    0.0000 </r>
       <r>   10.2939    0.0000 </r>
       <r>   11.2861    0.0000 </r>
       <r>   11.5590    0.0000 </r>
      </set>
      <set comment="kpoint 40">
       <r>   -4.3220    1.0000 </r>
       <r>   -0.1069    1.0000 </r>
       <r>    1.8315    1.0000 </r>
       <r>    3.9733    1.0000 </r>
       <r>    7.8819    0.0000 </r>
       <r>    9.5660    0.0000 </r>
       <r>   10.5941    0.0000 </r>
       <r>   10.9598    0.0000 </r>
      </set>
      <set comment="kpoint 41">
       <r>   -4.8330    1.0000 </r>
       <r>    0.3815    1.0000 </r>
       <r>    2.7775    1.0000 </r>
       <r>    4.3341    1.0000 </r>
       <r>    8.0148    0.0000 </r>
       <r>    8.8010    0.0000 </r>
       <r>    9.6471    0.0000 </r>
       <r>   11.0954    0.0000 </r>
      </set>
      <set comment="kpoint 42">
       <r>   -5.2071    1.0000 </r>
       <r>    0.8022    1.0000 </r>
       <r>    3.9285    1.0000 </r>
       <r>    4.4874    1.0000 </r>
       <r>    7.4584    0.0000 </r>
       <r>    8.6296    0.0000 </r>
       <r>    9.1892    0.0000 </r>
       <r>   11.4852    0.0000 </r>
      </set>
      <set comment="kpoint 43">
       <r>   -4.2282    1.0000 </r>
       <r>   -0.0083    1.0000 </r>
       <r>    2.8580    1.0000 </r>
       <r>    2.9425    1.0000 </r>
       <r>    6.1543    0.0000 </r>
       <r>    7.2263    0.0000 </r>
       <r>   12.6169    0.0000 </r>
       <r>   12.6585    0.0000 </r>
      </set>
      <set comment="kpoint 44">
       <r>   -3.6979    1.0000 </r>
       <r>   -0.7289    1.0000 </r>
       <r>    2.4795    1.0000 </r>
       <r>    2.7529    1.0000 </r>
       <r>    6.3607    0.0000 </r>
       <r>    7.1261    0.0000 </r>
       <r>   12.6646    0.0000 </r>
       <r>   13.3769    0.0000 </r>
      </set>
      <set comment="kpoint 45">
       <r>   -3.0984    1.0000 </r>
       <r>   -1.4060    1.0000 </r>
       <r>    1.8091    1.0000 </r>
       <r>    2.7678    1.0000 </r>
       <r>    6.5549    0.0000 </r>
       <r>    7.9968    0.0000 </r>
       <r>   12.4219    0.0000 </r>
       <r>   13.3835    0.0000 </r>
      </set>
      <set comment="kpoint 46">
       <r>   -2.7777    1.0000 </r>
       <r>   -1.7137    1.0000 </r>
       <r>    1.2949    1.0000 </r>
       <r>    2.9344    1.0000 </r>
       <r>    6.7521    0.0000 </r>
       <r>    9.4390    0.0000 </r>
       <r>   12.1061    0.0000 </r>
       <r>   12.8875    0.0000 </r>
      </set>
      <set comment="kpoint 47">
       <r>   -3.1844    1.0000 </r>
       <r>   -1.3204    1.0000 </r>
       <r>    1.1973    1.0000 </r>
       <r>    3.2329    1.0000 </r>
       <r>    7.0895    0.0000 </r>
       <r>   10.9602    0.0000 </r>
       <r>   11.3382    0.0000 </r>
       <r>   12.0514    0.0000 </r>
      </set>
      <set comment="kpoint 48">
       <r>   -3.7444    1.0000 </r>
       <r>   -0.9433    1.0000 </r>
       <r>    1.6966    1.0000 </r>
       <r>    3.6242    1.0000 </r>
       <r>    7.5244    0.0000 </r>
       <r>    9.7941    0.0000 </r>
       <r>   10.8148    0.0000 </r>
       <r>   12.1216    0.0000 </r>
      </set>
      <set comment="kpoint 49">
       <r>   -4.2408    1.0000 </r>
       <r>   -0.6958    1.0000 </r>
       <r>    2.6677    1.0000 </r>
       <r>    4.0192    1.0000 </r>
       <r>    7.7796    0.0000 </r>
       <r>    8.8055    0.0000 </r>
       <r>    9.6668    0.0000 </r>
       <r>   12.2052    0.0000 </r>
      </set>
      <set comment="kpoint 50">
       <r>   -4.6205    1.0000 </r>
       <r>   -0.4212    1.0000 </r>
       <r>    3.7719    1.0000 </r>
       <r>    4.2355    1.0000 </r>
       <r>    7.2520    0.0000 </r>
       <r>    8.6484    0.0000 </r>
       <r>    9.0754    0.0000 </r>
       <r>   12.4376    0.0000 </r>
      </set>
      <set comment="kpoint 51">
       <r>   -3.2008    1.0000 </r>
       <r>   -1.3660    1.0000 </r>
       <r>    2.5811    1.0000 </r>
       <r>    2.6819    1.0000 </r>
       <r>    6.0738    0.0000 </r>
       <r>    6.5332    0.0000 </r>
       <r>   14.1170    0.0000 </r>
       <r>   14.1213    0.0000 </r>
      </set>
      <set comment="kpoint 52">
       <r>   -2.6031    1.0000 </r>
       <r>   -1.9987    1.0000 </r>
       <r>    2.3021    1.0000 </r>
       <r>    2.5726    1.0000 </r>
       <r>    6.3300    0.0000 </r>
       <r>    6.7016    0.0000 </r>
       <r>   14.0785    0.0000 </r>
       <r>   14.5675    0.0000 </r>
      </set>
      <set comment="kpoint 53">
       <r>   -2.6019    1.0000 </r>
       <r>   -1.9308    1.0000 </r>
       <r>    1.7142    1.0000 </r>
       <r>    2.7106    1.0000 </r>
       <r>    6.4969    0.0000 </r>
       <r>    7.9100    0.0000 </r>
       <r>   13.0997    0.0000 </r>
       <r>   13.7689    0.0000 </r>
      </set>
      <set comment="kpoint 54">
       <r>   -3.0854    1.0000 </r>
       <r>   -1.4387    1.0000 </r>
       <r>    1.4521    1.0000 </r>
       <r>    2.9878    1.0000 </r>
       <r>    6.8175    0.0000 </r>
       <r>    9.5087    0.0000 </r>
       <r>   11.4721    0.0000 </r>
       <r>   12.4852    0.0000 </r>
      </set>
      <set comment="kpoint 55">
       <r>   -3.4984    1.0000 </r>
       <r>   -1.2780    1.0000 </r>
       <r>    1.8341    1.0000 </r>
       <r>    3.3736    1.0000 </r>
       <r>    7.2633    0.0000 </r>
       <r>    9.9476    0.0000 </r>
       <r>   10.9715    0.0000 </r>
       <r>   11.3582    0.0000 </r>
      </set>
      <set comment="kpoint 56">
       <r>   -3.8427    1.0000 </r>
       <r>   -1.2983    1.0000 </r>
       <r>    2.7120    1.0000 </r>
       <r>    3.7958    1.0000 </r>
       <r>    7.6123    0.0000 </r>
       <r>    8.7979    0.0000 </r>
       <r>    9.7138    0.0000 </r>
       <r>   13.1607    0.0000 </r>
      </set>
      <set comment="kpoint 57">
       <r>   -4.1126    1.0000 </r>
       <r>   -1.2535    1.0000 </r>
       <r>    3.7064    1.0000 </r>
       <r>    4.0906    1.0000 </r>
       <r>    7.1431    0.0000 </r>
       <r>    8.6134    0.0000 </r>
       <r>    8.9518    0.0000 </r>
       <r>   13.1390    0.0000 </r>
      </set>
      <set comment="kpoint 58">
       <r>   -2.6240    1.0000 </r>
       <r>   -2.0103    1.0000 </r>
       <r>    2.5254    1.0000 </r>
       <r>    2.6294    1.0000 </r>
       <r>    6.1278    0.0000 </r>
       <r>    6.3225    0.0000 </r>
       <r>   14.7502    0.0000 </r>
       <r>   14.7878    0.0000 </r>
      </set>
      <set comment="kpoint 59">
       <r>   -3.1691    1.0000 </r>
       <r>   -1.3736    1.0000 </r>
       <r>    2.3616    1.0000 </r>
       <r>    2.6325    1.0000 </r>
       <r>    6.3263    0.0000 </r>
       <r>    6.8576    0.0000 </r>
       <r>   13.3769    0.0000 </r>
       <r>   14.1094    0.0000 </r>
      </set>
      <set comment="kpoint 60">
       <r>   -3.5948    1.0000 </r>
       <r>   -0.8561    1.0000 </r>
       <r>    1.9979    1.0000 </r>
       <r>    2.8828    1.0000 </r>
       <r>    6.6686    0.0000 </r>
       <r>    8.1712    0.0000 </r>
       <r>   11.7380    0.0000 </r>
       <r>   12.6791    0.0000 </r>
      </set>
      <set comment="kpoint 61">
       <r>   -3.8898    1.0000 </r>
       <r>   -0.7446    1.0000 </r>
       <r>    2.1611    1.0000 </r>
       <r>    3.2577    1.0000 </r>
       <r>    7.1277    0.0000 </r>
       <r>    9.8604    0.0000 </r>
       <r>   10.1841    0.0000 </r>
       <r>   11.1576    0.0000 </r>
      </set>
      <set comment="kpoint 62">
       <r>   -4.0578    1.0000 </r>
       <r>   -0.9851    1.0000 </r>
       <r>    2.8748    1.0000 </r>
       <r>    3.7038    1.0000 </r>
       <r>    7.5436    0.0000 </r>
       <r>    8.8772    0.0000 </r>
       <r>    9.8443    0.0000 </r>
       <r>   11.7627    0.0000 </r>
      </set>
      <set comment="kpoint 63">
       <r>   -3.7369    1.0000 </r>
       <r>   -0.6965    1.0000 </r>
       <r>    2.6922    1.0000 </r>
       <r>    2.7866    1.0000 </r>
       <r>    6.0810    0.0000 </r>
       <r>    6.8376    0.0000 </r>
       <r>   13.3709    0.0000 </r>
       <r>   13.3902    0.0000 </r>
      </set>
      <set comment="kpoint 64">
       <r>   -4.1838    1.0000 </r>
       <r>   -0.0743    1.0000 </r>
       <r>    2.6536    1.0000 </r>
       <r>    2.9353    1.0000 </r>
       <r>    6.4495    0.0000 </r>
       <r>    7.4868    0.0000 </r>
       <r>   11.9662    0.0000 </r>
       <r>   12.6267    0.0000 </r>
      </set>
      <set comment="kpoint 65">
       <r>   -4.4841    1.0000 </r>
       <r>    0.2053    1.0000 </r>
       <r>    2.6270    1.0000 </r>
       <r>    3.2979    1.0000 </r>
       <r>    7.0404    0.0000 </r>
       <r>    8.7791    0.0000 </r>
       <r>   10.4286    0.0000 </r>
       <r>   11.3041    0.0000 </r>
      </set>
      <set comment="kpoint 66">
       <r>   -4.6295    1.0000 </r>
       <r>   -0.0182    1.0000 </r>
       <r>    3.1202    1.0000 </r>
       <r>    3.7721    1.0000 </r>
       <r>    7.5590    0.0000 </r>
       <r>    9.0165    0.0000 </r>
       <r>   10.0077    0.0000 </r>
       <r>   10.5427    0.0000 </r>
      </set>
      <set comment="kpoint 67">
       <r>   -4.6716    1.0000 </r>
       <r>    0.6918    1.0000 </r>
       <r>    3.0777    1.0000 </r>
       <r>    3.1481    1.0000 </r>
       <r>    6.2898    0.0000 </r>
       <r>    7.6946    0.0000 </r>
       <r>   11.8744    0.0000 </r>
       <r>   11.9371    0.0000 </r>
      </set>
      <set comment="kpoint 68">
       <r>   -5.0132    1.0000 </r>
       <r>    1.2284    1.0000 </r>
       <r>    3.1541    1.0000 </r>
       <r>    3.4917    1.0000 </r>
       <r>    6.7892    0.0000 </r>
       <r>    8.4353    0.0000 </r>
       <r>   10.6329    0.0000 </r>
       <r>   11.1636    0.0000 </r>
      </set>
      <set comment="kpoint 69">
       <r>   -5.1933    1.0000 </r>
       <r>    1.2051    1.0000 </r>
       <r>    3.4243    1.0000 </r>
       <r>    3.9966    1.0000 </r>
       <r>    7.5286    0.0000 </r>
       <r>    9.0397    0.0000 </r>
       <r>    9.8701    0.0000 </r>
       <r>   10.1046    0.0000 </r>
      </set>
      <set comment="kpoint 70">
       <r>   -5.4047    1.0000 </r>
       <r>    2.0990    1.0000 </r>
       <r>    3.6716    1.0000 </r>
       <r>    3.6969    1.0000 </r>
       <r>    6.7205    0.0000 </r>
       <r>    8.7875    0.0000 </r>
       <r>   10.4571    0.0000 </r>
       <r>   10.5408    0.0000 </r>
      </set>
      <set comment="kpoint 71">
       <r>   -5.6354    1.0000 </r>
       <r>    2.4744    1.0000 </r>
       <r>    3.8185    1.0000 </r>
       <r>    4.2756    1.0000 </r>
       <r>    7.2966    0.0000 </r>
       <r>    9.0309    0.0000 </r>
       <r>    9.7905    0.0000 </r>
       <r>    9.8895    0.0000 </r>
      </set>
      <set comment="kpoint 72">
       <r>   -5.9208    1.0000 </r>
       <r>    3.4579    1.0000 </r>
       <r>    4.3894    1.0000 </r>
       <r>    4.4375    1.0000 </r>
       <r>    7.2860    0.0000 </r>
       <r>    8.9787    0.0000 </r>
       <r>    9.2469    0.0000 </r>
       <r>    9.6716    0.0000 </r>
      </set>
      <set comment="kpoint 73">
       <r>   -6.0948    1.0000 </r>
       <r>    3.7451    1.0000 </r>
       <r>    5.0566    1.0000 </r>
       <r>    5.0566    1.0000 </r>
       <r>    7.6793    0.0000 </r>
       <r>    8.2794    0.0000 </r>
       <r>    8.2794    0.0000 </r>
       <r>    9.6231    0.0000 </r>
      </set>
      <set comment="kpoint 74">
       <r>   -5.9226    1.0000 </r>
       <r>    3.1214    1.0000 </r>
       <r>    4.2288    1.0000 </r>
       <r>    5.1218    1.0000 </r>
       <r>    8.0165    0.0000 </r>
       <r>    8.2712    0.0000 </r>
       <r>    8.5154    0.0000 </r>
       <r>   10.3004    0.0000 </r>
      </set>
      <set comment="kpoint 75">
       <r>   -5.5837    1.0000 </r>
       <r>    2.0854    1.0000 </r>
       <r>    3.4792    1.0000 </r>
       <r>    4.9147    1.0000 </r>
       <r>    8.1399    0.0000 </r>
       <r>    8.6142    0.0000 </r>
       <r>    8.8772    0.0000 </r>
       <r>   10.7971    0.0000 </r>
      </set>
      <set comment="kpoint 76">
       <r>   -5.0959    1.0000 </r>
       <r>    0.8022    1.0000 </r>
       <r>    3.1214    1.0000 </r>
       <r>    4.5847    1.0000 </r>
       <r>    7.8923    0.0000 </r>
       <r>    8.9680    0.0000 </r>
       <r>    9.1376    0.0000 </r>
       <r>   11.4173    0.0000 </r>
      </set>
      <set comment="kpoint 77">
       <r>   -4.5098    1.0000 </r>
       <r>   -0.3828    1.0000 </r>
       <r>    2.9754    1.0000 </r>
       <r>    4.2578    1.0000 </r>
       <r>    7.6598    0.0000 </r>
       <r>    9.0090    0.0000 </r>
       <r>    9.1351    0.0000 </r>
       <r>   12.4829    0.0000 </r>
      </set>
      <set comment="kpoint 78">
       <r>   -3.9988    1.0000 </r>
       <r>   -1.2069    1.0000 </r>
       <r>    2.9849    1.0000 </r>
       <r>    3.9979    1.0000 </r>
       <r>    7.5018    0.0000 </r>
       <r>    8.8484    0.0000 </r>
       <r>    9.2462    0.0000 </r>
       <r>   13.3916    0.0000 </r>
      </set>
      <set comment="kpoint 79">
       <r>   -3.9958    1.0000 </r>
       <r>   -1.2124    1.0000 </r>
       <r>    3.1287    1.0000 </r>
       <r>    3.8373    1.0000 </r>
       <r>    7.4427    0.0000 </r>
       <r>    8.7871    0.0000 </r>
       <r>    9.4144    0.0000 </r>
       <r>   12.5444    0.0000 </r>
      </set>
      <set comment="kpoint 80">
       <r>   -4.5049    1.0000 </r>
       <r>   -0.3937    1.0000 </r>
       <r>    3.3884    1.0000 </r>
       <r>    3.7938    1.0000 </r>
       <r>    7.4830    0.0000 </r>
       <r>    8.8253    0.0000 </r>
       <r>    9.6379    0.0000 </r>
       <r>   11.2658    0.0000 </r>
      </set>
      <set comment="kpoint 81">
       <r>   -5.0917    1.0000 </r>
       <r>    0.7984    1.0000 </r>
       <r>    3.7385    1.0000 </r>
       <r>    3.8753    1.0000 </r>
       <r>    7.5579    0.0000 </r>
       <r>    8.8625    0.0000 </r>
       <r>    9.8054    0.0000 </r>
       <r>   10.3410    0.0000 </r>
      </set>
      <set comment="kpoint 82">
       <r>   -5.5807    1.0000 </r>
       <r>    2.1428    1.0000 </r>
       <r>    4.0798    1.0000 </r>
       <r>    4.1273    1.0000 </r>
       <r>    7.4688    0.0000 </r>
       <r>    8.8326    0.0000 </r>
       <r>    9.7014    0.0000 </r>
       <r>   10.0479    0.0000 </r>
      </set>
      <set comment="kpoint 83">
       <r>   -5.8082    1.0000 </r>
       <r>    2.6860    1.0000 </r>
       <r>    4.4202    1.0000 </r>
       <r>    4.5975    1.0000 </r>
       <r>    7.6947    0.0000 </r>
       <r>    8.3641    0.0000 </r>
       <r>    9.1652    0.0000 </r>
       <r>   10.3508    0.0000 </r>
      </set>
      <set comment="kpoint 84">
       <r>   -5.5253    1.0000 </r>
       <r>    2.0448    1.0000 </r>
       <r>    3.4832    1.0000 </r>
       <r>    4.5338    1.0000 </r>
       <r>    7.8002    0.0000 </r>
       <r>    8.6774    0.0000 </r>
       <r>    9.6367    0.0000 </r>
       <r>   10.1299    0.0000 </r>
      </set>
      <set comment="kpoint 85">
       <r>   -5.0861    1.0000 </r>
       <r>    1.0966    1.0000 </r>
       <r>    2.7735    1.0000 </r>
       <r>    4.2740    1.0000 </r>
       <r>    8.1858    0.0000 </r>
       <r>    8.6707    0.0000 </r>
       <r>    9.9790    0.0000 </r>
       <r>   10.1984    0.0000 </r>
      </set>
      <set comment="kpoint 86">
       <r>   -4.5245    1.0000 </r>
       <r>   -0.0150    1.0000 </r>
       <r>    2.4552    1.0000 </r>
       <r>    3.9390    1.0000 </r>
       <r>    8.2140    0.0000 </r>
       <r>    8.6290    0.0000 </r>
       <r>   10.2806    0.0000 </r>
       <r>   10.7203    0.0000 </r>
      </set>
      <set comment="kpoint 87">
       <r>   -3.9506    1.0000 </r>
       <r>   -0.9543    1.0000 </r>
       <r>    2.3561    1.0000 </r>
       <r>    3.6682    1.0000 </r>
       <r>    8.0385    0.0000 </r>
       <r>    8.5859    0.0000 </r>
       <r>   10.3472    0.0000 </r>
       <r>   11.8979    0.0000 </r>
      </set>
      <set comment="kpoint 88">
       <r>   -3.7268    1.0000 </r>
       <r>   -1.2757    1.0000 </r>
       <r>    2.3926    1.0000 </r>
       <r>    3.5362    1.0000 </r>
       <r>    7.8778    0.0000 </r>
       <r>    8.6634    0.0000 </r>
       <r>   10.3767    0.0000 </r>
       <r>   12.4277    0.0000 </r>
      </set>
      <set comment="kpoint 89">
       <r>   -4.1231    1.0000 </r>
       <r>   -0.6927    1.0000 </r>
       <r>    2.5244    1.0000 </r>
       <r>    3.5819    1.0000 </r>
       <r>    7.7990    0.0000 </r>
       <r>    8.8609    0.0000 </r>
       <r>   10.4382    0.0000 </r>
       <r>   11.0081    0.0000 </r>
      </set>
      <set comment="kpoint 90">
       <r>   -4.7160    1.0000 </r>
       <r>    0.3483    1.0000 </r>
       <r>    2.7520    1.0000 </r>
       <r>    3.7947    1.0000 </r>
       <r>    7.7580    0.0000 </r>
       <r>    9.0880    0.0000 </r>
       <r>    9.8705    0.0000 </r>
       <r>   10.5523    0.0000 </r>
      </set>
      <set comment="kpoint 91">
       <r>   -5.2446    1.0000 </r>
       <r>    1.5002    1.0000 </r>
       <r>    3.1392    1.0000 </r>
       <r>    4.0883    1.0000 </r>
       <r>    7.5478    0.0000 </r>
       <r>    9.0406    0.0000 </r>
       <r>    9.6999    0.0000 </r>
       <r>   10.3404    0.0000 </r>
      </set>
      <set comment="kpoint 92">
       <r>   -5.2983    1.0000 </r>
       <r>    1.5921    1.0000 </r>
       <r>    3.6391    1.0000 </r>
       <r>    3.7603    1.0000 </r>
       <r>    7.2039    0.0000 </r>
       <r>    9.0824    0.0000 </r>
       <r>    9.8860    0.0000 </r>
       <r>   10.2656    0.0000 </r>
      </set>
      <set comment="kpoint 93">
       <r>   -4.9113    1.0000 </r>
       <r>    0.9467    1.0000 </r>
       <r>    2.8333    1.0000 </r>
       <r>    3.6460    1.0000 </r>
       <r>    7.3160    0.0000 </r>
       <r>    8.8237    0.0000 </r>
       <r>    9.9198    0.0000 </r>
       <r>   11.0717    0.0000 </r>
      </set>
      <set comment="kpoint 94">
       <r>   -4.3867    1.0000 </r>
       <r>    0.1162    1.0000 </r>
       <r>    2.2322    1.0000 </r>
       <r>    3.3413    1.0000 </r>
       <r>    7.7912    0.0000 </r>
       <r>    8.9784    0.0000 </r>
       <r>    9.6161    0.0000 </r>
       <r>   11.7406    0.0000 </r>
      </set>
      <set comment="kpoint 95">
       <r>   -3.7929    1.0000 </r>
       <r>   -0.7559    1.0000 </r>
       <r>    1.8926    1.0000 </r>
       <r>    3.0829    1.0000 </r>
       <r>    7.9959    0.0000 </r>
       <r>    9.2607    0.0000 </r>
       <r>    9.9903    0.0000 </r>
       <r>   11.8935    0.0000 </r>
      </set>
      <set comment="kpoint 96">
       <r>   -3.3884    1.0000 </r>
       <r>   -1.2879    1.0000 </r>
       <r>    1.7227    1.0000 </r>
       <r>    3.0119    1.0000 </r>
       <r>    8.1613    0.0000 </r>
       <r>    8.9737    0.0000 </r>
       <r>   11.4400    0.0000 </r>
       <r>   11.8609    0.0000 </r>
      </set>
      <set comment="kpoint 97">
       <r>   -3.6253    1.0000 </r>
       <r>   -0.9806    1.0000 </r>
       <r>    1.7031    1.0000 </r>
       <r>    3.1517    1.0000 </r>
       <r>    8.4295    0.0000 </r>
       <r>    8.7802    0.0000 </r>
       <r>   10.8681    0.0000 </r>
       <r>   11.8390    0.0000 </r>
      </set>
      <set comment="kpoint 98">
       <r>   -4.2038    1.0000 </r>
       <r>   -0.1786    1.0000 </r>
       <r>    1.9068    1.0000 </r>
       <r>    3.4532    1.0000 </r>
       <r>    8.5564    0.0000 </r>
       <r>    8.7978    0.0000 </r>
       <r>    9.7160    0.0000 </r>
       <r>   11.6363    0.0000 </r>
      </set>
      <set comment="kpoint 99">
       <r>   -4.7603    1.0000 </r>
       <r>    0.6082    1.0000 </r>
       <r>    2.4779    1.0000 </r>
       <r>    3.8070    1.0000 </r>
       <r>    7.9794    0.0000 </r>
       <r>    9.0613    0.0000 </r>
       <r>    9.4982    0.0000 </r>
       <r>   10.9473    0.0000 </r>
      </set>
      <set comment="kpoint 100">
       <r>   -4.5765    1.0000 </r>
       <r>    0.4436    1.0000 </r>
       <r>    2.7889    1.0000 </r>
       <r>    3.2286    1.0000 </r>
       <r>    6.7270    0.0000 </r>
       <r>    8.2410    0.0000 </r>
       <r>   11.1171    0.0000 </r>
       <r>   11.4519    0.0000 </r>
      </set>
      <set comment="kpoint 101">
       <r>   -4.0965    1.0000 </r>
       <r>   -0.2033    1.0000 </r>
       <r>    2.3607    1.0000 </r>
       <r>    2.9125    1.0000 </r>
       <r>    6.9683    0.0000 </r>
       <r>    7.9663    0.0000 </r>
       <r>   11.0804    0.0000 </r>
       <r>   12.5952    0.0000 </r>
      </set>
      <set comment="kpoint 102">
       <r>   -3.5126    1.0000 </r>
       <r>   -0.9032    1.0000 </r>
       <r>    1.9081    1.0000 </r>
       <r>    2.5762    1.0000 </r>
       <r>    7.5286    0.0000 </r>
       <r>    8.3182    0.0000 </r>
       <r>   10.7493    0.0000 </r>
       <r>   13.3455    0.0000 </r>
      </set>
      <set comment="kpoint 103">
       <r>   -2.9877    1.0000 </r>
       <r>   -1.4751    1.0000 </r>
       <r>    1.4834    1.0000 </r>
       <r>    2.5268    1.0000 </r>
       <r>    7.7329    0.0000 </r>
       <r>    9.5827    0.0000 </r>
       <r>   10.4537    0.0000 </r>
       <r>   12.5579    0.0000 </r>
      </set>
      <set comment="kpoint 104">
       <r>   -3.0632    1.0000 </r>
       <r>   -1.3881    1.0000 </r>
       <r>    1.2860    1.0000 </r>
       <r>    2.7186    1.0000 </r>
       <r>    8.0053    0.0000 </r>
       <r>   10.0693    0.0000 </r>
       <r>   10.9323    0.0000 </r>
       <r>   11.3643    0.0000 </r>
      </set>
      <set comment="kpoint 105">
       <r>   -3.6145    1.0000 </r>
       <r>   -0.8480    1.0000 </r>
       <r>    1.4862    1.0000 </r>
       <r>    3.0752    1.0000 </r>
       <r>    8.3920    0.0000 </r>
       <r>    9.2692    0.0000 </r>
       <r>   10.2475    0.0000 </r>
       <r>   12.4135    0.0000 </r>
      </set>
      <set comment="kpoint 106">
       <r>   -4.1753    1.0000 </r>
       <r>   -0.3915    1.0000 </r>
       <r>    2.1594    1.0000 </r>
       <r>    3.4965    1.0000 </r>
       <r>    8.1714    0.0000 </r>
       <r>    8.8257    0.0000 </r>
       <r>   10.2507    0.0000 </r>
       <r>   11.1331    0.0000 </r>
      </set>
      <set comment="kpoint 107">
       <r>   -3.6626    1.0000 </r>
       <r>   -0.7715    1.0000 </r>
       <r>    2.2310    1.0000 </r>
       <r>    2.8758    1.0000 </r>
       <r>    6.4029    0.0000 </r>
       <r>    7.5439    0.0000 </r>
       <r>   12.6176    0.0000 </r>
       <r>   12.7214    0.0000 </r>
      </set>
      <set comment="kpoint 108">
       <r>   -3.1084    1.0000 </r>
       <r>   -1.3932    1.0000 </r>
       <r>    2.0931    1.0000 </r>
       <r>    2.4855    1.0000 </r>
       <r>    6.8071    0.0000 </r>
       <r>    7.4120    0.0000 </r>
       <r>   12.4048    0.0000 </r>
       <r>   14.0483    0.0000 </r>
      </set>
      <set comment="kpoint 109">
       <r>   -2.5191    1.0000 </r>
       <r>   -1.9568    1.0000 </r>
       <r>    1.8013    1.0000 </r>
       <r>    2.1918    1.0000 </r>
       <r>    7.4281    0.0000 </r>
       <r>    8.0117    0.0000 </r>
       <r>   12.0747    0.0000 </r>
       <r>   12.8017    0.0000 </r>
      </set>
      <set comment="kpoint 110">
       <r>   -2.6609    1.0000 </r>
       <r>   -1.7749    1.0000 </r>
       <r>    1.3850    1.0000 </r>
       <r>    2.4164    1.0000 </r>
       <r>    7.6774    0.0000 </r>
       <r>    9.5215    0.0000 </r>
       <r>   11.0867    0.0000 </r>
       <r>   11.8381    0.0000 </r>
      </set>
      <set comment="kpoint 111">
       <r>   -3.1786    1.0000 </r>
       <r>   -1.3614    1.0000 </r>
       <r>    1.4497    1.0000 </r>
       <r>    2.8148    1.0000 </r>
       <r>    8.0592    0.0000 </r>
       <r>    9.5131    0.0000 </r>
       <r>   11.2943    0.0000 </r>
       <r>   11.7192    0.0000 </r>
      </set>
      <set comment="kpoint 112">
       <r>   -3.6575    1.0000 </r>
       <r>   -1.1529    1.0000 </r>
       <r>    2.0382    1.0000 </r>
       <r>    3.3074    1.0000 </r>
       <r>    8.2613    0.0000 </r>
       <r>    8.5523    0.0000 </r>
       <r>   11.0796    0.0000 </r>
       <r>   11.6572    0.0000 </r>
      </set>
      <set comment="kpoint 113">
       <r>   -2.6004    1.0000 </r>
       <r>   -1.9762    1.0000 </r>
       <r>    1.9947    1.0000 </r>
       <r>    2.7217    1.0000 </r>
       <r>    6.2626    0.0000 </r>
       <r>    7.2348    0.0000 </r>
       <r>   13.9574    0.0000 </r>
       <r>   14.1374    0.0000 </r>
      </set>
      <set comment="kpoint 114">
       <r>   -2.5654    1.0000 </r>
       <r>   -1.9789    1.0000 </r>
       <r>    2.0395    1.0000 </r>
       <r>    2.3995    1.0000 </r>
       <r>    6.7857    0.0000 </r>
       <r>    7.2888    0.0000 </r>
       <r>   13.1069    0.0000 </r>
       <r>   13.8144    0.0000 </r>
      </set>
      <set comment="kpoint 115">
       <r>   -3.0243    1.0000 </r>
       <r>   -1.4313    1.0000 </r>
       <r>    1.8312    1.0000 </r>
       <r>    2.3268    1.0000 </r>
       <r>    7.4598    0.0000 </r>
       <r>    8.1160    0.0000 </r>
       <r>   11.3916    0.0000 </r>
       <r>   13.5140    0.0000 </r>
      </set>
      <set comment="kpoint 116">
       <r>   -3.3893    1.0000 </r>
       <r>   -1.1174    1.0000 </r>
       <r>    1.6613    1.0000 </r>
       <r>    2.7506    1.0000 </r>
       <r>    7.8416    0.0000 </r>
       <r>    9.6406    0.0000 </r>
       <r>    9.9367    0.0000 </r>
       <r>   12.6661    0.0000 </r>
      </set>
      <set comment="kpoint 117">
       <r>   -3.1441    1.0000 </r>
       <r>   -1.3840    1.0000 </r>
       <r>    2.0731    1.0000 </r>
       <r>    2.7732    1.0000 </r>
       <r>    6.3093    0.0000 </r>
       <r>    7.3384    0.0000 </r>
       <r>   13.3766    0.0000 </r>
       <r>   13.3873    0.0000 </r>
      </set>
      <set comment="kpoint 118">
       <r>   -3.6218    1.0000 </r>
       <r>   -0.7969    1.0000 </r>
       <r>    2.2004    1.0000 </r>
       <r>    2.6571    1.0000 </r>
       <r>    6.8646    0.0000 </r>
       <r>    7.6423    0.0000 </r>
       <r>   11.7268    0.0000 </r>
       <r>   13.3659    0.0000 </r>
      </set>
      <set comment="kpoint 119">
       <r>   -3.9691    1.0000 </r>
       <r>   -0.3865    1.0000 </r>
       <r>    2.0414    1.0000 </r>
       <r>    2.9212    1.0000 </r>
       <r>    7.6391    0.0000 </r>
       <r>    8.6103    0.0000 </r>
       <r>   10.1537    0.0000 </r>
       <r>   12.5484    0.0000 </r>
      </set>
      <set comment="kpoint 120">
       <r>   -4.1418    1.0000 </r>
       <r>   -0.1585    1.0000 </r>
       <r>    2.4696    1.0000 </r>
       <r>    3.0281    1.0000 </r>
       <r>    6.5428    0.0000 </r>
       <r>    7.8475    0.0000 </r>
       <r>   11.8579    0.0000 </r>
       <r>   12.0759    0.0000 </r>
      </set>
      <set comment="kpoint 121">
       <r>   -4.5276    1.0000 </r>
       <r>    0.3792    1.0000 </r>
       <r>    2.5725    1.0000 </r>
       <r>    3.2463    1.0000 </r>
       <r>    7.1200    0.0000 </r>
       <r>    8.3713    0.0000 </r>
       <r>   10.4697    0.0000 </r>
       <r>   11.8263    0.0000 </r>
      </set>
      <set comment="kpoint 122">
       <r>   -4.9629    1.0000 </r>
       <r>    1.0274    1.0000 </r>
[...]
       <r>   -1.4229    1.0000 </r>
       <r>    1.4124    1.0000 </r>
       <r>    2.9161    1.0000 </r>
       <r>    7.3494    0.0000 </r>
       <r>   10.2504    0.0000 </r>
       <r>   10.6219    0.0000 </r>
       <r>   12.4371    0.0000 </r>
      </set>
      <set comment="kpoint 172">
       <r>   -2.9712    1.0000 </r>
       <r>   -1.5304    1.0000 </r>
       <r>    1.1929    1.0000 </r>
       <r>    3.1646    1.0000 </r>
       <r>    6.7730    0.0000 </r>
       <r>   10.2560    0.0000 </r>
       <r>   12.0148    0.0000 </r>
       <r>   12.3046    0.0000 </r>
      </set>
      <set comment="kpoint 173">
       <r>   -4.6775    1.0000 </r>
       <r>   -0.4428    1.0000 </r>
       <r>    4.2866    1.0000 </r>
       <r>    4.2866    1.0000 </r>
       <r>    6.8235    0.0000 </r>
       <r>    8.7856    0.0000 </r>
       <r>    8.7856    0.0000 </r>
       <r>   13.0963    0.0000 </r>
      </set>
      <set comment="kpoint 174">
       <r>   -4.4078    1.0000 </r>
       <r>   -0.7504    1.0000 </r>
       <r>    3.5201    1.0000 </r>
       <r>    4.2504    1.0000 </r>
       <r>    7.2950    0.0000 </r>
       <r>    8.8163    0.0000 </r>
       <r>    8.8955    0.0000 </r>
       <r>   13.0248    0.0000 </r>
      </set>
      <set comment="kpoint 175">
       <r>   -4.0098    1.0000 </r>
       <r>   -0.9580    1.0000 </r>
       <r>    2.4132    1.0000 </r>
       <r>    3.9369    1.0000 </r>
       <r>    7.5863    0.0000 </r>
       <r>    9.3139    0.0000 </r>
       <r>    9.6068    0.0000 </r>
       <r>   13.0291    0.0000 </r>
      </set>
      <set comment="kpoint 176">
       <r>   -3.5124    1.0000 </r>
       <r>   -1.1583    1.0000 </r>
       <r>    1.5295    1.0000 </r>
       <r>    3.5305    1.0000 </r>
       <r>    7.1987    0.0000 </r>
       <r>   10.6414    0.0000 </r>
       <r>   10.7201    0.0000 </r>
       <r>   12.1131    0.0000 </r>
      </set>
      <set comment="kpoint 177">
       <r>   -4.2309    1.0000 </r>
       <r>   -1.0364    1.0000 </r>
       <r>    3.6924    1.0000 </r>
       <r>    3.9847    1.0000 </r>
       <r>    7.2550    0.0000 </r>
       <r>    8.5915    0.0000 </r>
       <r>    9.1125    0.0000 </r>
       <r>   12.7552    0.0000 </r>
      </set>
      <set comment="kpoint 178">
       <r>   -3.9400    1.0000 </r>
       <r>   -1.1918    1.0000 </r>
       <r>    2.8340    1.0000 </r>
       <r>    3.7816    1.0000 </r>
       <r>    7.7873    0.0000 </r>
       <r>    8.4993    0.0000 </r>
       <r>    9.7678    0.0000 </r>
       <r>   12.6333    0.0000 </r>
      </set>
      <set comment="kpoint 179">
       <r>   -3.5599    1.0000 </r>
       <r>   -1.2607    1.0000 </r>
       <r>    1.9360    1.0000 </r>
       <r>    3.3543    1.0000 </r>
       <r>    7.7958    0.0000 </r>
       <r>    9.1004    0.0000 </r>
       <r>   11.0347    0.0000 </r>
       <r>   12.2507    0.0000 </r>
      </set>
      <set comment="kpoint 180">
       <r>   -3.7833    1.0000 </r>
       <r>   -1.2885    1.0000 </r>
       <r>    2.5400    1.0000 </r>
       <r>    3.7073    1.0000 </r>
       <r>    7.4074    0.0000 </r>
       <r>    9.2898    0.0000 </r>
       <r>    9.7957    0.0000 </r>
       <r>   12.3592    0.0000 </r>
      </set>
      <set comment="kpoint 181">
       <r>   -4.1706    1.0000 </r>
       <r>   -1.2793    1.0000 </r>
       <r>    4.1897    1.0000 </r>
       <r>    4.1897    1.0000 </r>
       <r>    6.7098    0.0000 </r>
       <r>    8.7050    0.0000 </r>
       <r>    8.7050    0.0000 </r>
       <r>   13.0115    0.0000 </r>
      </set>
      <set comment="kpoint 182">
       <r>   -4.0156    1.0000 </r>
       <r>   -1.3590    1.0000 </r>
       <r>    3.5494    1.0000 </r>
       <r>    4.0666    1.0000 </r>
       <r>    7.2205    0.0000 </r>
       <r>    8.6542    0.0000 </r>
       <r>    8.9635    0.0000 </r>
       <r>   13.2506    0.0000 </r>
      </set>
     </set>
    </set>
   </array>
  </eigenvalues>
  <separator name="orbital magnetization" >
   <v name="MAGDIPOLOUT">      0.00000000      0.00000000      0.00000000</v>
  </separator>
  <dos>
   <i name="efermi">      5.49737394 </i>
   <total>
    <array>
     <dimension dim="1">gridpoints</dimension>
     <dimension dim="2">spin</dimension>
     <field>energy</field>
     <field>total</field>
     <field>integrated</field>
     <set>
      <set comment="spin 1">
       <r>    -7.3213     0.0000     0.0000 </r>
       <r>    -7.2441     0.0000     0.0000 </r>
       <r>    -7.1669     0.0000     0.0000 </r>
       <r>    -7.0896     0.0000     0.0000 </r>
       <r>    -7.0124     0.0000     0.0000 </r>
       <r>    -6.9352     0.0000     0.0000 </r>
       <r>    -6.8580     0.0000     0.0000 </r>
       <r>    -6.7808     0.0000     0.0000 </r>
       <r>    -6.7036     0.0000     0.0000 </r>
       <r>    -6.6264     0.0000     0.0000 </r>
       <r>    -6.5492     0.0000     0.0000 </r>
       <r>    -6.4720     0.0000     0.0000 </r>
       <r>    -6.3948     0.0000     0.0000 </r>
       <r>    -6.3176     0.0026     0.0002 </r>
       <r>    -6.2404     0.0394     0.0032 </r>
       <r>    -6.1632     0.1071     0.0115 </r>
       <r>    -6.0860     0.1444     0.0227 </r>
       <r>    -6.0088     0.1970     0.0379 </r>
       <r>    -5.9316     0.1795     0.0517 </r>
       <r>    -5.8543     0.2803     0.0734 </r>
       <r>    -5.7771     0.2231     0.0906 </r>
       <r>    -5.6999     0.2859     0.1127 </r>
       <r>    -5.6227     0.3064     0.1363 </r>
       <r>    -5.5455     0.3481     0.1632 </r>
       <r>    -5.4683     0.3210     0.1880 </r>
       <r>    -5.3911     0.2959     0.2108 </r>
       <r>    -5.3139     0.4859     0.2483 </r>
       <r>    -5.2367     0.3797     0.2777 </r>
       <r>    -5.1595     0.3834     0.3073 </r>
       <r>    -5.0823     0.3766     0.3363 </r>
       <r>    -5.0051     0.5578     0.3794 </r>
       <r>    -4.9279     0.4221     0.4120 </r>
       <r>    -4.8507     0.5441     0.4540 </r>
       <r>    -4.7735     0.4785     0.4909 </r>
       <r>    -4.6963     0.4767     0.5278 </r>
       <r>    -4.6190     0.5279     0.5685 </r>
       <r>    -4.5418     0.6887     0.6217 </r>
       <r>    -4.4646     0.6725     0.6736 </r>
       <r>    -4.3874     0.4982     0.7121 </r>
       <r>    -4.3102     0.6414     0.7616 </r>
       <r>    -4.2330     0.6804     0.8141 </r>
       <r>    -4.1558     0.8618     0.8806 </r>
       <r>    -4.0786     0.8016     0.9425 </r>
       <r>    -4.0014     0.9103     1.0128 </r>
       <r>    -3.9242     1.1551     1.1020 </r>
       <r>    -3.8470     0.5180     1.1420 </r>
       <r>    -3.7698     0.8656     1.2088 </r>
       <r>    -3.6926     0.9720     1.2839 </r>
       <r>    -3.6154     0.7519     1.3419 </r>
       <r>    -3.5382     0.7257     1.3979 </r>
       <r>    -3.4610     0.8924     1.4668 </r>
       <r>    -3.3837     0.8059     1.5291 </r>
       <r>    -3.3065     0.4372     1.5628 </r>
       <r>    -3.2293     0.3836     1.5924 </r>
       <r>    -3.1521     0.7124     1.6474 </r>
       <r>    -3.0749     0.8731     1.7148 </r>
       <r>    -2.9977     0.6819     1.7675 </r>
       <r>    -2.9205     0.5307     1.8085 </r>
       <r>    -2.8433     0.2821     1.8302 </r>
       <r>    -2.7661     0.2631     1.8506 </r>
       <r>    -2.6889     0.2834     1.8724 </r>
       <r>    -2.6117     0.5511     1.9150 </r>
       <r>    -2.5345     0.5825     1.9599 </r>
       <r>    -2.4573     0.3524     1.9872 </r>
       <r>    -2.3801     0.1614     1.9996 </r>
       <r>    -2.3029     0.0050     2.0000 </r>
       <r>    -2.2257     0.0000     2.0000 </r>
       <r>    -2.1485     0.0000     2.0000 </r>
       <r>    -2.0712     0.0087     2.0007 </r>
       <r>    -1.9940     0.2888     2.0230 </r>
       <r>    -1.9168     0.7608     2.0817 </r>
       <r>    -1.8396     0.3837     2.1113 </r>
       <r>    -1.7624     0.2167     2.1281 </r>
       <r>    -1.6852     0.2624     2.1483 </r>
       <r>    -1.6080     0.1943     2.1633 </r>
       <r>    -1.5308     0.3766     2.1924 </r>
       <r>    -1.4536     0.7444     2.2499 </r>
       <r>    -1.3764     1.3955     2.3576 </r>
       <r>    -1.2992     1.3495     2.4618 </r>
       <r>    -1.2220     1.4267     2.5720 </r>
       <r>    -1.1448     1.2023     2.6648 </r>
       <r>    -1.0676     0.8224     2.7283 </r>
       <r>    -0.9904     0.8869     2.7967 </r>
       <r>    -0.9132     1.0275     2.8761 </r>
       <r>    -0.8359     0.4783     2.9130 </r>
       <r>    -0.7587     0.7653     2.9721 </r>
       <r>    -0.6815     1.1077     3.0576 </r>
       <r>    -0.6043     0.4550     3.0927 </r>
       <r>    -0.5271     0.2215     3.1098 </r>
       <r>    -0.4499     0.4087     3.1414 </r>
       <r>    -0.3727     0.8467     3.2068 </r>
       <r>    -0.2955     0.5589     3.2499 </r>
       <r>    -0.2183     0.1489     3.2614 </r>
       <r>    -0.1411     0.3506     3.2885 </r>
       <r>    -0.0639     0.5888     3.3339 </r>
       <r>     0.0133     0.7878     3.3948 </r>
       <r>     0.0905     0.2050     3.4106 </r>
       <r>     0.1677     0.1536     3.4224 </r>
       <r>     0.2449     0.2348     3.4406 </r>
       <r>     0.3221     0.2893     3.4629 </r>
       <r>     0.3994     0.7001     3.5169 </r>
       <r>     0.4766     0.2729     3.5380 </r>
       <r>     0.5538     0.0679     3.5433 </r>
       <r>     0.6310     0.2655     3.5638 </r>
       <r>     0.7082     0.3283     3.5891 </r>
       <r>     0.7854     0.3731     3.6179 </r>
       <r>     0.8626     0.3441     3.6445 </r>
       <r>     0.9398     0.0943     3.6518 </r>
       <r>     1.0170     0.1358     3.6622 </r>
       <r>     1.0942     0.1535     3.6741 </r>
       <r>     1.1714     0.2761     3.6954 </r>
       <r>     1.2486     0.8141     3.7583 </r>
       <r>     1.3258     0.8118     3.8209 </r>
       <r>     1.4030     0.8063     3.8832 </r>
       <r>     1.4802     1.4527     3.9953 </r>
       <r>     1.5574     1.1506     4.0842 </r>
       <r>     1.6347     1.1224     4.1708 </r>
       <r>     1.7119     1.1539     4.2599 </r>
       <r>     1.7891     1.1928     4.3520 </r>
       <r>     1.8663     1.1125     4.4379 </r>
       <r>     1.9435     1.0491     4.5189 </r>
       <r>     2.0207     0.8041     4.5810 </r>
       <r>     2.0979     1.1623     4.6707 </r>
       <r>     2.1751     1.2836     4.7698 </r>
       <r>     2.2523     1.3587     4.8747 </r>
       <r>     2.3295     0.8907     4.9435 </r>
       <r>     2.4067     1.1695     5.0338 </r>
       <r>     2.4839     1.3662     5.1393 </r>
       <r>     2.5611     1.2668     5.2371 </r>
       <r>     2.6383     1.5403     5.3560 </r>
       <r>     2.7155     1.5947     5.4791 </r>
       <r>     2.7927     1.7894     5.6172 </r>
       <r>     2.8700     1.4887     5.7322 </r>
       <r>     2.9472     1.5030     5.8482 </r>
       <r>     3.0244     1.1788     5.9392 </r>
       <r>     3.1016     1.5845     6.0616 </r>
       <r>     3.1788     1.6621     6.1899 </r>
       <r>     3.2560     1.5582     6.3102 </r>
       <r>     3.3332     1.3256     6.4125 </r>
       <r>     3.4104     1.1102     6.4983 </r>
       <r>     3.4876     1.3791     6.6047 </r>
       <r>     3.5648     1.5120     6.7215 </r>
       <r>     3.6420     1.4364     6.8324 </r>
       <r>     3.7192     1.2031     6.9252 </r>
       <r>     3.7964     1.2074     7.0185 </r>
       <r>     3.8736     1.2516     7.1151 </r>
       <r>     3.9508     1.2288     7.2100 </r>
       <r>     4.0280     1.4051     7.3185 </r>
       <r>     4.1053     1.0706     7.4011 </r>
       <r>     4.1825     0.9168     7.4719 </r>
       <r>     4.2597     1.2378     7.5675 </r>
       <r>     4.3369     0.9850     7.6435 </r>
       <r>     4.4141     0.5516     7.6861 </r>
       <r>     4.4913     0.5368     7.7275 </r>
       <r>     4.5685     0.5630     7.7710 </r>
       <r>     4.6457     0.6065     7.8178 </r>
       <r>     4.7229     0.5052     7.8568 </r>
       <r>     4.8001     0.3696     7.8854 </r>
       <r>     4.8773     0.2988     7.9084 </r>
       <r>     4.9545     0.3407     7.9348 </r>
       <r>     5.0317     0.2048     7.9506 </r>
       <r>     5.1089     0.2990     7.9736 </r>
       <r>     5.1861     0.1612     7.9861 </r>
       <r>     5.2633     0.1066     7.9943 </r>
       <r>     5.3405     0.0676     7.9995 </r>
       <r>     5.4178     0.0060     8.0000 </r>
       <r>     5.4950     0.0000     8.0000 </r>
       <r>     5.5722     0.0000     8.0000 </r>
       <r>     5.6494     0.0000     8.0000 </r>
       <r>     5.7266     0.0000     8.0000 </r>
       <r>     5.8038     0.0000     8.0000 </r>
       <r>     5.8810     0.0000     8.0000 </r>
       <r>     5.9582     0.0001     8.0000 </r>
       <r>     6.0354     0.0217     8.0017 </r>
       <r>     6.1126     0.1700     8.0148 </r>
       <r>     6.1898     0.1523     8.0266 </r>
       <r>     6.2670     0.1200     8.0358 </r>
       <r>     6.3442     0.5153     8.0756 </r>
       <r>     6.4214     0.3854     8.1054 </r>
       <r>     6.4986     0.4195     8.1378 </r>
       <r>     6.5758     0.5183     8.1778 </r>
       <r>     6.6531     0.3170     8.2022 </r>
       <r>     6.7303     0.5068     8.2414 </r>
       <r>     6.8075     0.8344     8.3058 </r>
       <r>     6.8847     1.0058     8.3834 </r>
       <r>     6.9619     0.6324     8.4323 </r>
       <r>     7.0391     0.7917     8.4934 </r>
       <r>     7.1163     0.9331     8.5654 </r>
       <r>     7.1935     1.0765     8.6485 </r>
       <r>     7.2707     1.0288     8.7280 </r>
       <r>     7.3479     1.5117     8.8447 </r>
       <r>     7.4251     1.1154     8.9308 </r>
       <r>     7.5023     1.7130     9.0631 </r>
       <r>     7.5795     2.0250     9.2194 </r>
       <r>     7.6567     1.5852     9.3418 </r>
       <r>     7.7339     1.3743     9.4479 </r>
       <r>     7.8111     1.4225     9.5577 </r>
       <r>     7.8884     1.4974     9.6733 </r>
       <r>     7.9656     1.2546     9.7702 </r>
       <r>     8.0428     1.4313     9.8807 </r>
       <r>     8.1200     0.9787     9.9563 </r>
       <r>     8.1972     1.2728    10.0545 </r>
       <r>     8.2744     1.2985    10.1548 </r>
       <r>     8.3516     0.8018    10.2167 </r>
       <r>     8.4288     1.0841    10.3004 </r>
       <r>     8.5060     1.0149    10.3787 </r>
       <r>     8.5832     1.6064    10.5028 </r>
       <r>     8.6604     2.8295    10.7212 </r>
       <r>     8.7376     2.0299    10.8779 </r>
       <r>     8.8148     2.0572    11.0368 </r>
       <r>     8.8920     1.9272    11.1856 </r>
       <r>     8.9692     1.6476    11.3128 </r>
       <r>     9.0464     1.9109    11.4603 </r>
       <r>     9.1237     1.6962    11.5912 </r>
       <r>     9.2009     1.3020    11.6918 </r>
       <r>     9.2781     1.2911    11.7915 </r>
       <r>     9.3553     1.3019    11.8920 </r>
       <r>     9.4325     1.4224    12.0018 </r>
       <r>     9.5097     1.1201    12.0883 </r>
       <r>     9.5869     1.1660    12.1783 </r>
       <r>     9.6641     1.6311    12.3042 </r>
       <r>     9.7413     1.0378    12.3843 </r>
       <r>     9.8185     1.1010    12.4693 </r>
       <r>     9.8957     1.8026    12.6085 </r>
       <r>     9.9729     1.4607    12.7213 </r>
       <r>    10.0501     1.1761    12.8121 </r>
       <r>    10.1273     1.0842    12.8958 </r>
       <r>    10.2045     1.4074    13.0045 </r>
       <r>    10.2817     1.3917    13.1119 </r>
       <r>    10.3590     1.1715    13.2024 </r>
       <r>    10.4362     1.3025    13.3029 </r>
       <r>    10.5134     1.2792    13.4017 </r>
       <r>    10.5906     1.5908    13.5245 </r>
       <r>    10.6678     1.0335    13.6043 </r>
       <r>    10.7450     0.8729    13.6717 </r>
       <r>    10.8222     1.1340    13.7592 </r>
       <r>    10.8994     1.0305    13.8388 </r>
       <r>    10.9766     1.2049    13.9318 </r>
       <r>    11.0538     1.0164    14.0103 </r>
       <r>    11.1310     1.3962    14.1181 </r>
       <r>    11.2082     1.1998    14.2107 </r>
       <r>    11.2854     1.0111    14.2888 </r>
       <r>    11.3626     1.1522    14.3777 </r>
       <r>    11.4398     0.7706    14.4372 </r>
       <r>    11.5170     0.8871    14.5057 </r>
       <r>    11.5942     0.9425    14.5785 </r>
       <r>    11.6715     0.7705    14.6380 </r>
       <r>    11.7487     0.9322    14.7099 </r>
       <r>    11.8259     1.1258    14.7969 </r>
       <r>    11.9031     1.2982    14.8971 </r>
       <r>    11.9803     0.9275    14.9687 </r>
       <r>    12.0575     0.6888    15.0219 </r>
       <r>    12.1347     1.0577    15.1035 </r>
       <r>    12.2119     0.4411    15.1376 </r>
       <r>    12.2891     0.3995    15.1684 </r>
       <r>    12.3663     0.4880    15.2061 </r>
       <r>    12.4435     0.9136    15.2767 </r>
       <r>    12.5207     0.9495    15.3500 </r>
       <r>    12.5979     0.7202    15.4056 </r>
       <r>    12.6751     0.9419    15.4783 </r>
       <r>    12.7523     0.5341    15.5195 </r>
       <r>    12.8295     0.4014    15.5505 </r>
       <r>    12.9068     0.5381    15.5921 </r>
       <r>    12.9840     0.2382    15.6104 </r>
       <r>    13.0612     0.3237    15.6354 </r>
       <r>    13.1384     0.5813    15.6803 </r>
       <r>    13.2156     0.5167    15.7202 </r>
       <r>    13.2928     0.3623    15.7482 </r>
       <r>    13.3700     0.7171    15.8035 </r>
       <r>    13.4472     0.7163    15.8588 </r>
       <r>    13.5244     0.1401    15.8697 </r>
       <r>    13.6016     0.0680    15.8749 </r>
       <r>    13.6788     0.0022    15.8751 </r>
       <r>    13.7560     0.0723    15.8807 </r>
       <r>    13.8332     0.2268    15.8982 </r>
       <r>    13.9104     0.0674    15.9034 </r>
       <r>    13.9876     0.0734    15.9090 </r>
       <r>    14.0648     0.2258    15.9265 </r>
       <r>    14.1421     0.4666    15.9625 </r>
       <r>    14.2193     0.1245    15.9721 </r>
       <r>    14.2965     0.0015    15.9722 </r>
       <r>    14.3737     0.0000    15.9722 </r>
       <r>    14.4509     0.0001    15.9722 </r>
       <r>    14.5281     0.0238    15.9741 </r>
       <r>    14.6053     0.1304    15.9841 </r>
       <r>    14.6825     0.0282    15.9863 </r>
       <r>    14.7597     0.0712    15.9918 </r>
       <r>    14.8369     0.0982    15.9994 </r>
       <r>    14.9141     0.0080    16.0000 </r>
       <r>    14.9913     0.0000    16.0000 </r>
       <r>    15.0685     0.0000    16.0000 </r>
       <r>    15.1457     0.0000    16.0000 </r>
       <r>    15.2229     0.0000    16.0000 </r>
       <r>    15.3001     0.0000    16.0000 </r>
       <r>    15.3774     0.0000    16.0000 </r>
       <r>    15.4546     0.0000    16.0000 </r>
       <r>    15.5318     0.0000    16.0000 </r>
       <r>    15.6090     0.0000    16.0000 </r>
       <r>    15.6862     0.0000    16.0000 </r>
       <r>    15.7634     0.0000    16.0000 </r>
       <r>    15.8406     0.0000    16.0000 </r>
      </set>
     </set>
    </array>
   </total>
  </dos>
 </calculation>
 <structure name="finalpos" >
  <crystal>
   <varray name="basis" >
    <v>       3.38161472       0.00000000       1.95237590 </v>
    <v>       1.12720491       3.18821820       1.95237590 </v>
    <v>       0.00000000       0.00000000       3.90475179 </v>
   </varray>
   <i name="volume">     42.09840050 </i>
   <varray name="rec_basis" >
    <v>       0.29571672      -0.10455161       0.00000000 </v>
    <v>       0.00000000       0.31365482       0.00000000 </v>
    <v>      -0.14785836      -0.10455161       0.25609822 </v>
   </varray>
  </crystal>
  <varray name="positions" >
   <v>       0.87500000       0.87500000       0.87500000 </v>
   <v>       0.12500000       0.12500000       0.12500000 </v>
  </varray>
 </structure>
</modeling>
