unknown system                          
           1
     3.381615    0.000000    1.952376
     1.127205    3.188218    1.952376
     0.000000    0.000000    3.904752
   Si
     2
Direct configuration=     1
   0.87500000  0.87500000  0.87500000
   0.12500000  0.12500000  0.12500000
