unknown system                          
   1.00000000000000     
     2.798081    0.000000    0.000000
     0.000000    2.798081    0.000000
    -0.000000    0.000000    2.798081
   Fe
     2
Direct
  0.000000  0.000000  0.000000
  0.500000  0.500000  0.500000
 
   36   36   36
  199.02      194.05      179.84      158.33      132.27      104.68      78.320      55.327      37.003      23.773    
  15.282      10.570      8.3638      7.2836      6.5155      5.9949      5.6753      5.5130      5.4610      5.5130    
  5.6753      5.9949      6.5155      7.2836      8.3638      10.570      15.282      23.773      37.003      55.327    
  78.320      104.68      132.27      158.33      179.84      194.05      194.05      189.22      175.41      154.49    
  129.13      102.23      76.517      54.069      36.184      23.283      15.024      10.460      8.3280      7.2673    
  6.5054      5.9913      5.6755      5.5156      5.4640      5.5156      5.6755      5.9913      6.5054      7.2673    
  8.3280      10.460      15.024      23.283      36.184      54.069      76.517      102.23      129.13      154.49    
  175.41      189.22      179.84      175.41      162.74      143.49      120.08      95.181      71.307      50.436    
  33.816      21.875      14.292      10.152      8.2275      7.2179      6.4756      5.9806      5.6759      5.5228    
  5.4727      5.5228      5.6759      5.9806      6.4756      7.2179      8.2275      10.152      14.292      21.875    
  33.816      50.436      71.307      95.181      120.08      143.49      162.74      175.41      158.33      154.49    
  143.49      126.72      106.23      84.342      63.272      44.828      30.180      19.736      13.201      9.7068    
  8.0773      7.1337      6.4276      5.9624      5.6767      5.5335      5.4865      5.5335      5.6767      5.9624    
  6.4276      7.1337      8.0773      9.7068      13.201      19.736      30.180      44.828      63.272      84.342    
  106.23      126.72      143.49      154.49      132.27      129.13      120.08      106.23      89.225      70.960    
  53.326      37.901      25.724      17.165      11.930      9.2091      7.8910      7.0144      6.3643      5.9367    
  5.6778      5.5457      5.5043      5.5457      5.6778      5.9367      6.3643      7.0144      7.8910      9.2091    
  11.930      17.165      25.724      37.901      53.326      70.960      89.225      106.23      120.08      129.13    
  104.68      102.23      95.181      84.342      70.960      56.538      42.605      30.478      21.024      14.530    
  10.685      8.7341      7.6692      6.8656      6.2883      5.9051      5.6781      5.5583      5.5237      5.5583    
  5.6781      5.9051      6.2883      6.8656      7.6692      8.7341      10.685      14.530      21.024      30.478    
  42.605      56.538      70.960      84.342      95.181      102.23      78.320      76.517      71.307      63.272    
  53.326      42.605      32.298      23.435      16.675      12.189      9.6377      8.3071      7.4073      6.7001    
  6.2019      5.8713      5.6751      5.5710      5.5407      5.5710      5.6751      5.8713      6.2019      6.7001    
  7.4073      8.3071      9.6377      12.189      16.675      23.435      32.298      42.605      53.326      63.272    
  71.307      76.517      55.327      54.069      50.436      44.828      37.901      30.478      23.435      17.511    
  13.156      10.388      8.8505      7.8937      7.1186      6.5295      6.1100      5.8365      5.6685      5.5820    
  5.5537      5.5820      5.6685      5.8365      6.1100      6.5295      7.1186      7.8937      8.8505      10.388    
  13.156      17.511      23.435      30.478      37.901      44.828      50.436      54.069      37.003      36.184    
  33.816      30.180      25.724      21.024      16.675      13.156      10.685      9.1782      8.2341      7.4640    
  6.8340      6.3587      6.0227      5.7988      5.6607      5.5865      5.5635      5.5865      5.6607      5.7988    
  6.0227      6.3587      6.8340      7.4640      8.2341      9.1782      10.685      13.156      16.675      21.024    
  25.724      30.180      33.816      36.184      23.773      23.283      21.875      19.736      17.165      14.530    
  12.189      10.388      9.1782      8.3575      7.6596      7.0525      6.5675      6.2011      5.9394      5.7613    
  5.6486      5.5864      5.5669      5.5864      5.6486      5.7613      5.9394      6.2011      6.5675      7.0525    
  7.6596      8.3575      9.1782      10.388      12.189      14.530      17.165      19.736      21.875      23.283    
  15.282      15.024      14.292      13.201      11.930      10.685      9.6377      8.8505      8.2341      7.6596    
  7.1322      6.6874      6.3313      6.0610      5.8632      5.7246      5.6327      5.5806      5.5635      5.5806    
  5.6327      5.7246      5.8632      6.0610      6.3313      6.6874      7.1322      7.6596      8.2341      8.8505    
  9.6377      10.685      11.930      13.201      14.292      15.024      10.570      10.460      10.152      9.7068    
  9.2091      8.7341      8.3071      7.8937      7.4640      7.0525      6.6874      6.3792      6.1321      5.9400    
  5.7941      5.6862      5.6120      5.5681      5.5537      5.5681      5.6120      5.6862      5.7941      5.9400    
  6.1321      6.3792      6.6874      7.0525      7.4640      7.8937      8.3071      8.7341      9.2091      9.7068    
  10.152      10.460      8.3638      8.3280      8.2275      8.0773      7.8910      7.6692      7.4073      7.1186    
  6.8340      6.5675      6.3313      6.1321      5.9686      5.8359      5.7297      5.6480      5.5890      5.5530    
  5.5407      5.5530      5.5890      5.6480      5.7297      5.8359      5.9686      6.1321      6.3313      6.5675    
  6.8340      7.1186      7.4073      7.6692      7.8910      8.0773      8.2275      8.3280      7.2836      7.2673    
  7.2179      7.1337      7.0144      6.8656      6.7001      6.5295      6.3587      6.2011      6.0610      5.9400    
  5.8359      5.7466      5.6721      5.6107      5.5639      5.5339      5.5237      5.5339      5.5639      5.6107    
  5.6721      5.7466      5.8359      5.9400      6.0610      6.2011      6.3587      6.5295      6.7001      6.8656    
  7.0144      7.1337      7.2179      7.2673      6.5155      6.5054      6.4756      6.4276      6.3643      6.2883    
  6.2019      6.1100      6.0227      5.9394      5.8632      5.7941      5.7297      5.6721      5.6197      5.5735    
  5.5365      5.5127      5.5043      5.5127      5.5365      5.5735      5.6197      5.6721      5.7297      5.7941    
  5.8632      5.9394      6.0227      6.1100      6.2019      6.2883      6.3643      6.4276      6.4756      6.5054    
  5.9949      5.9913      5.9806      5.9624      5.9367      5.9051      5.8713      5.8365      5.7988      5.7613    
  5.7246      5.6862      5.6480      5.6107      5.5735      5.5390      5.5110      5.4928      5.4865      5.4928    
  5.5110      5.5390      5.5735      5.6107      5.6480      5.6862      5.7246      5.7613      5.7988      5.8365    
  5.8713      5.9051      5.9367      5.9624      5.9806      5.9913      5.6753      5.6755      5.6759      5.6767    
  5.6778      5.6781      5.6751      5.6685      5.6607      5.6486      5.6327      5.6120      5.5890      5.5639    
  5.5365      5.5110      5.4904      5.4773      5.4727      5.4773      5.4904      5.5110      5.5365      5.5639    
  5.5890      5.6120      5.6327      5.6486      5.6607      5.6685      5.6751      5.6781      5.6778      5.6767    
  5.6759      5.6755      5.5130      5.5156      5.5228      5.5335      5.5457      5.5583      5.5710      5.5820    
  5.5865      5.5864      5.5806      5.5681      5.5530      5.5339      5.5127      5.4928      5.4773      5.4673    
  5.4640      5.4673      5.4773      5.4928      5.5127      5.5339      5.5530      5.5681      5.5806      5.5864    
  5.5865      5.5820      5.5710      5.5583      5.5457      5.5335      5.5228      5.5156      5.4610      5.4640    
  5.4727      5.4865      5.5043      5.5237      5.5407      5.5537      5.5635      5.5669      5.5635      5.5537    
  5.5407      5.5237      5.5043      5.4865      5.4727      5.4640      5.4610      5.4640      5.4727      5.4865    
  5.5043      5.5237      5.5407      5.5537      5.5635      5.5669      5.5635      5.5537      5.5407      5.5237    
  5.5043      5.4865      5.4727      5.4640      5.5130      5.5156      5.5228      5.5335      5.5457      5.5583    
  5.5710      5.5820      5.5865      5.5864      5.5806      5.5681      5.5530      5.5339      5.5127      5.4928    
  5.4773      5.4673      5.4640      5.4673      5.4773      5.4928      5.5127      5.5339      5.5530      5.5681    
  5.5806      5.5864      5.5865      5.5820      5.5710      5.5583      5.5457      5.5335      5.5228      5.5156    
  5.6753      5.6755      5.6759      5.6767      5.6778      5.6781      5.6751      5.6685      5.6607      5.6486    
  5.6327      5.6120      5.5890      5.5639      5.5365      5.5110      5.4904      5.4773      5.4727      5.4773    
  5.4904      5.5110      5.5365      5.5639      5.5890      5.6120      5.6327      5.6486      5.6607      5.6685    
  5.6751      5.6781      5.6778      5.6767      5.6759      5.6755      5.9949      5.9913      5.9806      5.9624    
  5.9367      5.9051      5.8713      5.8365      5.7988      5.7613      5.7246      5.6862      5.6480      5.6107    
  5.5735      5.5390      5.5110      5.4928      5.4865      5.4928      5.5110      5.5390      5.5735      5.6107    
  5.6480      5.6862      5.7246      5.7613      5.7988      5.8365      5.8713      5.9051      5.9367      5.9624    
  5.9806      5.9913      6.5155      6.5054      6.4756      6.4276      6.3643      6.2883      6.2019      6.1100    
  6.0227      5.9394      5.8632      5.7941      5.7297      5.6721      5.6197      5.5735      5.5365      5.5127    
  5.5043      5.5127      5.5365      5.5735      5.6197      5.6721      5.7297      5.7941      5.8632      5.9394    
  6.0227      6.1100      6.2019      6.2883      6.3643      6.4276      6.4756      6.5054      7.2836      7.2673    
  7.2179      7.1337      7.0144      6.8656      6.7001      6.5295      6.3587      6.2011      6.0610      5.9400    
  5.8359      5.7466      5.6721      5.6107      5.5639      5.5339      5.5237      5.5339      5.5639      5.6107    
  5.6721      5.7466      5.8359      5.9400      6.0610      6.2011      6.3587      6.5295      6.7001      6.8656    
  7.0144      7.1337      7.2179      7.2673      8.3638      8.3280      8.2275      8.0773      7.8910      7.6692    
  7.4073      7.1186      6.8340      6.5675      6.3313      6.1321      5.9686      5.8359      5.7297      5.6480    
  5.5890      5.5530      5.5407      5.5530      5.5890      5.6480      5.7297      5.8359      5.9686      6.1321    
  6.3313      6.5675      6.8340      7.1186      7.4073      7.6692      7.8910      8.0773      8.2275      8.3280    
  10.570      10.460      10.152      9.7068      9.2091      8.7341      8.3071      7.8937      7.4640      7.0525    
  6.6874      6.3792      6.1321      5.9400      5.7941      5.6862      5.6120      5.5681      5.5537      5.5681    
  5.6120      5.6862      5.7941      5.9400      6.1321      6.3792      6.6874      7.0525      7.4640      7.8937    
  8.3071      8.7341      9.2091      9.7068      10.152      10.460      15.282      15.024      14.292      13.201    
  11.930      10.685      9.6377      8.8505      8.2341      7.6596      7.1322      6.6874      6.3313      6.0610    
  5.8632      5.7246      5.6327      5.5806      5.5635      5.5806      5.6327      5.7246      5.8632      6.0610    
  6.3313      6.6874      7.1322      7.6596      8.2341      8.8505      9.6377      10.685      11.930      13.201    
  14.292      15.024      23.773      23.283      21.875      19.736      17.165      14.530      12.189      10.388    
  9.1782      8.3575      7.6596      7.0525      6.5675      6.2011      5.9394      5.7613      5.6486      5.5864    
  5.5669      5.5864      5.6486      5.7613      5.9394      6.2011      6.5675      7.0525      7.6596      8.3575    
  9.1782      10.388      12.189      14.530      17.165      19.736      21.875      23.283      37.003      36.184    
  33.816      30.180      25.724      21.024      16.675      13.156      10.685      9.1782      8.2341      7.4640    
  6.8340      6.3587      6.0227      5.7988      5.6607      5.5865      5.5635      5.5865      5.6607      5.7988    
  6.0227      6.3587      6.8340      7.4640      8.2341      9.1782      10.685      13.156      16.675      21.024    
  25.724      30.180      33.816      36.184      55.327      54.069      50.436      44.828      37.901      30.478    
  23.435      17.511      13.156      10.388      8.8505      7.8937      7.1186      6.5295      6.1100      5.8365    
  5.6685      5.5820      5.5537      5.5820      5.6685      5.8365      6.1100      6.5295      7.1186      7.8937    
  8.8505      10.388      13.156      17.511      23.435      30.478      37.901      44.828      50.436      54.069    
  78.320      76.517      71.307      63.272      53.326      42.605      32.298      23.435      16.675      12.189    
  9.6377      8.3071      7.4073      6.7001      6.2019      5.8713      5.6751      5.5710      5.5407      5.5710    
  5.6751      5.8713      6.2019      6.7001      7.4073      8.3071      9.6377      12.189      16.675      23.435    
  32.298      42.605      53.326      63.272      71.307      76.517      104.68      102.23      95.181      84.342    
  70.960      56.538      42.605      30.478      21.024      14.530      10.685      8.7341      7.6692      6.8656    
  6.2883      5.9051      5.6781      5.5583      5.5237      5.5583      5.6781      5.9051      6.2883      6.8656    
  7.6692      8.7341      10.685      14.530      21.024      30.478      42.605      56.538      70.960      84.342    
  95.181      102.23      132.27      129.13      120.08      106.23      89.225      70.960      53.326      37.901    
  25.724      17.165      11.930      9.2091      7.8910      7.0144      6.3643      5.9367      5.6778      5.5457    
  5.5043      5.5457      5.6778      5.9367      6.3643      7.0144      7.8910      9.2091      11.930      17.165    
  25.724      37.901      53.326      70.960      89.225      106.23      120.08      129.13      158.33      154.49    
  143.49      126.72      106.23      84.342      63.272      44.828      30.180      19.736      13.201      9.7068    
  8.0773      7.1337      6.4276      5.9624      5.6767      5.5335      5.4865      5.5335      5.6767      5.9624    
  6.4276      7.1337      8.0773      9.7068      13.201      19.736      30.180      44.828      63.272      84.342    
  106.23      126.72      143.49      154.49      179.84      175.41      162.74      143.49      120.08      95.181    
  71.307      50.436      33.816      21.875      14.292      10.152      8.2275      7.2179      6.4756      5.9806    
  5.6759      5.5228      5.4727      5.5228      5.6759      5.9806      6.4756      7.2179      8.2275      10.152    
  14.292      21.875      33.816      50.436      71.307      95.181      120.08      143.49      162.74      175.41    
  194.05      189.22      175.41      154.49      129.13      102.23      76.517      54.069      36.184      23.283    
  15.024      10.460      8.3280      7.2673      6.5054      5.9913      5.6755      5.5156      5.4640      5.5156    
  5.6755      5.9913      6.5054      7.2673      8.3280      10.460      15.024      23.283      36.184      54.069    
  76.517      102.23      129.13      154.49      175.41      189.22      194.05      189.22      175.41      154.49    
  129.13      102.23      76.517      54.069      36.184      23.283      15.024      10.460      8.3280      7.2673    
  6.5054      5.9913      5.6755      5.5156      5.4640      5.5156      5.6755      5.9913      6.5054      7.2673    
  8.3280      10.460      15.024      23.283      36.184      54.069      76.517      102.23      129.13      154.49    
  175.41      189.22      189.22      184.53      171.11      150.76      126.06      99.847      74.754      52.839    
  35.382      22.805      14.775      10.355      8.2942      7.2516      6.4960      5.9883      5.6761      5.5185    
  5.4673      5.5185      5.6761      5.9883      6.4960      7.2516      8.2942      10.355      14.775      22.805    
  35.382      52.839      74.754      99.847      126.06      150.76      171.11      184.53      175.41      171.11    
  158.78      140.05      117.24      92.961      69.661      49.285      33.068      21.433      14.065      10.059    
  8.1987      7.2036      6.4679      5.9789      5.6779      5.5269      5.4773      5.5269      5.6779      5.9789    
  6.4679      7.2036      8.1987      10.059      14.065      21.433      33.068      49.285      69.661      92.961    
  117.24      140.05      158.78      171.11      154.49      150.76      140.05      123.71      103.74      82.376    
  61.807      43.805      29.518      19.351      13.010      9.6337      8.0549      7.1215      6.4228      5.9627    
  5.6807      5.5390      5.4928      5.5390      5.6807      5.9627      6.4228      7.1215      8.0549      9.6337    
  13.010      19.351      29.518      43.805      61.807      82.376      103.74      123.71      140.05      150.76    
  129.13      126.06      117.24      103.74      87.137      69.305      52.089      37.040      25.173      16.854    
  11.784      9.1584      7.8746      7.0053      6.3627      5.9396      5.6841      5.5532      5.5127      5.5532    
  5.6841      5.9396      6.3627      7.0053      7.8746      9.1584      11.784      16.854      25.173      37.040    
  52.089      69.305      87.137      103.74      117.24      126.06      102.23      99.847      92.961      82.376    
  69.305      55.220      41.621      29.799      20.600      14.302      10.587      8.7037      7.6572      6.8607    
  6.2902      5.9111      5.6867      5.5681      5.5339      5.5681      5.6867      5.9111      6.2902      6.8607    
  7.6572      8.7037      10.587      14.302      20.600      29.799      41.621      55.220      69.305      82.376    
  92.961      99.847      76.517      74.754      69.661      61.807      52.089      41.621      31.570      22.942    
  16.380      12.041      9.5825      8.2901      7.3993      6.6999      6.2069      5.8804      5.6860      5.5832    
  5.5530      5.5832      5.6860      5.8804      6.2069      6.6999      7.3993      8.2901      9.5825      12.041    
  16.380      22.942      31.570      41.621      52.089      61.807      69.661      74.754      54.069      52.839    
  49.285      43.805      37.040      29.799      22.942      17.191      12.977      10.309      8.8250      7.8832    
  7.1157      6.5335      6.1190      5.8485      5.6820      5.5962      5.5681      5.5962      5.6820      5.8485    
  6.1190      6.5335      7.1157      7.8832      8.8250      10.309      12.977      17.191      22.942      29.799    
  37.040      43.805      49.285      52.839      36.184      35.382      33.068      29.518      25.173      20.600    
  16.380      12.977      10.596      9.1455      8.2215      7.4590      6.8368      6.3671      6.0350      5.8135    
  5.6770      5.6033      5.5806      5.6033      5.6770      5.8135      6.0350      6.3671      6.8368      7.4590    
  8.2215      9.1455      10.596      12.977      16.380      20.600      25.173      29.518      33.068      35.382    
  23.283      22.805      21.433      19.351      16.854      14.302      12.041      10.309      9.1455      8.3440    
  7.6534      7.0541      6.5753      6.2137      5.9556      5.7796      5.6678      5.6060      5.5864      5.6060    
  5.6678      5.7796      5.9556      6.2137      6.5753      7.0541      7.6534      8.3440      9.1455      10.309    
  12.041      14.302      16.854      19.351      21.433      22.805      15.024      14.775      14.065      13.010    
  11.784      10.587      9.5825      8.8250      8.2215      7.6534      7.1333      6.6948      6.3442      6.0781    
  5.8826      5.7454      5.6547      5.6033      5.5865      5.6033      5.6547      5.7454      5.8826      6.0781    
  6.3442      6.6948      7.1333      7.6534      8.2215      8.8250      9.5825      10.587      11.784      13.010    
  14.065      14.775      10.460      10.355      10.059      9.6337      9.1584      8.7037      8.2901      7.8832    
  7.4590      7.0541      6.6948      6.3921      6.1496      5.9600      5.8170      5.7119      5.6394      5.5962    
  5.5820      5.5962      5.6394      5.7119      5.8170      5.9600      6.1496      6.3921      6.6948      7.0541    
  7.4590      7.8832      8.2901      8.7037      9.1584      9.6337      10.059      10.355      8.3280      8.2942    
  8.1987      8.0549      7.8746      7.6572      7.3993      7.1157      6.8368      6.5753      6.3442      6.1496    
  5.9889      5.8604      5.7579      5.6778      5.6191      5.5832      5.5710      5.5832      5.6191      5.6778    
  5.7579      5.8604      5.9889      6.1496      6.3442      6.5753      6.8368      7.1157      7.3993      7.6572    
  7.8746      8.0549      8.1987      8.2942      7.2673      7.2516      7.2036      7.1215      7.0053      6.8607    
  6.6999      6.5335      6.3671      6.2137      6.0781      5.9600      5.8604      5.7755      5.7024      5.6421    
  5.5966      5.5681      5.5583      5.5681      5.5966      5.6421      5.7024      5.7755      5.8604      5.9600    
  6.0781      6.2137      6.3671      6.5335      6.6999      6.8607      7.0053      7.1215      7.2036      7.2516    
  6.5054      6.4960      6.4679      6.4228      6.3627      6.2902      6.2069      6.1190      6.0350      5.9556    
  5.8826      5.8170      5.7579      5.7024      5.6518      5.6087      5.5750      5.5532      5.5457      5.5532    
  5.5750      5.6087      5.6518      5.7024      5.7579      5.8170      5.8826      5.9556      6.0350      6.1190    
  6.2069      6.2902      6.3627      6.4228      6.4679      6.4960      5.9913      5.9883      5.9789      5.9627    
  5.9396      5.9111      5.8804      5.8485      5.8135      5.7796      5.7454      5.7119      5.6778      5.6421    
  5.6087      5.5789      5.5550      5.5390      5.5335      5.5390      5.5550      5.5789      5.6087      5.6421    
  5.6778      5.7119      5.7454      5.7796      5.8135      5.8485      5.8804      5.9111      5.9396      5.9627    
  5.9789      5.9883      5.6755      5.6761      5.6779      5.6807      5.6841      5.6867      5.6860      5.6820    
  5.6770      5.6678      5.6547      5.6394      5.6191      5.5966      5.5750      5.5550      5.5381      5.5269    
  5.5228      5.5269      5.5381      5.5550      5.5750      5.5966      5.6191      5.6394      5.6547      5.6678    
  5.6770      5.6820      5.6860      5.6867      5.6841      5.6807      5.6779      5.6761      5.5156      5.5185    
  5.5269      5.5390      5.5532      5.5681      5.5832      5.5962      5.6033      5.6060      5.6033      5.5962    
  5.5832      5.5681      5.5532      5.5390      5.5269      5.5185      5.5156      5.5185      5.5269      5.5390    
  5.5532      5.5681      5.5832      5.5962      5.6033      5.6060      5.6033      5.5962      5.5832      5.5681    
  5.5532      5.5390      5.5269      5.5185      5.4640      5.4673      5.4773      5.4928      5.5127      5.5339    
  5.5530      5.5681      5.5806      5.5864      5.5865      5.5820      5.5710      5.5583      5.5457      5.5335    
  5.5228      5.5156      5.5130      5.5156      5.5228      5.5335      5.5457      5.5583      5.5710      5.5820    
  5.5865      5.5864      5.5806      5.5681      5.5530      5.5339      5.5127      5.4928      5.4773      5.4673    
  5.5156      5.5185      5.5269      5.5390      5.5532      5.5681      5.5832      5.5962      5.6033      5.6060    
  5.6033      5.5962      5.5832      5.5681      5.5532      5.5390      5.5269      5.5185      5.5156      5.5185    
  5.5269      5.5390      5.5532      5.5681      5.5832      5.5962      5.6033      5.6060      5.6033      5.5962    
  5.5832      5.5681      5.5532      5.5390      5.5269      5.5185      5.6755      5.6761      5.6779      5.6807    
  5.6841      5.6867      5.6860      5.6820      5.6770      5.6678      5.6547      5.6394      5.6191      5.5966    
  5.5750      5.5550      5.5381      5.5269      5.5228      5.5269      5.5381      5.5550      5.5750      5.5966    
  5.6191      5.6394      5.6547      5.6678      5.6770      5.6820      5.6860      5.6867      5.6841      5.6807    
  5.6779      5.6761      5.9913      5.9883      5.9789      5.9627      5.9396      5.9111      5.8804      5.8485    
  5.8135      5.7796      5.7454      5.7119      5.6778      5.6421      5.6087      5.5789      5.5550      5.5390    
  5.5335      5.5390      5.5550      5.5789      5.6087      5.6421      5.6778      5.7119      5.7454      5.7796    
  5.8135      5.8485      5.8804      5.9111      5.9396      5.9627      5.9789      5.9883      6.5054      6.4960    
  6.4679      6.4228      6.3627      6.2902      6.2069      6.1190      6.0350      5.9556      5.8826      5.8170    
  5.7579      5.7024      5.6518      5.6087      5.5750      5.5532      5.5457      5.5532      5.5750      5.6087    
  5.6518      5.7024      5.7579      5.8170      5.8826      5.9556      6.0350      6.1190      6.2069      6.2902    
  6.3627      6.4228      6.4679      6.4960      7.2673      7.2516      7.2036      7.1215      7.0053      6.8607    
  6.6999      6.5335      6.3671      6.2137      6.0781      5.9600      5.8604      5.7755      5.7024      5.6421    
  5.5966      5.5681      5.5583      5.5681      5.5966      5.6421      5.7024      5.7755      5.8604      5.9600    
  6.0781      6.2137      6.3671      6.5335      6.6999      6.8607      7.0053      7.1215      7.2036      7.2516    
  8.3280      8.2942      8.1987      8.0549      7.8746      7.6572      7.3993      7.1157      6.8368      6.5753    
  6.3442      6.1496      5.9889      5.8604      5.7579      5.6778      5.6191      5.5832      5.5710      5.5832    
  5.6191      5.6778      5.7579      5.8604      5.9889      6.1496      6.3442      6.5753      6.8368      7.1157    
  7.3993      7.6572      7.8746      8.0549      8.1987      8.2942      10.460      10.355      10.059      9.6337    
  9.1584      8.7037      8.2901      7.8832      7.4590      7.0541      6.6948      6.3921      6.1496      5.9600    
  5.8170      5.7119      5.6394      5.5962      5.5820      5.5962      5.6394      5.7119      5.8170      5.9600    
  6.1496      6.3921      6.6948      7.0541      7.4590      7.8832      8.2901      8.7037      9.1584      9.6337    
  10.059      10.355      15.024      14.775      14.065      13.010      11.784      10.587      9.5825      8.8250    
  8.2215      7.6534      7.1333      6.6948      6.3442      6.0781      5.8826      5.7454      5.6547      5.6033    
  5.5865      5.6033      5.6547      5.7454      5.8826      6.0781      6.3442      6.6948      7.1333      7.6534    
  8.2215      8.8250      9.5825      10.587      11.784      13.010      14.065      14.775      23.283      22.805    
  21.433      19.351      16.854      14.302      12.041      10.309      9.1455      8.3440      7.6534      7.0541    
  6.5753      6.2137      5.9556      5.7796      5.6678      5.6060      5.5864      5.6060      5.6678      5.7796    
  5.9556      6.2137      6.5753      7.0541      7.6534      8.3440      9.1455      10.309      12.041      14.302    
  16.854      19.351      21.433      22.805      36.184      35.382      33.068      29.518      25.173      20.600    
  16.380      12.977      10.596      9.1455      8.2215      7.4590      6.8368      6.3671      6.0350      5.8135    
  5.6770      5.6033      5.5806      5.6033      5.6770      5.8135      6.0350      6.3671      6.8368      7.4590    
  8.2215      9.1455      10.596      12.977      16.380      20.600      25.173      29.518      33.068      35.382    
  54.069      52.839      49.285      43.805      37.040      29.799      22.942      17.191      12.977      10.309    
  8.8250      7.8832      7.1157      6.5335      6.1190      5.8485      5.6820      5.5962      5.5681      5.5962    
  5.6820      5.8485      6.1190      6.5335      7.1157      7.8832      8.8250      10.309      12.977      17.191    
  22.942      29.799      37.040      43.805      49.285      52.839      76.517      74.754      69.661      61.807    
  52.089      41.621      31.570      22.942      16.380      12.041      9.5825      8.2901      7.3993      6.6999    
  6.2069      5.8804      5.6860      5.5832      5.5530      5.5832      5.6860      5.8804      6.2069      6.6999    
  7.3993      8.2901      9.5825      12.041      16.380      22.942      31.570      41.621      52.089      61.807    
  69.661      74.754      102.23      99.847      92.961      82.376      69.305      55.220      41.621      29.799    
  20.600      14.302      10.587      8.7037      7.6572      6.8607      6.2902      5.9111      5.6867      5.5681    
  5.5339      5.5681      5.6867      5.9111      6.2902      6.8607      7.6572      8.7037      10.587      14.302    
  20.600      29.799      41.621      55.220      69.305      82.376      92.961      99.847      129.13      126.06    