unknown system                          
   1.00000000000000     
     2.828235    0.000000    0.000000
     0.000000    2.828235    0.000000
    -0.000000    0.000000    2.828235
   Fe
     2
Direct
 -0.000000  0.000000  0.000000
  0.500000  0.500000  0.500000
 
   36   36   36
 0.19159867203E+03 0.18692885841E+03 0.17356539554E+03 0.15329303600E+03 0.12865526524E+03
 0.10244916484E+03 0.77262979725E+02 0.55117989842E+02 0.37281941907E+02 0.24219236764E+02
 0.15671508069E+02 0.10805888894E+02 0.84673191630E+01 0.73665221309E+01 0.66165234387E+01
 0.60957457975E+01 0.57760914903E+01 0.56102398957E+01 0.55587354757E+01 0.56102398957E+01
 0.57760914903E+01 0.60957457975E+01 0.66165234387E+01 0.73665221309E+01 0.84673191630E+01
 0.10805888894E+02 0.15671508069E+02 0.24219236764E+02 0.37281941907E+02 0.55117989842E+02
 0.77262979725E+02 0.10244916484E+03 0.12865526524E+03 0.15329303600E+03 0.17356539554E+03
 0.18692885841E+03 0.18692885841E+03 0.18238925097E+03 0.16939384301E+03 0.14966501661E+03
 0.12566493522E+03 0.10010961871E+03 0.75524839413E+02 0.53893868822E+02 0.36474304792E+02
 0.23728641237E+02 0.15407445456E+02 0.10688855387E+02 0.84285017755E+01 0.73512334232E+01
 0.66068652370E+01 0.60926455080E+01 0.57764964008E+01 0.56132795719E+01 0.55620552173E+01
 0.56132795719E+01 0.57764964008E+01 0.60926455080E+01 0.66068652370E+01 0.73512334232E+01
 0.84285017755E+01 0.10688855387E+02 0.15407445456E+02 0.23728641237E+02 0.36474304792E+02
 0.53893868822E+02 0.75524839413E+02 0.10010961871E+03 0.12566493522E+03 0.14966501661E+03
 0.16939384301E+03 0.18238925097E+03 0.17356539554E+03 0.16939384301E+03 0.15743862843E+03
 0.13924934366E+03 0.11705904584E+03 0.93358132292E+02 0.70498138416E+02 0.50355366413E+02
 0.34140745329E+02 0.22317333064E+02 0.14655315751E+02 0.10359735067E+02 0.83202778757E+01
 0.73049050664E+01 0.65783791977E+01 0.60830490355E+01 0.57776157744E+01 0.56216082152E+01
 0.55716337519E+01 0.56216082152E+01 0.57776157744E+01 0.60830490355E+01 0.65783791977E+01
 0.73049050664E+01 0.83202778757E+01 0.10359735067E+02 0.14655315751E+02 0.22317333064E+02
 0.34140745329E+02 0.50355366413E+02 0.70498138416E+02 0.93358132292E+02 0.11705904584E+03
 0.13924934366E+03 0.15743862843E+03 0.16939384301E+03 0.15329303600E+03 0.14966501661E+03
 0.13924934366E+03 0.12334896625E+03 0.10386829439E+03 0.82969059148E+02 0.62740021078E+02
 0.44888345383E+02 0.30549981975E+02 0.20167570523E+02 0.13529792570E+02 0.98822635475E+01
 0.81615281169E+01 0.72266862707E+01 0.65316661216E+01 0.60667910378E+01 0.57791863541E+01
 0.56342240170E+01 0.55866076688E+01 0.56342240170E+01 0.57791863541E+01 0.60667910378E+01
 0.65316661216E+01 0.72266862707E+01 0.81615281169E+01 0.98822635475E+01 0.13529792570E+02
 0.20167570523E+02 0.30549981975E+02 0.44888345383E+02 0.62740021078E+02 0.82969059148E+02
 0.10386829439E+03 0.12334896625E+03 0.13924934366E+03 0.14966501661E+03 0.12865526524E+03
 0.12566493522E+03 0.11705904584E+03 0.10386829439E+03 0.87624304078E+02 0.70114382500E+02
 0.53113326362E+02 0.38116492291E+02 0.26134555723E+02 0.17569177862E+02 0.12209016334E+02
 0.93451410378E+01 0.79716017481E+01 0.71144097484E+01 0.64698057263E+01 0.60430722303E+01
 0.57811669871E+01 0.56484814551E+01 0.56057219862E+01 0.56484814551E+01 0.57811669871E+01
 0.60430722303E+01 0.64698057263E+01 0.71144097484E+01 0.79716017481E+01 0.93451410378E+01
 0.12209016334E+02 0.17569177862E+02 0.26134555723E+02 0.38116492291E+02 0.53113326362E+02
 0.70114382500E+02 0.87624304078E+02 0.10386829439E+03 0.11705904584E+03 0.12566493522E+03
 0.10244916484E+03 0.10010961871E+03 0.93358132292E+02 0.82969059148E+02 0.70114382500E+02
 0.56209302265E+02 0.42695054431E+02 0.30824267245E+02 0.21446819023E+02 0.14882850962E+02
 0.10899237142E+02 0.88340872613E+01 0.77556404790E+01 0.69711534023E+01 0.63955442857E+01
 0.60127740918E+01 0.57827144231E+01 0.56628021637E+01 0.56268162767E+01 0.56628021637E+01
 0.57827144231E+01 0.60127740918E+01 0.63955442857E+01 0.69711534023E+01 0.77556404790E+01
 0.88340872613E+01 0.10899237142E+02 0.14882850962E+02 0.21446819023E+02 0.30824267245E+02
 0.42695054431E+02 0.56209302265E+02 0.70114382500E+02 0.82969059148E+02 0.93358132292E+02
 0.10010961871E+03 0.77262979725E+02 0.75524839413E+02 0.70498138416E+02 0.62740021078E+02
 0.53113326362E+02 0.42695054431E+02 0.32610177172E+02 0.23849527407E+02 0.17063614350E+02
 0.12464190672E+02 0.97822781469E+01 0.83890745551E+01 0.75059137133E+01 0.68080061946E+01
 0.63113221886E+01 0.59787327714E+01 0.57814369311E+01 0.56760968867E+01 0.56460029388E+01
 0.56760968867E+01 0.57814369311E+01 0.59787327714E+01 0.63113221886E+01 0.68080061946E+01
 0.75059137133E+01 0.83890745551E+01 0.97822781469E+01 0.12464190672E+02 0.17063614350E+02
 0.23849527407E+02 0.32610177172E+02 0.42695054431E+02 0.53113326362E+02 0.62740021078E+02
 0.70498138416E+02 0.75524839413E+02 0.55117989842E+02 0.53893868822E+02 0.50355366413E+02
 0.44888345383E+02 0.38116492291E+02 0.30824267245E+02 0.23849527407E+02 0.17909317023E+02
 0.13461349438E+02 0.10571571500E+02 0.89431599758E+01 0.79829150525E+01 0.72255592313E+01
 0.66391343305E+01 0.62199466743E+01 0.59441075095E+01 0.57754929783E+01 0.56880756619E+01
 0.56601971400E+01 0.56880756619E+01 0.57754929783E+01 0.59441075095E+01 0.62199466743E+01
 0.66391343305E+01 0.72255592313E+01 0.79829150525E+01 0.89431599758E+01 0.10571571500E+02
 0.13461349438E+02 0.17909317023E+02 0.23849527407E+02 0.30824267245E+02 0.38116492291E+02
 0.44888345383E+02 0.50355366413E+02 0.53893868822E+02 0.37281941907E+02 0.36474304792E+02
 0.34140745329E+02 0.30549981975E+02 0.26134555723E+02 0.21446819023E+02 0.17063614350E+02
 0.13461349438E+02 0.10882762560E+02 0.92824807750E+01 0.83184050289E+01 0.75679678166E+01
 0.69436747357E+01 0.64698031422E+01 0.61313341796E+01 0.59064892604E+01 0.57672857710E+01
 0.56935249123E+01 0.56701374302E+01 0.56935249123E+01 0.57672857710E+01 0.59064892604E+01
 0.61313341796E+01 0.64698031422E+01 0.69436747357E+01 0.75679678166E+01 0.83184050289E+01
 0.92824807750E+01 0.10882762560E+02 0.13461349438E+02 0.17063614350E+02 0.21446819023E+02
 0.26134555723E+02 0.30549981975E+02 0.34140745329E+02 0.36474304792E+02 0.24219236764E+02
 0.23728641237E+02 0.22317333064E+02 0.20167570523E+02 0.17569177862E+02 0.14882850962E+02
 0.12464190672E+02 0.10571571500E+02 0.92824807750E+01 0.84406469779E+01 0.77610101953E+01
 0.71620038932E+01 0.66790010656E+01 0.63106230986E+01 0.60474072294E+01 0.58680553419E+01
 0.57555445596E+01 0.56934204431E+01 0.56742111004E+01 0.56934204431E+01 0.57555445596E+01
 0.58680553419E+01 0.60474072294E+01 0.63106230986E+01 0.66790010656E+01 0.71620038932E+01
 0.77610101953E+01 0.84406469779E+01 0.92824807750E+01 0.10571571500E+02 0.12464190672E+02
 0.14882850962E+02 0.17569177862E+02 0.20167570523E+02 0.22317333064E+02 0.23728641237E+02
 0.15671508069E+02 0.15407445456E+02 0.14655315751E+02 0.13529792570E+02 0.12209016334E+02
 0.10899237142E+02 0.97822781469E+01 0.89431599758E+01 0.83184050289E+01 0.77610101953E+01
 0.72415684589E+01 0.67989961377E+01 0.64414507395E+01 0.61692304605E+01 0.59697835866E+01
 0.58305466102E+01 0.57387112148E+01 0.56871259715E+01 0.56701374302E+01 0.56871259715E+01
 0.57387112148E+01 0.58305466102E+01 0.59697835866E+01 0.61692304605E+01 0.64414507395E+01
 0.67989961377E+01 0.72415684589E+01 0.77610101953E+01 0.83184050289E+01 0.89431599758E+01
 0.97822781469E+01 0.10899237142E+02 0.12209016334E+02 0.13529792570E+02 0.14655315751E+02
 0.15407445456E+02 0.10805888894E+02 0.10688855387E+02 0.10359735067E+02 0.98822635475E+01
 0.93451410378E+01 0.88340872613E+01 0.83890745551E+01 0.79829150525E+01 0.75679678166E+01
 0.71620038932E+01 0.67989961377E+01 0.64895520450E+01 0.62405330451E+01 0.60462494462E+01
 0.58990422289E+01 0.57910593750E+01 0.57175130371E+01 0.56742855609E+01 0.56601971400E+01
 0.56742855609E+01 0.57175130371E+01 0.57910593750E+01 0.58990422289E+01 0.60462494462E+01
 0.62405330451E+01 0.64895520450E+01 0.67989961377E+01 0.71620038932E+01 0.75679678166E+01
 0.79829150525E+01 0.83890745551E+01 0.88340872613E+01 0.93451410378E+01 0.98822635475E+01
 0.10359735067E+02 0.10688855387E+02 0.84673191630E+01 0.84285017755E+01 0.83202778757E+01
 0.81615281169E+01 0.79716017481E+01 0.77556404790E+01 0.75059137133E+01 0.72255592313E+01
 0.69436747357E+01 0.66790010656E+01 0.64414507395E+01 0.62405330451E+01 0.60747538883E+01
 0.59404077630E+01 0.58339188795E+01 0.57525963867E+01 0.56939097090E+01 0.56581819043E+01
 0.56460029388E+01 0.56581819043E+01 0.56939097090E+01 0.57525963867E+01 0.58339188795E+01
 0.59404077630E+01 0.60747538883E+01 0.62405330451E+01 0.64414507395E+01 0.66790010656E+01
 0.69436747357E+01 0.72255592313E+01 0.75059137133E+01 0.77556404790E+01 0.79716017481E+01
 0.81615281169E+01 0.83202778757E+01 0.84285017755E+01 0.73665221309E+01 0.73512334232E+01
 0.73049050664E+01 0.72266862707E+01 0.71144097484E+01 0.69711534023E+01 0.68080061946E+01
 0.66391343305E+01 0.64698031422E+01 0.63106230986E+01 0.61692304605E+01 0.60462494462E+01
 0.59404077630E+01 0.58505952377E+01 0.57758139126E+01 0.57140224182E+01 0.56669516312E+01
 0.56369891082E+01 0.56268162767E+01 0.56369891082E+01 0.56669516312E+01 0.57140224182E+01
 0.57758139126E+01 0.58505952377E+01 0.59404077630E+01 0.60462494462E+01 0.61692304605E+01
 0.63106230986E+01 0.64698031422E+01 0.66391343305E+01 0.68080061946E+01 0.69711534023E+01
 0.71144097484E+01 0.72266862707E+01 0.73049050664E+01 0.73512334232E+01 0.66165234387E+01
 0.66068652370E+01 0.65783791977E+01 0.65316661216E+01 0.64698057263E+01 0.63955442857E+01
 0.63113221886E+01 0.62199466743E+01 0.61313341796E+01 0.60474072294E+01 0.59697835866E+01
 0.58990422289E+01 0.58339188795E+01 0.57758139126E+01 0.57223525217E+01 0.56754440106E+01
 0.56380527079E+01 0.56141370590E+01 0.56057219862E+01 0.56141370590E+01 0.56380527079E+01
 0.56754440106E+01 0.57223525217E+01 0.57758139126E+01 0.58339188795E+01 0.58990422289E+01
 0.59697835866E+01 0.60474072294E+01 0.61313341796E+01 0.62199466743E+01 0.63113221886E+01
 0.63955442857E+01 0.64698057263E+01 0.65316661216E+01 0.65783791977E+01 0.66068652370E+01
 0.60957457975E+01 0.60926455080E+01 0.60830490355E+01 0.60667910378E+01 0.60430722303E+01
 0.60127740918E+01 0.59787327714E+01 0.59441075095E+01 0.59064892604E+01 0.58680553419E+01
 0.58305466102E+01 0.57910593750E+01 0.57525963867E+01 0.57140224182E+01 0.56754440106E+01
 0.56398953341E+01 0.56114467815E+01 0.55929466605E+01 0.55866076688E+01 0.55929466605E+01
 0.56114467815E+01 0.56398953341E+01 0.56754440106E+01 0.57140224182E+01 0.57525963867E+01
 0.57910593750E+01 0.58305466102E+01 0.58680553419E+01 0.59064892604E+01 0.59441075095E+01
 0.59787327714E+01 0.60127740918E+01 0.60430722303E+01 0.60667910378E+01 0.60830490355E+01
 0.60926455080E+01 0.57760914903E+01 0.57764964008E+01 0.57776157744E+01 0.57791863541E+01
 0.57811669871E+01 0.57827144231E+01 0.57814369311E+01 0.57754929783E+01 0.57672857710E+01
 0.57555445596E+01 0.57387112148E+01 0.57175130371E+01 0.56939097090E+01 0.56669516312E+01
 0.56380527079E+01 0.56114467815E+01 0.55901131394E+01 0.55764212882E+01 0.55716337519E+01
 0.55764212882E+01 0.55901131394E+01 0.56114467815E+01 0.56380527079E+01 0.56669516312E+01
 0.56939097090E+01 0.57175130371E+01 0.57387112148E+01 0.57555445596E+01 0.57672857710E+01
 0.57754929783E+01 0.57814369311E+01 0.57827144231E+01 0.57811669871E+01 0.57791863541E+01
 0.57776157744E+01 0.57764964008E+01 0.56102398957E+01 0.56132795719E+01 0.56216082152E+01
 0.56342240170E+01 0.56484814551E+01 0.56628021637E+01 0.56760968867E+01 0.56880756619E+01
 0.56935249123E+01 0.56934204431E+01 0.56871259715E+01 0.56742855609E+01 0.56581819043E+01
 0.56369891082E+01 0.56141370590E+01 0.55929466605E+01 0.55764212882E+01 0.55656605012E+01
 0.55620552173E+01 0.55656605012E+01 0.55764212882E+01 0.55929466605E+01 0.56141370590E+01
 0.56369891082E+01 0.56581819043E+01 0.56742855609E+01 0.56871259715E+01 0.56934204431E+01
 0.56935249123E+01 0.56880756619E+01 0.56760968867E+01 0.56628021637E+01 0.56484814551E+01
 0.56342240170E+01 0.56216082152E+01 0.56132795719E+01 0.55587354757E+01 0.55620552173E+01
 0.55716337519E+01 0.55866076688E+01 0.56057219862E+01 0.56268162767E+01 0.56460029388E+01
 0.56601971400E+01 0.56701374302E+01 0.56742111004E+01 0.56701374302E+01 0.56601971400E+01
 0.56460029388E+01 0.56268162767E+01 0.56057219862E+01 0.55866076688E+01 0.55716337519E+01
 0.55620552173E+01 0.55587354757E+01 0.55620552173E+01 0.55716337519E+01 0.55866076688E+01
 0.56057219862E+01 0.56268162767E+01 0.56460029388E+01 0.56601971400E+01 0.56701374302E+01
 0.56742111004E+01 0.56701374302E+01 0.56601971400E+01 0.56460029388E+01 0.56268162767E+01
 0.56057219862E+01 0.55866076688E+01 0.55716337519E+01 0.55620552173E+01 0.56102398957E+01
 0.56132795719E+01 0.56216082152E+01 0.56342240170E+01 0.56484814551E+01 0.56628021637E+01
 0.56760968867E+01 0.56880756619E+01 0.56935249123E+01 0.56934204431E+01 0.56871259715E+01
 0.56742855609E+01 0.56581819043E+01 0.56369891082E+01 0.56141370590E+01 0.55929466605E+01
 0.55764212882E+01 0.55656605012E+01 0.55620552173E+01 0.55656605012E+01 0.55764212882E+01
 0.55929466605E+01 0.56141370590E+01 0.56369891082E+01 0.56581819043E+01 0.56742855609E+01
 0.56871259715E+01 0.56934204431E+01 0.56935249123E+01 0.56880756619E+01 0.56760968867E+01
 0.56628021637E+01 0.56484814551E+01 0.56342240170E+01 0.56216082152E+01 0.56132795719E+01
 0.57760914903E+01 0.57764964008E+01 0.57776157744E+01 0.57791863541E+01 0.57811669871E+01
 0.57827144231E+01 0.57814369311E+01 0.57754929783E+01 0.57672857710E+01 0.57555445596E+01
 0.57387112148E+01 0.57175130371E+01 0.56939097090E+01 0.56669516312E+01 0.56380527079E+01
 0.56114467815E+01 0.55901131394E+01 0.55764212882E+01 0.55716337519E+01 0.55764212882E+01
 0.55901131394E+01 0.56114467815E+01 0.56380527079E+01 0.56669516312E+01 0.56939097090E+01
 0.57175130371E+01 0.57387112148E+01 0.57555445596E+01 0.57672857710E+01 0.57754929783E+01
 0.57814369311E+01 0.57827144231E+01 0.57811669871E+01 0.57791863541E+01 0.57776157744E+01
 0.57764964008E+01 0.60957457975E+01 0.60926455080E+01 0.60830490355E+01 0.60667910378E+01
 0.60430722303E+01 0.60127740918E+01 0.59787327714E+01 0.59441075095E+01 0.59064892604E+01
 0.58680553419E+01 0.58305466102E+01 0.57910593750E+01 0.57525963867E+01 0.57140224182E+01
 0.56754440106E+01 0.56398953341E+01 0.56114467815E+01 0.55929466605E+01 0.55866076688E+01
 0.55929466605E+01 0.56114467815E+01 0.56398953341E+01 0.56754440106E+01 0.57140224182E+01
 0.57525963867E+01 0.57910593750E+01 0.58305466102E+01 0.58680553419E+01 0.59064892604E+01
 0.59441075095E+01 0.59787327714E+01 0.60127740918E+01 0.60430722303E+01 0.60667910378E+01
 0.60830490355E+01 0.60926455080E+01 0.66165234387E+01 0.66068652370E+01 0.65783791977E+01
 0.65316661216E+01 0.64698057263E+01 0.63955442857E+01 0.63113221886E+01 0.62199466743E+01
 0.61313341796E+01 0.60474072294E+01 0.59697835866E+01 0.58990422289E+01 0.58339188795E+01
 0.57758139126E+01 0.57223525217E+01 0.56754440106E+01 0.56380527079E+01 0.56141370590E+01
 0.56057219862E+01 0.56141370590E+01 0.56380527079E+01 0.56754440106E+01 0.57223525217E+01
 0.57758139126E+01 0.58339188795E+01 0.58990422289E+01 0.59697835866E+01 0.60474072294E+01
 0.61313341796E+01 0.62199466743E+01 0.63113221886E+01 0.63955442857E+01 0.64698057263E+01
 0.65316661216E+01 0.65783791977E+01 0.66068652370E+01 0.73665221309E+01 0.73512334232E+01
 0.73049050664E+01 0.72266862707E+01 0.71144097484E+01 0.69711534023E+01 0.68080061946E+01
 0.66391343305E+01 0.64698031422E+01 0.63106230986E+01 0.61692304605E+01 0.60462494462E+01
 0.59404077630E+01 0.58505952377E+01 0.57758139126E+01 0.57140224182E+01 0.56669516312E+01
 0.56369891082E+01 0.56268162767E+01 0.56369891082E+01 0.56669516312E+01 0.57140224182E+01
 0.57758139126E+01 0.58505952377E+01 0.59404077630E+01 0.60462494462E+01 0.61692304605E+01
 0.63106230986E+01 0.64698031422E+01 0.66391343305E+01 0.68080061946E+01 0.69711534023E+01
 0.71144097484E+01 0.72266862707E+01 0.73049050664E+01 0.73512334232E+01 0.84673191630E+01
 0.84285017755E+01 0.83202778757E+01 0.81615281169E+01 0.79716017481E+01 0.77556404790E+01
 0.75059137133E+01 0.72255592313E+01 0.69436747357E+01 0.66790010656E+01 0.64414507395E+01
 0.62405330451E+01 0.60747538883E+01 0.59404077630E+01 0.58339188795E+01 0.57525963867E+01
 0.56939097090E+01 0.56581819043E+01 0.56460029388E+01 0.56581819043E+01 0.56939097090E+01
 0.57525963867E+01 0.58339188795E+01 0.59404077630E+01 0.60747538883E+01 0.62405330451E+01
 0.64414507395E+01 0.66790010656E+01 0.69436747357E+01 0.72255592313E+01 0.75059137133E+01
 0.77556404790E+01 0.79716017481E+01 0.81615281169E+01 0.83202778757E+01 0.84285017755E+01
 0.10805888894E+02 0.10688855387E+02 0.10359735067E+02 0.98822635475E+01 0.93451410378E+01
 0.88340872613E+01 0.83890745551E+01 0.79829150525E+01 0.75679678166E+01 0.71620038932E+01
 0.67989961377E+01 0.64895520450E+01 0.62405330451E+01 0.60462494462E+01 0.58990422289E+01
 0.57910593750E+01 0.57175130371E+01 0.56742855609E+01 0.56601971400E+01 0.56742855609E+01
 0.57175130371E+01 0.57910593750E+01 0.58990422289E+01 0.60462494462E+01 0.62405330451E+01
 0.64895520450E+01 0.67989961377E+01 0.71620038932E+01 0.75679678166E+01 0.79829150525E+01
 0.83890745551E+01 0.88340872613E+01 0.93451410378E+01 0.98822635475E+01 0.10359735067E+02
 0.10688855387E+02 0.15671508069E+02 0.15407445456E+02 0.14655315751E+02 0.13529792570E+02
 0.12209016334E+02 0.10899237142E+02 0.97822781469E+01 0.89431599758E+01 0.83184050289E+01
 0.77610101953E+01 0.72415684589E+01 0.67989961377E+01 0.64414507395E+01 0.61692304605E+01
 0.59697835866E+01 0.58305466102E+01 0.57387112148E+01 0.56871259715E+01 0.56701374302E+01
 0.56871259715E+01 0.57387112148E+01 0.58305466102E+01 0.59697835866E+01 0.61692304605E+01
 0.64414507395E+01 0.67989961377E+01 0.72415684589E+01 0.77610101953E+01 0.83184050289E+01
 0.89431599758E+01 0.97822781469E+01 0.10899237142E+02 0.12209016334E+02 0.13529792570E+02
 0.14655315751E+02 0.15407445456E+02 0.24219236764E+02 0.23728641237E+02 0.22317333064E+02
 0.20167570523E+02 0.17569177862E+02 0.14882850962E+02 0.12464190672E+02 0.10571571500E+02
 0.92824807750E+01 0.84406469779E+01 0.77610101953E+01 0.71620038932E+01 0.66790010656E+01
 0.63106230986E+01 0.60474072294E+01 0.58680553419E+01 0.57555445596E+01 0.56934204431E+01
 0.56742111004E+01 0.56934204431E+01 0.57555445596E+01 0.58680553419E+01 0.60474072294E+01
 0.63106230986E+01 0.66790010656E+01 0.71620038932E+01 0.77610101953E+01 0.84406469779E+01
 0.92824807750E+01 0.10571571500E+02 0.12464190672E+02 0.14882850962E+02 0.17569177862E+02
 0.20167570523E+02 0.22317333064E+02 0.23728641237E+02 0.37281941907E+02 0.36474304792E+02
 0.34140745329E+02 0.30549981975E+02 0.26134555723E+02 0.21446819023E+02 0.17063614350E+02
 0.13461349438E+02 0.10882762560E+02 0.92824807750E+01 0.83184050289E+01 0.75679678166E+01
 0.69436747357E+01 0.64698031422E+01 0.61313341796E+01 0.59064892604E+01 0.57672857710E+01
 0.56935249123E+01 0.56701374302E+01 0.56935249123E+01 0.57672857710E+01 0.59064892604E+01
 0.61313341796E+01 0.64698031422E+01 0.69436747357E+01 0.75679678166E+01 0.83184050289E+01
 0.92824807750E+01 0.10882762560E+02 0.13461349438E+02 0.17063614350E+02 0.21446819023E+02
 0.26134555723E+02 0.30549981975E+02 0.34140745329E+02 0.36474304792E+02 0.55117989842E+02
 0.53893868822E+02 0.50355366413E+02 0.44888345383E+02 0.38116492291E+02 0.30824267245E+02
 0.23849527407E+02 0.17909317023E+02 0.13461349438E+02 0.10571571500E+02 0.89431599758E+01
 0.79829150525E+01 0.72255592313E+01 0.66391343305E+01 0.62199466743E+01 0.59441075095E+01
 0.57754929783E+01 0.56880756619E+01 0.56601971400E+01 0.56880756619E+01 0.57754929783E+01
 0.59441075095E+01 0.62199466743E+01 0.66391343305E+01 0.72255592313E+01 0.79829150525E+01
 0.89431599758E+01 0.10571571500E+02 0.13461349438E+02 0.17909317023E+02 0.23849527407E+02
 0.30824267245E+02 0.38116492291E+02 0.44888345383E+02 0.50355366413E+02 0.53893868822E+02
 0.77262979725E+02 0.75524839413E+02 0.70498138416E+02 0.62740021078E+02 0.53113326362E+02
 0.42695054431E+02 0.32610177172E+02 0.23849527407E+02 0.17063614350E+02 0.12464190672E+02
 0.97822781469E+01 0.83890745551E+01 0.75059137133E+01 0.68080061946E+01 0.63113221886E+01
 0.59787327714E+01 0.57814369311E+01 0.56760968867E+01 0.56460029388E+01 0.56760968867E+01
 0.57814369311E+01 0.59787327714E+01 0.63113221886E+01 0.68080061946E+01 0.75059137133E+01
 0.83890745551E+01 0.97822781469E+01 0.12464190672E+02 0.17063614350E+02 0.23849527407E+02
 0.32610177172E+02 0.42695054431E+02 0.53113326362E+02 0.62740021078E+02 0.70498138416E+02
 0.75524839413E+02 0.10244916484E+03 0.10010961871E+03 0.93358132292E+02 0.82969059148E+02
 0.70114382500E+02 0.56209302265E+02 0.42695054431E+02 0.30824267245E+02 0.21446819023E+02
 0.14882850962E+02 0.10899237142E+02 0.88340872613E+01 0.77556404790E+01 0.69711534023E+01
 0.63955442857E+01 0.60127740918E+01 0.57827144231E+01 0.56628021637E+01 0.56268162767E+01
 0.56628021637E+01 0.57827144231E+01 0.60127740918E+01 0.63955442857E+01 0.69711534023E+01
 0.77556404790E+01 0.88340872613E+01 0.10899237142E+02 0.14882850962E+02 0.21446819023E+02
 0.30824267245E+02 0.42695054431E+02 0.56209302265E+02 0.70114382500E+02 0.82969059148E+02
 0.93358132292E+02 0.10010961871E+03 0.12865526524E+03 0.12566493522E+03 0.11705904584E+03
 0.10386829439E+03 0.87624304078E+02 0.70114382500E+02 0.53113326362E+02 0.38116492291E+02
 0.26134555723E+02 0.17569177862E+02 0.12209016334E+02 0.93451410378E+01 0.79716017481E+01
 0.71144097484E+01 0.64698057263E+01 0.60430722303E+01 0.57811669871E+01 0.56484814551E+01
 0.56057219862E+01 0.56484814551E+01 0.57811669871E+01 0.60430722303E+01 0.64698057263E+01
 0.71144097484E+01 0.79716017481E+01 0.93451410378E+01 0.12209016334E+02 0.17569177862E+02
 0.26134555723E+02 0.38116492291E+02 0.53113326362E+02 0.70114382500E+02 0.87624304078E+02
 0.10386829439E+03 0.11705904584E+03 0.12566493522E+03 0.15329303600E+03 0.14966501661E+03
 0.13924934366E+03 0.12334896625E+03 0.10386829439E+03 0.82969059148E+02 0.62740021078E+02
 0.44888345383E+02 0.30549981975E+02 0.20167570523E+02 0.13529792570E+02 0.98822635475E+01
 0.81615281169E+01 0.72266862707E+01 0.65316661216E+01 0.60667910378E+01 0.57791863541E+01
 0.56342240170E+01 0.55866076688E+01 0.56342240170E+01 0.57791863541E+01 0.60667910378E+01
 0.65316661216E+01 0.72266862707E+01 0.81615281169E+01 0.98822635475E+01 0.13529792570E+02
 0.20167570523E+02 0.30549981975E+02 0.44888345383E+02 0.62740021078E+02 0.82969059148E+02
 0.10386829439E+03 0.12334896625E+03 0.13924934366E+03 0.14966501661E+03 0.17356539554E+03
 0.16939384301E+03 0.15743862843E+03 0.13924934366E+03 0.11705904584E+03 0.93358132292E+02
 0.70498138416E+02 0.50355366413E+02 0.34140745329E+02 0.22317333064E+02 0.14655315751E+02
 0.10359735067E+02 0.83202778757E+01 0.73049050664E+01 0.65783791977E+01 0.60830490355E+01
 0.57776157744E+01 0.56216082152E+01 0.55716337519E+01 0.56216082152E+01 0.57776157744E+01
 0.60830490355E+01 0.65783791977E+01 0.73049050664E+01 0.83202778757E+01 0.10359735067E+02
 0.14655315751E+02 0.22317333064E+02 0.34140745329E+02 0.50355366413E+02 0.70498138416E+02
 0.93358132292E+02 0.11705904584E+03 0.13924934366E+03 0.15743862843E+03 0.16939384301E+03
 0.18692885841E+03 0.18238925097E+03 0.16939384301E+03 0.14966501661E+03 0.12566493522E+03
 0.10010961871E+03 0.75524839413E+02 0.53893868822E+02 0.36474304792E+02 0.23728641237E+02
 0.15407445456E+02 0.10688855387E+02 0.84285017755E+01 0.73512334232E+01 0.66068652370E+01
 0.60926455080E+01 0.57764964008E+01 0.56132795719E+01 0.55620552173E+01 0.56132795719E+01
 0.57764964008E+01 0.60926455080E+01 0.66068652370E+01 0.73512334232E+01 0.84285017755E+01
 0.10688855387E+02 0.15407445456E+02 0.23728641237E+02 0.36474304792E+02 0.53893868822E+02
 0.75524839413E+02 0.10010961871E+03 0.12566493522E+03 0.14966501661E+03 0.16939384301E+03
 0.18238925097E+03 0.18692885841E+03 0.18238925097E+03 0.16939384301E+03 0.14966501661E+03
 0.12566493522E+03 0.10010961871E+03 0.75524839413E+02 0.53893868822E+02 0.36474304792E+02
 0.23728641237E+02 0.15407445456E+02 0.10688855387E+02 0.84285017755E+01 0.73512334232E+01
 0.66068652370E+01 0.60926455080E+01 0.57764964008E+01 0.56132795719E+01 0.55620552173E+01
 0.56132795719E+01 0.57764964008E+01 0.60926455080E+01 0.66068652370E+01 0.73512334232E+01
 0.84285017755E+01 0.10688855387E+02 0.15407445456E+02 0.23728641237E+02 0.36474304792E+02
 0.53893868822E+02 0.75524839413E+02 0.10010961871E+03 0.12566493522E+03 0.14966501661E+03
 0.16939384301E+03 0.18238925097E+03 0.18238925097E+03 0.17797527499E+03 0.16533515906E+03
 0.14613166608E+03 0.12274892137E+03 0.97824816166E+02 0.73824935214E+02 0.52695960451E+02
 0.35684464332E+02 0.23249850726E+02 0.15151138119E+02 0.10576465599E+02 0.83916886766E+01
 0.73365026374E+01 0.65978531457E+01 0.60900076951E+01 0.57772792827E+01 0.56165839609E+01
 0.55656605012E+01 0.56165839609E+01 0.57772792827E+01 0.60900076951E+01 0.65978531457E+01
 0.73365026374E+01 0.83916886766E+01 0.10576465599E+02 0.15151138119E+02 0.23249850726E+02
 0.35684464332E+02 0.52695960451E+02 0.73824935214E+02 0.97824816166E+02 0.12274892137E+03
 0.14613166608E+03 0.16533515906E+03 0.17797527499E+03 0.16939384301E+03 0.16533515906E+03
 0.15369947034E+03 0.13598440976E+03 0.11435417696E+03 0.91230239541E+02 0.68909250753E+02
 0.49234013435E+02 0.33403033184E+02 0.21873412607E+02 0.14421751394E+02 0.10260576526E+02
 0.82892333531E+01 0.72917401105E+01 0.65709553124E+01 0.60817476144E+01 0.57797327001E+01
 0.56260265063E+01 0.55764212882E+01 0.56260265063E+01 0.57797327001E+01 0.60817476144E+01
 0.65709553124E+01 0.72917401105E+01 0.82892333531E+01 0.10260576526E+02 0.14421751394E+02
 0.21873412607E+02 0.33403033184E+02 0.49234013435E+02 0.68909250753E+02 0.91230239541E+02
 0.11435417696E+03 0.13598440976E+03 0.15369947034E+03 0.16533515906E+03 0.14966501661E+03
 0.14613166608E+03 0.13598440976E+03 0.12048510232E+03 0.10148201984E+03 0.81080495949E+02
 0.61322813996E+02 0.43887956852E+02 0.29895286245E+02 0.19779291209E+02 0.13331942208E+02
 0.98031597956E+01 0.81380286435E+01 0.72156698710E+01 0.65269756772E+01 0.60674151167E+01
 0.57831772607E+01 0.56399932995E+01 0.55929466605E+01 0.56399932995E+01 0.57831772607E+01
 0.60674151167E+01 0.65269756772E+01 0.72156698710E+01 0.81380286435E+01 0.98031597956E+01
 0.13331942208E+02 0.19779291209E+02 0.29895286245E+02 0.43887956852E+02 0.61322813996E+02
 0.81080495949E+02 0.10148201984E+03 0.12048510232E+03 0.13598440976E+03 0.14613166608E+03
 0.12566493522E+03 0.12274892137E+03 0.11435417696E+03 0.10148201984E+03 0.85622026484E+02
 0.68519514047E+02 0.51912226317E+02 0.37271312115E+02 0.25586981877E+02 0.17253091699E+02
 0.12055948831E+02 0.92895718714E+01 0.79554573604E+01 0.71060518603E+01 0.64683192029E+01
 0.60460678067E+01 0.57875595334E+01 0.56561219174E+01 0.56141370590E+01 0.56561219174E+01
 0.57875595334E+01 0.60460678067E+01 0.64683192029E+01 0.71060518603E+01 0.79554573604E+01
 0.92895718714E+01 0.12055948831E+02 0.17253091699E+02 0.25586981877E+02 0.37271312115E+02
 0.51912226317E+02 0.68519514047E+02 0.85622026484E+02 0.10148201984E+03 0.11435417696E+03
 0.12274892137E+03 0.10010961871E+03 0.97824816166E+02 0.91230239541E+02 0.81080495949E+02
 0.68519514047E+02 0.54932660571E+02 0.41734582711E+02 0.30154231547E+02 0.21021329348E+02
 0.14648061004E+02 0.10794225408E+02 0.88009100462E+01 0.77446818675E+01 0.69664722859E+01
 0.63974748629E+01 0.60185683162E+01 0.57912808415E+01 0.56723819964E+01 0.56369891082E+01
 0.56723819964E+01 0.57912808415E+01 0.60185683162E+01 0.63974748629E+01 0.69664722859E+01
 0.77446818675E+01 0.88009100462E+01 0.10794225408E+02 0.14648061004E+02 0.21021329348E+02
 0.30154231547E+02 0.41734582711E+02 0.54932660571E+02 0.68519514047E+02 0.81080495949E+02
 0.91230239541E+02 0.97824816166E+02 0.75524839413E+02 0.73824935214E+02 0.68909250753E+02
 0.61322813996E+02 0.51912226317E+02 0.41734582711E+02 0.31893746560E+02 0.23357664011E+02
 0.16763575343E+02 0.12309615998E+02 0.97217257595E+01 0.83718437631E+01 0.74987176086E+01
 0.68077493374E+01 0.63163377207E+01 0.59875932413E+01 0.57922943163E+01 0.56881259242E+01
 0.56581819043E+01 0.56881259242E+01 0.57922943163E+01 0.59875932413E+01 0.63163377207E+01
 0.68077493374E+01 0.74987176086E+01 0.83718437631E+01 0.97217257595E+01 0.12309615998E+02
 0.16763575343E+02 0.23357664011E+02 0.31893746560E+02 0.41734582711E+02 0.51912226317E+02
 0.61322813996E+02 0.68909250753E+02 0.73824935214E+02 0.53893868822E+02 0.52695960451E+02
 0.49234013435E+02 0.43887956852E+02 0.37271312115E+02 0.30154231547E+02 0.23357664011E+02
 0.17584192028E+02 0.13275648967E+02 0.10486037833E+02 0.89154446098E+01 0.79735260197E+01
 0.72228396525E+01 0.66432134056E+01 0.62286104900E+01 0.59558045557E+01 0.57886352630E+01
 0.57020429971E+01 0.56742855609E+01 0.57020429971E+01 0.57886352630E+01 0.59558045557E+01
 0.62286104900E+01 0.66432134056E+01 0.72228396525E+01 0.79735260197E+01 0.89154446098E+01
 0.10486037833E+02 0.13275648967E+02 0.17584192028E+02 0.23357664011E+02 0.30154231547E+02
 0.37271312115E+02 0.43887956852E+02 0.49234013435E+02 0.52695960451E+02 0.36474304792E+02
 0.35684464332E+02 0.33403033184E+02 0.29895286245E+02 0.25586981877E+02 0.21021329348E+02
 0.16763575343E+02 0.13275648967E+02 0.10787233044E+02 0.92465102168E+01 0.83066172858E+01
 0.75634222817E+01 0.69464658375E+01 0.64779267160E+01 0.61434253891E+01 0.59210244939E+01
 0.57834178971E+01 0.57102391051E+01 0.56871259715E+01 0.57102391051E+01 0.57834178971E+01
 0.59210244939E+01 0.61434253891E+01 0.64779267160E+01 0.69464658375E+01 0.75634222817E+01
 0.83066172858E+01 0.92465102168E+01 0.10787233044E+02 0.13275648967E+02 0.16763575343E+02
 0.21021329348E+02 0.25586981877E+02 0.29895286245E+02 0.33403033184E+02 0.35684464332E+02
 0.23728641237E+02 0.23249850726E+02 0.21873412607E+02 0.19779291209E+02 0.17253091699E+02
 0.14648061004E+02 0.12309615998E+02 0.10486037833E+02 0.92465102168E+01 0.84277148225E+01