   2   2   1   0
  0.1173411E+02  0.2863036E-09  0.2863036E-09  0.2863036E-09  0.5000000E-15
  1.000000000000000E-004
  CAR 
 unknown system                          
     47.32962989     -4.97012276  301      5.86928797      1.00000000
     -4.970  0.0000E+00  0.0000E+00  0.0000E+00  0.0000E+00
     -4.796  0.0000E+00  0.0000E+00  0.0000E+00  0.0000E+00
     -4.621  0.0000E+00  0.0000E+00  0.0000E+00  0.0000E+00
     -4.447  0.0000E+00  0.0000E+00  0.0000E+00  0.0000E+00
     -4.273 -0.1131E-34  0.0000E+00 -0.1972E-35  0.0000E+00
     -4.098 -0.1087E-28 -0.1538E-34 -0.1895E-29 -0.2681E-35
     -3.924 -0.2257E-23 -0.1430E-28 -0.3934E-24 -0.2494E-29
     -3.750 -0.9765E-19 -0.2875E-23 -0.1702E-19 -0.5012E-24
     -3.575 -0.9392E-15 -0.1212E-18 -0.1638E-15 -0.2113E-19
     -3.401 -0.1937E-11 -0.1120E-14 -0.3379E-12 -0.1954E-15
     -3.227 -0.8720E-09 -0.2236E-11 -0.1524E-09 -0.3900E-12
     -3.052 -0.8819E-07 -0.9734E-09 -0.1553E-07 -0.1701E-09
     -2.878 -0.2024E-05 -0.9521E-07 -0.3684E-06 -0.1677E-07
     -2.704 -0.6327E-05 -0.2110E-05 -0.1471E-05 -0.3846E-06
     -2.529  0.6200E-04 -0.6103E-05  0.9337E-05 -0.1449E-05
     -2.355  0.2495E-03  0.6473E-04  0.5283E-04  0.9837E-05
     -2.181  0.3387E-03  0.2513E-03  0.1119E-03  0.5365E-04
     -2.006  0.5822E-03  0.3356E-03  0.2134E-03  0.1122E-03
     -1.832  0.5051E-03  0.5792E-03  0.3014E-03  0.2131E-03
     -1.658  0.6054E-03  0.4988E-03  0.4070E-03  0.3001E-03
     -1.483  0.8745E-03  0.5819E-03  0.5594E-03  0.4015E-03
     -1.309  0.7912E-03  0.8645E-03  0.6974E-03  0.5522E-03
     -1.135  0.9249E-03  0.7511E-03  0.8586E-03  0.6832E-03
     -0.960  0.7531E-03  0.9231E-03  0.9899E-03  0.8441E-03
     -0.786  0.1310E-02  0.6882E-03  0.1218E-02  0.9641E-03
     -0.612  0.1345E-02  0.1169E-02  0.1453E-02  0.1168E-02
     -0.437  0.1095E-02  0.1290E-02  0.1644E-02  0.1393E-02
     -0.263  0.1161E-02  0.1169E-02  0.1846E-02  0.1596E-02
     -0.089  0.1728E-02  0.8249E-03  0.2147E-02  0.1740E-02
      0.086  0.1902E-02  0.1449E-02  0.2479E-02  0.1993E-02
      0.260  0.1924E-02  0.1641E-02  0.2814E-02  0.2279E-02
      0.434  0.1822E-02  0.1697E-02  0.3132E-02  0.2575E-02
      0.609  0.2485E-02  0.1372E-02  0.3565E-02  0.2814E-02
      0.783  0.3298E-02  0.1726E-02  0.4140E-02  0.3115E-02
      0.957  0.5936E-02  0.1740E-02  0.5175E-02  0.3418E-02
      1.132  0.8929E-02  0.2164E-02  0.6731E-02  0.3795E-02
      1.306  0.1205E-01  0.2515E-02  0.8833E-02  0.4234E-02
      1.480  0.1402E-01  0.2544E-02  0.1128E-01  0.4677E-02
      1.655  0.1815E-01  0.2310E-02  0.1444E-01  0.5080E-02
      1.829  0.1752E-01  0.2910E-02  0.1749E-01  0.5587E-02
      2.003  0.1333E-01  0.4166E-02  0.1982E-01  0.6314E-02
      2.178  0.9656E-02  0.4986E-02  0.2150E-01  0.7183E-02
      2.352  0.8651E-02  0.6776E-02  0.2301E-01  0.8364E-02
      2.526  0.2301E-01  0.6515E-02  0.2702E-01  0.9500E-02
      2.701  0.2929E-01  0.7251E-02  0.3213E-01  0.1076E-01
      2.875  0.2236E-01  0.8302E-02  0.3602E-01  0.1221E-01
      3.049  0.2006E-01  0.9234E-02  0.3952E-01  0.1382E-01
      3.224  0.2481E-01  0.1262E-01  0.4385E-01  0.1602E-01
      3.398  0.2902E-01  0.1277E-01  0.4891E-01  0.1825E-01
      3.572  0.2253E-01  0.9505E-02  0.5283E-01  0.1991E-01
      3.747  0.1239E-01  0.7001E-02  0.5499E-01  0.2113E-01
      3.921  0.7952E-02  0.6182E-02  0.5638E-01  0.2220E-01
      4.095  0.8700E-02  0.1628E-01  0.5790E-01  0.2504E-01
      4.270  0.1040E-01  0.2553E-01  0.5971E-01  0.2949E-01
      4.444  0.1632E-01  0.2506E-01  0.6255E-01  0.3386E-01
      4.618  0.2712E-01  0.2352E-01  0.6728E-01  0.3796E-01
      4.792  0.3957E-01  0.2209E-01  0.7418E-01  0.4181E-01
      4.967  0.5064E-01  0.2382E-01  0.8301E-01  0.4596E-01
      5.141  0.3852E-01  0.2429E-01  0.8972E-01  0.5020E-01
      5.315  0.2070E-01  0.1903E-01  0.9333E-01  0.5352E-01
      5.490  0.1522E-01  0.1387E-01  0.9599E-01  0.5593E-01
      5.664  0.1604E-01  0.7297E-02  0.9878E-01  0.5721E-01
      5.838  0.1524E-01  0.4512E-02  0.1014E+00  0.5799E-01
      6.013  0.1264E-01  0.5296E-02  0.1036E+00  0.5892E-01
      6.187  0.9573E-02  0.5176E-02  0.1053E+00  0.5982E-01
      6.361  0.5095E-02  0.6599E-02  0.1062E+00  0.6097E-01
      6.536  0.2977E-02  0.8785E-02  0.1067E+00  0.6250E-01
      6.710  0.3186E-02  0.1268E-01  0.1073E+00  0.6471E-01
      6.884  0.2279E-02  0.1580E-01  0.1077E+00  0.6747E-01
      7.059  0.2036E-02  0.1866E-01  0.1080E+00  0.7072E-01
      7.233  0.3752E-02  0.2446E-01  0.1087E+00  0.7498E-01
      7.407  0.3267E-02  0.2684E-01  0.1093E+00  0.7966E-01
      7.582  0.2375E-02  0.2526E-01  0.1097E+00  0.8407E-01
      7.756  0.2747E-02  0.4143E-01  0.1101E+00  0.9129E-01
      7.930  0.3113E-02  0.4340E-01  0.1107E+00  0.9886E-01
      8.105  0.3271E-02  0.2206E-01  0.1113E+00  0.1027E+00
      8.279  0.2414E-02  0.1336E-01  0.1117E+00  0.1050E+00
      8.453  0.1108E-02  0.7075E-02  0.1119E+00  0.1063E+00
      8.628  0.2474E-02  0.5836E-02  0.1123E+00  0.1073E+00
      8.802  0.4043E-02  0.4076E-02  0.1130E+00  0.1080E+00
      8.976  0.2482E-02  0.3219E-02  0.1134E+00  0.1086E+00
      9.151  0.2022E-02  0.4075E-02  0.1138E+00  0.1093E+00
      9.325  0.2553E-02  0.3944E-02  0.1142E+00  0.1100E+00
      9.499  0.1858E-02  0.4047E-02  0.1146E+00  0.1107E+00
      9.674  0.2708E-02  0.3621E-02  0.1150E+00  0.1113E+00
      9.848  0.1945E-02  0.2339E-02  0.1154E+00  0.1117E+00
     10.022  0.1203E-02  0.2463E-02  0.1156E+00  0.1121E+00
     10.197  0.1574E-02  0.3698E-02  0.1159E+00  0.1128E+00
     10.371  0.2001E-02  0.3864E-02  0.1162E+00  0.1134E+00
     10.545  0.2714E-02  0.2843E-02  0.1167E+00  0.1139E+00
     10.720  0.2949E-02  0.2083E-02  0.1172E+00  0.1143E+00
     10.894  0.1682E-02  0.2192E-02  0.1175E+00  0.1147E+00
     11.068  0.5710E-03  0.3298E-02  0.1176E+00  0.1153E+00
     11.243  0.8787E-03  0.1892E-02  0.1177E+00  0.1156E+00
     11.417  0.1255E-02  0.1591E-02  0.1180E+00  0.1159E+00
     11.591  0.9970E-03  0.2501E-02  0.1181E+00  0.1163E+00
     11.766  0.1455E-02  0.2616E-02  0.1184E+00  0.1168E+00
     11.940  0.1582E-02  0.3032E-02  0.1187E+00  0.1173E+00
     12.114  0.1440E-02  0.1472E-02  0.1189E+00  0.1175E+00
     12.289  0.1059E-02  0.5476E-03  0.1191E+00  0.1176E+00
     12.463  0.5864E-03  0.1096E-02  0.1192E+00  0.1178E+00
     12.637  0.8770E-03  0.1532E-02  0.1194E+00  0.1181E+00
     12.812  0.6609E-03  0.1823E-02  0.1195E+00  0.1184E+00
     12.986  0.1307E-03  0.2004E-02  0.1195E+00  0.1188E+00
     13.160  0.1216E-03  0.1588E-02  0.1195E+00  0.1190E+00
     13.335  0.1745E-02  0.4858E-03  0.1198E+00  0.1191E+00
     13.509  0.3814E-02  0.6397E-03  0.1205E+00  0.1192E+00
     13.683  0.5741E-02  0.8019E-03  0.1215E+00  0.1194E+00
     13.858  0.5423E-02  0.4164E-03  0.1224E+00  0.1195E+00
     14.032  0.4713E-02  0.3107E-03  0.1232E+00  0.1195E+00
     14.206  0.4049E-02  0.5285E-03  0.1240E+00  0.1196E+00
     14.381  0.2394E-02  0.1103E-02  0.1244E+00  0.1198E+00
     14.555  0.3925E-02  0.1747E-02  0.1251E+00  0.1201E+00
     14.729  0.3581E-02  0.4195E-02  0.1257E+00  0.1208E+00
     14.904  0.3001E-02  0.5437E-02  0.1262E+00  0.1218E+00
     15.078  0.3017E-02  0.7277E-02  0.1267E+00  0.1230E+00
     15.252  0.4019E-02  0.5572E-02  0.1274E+00  0.1240E+00
     15.427  0.3015E-02  0.3071E-02  0.1280E+00  0.1245E+00
     15.601  0.1809E-02  0.3289E-02  0.1283E+00  0.1251E+00
     15.775  0.3377E-02  0.3858E-02  0.1289E+00  0.1258E+00
     15.950  0.5431E-02  0.4696E-02  0.1298E+00  0.1266E+00
     16.124  0.4594E-02  0.3646E-02  0.1306E+00  0.1272E+00
     16.298  0.3231E-02  0.3838E-02  0.1312E+00  0.1279E+00
     16.473  0.4028E-02  0.2951E-02  0.1319E+00  0.1284E+00
     16.647  0.4144E-02  0.3001E-02  0.1326E+00  0.1290E+00
     16.821  0.2891E-02  0.5407E-02  0.1331E+00  0.1299E+00
     16.996  0.3435E-02  0.4701E-02  0.1337E+00  0.1307E+00
     17.170  0.3433E-02  0.3587E-02  0.1343E+00  0.1313E+00
     17.344  0.3156E-02  0.5318E-02  0.1348E+00  0.1323E+00
     17.519  0.4458E-02  0.4380E-02  0.1356E+00  0.1330E+00
     17.693  0.6349E-02  0.2370E-02  0.1367E+00  0.1334E+00
     17.867  0.3530E-02  0.2822E-02  0.1373E+00  0.1339E+00
     18.042  0.2024E-02  0.3564E-02  0.1377E+00  0.1346E+00
     18.216  0.3183E-02  0.4264E-02  0.1383E+00  0.1353E+00
     18.390  0.2481E-02  0.5865E-02  0.1387E+00  0.1363E+00
     18.565  0.2673E-02  0.5503E-02  0.1392E+00  0.1373E+00
     18.739  0.4640E-02  0.2621E-02  0.1400E+00  0.1377E+00
     18.913  0.5510E-02  0.2288E-02  0.1409E+00  0.1381E+00
     19.088  0.3699E-02  0.3002E-02  0.1416E+00  0.1387E+00
     19.262  0.4041E-02  0.2700E-02  0.1423E+00  0.1391E+00
     19.436  0.4064E-02  0.4467E-02  0.1430E+00  0.1399E+00
     19.611  0.1191E-02  0.4998E-02  0.1432E+00  0.1408E+00
     19.785  0.1533E-02  0.4914E-02  0.1435E+00  0.1416E+00
     19.959  0.3788E-02  0.4327E-02  0.1441E+00  0.1424E+00
     20.134  0.4444E-02  0.3101E-02  0.1449E+00  0.1429E+00
     20.308  0.3604E-02  0.1751E-02  0.1455E+00  0.1432E+00
     20.482  0.5022E-02  0.2512E-02  0.1464E+00  0.1437E+00
     20.657  0.3809E-02  0.4151E-02  0.1471E+00  0.1444E+00
     20.831  0.2829E-02  0.3272E-02  0.1475E+00  0.1450E+00
     21.005  0.2611E-02  0.4332E-02  0.1480E+00  0.1457E+00
     21.180  0.2430E-02  0.5436E-02  0.1484E+00  0.1467E+00
     21.354  0.3499E-02  0.3416E-02  0.1490E+00  0.1473E+00
     21.528  0.2840E-02  0.3277E-02  0.1495E+00  0.1478E+00
     21.703  0.2308E-02  0.2301E-02  0.1499E+00  0.1482E+00
     21.877  0.5093E-02  0.2769E-02  0.1508E+00  0.1487E+00
     22.051  0.4931E-02  0.3732E-02  0.1517E+00  0.1494E+00
     22.226  0.3893E-02  0.2418E-02  0.1524E+00  0.1498E+00
     22.400  0.3681E-02  0.3586E-02  0.1530E+00  0.1504E+00
     22.574  0.3300E-02  0.5148E-02  0.1536E+00  0.1513E+00
     22.749  0.3439E-02  0.4400E-02  0.1542E+00  0.1521E+00
     22.923  0.3863E-02  0.3495E-02  0.1549E+00  0.1527E+00
     23.097  0.4946E-02  0.3040E-02  0.1557E+00  0.1532E+00
     23.272  0.3861E-02  0.3353E-02  0.1564E+00  0.1538E+00
     23.446  0.4736E-02  0.4273E-02  0.1572E+00  0.1546E+00
     23.620  0.5932E-02  0.4662E-02  0.1582E+00  0.1554E+00
     23.795  0.4689E-02  0.5174E-02  0.1591E+00  0.1563E+00
     23.969  0.5451E-02  0.5068E-02  0.1600E+00  0.1572E+00
     24.143  0.4934E-02  0.6580E-02  0.1609E+00  0.1583E+00
     24.318  0.3648E-02  0.5420E-02  0.1615E+00  0.1592E+00
     24.492  0.4830E-02  0.5014E-02  0.1624E+00  0.1601E+00
     24.666  0.5603E-02  0.4973E-02  0.1633E+00  0.1610E+00
     24.841  0.5322E-02  0.4507E-02  0.1643E+00  0.1618E+00
     25.015  0.4142E-02  0.5206E-02  0.1650E+00  0.1627E+00
     25.189  0.5819E-02  0.4471E-02  0.1660E+00  0.1635E+00
     25.364  0.5203E-02  0.5091E-02  0.1669E+00  0.1643E+00
     25.538  0.4214E-02  0.5783E-02  0.1676E+00  0.1654E+00
     25.712  0.6102E-02  0.5928E-02  0.1687E+00  0.1664E+00
     25.887  0.5228E-02  0.4926E-02  0.1696E+00  0.1672E+00
     26.061  0.4204E-02  0.4792E-02  0.1703E+00  0.1681E+00
     26.235  0.4741E-02  0.5247E-02  0.1712E+00  0.1690E+00
     26.410  0.6523E-02  0.5036E-02  0.1723E+00  0.1699E+00
     26.584  0.5015E-02  0.4810E-02  0.1732E+00  0.1707E+00
     26.758  0.4440E-02  0.5449E-02  0.1740E+00  0.1717E+00
     26.933  0.3870E-02  0.5525E-02  0.1746E+00  0.1726E+00
     27.107  0.3451E-02  0.5233E-02  0.1752E+00  0.1735E+00
     27.281  0.5566E-02  0.5088E-02  0.1762E+00  0.1744E+00
     27.456  0.5204E-02  0.3832E-02  0.1771E+00  0.1751E+00
     27.630  0.3073E-02  0.4534E-02  0.1776E+00  0.1759E+00
     27.804  0.2355E-02  0.4183E-02  0.1781E+00  0.1766E+00
     27.979  0.4431E-02  0.2906E-02  0.1788E+00  0.1771E+00
     28.153  0.4820E-02  0.3816E-02  0.1797E+00  0.1778E+00
     28.327  0.2775E-02  0.4213E-02  0.1802E+00  0.1785E+00
     28.502  0.2446E-02  0.4584E-02  0.1806E+00  0.1793E+00
     28.676  0.2584E-02  0.3472E-02  0.1810E+00  0.1799E+00
     28.850  0.2076E-02  0.3147E-02  0.1814E+00  0.1805E+00
     29.025  0.3485E-02  0.2531E-02  0.1820E+00  0.1809E+00
     29.199  0.3551E-02  0.1775E-02  0.1826E+00  0.1812E+00
     29.373  0.2900E-02  0.2525E-02  0.1831E+00  0.1817E+00
     29.548  0.3611E-02  0.3643E-02  0.1838E+00  0.1823E+00
     29.722  0.2972E-02  0.3607E-02  0.1843E+00  0.1829E+00
     29.896  0.3000E-02  0.3525E-02  0.1848E+00  0.1835E+00
     30.071  0.3067E-02  0.3695E-02  0.1853E+00  0.1842E+00
     30.245  0.2674E-02  0.2754E-02  0.1858E+00  0.1847E+00
     30.419  0.4534E-02  0.3280E-02  0.1866E+00  0.1852E+00
     30.594  0.6065E-02  0.4143E-02  0.1876E+00  0.1860E+00
     30.768  0.6128E-02  0.4574E-02  0.1887E+00  0.1868E+00
     30.942  0.7313E-02  0.5406E-02  0.1900E+00  0.1877E+00
     31.117  0.6362E-02  0.6329E-02  0.1911E+00  0.1888E+00
     31.291  0.5503E-02  0.5914E-02  0.1921E+00  0.1898E+00
     31.465  0.5978E-02  0.5431E-02  0.1931E+00  0.1908E+00
     31.640  0.2965E-02  0.5410E-02  0.1936E+00  0.1917E+00
     31.814  0.2418E-02  0.5781E-02  0.1940E+00  0.1927E+00
     31.988  0.3630E-02  0.4765E-02  0.1947E+00  0.1936E+00
     32.163  0.3139E-02  0.4485E-02  0.1952E+00  0.1943E+00
     32.337  0.3627E-02  0.3704E-02  0.1958E+00  0.1950E+00
     32.511  0.2108E-02  0.3002E-02  0.1962E+00  0.1955E+00
     32.686  0.2135E-03  0.2514E-02  0.1963E+00  0.1960E+00
     32.860  0.6365E-03  0.1121E-02  0.1964E+00  0.1961E+00
     33.034  0.1369E-02  0.4935E-03  0.1966E+00  0.1962E+00
     33.209  0.2043E-02  0.1595E-02  0.1970E+00  0.1965E+00
     33.383  0.1241E-02  0.2642E-02  0.1972E+00  0.1970E+00
     33.557  0.1822E-03  0.9067E-03  0.1972E+00  0.1971E+00
     33.732  0.7127E-03  0.1711E-03  0.1973E+00  0.1972E+00
     33.906  0.1240E-02  0.1174E-02  0.1975E+00  0.1974E+00
     34.080  0.1351E-02  0.1729E-02  0.1978E+00  0.1977E+00
     34.255  0.7984E-03  0.1255E-02  0.1979E+00  0.1979E+00
     34.429  0.6138E-03  0.6018E-03  0.1980E+00  0.1980E+00
     34.603  0.6880E-03  0.4332E-03  0.1981E+00  0.1981E+00
     34.778  0.1621E-03  0.5605E-03  0.1982E+00  0.1982E+00
     34.952  0.1922E-03  0.2801E-03  0.1982E+00  0.1982E+00
     35.126  0.4092E-03  0.2279E-03  0.1983E+00  0.1983E+00
     35.301  0.5214E-03  0.3143E-03  0.1984E+00  0.1983E+00
     35.475  0.9327E-03  0.9168E-03  0.1985E+00  0.1985E+00
     35.649  0.4583E-03  0.7258E-03  0.1986E+00  0.1986E+00
     35.824  0.1133E-03  0.1093E-03  0.1986E+00  0.1986E+00
     35.998  0.1606E-03  0.2490E-03  0.1987E+00  0.1987E+00
     36.172  0.8526E-03  0.9185E-03  0.1988E+00  0.1988E+00
     36.347  0.1087E-02  0.9912E-03  0.1990E+00  0.1990E+00
     36.521  0.4960E-03  0.5222E-03  0.1991E+00  0.1991E+00
     36.695  0.7414E-03  0.6815E-03  0.1992E+00  0.1992E+00
     36.870  0.1524E-03  0.2262E-03  0.1992E+00  0.1992E+00
     37.044 -0.3545E-04 -0.2697E-04  0.1992E+00  0.1992E+00
     37.218 -0.1760E-04 -0.1869E-04  0.1992E+00  0.1992E+00
     37.393  0.1446E-03  0.1682E-03  0.1993E+00  0.1993E+00
     37.567  0.3179E-03  0.3124E-03  0.1993E+00  0.1993E+00
     37.741  0.3891E-04  0.2085E-04  0.1993E+00  0.1993E+00
     37.916  0.3249E-03  0.1685E-03  0.1994E+00  0.1993E+00
     38.090  0.6304E-03  0.6350E-03  0.1995E+00  0.1995E+00
     38.264  0.9260E-04  0.2453E-03  0.1995E+00  0.1995E+00
     38.439 -0.4437E-04 -0.5232E-04  0.1995E+00  0.1995E+00
     38.613  0.2644E-04  0.1027E-03  0.1995E+00  0.1995E+00
     38.787  0.5374E-03  0.6417E-03  0.1996E+00  0.1996E+00
     38.962  0.4939E-03  0.5422E-03  0.1997E+00  0.1997E+00
     39.136  0.3780E-03  0.3707E-03  0.1997E+00  0.1998E+00
     39.310  0.3293E-03  0.1334E-03  0.1998E+00  0.1998E+00
     39.485  0.2097E-04 -0.6410E-05  0.1998E+00  0.1998E+00
     39.659 -0.1153E-04 -0.4508E-05  0.1998E+00  0.1998E+00
     39.833 -0.8132E-06 -0.2201E-06  0.1998E+00  0.1998E+00
     40.008 -0.1603E-05 -0.2075E-05  0.1998E+00  0.1998E+00
     40.182 -0.1012E-04 -0.9706E-05  0.1998E+00  0.1998E+00
     40.356  0.7460E-04  0.9177E-04  0.1998E+00  0.1998E+00
     40.531  0.2223E-03  0.2188E-03  0.1999E+00  0.1999E+00
     40.705  0.5948E-04  0.3999E-04  0.1999E+00  0.1999E+00
     40.879 -0.2324E-04 -0.1507E-04  0.1999E+00  0.1999E+00
     41.054  0.5168E-04  0.2139E-03  0.1999E+00  0.1999E+00
     41.228  0.3204E-03  0.2879E-03  0.1999E+00  0.1999E+00
     41.402  0.1598E-03  0.2149E-04  0.2000E+00  0.2000E+00
     41.577 -0.1364E-04 -0.1372E-04  0.1999E+00  0.1999E+00
     41.751 -0.9963E-05 -0.1342E-05  0.1999E+00  0.1999E+00
     41.925  0.2038E-04  0.1160E-03  0.2000E+00  0.2000E+00
     42.100  0.1556E-03  0.1371E-03  0.2000E+00  0.2000E+00
     42.274  0.8934E-04  0.6942E-05  0.2000E+00  0.2000E+00
     42.448 -0.5678E-05 -0.4657E-05  0.2000E+00  0.2000E+00
     42.623 -0.2245E-05 -0.2295E-06  0.2000E+00  0.2000E+00
     42.797 -0.5910E-07 -0.1822E-08  0.2000E+00  0.2000E+00
     42.971 -0.2766E-09 -0.2835E-11  0.2000E+00  0.2000E+00
     43.146 -0.2595E-12 -0.9109E-15  0.2000E+00  0.2000E+00
     43.320 -0.5074E-16 -0.5570E-19  0.2000E+00  0.2000E+00
     43.494 -0.7121E-27 -0.1737E-20  0.2000E+00  0.2000E+00
     43.669 -0.9701E-22 -0.3255E-16  0.2000E+00  0.2000E+00
     43.843 -0.2748E-17 -0.1325E-12  0.2000E+00  0.2000E+00
     44.017 -0.1693E-13 -0.1120E-09  0.2000E+00  0.2000E+00
     44.192 -0.2179E-10 -0.1879E-07  0.2000E+00  0.2000E+00
     44.366 -0.5662E-08 -0.5396E-06  0.2000E+00  0.2000E+00
     44.540 -0.2681E-06 -0.2798E-06  0.2000E+00  0.2000E+00
     44.715 -0.1200E-05  0.1874E-04  0.2000E+00  0.2000E+00
     44.889  0.1176E-04  0.2334E-04  0.2000E+00  0.2000E+00
     45.063  0.2728E-04  0.1417E-05  0.2000E+00  0.2000E+00
     45.238  0.5524E-05 -0.8108E-06  0.2000E+00  0.2000E+00
     45.412 -0.1173E-05 -0.4199E-07  0.2000E+00  0.2000E+00
     45.586 -0.1123E-06 -0.3469E-09  0.2000E+00  0.2000E+00
     45.761 -0.1462E-08 -0.5603E-12  0.2000E+00  0.2000E+00
     45.935 -0.3616E-11 -0.1868E-15  0.2000E+00  0.2000E+00
     46.109 -0.1829E-14 -0.9283E-20  0.2000E+00  0.2000E+00
     46.284 -0.1950E-18  0.0000E+00  0.2000E+00  0.2000E+00
     46.458  0.0000E+00  0.0000E+00  0.2000E+00  0.2000E+00
     46.632  0.0000E+00  0.0000E+00  0.2000E+00  0.2000E+00
     46.807  0.0000E+00  0.0000E+00  0.2000E+00  0.2000E+00
     46.981  0.0000E+00  0.0000E+00  0.2000E+00  0.2000E+00
     47.155  0.0000E+00  0.0000E+00  0.2000E+00  0.2000E+00
     47.330  0.0000E+00  0.0000E+00  0.2000E+00  0.2000E+00
     47.32962989     -4.97012276  301      5.86928797      1.00000000
     -4.970  0.0000E+00  0.0000E+00  0.0000E+00  0.0000E+00  0.0000E+00  0.0000E+00  0.0000E+00  0.0000E+00  0.0000E+00  0.0000E+00  0.0000E+00  0.0000E+00  0.0000E+00  0.0000E+00  0.0000E+00  0.0000E+00  0.0000E+00  0.0000E+00
     -4.796  0.0000E+00  0.0000E+00  0.0000E+00  0.0000E+00  0.0000E+00  0.0000E+00  0.0000E+00  0.0000E+00  0.0000E+00  0.0000E+00  0.0000E+00  0.0000E+00  0.0000E+00  0.0000E+00  0.0000E+00  0.0000E+00  0.0000E+00  0.0000E+00
     -4.621  0.0000E+00  0.0000E+00  0.0000E+00  0.0000E+00  0.0000E+00  0.0000E+00  0.0000E+00  0.0000E+00  0.0000E+00  0.0000E+00  0.0000E+00  0.0000E+00  0.0000E+00  0.0000E+00  0.0000E+00  0.0000E+00  0.0000E+00  0.0000E+00
     -4.447  0.0000E+00  0.0000E+00  0.0000E+00  0.0000E+00  0.0000E+00  0.0000E+00  0.0000E+00  0.0000E+00  0.0000E+00  0.0000E+00  0.0000E+00  0.0000E+00  0.0000E+00  0.0000E+00  0.0000E+00  0.0000E+00  0.0000E+00  0.0000E+00
     -4.273 -0.4159E-33  0.0000E+00 -0.1467E-63  0.0000E+00 -0.1467E-63  0.0000E+00 -0.1467E-63  0.0000E+00 -0.4798E-46  0.0000E+00 -0.4798E-46  0.0000E+00 -0.4895E-49  0.0000E+00 -0.4798E-46  0.0000E+00 -0.4895E-49  0.0000E+00
     -4.098 -0.3996E-27 -0.5651E-33 -0.2217E-32  0.0000E+00 -0.2217E-32  0.0000E+00 -0.2217E-32  0.0000E+00 -0.2535E-37 -0.3401E-45 -0.2535E-37 -0.3401E-45 -0.2825E-34 -0.6972E-46 -0.2535E-37 -0.3401E-45 -0.2825E-34 -0.6974E-46
     -3.924 -0.8295E-22 -0.5257E-27 -0.1172E-26 -0.2879E-32 -0.1172E-26 -0.2879E-32 -0.1172E-26 -0.2879E-32 -0.3376E-31 -0.2296E-37 -0.3376E-31 -0.2296E-37 -0.1493E-28 -0.2577E-34 -0.3376E-31 -0.2296E-37 -0.1493E-28 -0.2577E-34
     -3.750 -0.3589E-17 -0.1056E-21 -0.1337E-21 -0.1479E-26 -0.1337E-21 -0.1479E-26 -0.1337E-21 -0.1479E-26 -0.9730E-26 -0.2959E-31 -0.9730E-26 -0.2959E-31 -0.1701E-23 -0.1324E-28 -0.9730E-26 -0.2959E-31 -0.1701E-23 -0.1324E-28
     -3.575 -0.3452E-13 -0.4455E-17 -0.3179E-17 -0.1640E-21 -0.3179E-17 -0.1640E-21 -0.3179E-17 -0.1640E-21 -0.6043E-21 -0.8318E-26 -0.6043E-21 -0.8318E-26 -0.4033E-19 -0.1466E-23 -0.6043E-21 -0.8318E-26 -0.4033E-19 -0.1466E-23
     -3.401 -0.7116E-10 -0.4117E-13 -0.1659E-13 -0.3790E-17 -0.1659E-13 -0.3790E-17 -0.1659E-13 -0.3790E-17 -0.7756E-17 -0.5046E-21 -0.7756E-17 -0.5046E-21 -0.2088E-15 -0.3377E-19 -0.7756E-17 -0.5046E-21 -0.2088E-15 -0.3377E-19
     -3.227 -0.3200E-07 -0.8211E-10 -0.1850E-10 -0.1921E-13 -0.1850E-10 -0.1921E-13 -0.1850E-10 -0.1921E-13 -0.2174E-13 -0.6326E-17 -0.2174E-13 -0.6326E-17 -0.2285E-12 -0.1699E-15 -0.2174E-13 -0.6326E-17 -0.2285E-12 -0.1699E-15
     -3.052 -0.3229E-05 -0.3571E-07 -0.4419E-08 -0.2081E-10 -0.4419E-08 -0.2081E-10 -0.4419E-08 -0.2081E-10 -0.1280E-10 -0.1732E-13 -0.1280E-10 -0.1732E-13 -0.5199E-10 -0.1805E-12 -0.1280E-10 -0.1732E-13 -0.5199E-10 -0.1805E-12
     -2.878 -0.7374E-04 -0.3485E-05 -0.2242E-06 -0.4823E-08 -0.2242E-06 -0.4823E-08 -0.2242E-06 -0.4823E-08 -0.1541E-08 -0.9952E-11 -0.1541E-08 -0.9952E-11 -0.2340E-08 -0.3980E-10 -0.1541E-08 -0.9952E-11 -0.2340E-08 -0.3980E-10
     -2.704 -0.2264E-03 -0.7682E-04 -0.2048E-05 -0.2373E-06 -0.2048E-05 -0.2373E-06 -0.2048E-05 -0.2373E-06 -0.3423E-07 -0.1169E-08 -0.3423E-07 -0.1169E-08 -0.1597E-07 -0.1730E-08 -0.3423E-07 -0.1169E-08 -0.1597E-07 -0.1730E-08
     -2.529  0.2265E-02 -0.2180E-03  0.5002E-05 -0.2081E-05  0.5002E-05 -0.2081E-05  0.5002E-05 -0.2081E-05 -0.4116E-07 -0.2521E-07 -0.4116E-07 -0.2521E-07  0.1106E-07 -0.1111E-07 -0.4116E-07 -0.2521E-07  0.1106E-07 -0.1111E-07
     -2.355  0.9025E-02  0.2363E-02  0.4870E-04  0.5502E-05  0.4870E-04  0.5502E-05  0.4870E-04  0.5502E-05  0.6711E-06 -0.2514E-07  0.6711E-06 -0.2514E-07 -0.2243E-07  0.1191E-07  0.6711E-06 -0.2514E-07 -0.2243E-07  0.1191E-07
     -2.181  0.1206E-01  0.9087E-02  0.1296E-03  0.4979E-04  0.1296E-03  0.4979E-04  0.1296E-03  0.4979E-04  0.2521E-05  0.5068E-06  0.2521E-05  0.5068E-06  0.3076E-05 -0.3484E-08  0.2521E-05  0.5068E-06  0.3076E-05 -0.3484E-08
     -2.006  0.2030E-01  0.1194E-01  0.3575E-03  0.1297E-03  0.3575E-03  0.1297E-03  0.3575E-03  0.1297E-03  0.1227E-04  0.1790E-05  0.1227E-04  0.1790E-05  0.1125E-04  0.2119E-05  0.1227E-04  0.1790E-05  0.1125E-04  0.2119E-05
     -1.832  0.1744E-01  0.2018E-01  0.3627E-03  0.3588E-03  0.3627E-03  0.3588E-03  0.3627E-03  0.3588E-03  0.2042E-04  0.8612E-05  0.2042E-04  0.8612E-05  0.8269E-05  0.7698E-05  0.2042E-04  0.8612E-05  0.8269E-05  0.7698E-05
     -1.658  0.2024E-01  0.1722E-01  0.6264E-03  0.3595E-03  0.6264E-03  0.3595E-03  0.6264E-03  0.3595E-03  0.4630E-04  0.1384E-04  0.4630E-04  0.1384E-04  0.3327E-04  0.5456E-05  0.4630E-04  0.1384E-04  0.3327E-04  0.5456E-05
     -1.483  0.2886E-01  0.1947E-01  0.1014E-02  0.6065E-03  0.1014E-02  0.6065E-03  0.1014E-02  0.6065E-03  0.6350E-04  0.3088E-04  0.6350E-04  0.3088E-04  0.8584E-04  0.2023E-04  0.6350E-04  0.3088E-04  0.8584E-04  0.2023E-04
     -1.309  0.2546E-01  0.2856E-01  0.1077E-02  0.1009E-02  0.1077E-02  0.1009E-02  0.1077E-02  0.1009E-02  0.1236E-03  0.4232E-04  0.1236E-03  0.4232E-04  0.8607E-04  0.5514E-04  0.1236E-03  0.4232E-04  0.8607E-04  0.5514E-04
     -1.135  0.2920E-01  0.2427E-01  0.1392E-02  0.1026E-02  0.1392E-02  0.1026E-02  0.1392E-02  0.1026E-02  0.2171E-03  0.7290E-04  0.2171E-03  0.7290E-04  0.1000E-03  0.5277E-04  0.2171E-03  0.7290E-04  0.1000E-03  0.5277E-04
     -0.960  0.2311E-01  0.2924E-01  0.1304E-02  0.1417E-02  0.1304E-02  0.1417E-02  0.1304E-02  0.1417E-02  0.1712E-03  0.1433E-03  0.1712E-03  0.1433E-03  0.1824E-03  0.6125E-04  0.1712E-03  0.1433E-03  0.1824E-03  0.6125E-04
     -0.786  0.3904E-01  0.2136E-01  0.2496E-02  0.1181E-02  0.2496E-02  0.1181E-02  0.2496E-02  0.1181E-02  0.4079E-03  0.1022E-03  0.4079E-03  0.1022E-03  0.4422E-03  0.9006E-04  0.4079E-03  0.1022E-03  0.4422E-03  0.9006E-04
     -0.612  0.3910E-01  0.3520E-01  0.2712E-02  0.2275E-02  0.2712E-02  0.2275E-02  0.2712E-02  0.2275E-02  0.6049E-03  0.2161E-03  0.6049E-03  0.2161E-03  0.5183E-03  0.2397E-03  0.6049E-03  0.2161E-03  0.5183E-03  0.2397E-03
     -0.437  0.3111E-01  0.3813E-01  0.2353E-02  0.2651E-02  0.2353E-02  0.2651E-02  0.2353E-02  0.2651E-02  0.6495E-03  0.3411E-03  0.6495E-03  0.3411E-03  0.3729E-03  0.2877E-03  0.6495E-03  0.3411E-03  0.3729E-03  0.2877E-03
     -0.263  0.3129E-01  0.3379E-01  0.2669E-02  0.2590E-02  0.2669E-02  0.2590E-02  0.2669E-02  0.2590E-02  0.1008E-02  0.4019E-03  0.1008E-02  0.4019E-03  0.6406E-03  0.2581E-03  0.1008E-02  0.4019E-03  0.6406E-03  0.2581E-03
     -0.089  0.4511E-01  0.2322E-01  0.4229E-02  0.1950E-02  0.4229E-02  0.1950E-02  0.4229E-02  0.1950E-02  0.1357E-02  0.3983E-03  0.1357E-02  0.3983E-03  0.1548E-02  0.1666E-03  0.1357E-02  0.3983E-03  0.1548E-02  0.1666E-03
      0.086  0.4765E-01  0.3923E-01  0.4921E-02  0.3698E-02  0.4921E-02  0.3698E-02  0.4921E-02  0.3698E-02  0.1856E-02  0.7432E-03  0.1856E-02  0.7432E-03  0.1916E-02  0.6403E-03  0.1856E-02  0.7432E-03  0.1916E-02  0.6403E-03
      0.260  0.4573E-01  0.4354E-01  0.4853E-02  0.4427E-02  0.4853E-02  0.4427E-02  0.4853E-02  0.4427E-02  0.2857E-02  0.7990E-03  0.2857E-02  0.7990E-03  0.2245E-02  0.8880E-03  0.2857E-02  0.7990E-03  0.2245E-02  0.8880E-03
      0.434  0.4055E-01  0.4358E-01  0.4601E-02  0.4818E-02  0.4601E-02  0.4818E-02  0.4601E-02  0.4818E-02  0.3656E-02  0.1097E-02  0.3656E-02  0.1097E-02  0.2413E-02  0.9606E-03  0.3656E-02  0.1097E-02  0.2413E-02  0.9606E-03
      0.609  0.5192E-01  0.3403E-01  0.6572E-02  0.3907E-02  0.6572E-02  0.3907E-02  0.6572E-02  0.3907E-02  0.5240E-02  0.1269E-02  0.5240E-02  0.1269E-02  0.4432E-02  0.9043E-03  0.5240E-02  0.1269E-02  0.4432E-02  0.9043E-03
      0.783  0.6245E-01  0.4110E-01  0.8426E-02  0.5102E-02  0.8426E-02  0.5102E-02  0.8426E-02  0.5102E-02  0.8260E-02  0.2081E-02  0.8260E-02  0.2081E-02  0.8411E-02  0.1135E-02  0.8260E-02  0.2081E-02  0.8411E-02  0.1135E-02
      0.957  0.8261E-01  0.4026E-01  0.9920E-02  0.5474E-02  0.9920E-02  0.5474E-02  0.9920E-02  0.5474E-02  0.2759E-01  0.1900E-02  0.2759E-01  0.1900E-02  0.2440E-01  0.1509E-02  0.2759E-01  0.1900E-02  0.2440E-01  0.1509E-02
      1.132  0.8615E-01  0.4706E-01  0.9330E-02  0.6961E-02  0.9330E-02  0.6961E-02  0.9330E-02  0.6961E-02  0.4756E-01  0.2618E-02  0.4756E-01  0.2618E-02  0.6101E-01  0.2971E-02  0.4756E-01  0.2618E-02  0.6101E-01  0.2971E-02
      1.306  0.9076E-01  0.5267E-01  0.1312E-01  0.8055E-02  0.1312E-01  0.8055E-02  0.1312E-01  0.8055E-02  0.5620E-01  0.3898E-02  0.5620E-01  0.3898E-02  0.1082E+00  0.3522E-02  0.5620E-01  0.3898E-02  0.1082E+00  0.3522E-02
      1.480  0.8597E-01  0.5071E-01  0.1594E-01  0.8219E-02  0.1594E-01  0.8219E-02  0.1594E-01  0.8219E-02  0.5834E-01  0.5011E-02  0.5834E-01  0.5011E-02  0.1467E+00  0.3432E-02  0.5834E-01  0.5011E-02  0.1467E+00  0.3432E-02
      1.655  0.7733E-01  0.4299E-01  0.2017E-01  0.6829E-02  0.2017E-01  0.6829E-02  0.2017E-01  0.6829E-02  0.7007E-01  0.6005E-02  0.7007E-01  0.6005E-02  0.2198E+00  0.3992E-02  0.7007E-01  0.6005E-02  0.2198E+00  0.3992E-02
      1.829  0.6014E-01  0.4961E-01  0.2037E-01  0.8797E-02  0.2037E-01  0.8797E-02  0.2037E-01  0.8797E-02  0.6493E-01  0.8259E-02  0.6493E-01  0.8259E-02  0.2237E+00  0.6369E-02  0.6493E-01  0.8259E-02  0.2237E+00  0.6369E-02
      2.003  0.3814E-01  0.6635E-01  0.1430E-01  0.1252E-01  0.1430E-01  0.1252E-01  0.1430E-01  0.1252E-01  0.7553E-01  0.1241E-01  0.7553E-01  0.1241E-01  0.1408E+00  0.1113E-01  0.7553E-01  0.1241E-01  0.1408E+00  0.1113E-01
      2.178  0.1905E-01  0.6768E-01  0.9185E-02  0.1176E-01  0.9185E-02  0.1176E-01  0.9185E-02  0.1176E-01  0.5941E-01  0.2072E-01  0.5941E-01  0.2072E-01  0.1032E+00  0.1774E-01  0.5941E-01  0.2072E-01  0.1032E+00  0.1774E-01
      2.352  0.6414E-02  0.7945E-01  0.8619E-02  0.1223E-01  0.8619E-02  0.1223E-01  0.8619E-02  0.1223E-01  0.6160E-01  0.3701E-01  0.6160E-01  0.3701E-01  0.8692E-01  0.2588E-01  0.6160E-01  0.3701E-01  0.8692E-01  0.2588E-01
      2.526  0.3572E-02  0.6835E-01  0.1903E-01  0.1147E-01  0.1903E-01  0.1147E-01  0.1903E-01  0.1147E-01  0.2417E+00  0.3763E-01  0.2417E+00  0.3763E-01  0.1383E+00  0.2730E-01  0.2417E+00  0.3763E-01  0.1383E+00  0.2730E-01
      2.701  0.3975E-02  0.6741E-01  0.2086E-01  0.1446E-01  0.2086E-01  0.1446E-01  0.2086E-01  0.1446E-01  0.3330E+00  0.3869E-01  0.3330E+00  0.3869E-01  0.1480E+00  0.3688E-01  0.3330E+00  0.3869E-01  0.1480E+00  0.3688E-01
      2.875  0.6675E-02  0.6712E-01  0.1585E-01  0.1604E-01  0.1585E-01  0.1604E-01  0.1585E-01  0.1604E-01  0.2459E+00  0.4516E-01  0.2459E+00  0.4516E-01  0.1241E+00  0.4793E-01  0.2459E+00  0.4516E-01  0.1241E+00  0.4793E-01
      3.049  0.9971E-02  0.4994E-01  0.1985E-01  0.1485E-01  0.1985E-01  0.1485E-01  0.1985E-01  0.1485E-01  0.2227E+00  0.4086E-01  0.2227E+00  0.4086E-01  0.9628E-01  0.8599E-01  0.2227E+00  0.4086E-01  0.9628E-01  0.8599E-01
      3.224  0.1588E-01  0.4903E-01  0.3050E-01  0.2053E-01  0.3050E-01  0.2053E-01  0.3050E-01  0.2053E-01  0.2709E+00  0.4797E-01  0.2709E+00  0.4797E-01  0.1137E+00  0.1394E+00  0.2709E+00  0.4797E-01  0.1137E+00  0.1394E+00
      3.398  0.1874E-01  0.3808E-01  0.3351E-01  0.1851E-01  0.3351E-01  0.1851E-01  0.3351E-01  0.1851E-01  0.3165E+00  0.5133E-01  0.3165E+00  0.5133E-01  0.1394E+00  0.1484E+00  0.3165E+00  0.5133E-01  0.1394E+00  0.1484E+00
      3.572  0.1614E-01  0.2190E-01  0.2632E-01  0.1290E-01  0.2632E-01  0.1290E-01  0.2632E-01  0.1290E-01  0.2577E+00  0.4843E-01  0.2577E+00  0.4843E-01  0.9086E-01  0.1021E+00  0.2577E+00  0.4843E-01  0.9086E-01  0.1021E+00
      3.747  0.1075E-01  0.1167E-01  0.1736E-01  0.9266E-02  0.1736E-01  0.9266E-02  0.1736E-01  0.9266E-02  0.1309E+00  0.3631E-01  0.1309E+00  0.3631E-01  0.5925E-01  0.7754E-01  0.1309E+00  0.3631E-01  0.5925E-01  0.7754E-01