    2    2  100    2
  0.1173411E+02  0.2863035E-09  0.2863035E-09  0.2863035E-09  0.5000000E-15
  1.000000000000000E-004
  CAR 
 unknown system                          
     16    120     20
 
  0.0000000E+00  0.0000000E+00  0.0000000E+00  0.3644315E-03
    1       -2.592861     -2.422213   1.000000   1.000000
    2        0.998219      2.817484   1.000000   1.000000
    3        0.998219      2.817625   1.000000   1.000000
    4        3.562924      5.463250   1.000000   1.007243
    5        3.562925      5.463383   1.000000   1.007259
    6        3.562925      5.463393   1.000000   1.007260
    7        4.779815      7.530285   1.000000  -0.000000
    8        4.779816      7.530449   1.000000  -0.000000
    9        5.998144      8.172098   0.061104  -0.000000
   10        5.998146      8.172222   0.061100  -0.000000
   11        5.998146      8.172234   0.061100  -0.000000
   12       15.832305     16.105064   0.000000   0.000000
   13       15.832305     16.105064   0.000000   0.000000
   14       15.832305     16.105067   0.000000   0.000000
   15       21.561681     22.624828   0.000000   0.000000
   16       21.561682     22.624841   0.000000   0.000000
   17       26.726242     27.831514   0.000000   0.000000
   18       30.930525     30.684491   0.000000   0.000000
   19       30.930525     30.684491   0.000000   0.000000
   20       30.930525     30.684491   0.000000   0.000000
 
  0.7142857E-01 -0.1540744E-32  0.0000000E+00  0.2186589E-02
    1       -2.486474     -2.315363   1.000000   1.000000
    2        1.043847      2.856033   1.000000   1.000000
    3        1.045742      2.871736   1.000000   1.000000
    4        3.562038      5.458418   1.000000   1.006681
    5        3.562039      5.458562   1.000000   1.006697
    6        3.592130      5.495542   1.000000   1.011933
    7        4.732173      7.468244   1.000000  -0.000000
    8        4.798657      7.554191   1.000000  -0.000000
    9        5.908325      8.053717   0.338258  -0.000000
   10        5.908327      8.053852   0.338251  -0.000000
   11        5.966610      8.136807   0.137344  -0.000000
   12       15.073151     15.476445   0.000000   0.000000
   13       16.034138     16.336355   0.000000   0.000000
   14       16.034139     16.336357   0.000000   0.000000
   15       21.592538     22.646177   0.000000   0.000000
   16       22.130787     23.084484   0.000000   0.000000
   17       27.072803     28.160877   0.000000   0.000000
   18       30.218000     30.063547   0.000000   0.000000
   19       30.837101     30.636884   0.000000   0.000000
   20       30.837101     30.636885   0.000000   0.000000
 
  0.1428571E+00  0.3081488E-32  0.0000000E+00  0.2186589E-02
    1       -2.172182     -1.998877   1.000000   1.000000
    2        1.177841      2.955014   1.000000   1.000000
    3        1.178450      3.031865   1.000000   1.000000
    4        3.562813      5.448273   1.000000   1.005610
    5        3.562814      5.448416   1.000000   1.005624
    6        3.678492      5.590696   1.000000   1.032027
    7        4.591325      7.284972   1.000000  -0.000000
    8        4.853820      7.622218   1.000000  -0.000000
    9        5.663386      7.740088   1.027925  -0.000000
   10        5.663388      7.740220   1.027924  -0.000000
   11        5.872997      8.031684   0.484308  -0.000000
   12       13.451461     14.073570   0.000000   0.000000
   13       16.612909     16.986144   0.000000   0.000000
   14       16.612909     16.986147   0.000000   0.000000
   15       21.686089     22.711689   0.000000   0.000000
   16       23.061629     23.879938   0.000000   0.000000
   17       28.243915     28.821728   0.000000   0.000000
   18       28.840358     29.266916   0.000000   0.000000
   19       30.407851     30.373841   0.000000   0.000000
   20       30.407851     30.373844   0.000000   0.000000
 
  0.2142857E+00  0.1232595E-31  0.0000000E+00  0.2186589E-02
    1       -1.665763     -1.485585   1.000000   1.000000
    2        1.363905      3.065940   1.000000   1.000000
    3        1.396606      3.292515   1.000000   1.000000
    4        3.575183      5.445278   1.000000   1.005322
    5        3.575184      5.445419   1.000000   1.005335
    6        3.818229      5.744782   1.000000   0.929868
    7        4.363671      6.989854   1.000000  -0.000000
    8        4.942494      7.321344   1.000000  -0.000000
    9        5.322410      7.321475   1.000382  -0.000000
   10        5.322411      7.724935   1.000382  -0.000000
   11        5.722714      7.863092   0.970827  -0.000000
   12       11.632094     12.485499   0.000000   0.000000
   13       17.505954     17.960470   0.000000   0.000000
   14       17.505955     17.960474   0.000000   0.000000
   15       21.849051     22.827919   0.000000   0.000000
   16       23.695256     24.432450   0.000000   0.000000
   17       27.434942     27.544064   0.000000   0.000000
   18       29.416960     29.643050   0.000000   0.000000
   19       29.416960     29.643056   0.000000   0.000000
   20       30.272174     31.197132   0.000000   0.000000
 
  0.2857143E+00  0.6162976E-32  0.0000000E+00  0.2186589E-02
    1       -0.998034     -0.798816   1.000000   1.000000
    2        1.549865      3.102661   1.000000   1.000000
    3        1.689001      3.644068   1.000000   1.000000
    4        3.612124      5.465781   1.000000   1.007551
    5        3.612125      5.465920   1.000000   1.007568
    6        4.005139      5.951168   1.000000   0.183632
    7        4.059705      6.597844   1.000000  -0.000002
    8        4.947064      6.879022   1.000000  -0.000000
    9        4.947065      6.879152   1.000000  -0.000000
   10        5.066883      7.640479   1.000000  -0.000000
   11        5.524034      7.850829   1.017418  -0.000000
   12        9.868878     11.003800  -0.000000  -0.000000
   13       18.644641     19.170239   0.000000   0.000000
   14       18.644642     19.170243   0.000000   0.000000
   15       22.091591     23.005329   0.000000   0.000000
   16       24.120384     24.783774   0.000000   0.000000
   17       26.169333     26.406214   0.000000   0.000000
   18       27.976640     28.410783   0.000000   0.000000
   19       27.976641     28.410789   0.000000   0.000000
   20       29.749519     30.175821   0.000000   0.000000
 
  0.3571429E+00  0.1232595E-31  0.0000000E+00  0.2186589E-02
    1       -0.224339      0.023399   1.000000   1.000000
    2        1.654945      2.949192   1.000000   1.000000
    3        2.042601      4.072792   1.000000   1.000000
    4        3.688860      5.528974   1.000000   1.018479
    5        3.688861      5.529111   1.000000   1.018509
    6        3.695200      6.131498   1.000000  -0.034440
    7        4.230747      6.200718   1.000000  -0.020450
    8        4.585507      6.468282   1.000000  -0.000096
    9        4.585509      6.468413   1.000000  -0.000096
   10        5.248201      7.376382   1.000051  -0.000000
   11        5.287823      7.995120   1.000155  -0.000000
   12        8.289717      9.795874  -0.000000  -0.000000
   13       19.971529     20.549886   0.000000   0.000000
   14       19.971529     20.549889   0.000000   0.000000
   15       22.428015     23.258802   0.000000   0.000000
   16       24.544300     25.129024   0.000000   0.000000
   17       25.085066     25.451584   0.000000   0.000000
   18       26.343473     26.893017   0.000000   0.000000
   19       26.343474     26.893023   0.000000   0.000000
   20       28.206308     28.623316   0.000000   0.000000
 
  0.4285714E+00  0.2465190E-31  0.0000000E+00  0.2186589E-02
    1        0.558154      0.919843   1.000000   1.000000
    2        1.571061      2.509213   1.000000   1.000000
    3        2.440735      4.560351   1.000000   1.000000
    4        3.289112      5.617053   1.000000   1.035263
    5        3.818576      5.651611   1.000000   1.032035
    6        3.818577      5.651747   1.000000   1.031998
    7        4.267800      6.119221   1.000000  -0.035365
    8        4.267801      6.119353   1.000000  -0.035361
    9        4.484562      6.482038   1.000000  -0.000065
   10        5.026635      7.084928   1.000000  -0.000000
   11        5.549888      8.175826   1.023205  -0.000000
   12        7.002327      8.955050  -0.000000  -0.000000
   13       21.441390     22.051925   0.000000   0.000000
   14       21.441391     22.051926   0.000000   0.000000
   15       22.875765     23.607229   0.000000   0.000000
   16       24.183927     24.679262   0.000000   0.000000
   17       24.666427     25.270206   0.000000   0.000000
   18       24.666428     25.270209   0.000000   0.000000
   19       25.101744     25.612891   0.000000   0.000000
   20       26.906512     27.330464   0.000000   0.000000
 
  0.5000000E+00  0.1232595E-31  0.0000000E+00  0.1093294E-02
    1        1.201838      1.793213   1.000000   1.000000
    2        1.201838      1.793213   1.000000   1.000000
    3        2.863745      5.084149   1.000000   1.000000
    4        2.863745      5.084149   1.000000   1.000000
    5        4.010685      5.846551   1.000000   0.595524
    6        4.010685      5.846551   1.000000   0.595524
    7        4.010686      5.846684   1.000000   0.594971
    8        4.010686      5.846684   1.000000   0.594971
    9        4.754464      6.781952   1.000000  -0.000000
   10        4.754464      6.781952   1.000000  -0.000000
   11        6.093486      8.456163  -0.033556  -0.000000
   12        6.093486      8.456163  -0.033556  -0.000000
   13       23.018371     23.638708   0.000000   0.000000
   14       23.018371     23.638708   0.000000   0.000000
   15       23.018372     23.638709   0.000000   0.000000
   16       23.018372     23.638709   0.000000   0.000000
   17       23.454851     24.073024   0.000000   0.000000
   18       23.454851     24.073024   0.000000   0.000000
   19       25.874625     26.329709   0.000000   0.000000
   20       25.874625     26.329709   0.000000   0.000000
 
  0.7142857E-01  0.7142857E-01  0.0000000E+00  0.4373178E-02
    1       -2.381047     -2.209337   1.000000   1.000000
    2        1.088033      2.904196   1.000000   1.000000
    3        1.093466      2.914737   1.000000   1.000000
    4        3.505071      5.393751   1.000000   1.001965
    5        3.557896      5.450320   1.000000   1.005815
    6        3.677089      5.587519   1.000000   1.031444
    7        4.723351      7.454858   1.000000  -0.000000
    8        4.784541      7.535678   1.000000  -0.000000
    9        5.748581      7.860625   0.921595  -0.000000
   10        5.818176      7.935443   0.708642  -0.000000
   11        6.011713      8.187342   0.035965  -0.000000
   12       15.094551     15.542212   0.000000   0.000000
   13       15.430666     15.847234   0.000000   0.000000
   14       16.228878     16.556053   0.000000   0.000000
   15       21.884783     22.878514   0.000000   0.000000
   16       22.493636     23.384217   0.000000   0.000000
   17       27.386416     28.462397   0.000000   0.000000
   18       29.583619     29.542552   0.000000   0.000000
   19       30.610540     30.432526   0.000000   0.000000
   20       30.783854     30.614952   0.000000   0.000000
 
  0.1428571E+00  0.7142857E-01  0.0000000E+00  0.8746356E-02
    1       -2.069757     -1.895358   1.000000   1.000000
    2        1.215097      3.007703   1.000000   1.000000
    3        1.230193      3.067030   1.000000   1.000000
    4        3.460206      5.335794   1.000000   1.000531
    5        3.549160      5.430697   1.000000   1.004082
    6        3.807973      5.729789   1.000000   0.958996
    7        4.609451      7.302584   1.000000  -0.000000
    8        4.829899      7.509829   1.000000  -0.000000
    9        5.462083      7.591083   1.007104  -0.000000
   10        5.575063      7.626413   1.028918  -0.000000
   11        5.978113      8.147485   0.106636  -0.000000
   12       13.585467     14.233667   0.000000   0.000000
   13       15.840476     16.341876   0.000000   0.000000
   14       16.789717     17.178429   0.000000   0.000000
   15       22.074414     23.023787   0.000000   0.000000
   16       23.465844     24.227088   0.000000   0.000000
   17       28.186407     28.293922   0.000000   0.000000
   18       28.471042     29.493726   0.000000   0.000000
   19       30.072789     30.031403   0.000000   0.000000
   20       30.453177     30.420578   0.000000   0.000000
 
  0.2142857E+00  0.7142857E-01  0.0000000E+00  0.8746356E-02
    1       -1.569056     -1.386579   1.000000   1.000000
    2        1.403093      3.119014   1.000000   1.000000
    3        1.440144      3.319227   1.000000   1.000000
    4        3.442632      5.302874   1.000000   1.000232
    5        3.543339      5.411261   1.000000   1.002808
    6        3.975610      5.912468   1.000000   0.321929
    7        4.410396      7.034175   1.000000  -0.000000
    8        4.920557      7.087102   1.000000  -0.000000
    9        5.108913      7.222331   1.000001  -0.000000
   10        5.240829      7.697266   1.000041  -0.000000
   11        5.863021      8.014723   0.526506  -0.000000
   12       11.762187     12.633150   0.000000   0.000000
   13       16.649925     17.233828   0.000000   0.000000
   14       17.660490     18.121831   0.000000   0.000000
   15       22.280642     23.176892   0.000000   0.000000
   16       24.210273     24.891855   0.000000   0.000000
   17       26.689325     26.934630   0.000000   0.000000
   18       29.048882     29.206326   0.000000   0.000000
   19       29.521242     29.746018   0.000000   0.000000
   20       30.418209     31.348078   0.000000   0.000000
 
  0.2857143E+00  0.7142857E-01  0.0000000E+00  0.8746356E-02
    1       -0.910932     -0.706849   1.000000   1.000000
    2        1.590024      3.153646   1.000000   1.000000
    3        1.720595      3.657305   1.000000   1.000000
    4        3.459712      5.304335   1.000000   1.000241
    5        3.537735      5.403536   1.000000   1.002404
    6        4.165199      6.135312   1.000000  -0.033981
    7        4.179015      6.653247   1.000000  -0.000000
    8        4.735436      6.684477   1.000000  -0.000000
    9        4.882577      6.814285   1.000000  -0.000000
   10        5.046883      7.812810   1.000000  -0.000000
   11        5.685516      7.827623   1.014529  -0.000000
   12        9.989763     11.129627  -0.000000  -0.000000
   13       17.666479     18.320039   0.000000   0.000000
   14       18.777775     19.304544   0.000000   0.000000
   15       22.573021     23.397743   0.000000   0.000000
   16       24.741196     25.356598   0.000000   0.000000
   17       25.261601     25.646144   0.000000   0.000000
   18       27.726204     28.021682   0.000000   0.000000
   19       28.079354     28.517820   0.000000   0.000000
   20       30.950172     31.370829   0.000000   0.000000
 
  0.3571429E+00  0.7142857E-01  0.0000000E+00  0.8746356E-02
    1       -0.152329      0.105129   1.000000   1.000000
    2        1.690253      2.994509   1.000000   1.000000
    3        2.059755      4.064617   1.000000   1.000000
    4        3.464130      5.354389   1.000000   1.000825
    5        3.522393      5.398645   1.000000   1.002175
    6        3.970751      6.253311   1.000000  -0.010260
    7        4.380735      6.302298   1.000000  -0.004525
    8        4.413558      6.393556   1.000000  -0.000662
    9        4.554090      6.463431   1.000000  -0.000110
   10        5.231546      7.560936   1.000031  -0.000000
   11        5.462166      7.976327   1.007114  -0.000000
   12        8.393451      9.886162  -0.000000  -0.000000
   13       18.819021     19.519061   0.000000   0.000000
   14       20.086351     20.662964   0.000000   0.000000
   15       22.978992     23.714372   0.000000   0.000000
   16       23.913241     24.433004   0.000000   0.000000
   17       25.278198     25.827452   0.000000   0.000000
   18       26.392634     26.766034   0.000000   0.000000
   19       26.435968     26.988175   0.000000   0.000000
   20       29.403719     29.838020   0.000000   0.000000
 
  0.4285714E+00  0.7142857E-01  0.0000000E+00  0.8746356E-02
    1        0.609720      0.988013   1.000000   1.000000
    2        1.600217      2.553366   1.000000   1.000000
    3        2.438309      4.515970   1.000000   1.000000
    4        3.202340      5.300324   1.000000   1.000217
    5        3.641156      5.466731   1.000000   1.007669
    6        3.969818      5.915316   1.000000   0.310842
    7        4.071977      6.022916   1.000000   0.018558
    8        4.290170      6.194993   1.000000  -0.021752
    9        4.671073      6.678437   1.000000  -0.000000
   10        5.208831      7.277011   1.000016  -0.000000
   11        5.546981      8.164843   1.022533  -0.000000
   12        7.075199      9.000077  -0.000000  -0.000000
   13       20.052471     20.769051   0.000000   0.000000
   14       21.542680     22.150486   0.000000   0.000000
   15       22.611118     23.241025   0.000000   0.000000
   16       23.529669     24.163011   0.000000   0.000000
   17       24.755373     25.358891   0.000000   0.000000
   18       25.216813     25.658721   0.000000   0.000000
   19       25.964788     26.458235   0.000000   0.000000
   20       28.028066     28.469722   0.000000   0.000000
 
  0.5000000E+00  0.7142857E-01  0.0000000E+00  0.4373178E-02
    1        1.235114      1.846664   1.000000   1.000000
    2        1.235114      1.846664   1.000000   1.000000
    3        2.831865      4.965908   1.000000   1.000000
    4        2.831865      4.965908   1.000000   1.000000
    5        3.823606      5.652069   1.000000   1.031909
    6        3.823606      5.652069   1.000000   1.031909
    7        4.096402      6.019901   1.000000   0.022953
    8        4.096402      6.019901   1.000000   0.022953
    9        4.940293      6.977444   1.000000  -0.000000
   10        4.940293      6.977444   1.000000  -0.000000
   11        6.124098      8.464220  -0.035108  -0.000000
   12        6.124098      8.464220  -0.035108  -0.000000
   13       21.324622     22.020512   0.000000   0.000000
   14       21.324622     22.020512   0.000000   0.000000
   15       23.110122     23.728429   0.000000   0.000000
   16       23.110122     23.728429   0.000000   0.000000
   17       24.263923     24.793949   0.000000   0.000000
   18       24.263923     24.793949   0.000000   0.000000
   19       26.874547     27.332311   0.000000   0.000000
   20       26.874547     27.332311   0.000000   0.000000
 
  0.1428571E+00  0.1428571E+00  0.0000000E+00  0.4373178E-02
    1       -1.768235     -1.589283   1.000000   1.000000
    2        1.320708      3.154739   1.000000   1.000000
    3        1.378439      3.163725   1.000000   1.000000
    4        3.345239      5.202071   1.000000   1.000013
    5        3.516291      5.385657   1.000000   1.001656
    6        4.005460      5.945625   1.000000   0.201599
    7        4.617647      7.107449   1.000000  -0.000000
    8        4.800324      7.294286   1.000000  -0.000000
    9        5.119119      7.337061   1.000001  -0.000000
   10        5.340697      7.554254   1.000597  -0.000000
   11        6.049097      8.229010  -0.011231  -0.000000
   12       13.568535     14.282047   0.000000   0.000000
   13       14.665240     15.363699   0.000000   0.000000
   14       17.304045     17.733000   0.000000   0.000000
   15       22.429258     23.308878   0.000000   0.000000
   16       24.609779     25.242471   0.000000   0.000000
   17       26.730436     27.008383   0.000000   0.000000
   18       29.289909     29.483000   0.000000   0.000000
   19       29.495353     30.296381   0.000000   0.000000
   20       30.450058     30.450389   0.000000   0.000000
 
  0.2142857E+00  0.1428571E+00  0.0000000E+00  0.8746356E-02
    1       -1.286418     -1.094913   1.000000   1.000000
    2        1.476773      3.253800   1.000000   1.000000
    3        1.600633      3.402394   1.000000   1.000000
    4        3.264623      5.102085   1.000000   1.000000
    5        3.478732      5.329652   1.000000   1.000457
    6        4.229555      6.190639   1.000000  -0.022754
    7        4.514934      6.664164   1.000000  -0.000000
    8        4.736239      6.983037   1.000000  -0.000000
    9        4.864608      7.135092   1.000000  -0.000000
   10        5.031834      7.628704   1.000000  -0.000000
   11        6.026128      8.200995   0.014106  -0.000000
   12       12.050608     12.950634   0.000000   0.000000
   13       15.062037     15.841575   0.000000   0.000000
   14       18.115008     18.595528   0.000000   0.000000
   15       22.664679     23.482796   0.000000   0.000000
   16       25.119273     25.531092   0.000000   0.000000
   17       25.688115     26.236959   0.000000   0.000000
   18       28.591850     28.678560   0.000000   0.000000
   19       29.816108     30.027673   0.000000   0.000000
   20       30.931951     31.873984   0.000000   0.000000
 
  0.2857143E+00  0.1428571E+00  0.0000000E+00  0.8746356E-02
    1       -0.660789     -0.438047   1.000000   1.000000
    2        1.638082      3.267258   1.000000   1.000000
    3        1.872760      3.715184   1.000000   1.000000
    4        3.229038      5.048781   1.000000   1.000000
    5        3.434688      5.273962   1.000000   1.000106
    6        4.355562      6.232438   1.000000  -0.013833
    7        4.363611      6.459566   1.000000  -0.000122
    8        4.474948      6.672412   1.000000  -0.000000
    9        4.726448      6.881999   1.000000  -0.000000
   10        4.990091      7.762893   1.000000  -0.000000
   11        5.919321      8.076574   0.295459  -0.000000
   12       10.289534     11.428922  -0.000000   0.000000
   13       15.936921     16.760740   0.000000   0.000000
   14       19.172589     19.703514   0.000000   0.000000
   15       22.935863     23.678529   0.000000   0.000000
   16       23.547632     24.077792   0.000000   0.000000
   17       26.483901     26.988304   0.000000   0.000000
   18       27.452478     27.639683   0.000000   0.000000
   19       28.382062     28.833961   0.000000   0.000000
   20       32.874720     33.314095   0.000000   0.000000
 
  0.3571429E+00  0.1428571E+00  0.0000000E+00  0.8746356E-02
    1        0.045614      0.340123   1.000000   1.000000
    2        1.718764      3.086891   1.000000   1.000000
    3        2.179913      4.078187   1.000000   1.000000
    4        3.248938      5.055137   1.000000   1.000000
    5        3.340010      5.205396   1.000000   1.000014
    6        4.007790      5.846335   1.000000   0.596419
    7        4.257746      6.472366   1.000000  -0.000086
    8        4.488978      6.616220   1.000000  -0.000001
    9        4.736469      6.747565   1.000000  -0.000000
   10        5.181585      7.877846   1.000007  -0.000000
   11        5.746170      7.921257   0.926888  -0.000000
   12        8.659702     10.110103  -0.000000  -0.000000
   13       16.970397     17.809998   0.000000   0.000000
   14       20.428996     21.001335   0.000000   0.000000
   15       22.057370     22.691777   0.000000   0.000000
   16       23.296843     23.949008   0.000000   0.000000
   17       26.301616     26.573654   0.000000   0.000000
   18       26.706493     27.267087   0.000000   0.000000
   19       27.213276     27.681561   0.000000   0.000000
   20       31.497862     31.916831   0.000000   0.000000
 
  0.4285714E+00  0.1428571E+00  0.0000000E+00  0.8746356E-02
    1        0.734769      1.176866   1.000000   1.000000
    2        1.621230      2.650054   1.000000   1.000000
    3        2.511362      4.460390   1.000000   1.000000
    4        3.137315      5.069437   1.000000   1.000000
    5        3.333148      5.132320   1.000000   1.000001
    6        3.714421      5.527985   1.000000   1.018264
    7        4.248221      6.379893   1.000000  -0.000911
    8        4.351280      6.422344   1.000000  -0.000327
    9        5.005889      7.045905   1.000000  -0.000000
   10        5.525292      7.627338   1.017685  -0.000000
   11        5.537515      8.130012   1.020372  -0.000000
   12        7.268991      9.115735  -0.000000  -0.000000
   13       18.110505     18.936291   0.000000   0.000000
   14       20.654771     21.375166   0.000000   0.000000
   15       21.843914     22.444443   0.000000   0.000000
   16       23.786620     24.338671   0.000000   0.000000
   17       25.016234     25.619278   0.000000   0.000000
   18       25.278840     25.635918   0.000000   0.000000
   19       28.038201     28.477043   0.000000   0.000000
   20       30.187467     30.602277   0.000000   0.000000
 
  0.5000000E+00  0.1428571E+00  0.0000000E+00  0.4373178E-02
    1        1.288495      1.982715   1.000000   1.000000
    2        1.288495      1.982715   1.000000   1.000000
    3        2.843530      4.812425   1.000000   1.000000
    4        2.843530      4.812425   1.000000   1.000000
    5        3.487906      5.288859   1.000000   1.000160
    6        3.487906      5.288859   1.000000   1.000160
    7        4.286934      6.355693   1.000000  -0.001560
    8        4.286934      6.355693   1.000000  -0.001560
    9        5.273408      7.344247   1.000105  -0.000000
   10        5.273408      7.344247   1.000105  -0.000000
   11        6.210539      8.482386  -0.018276  -0.000000
   12        6.210539      8.482386  -0.018276  -0.000000
   13       19.339683     20.124650   0.000000   0.000000
   14       19.339683     20.124650   0.000000   0.000000
   15       23.383181     23.995591   0.000000   0.000000
   16       23.383181     23.995591   0.000000   0.000000
   17       24.439231     24.890407   0.000000   0.000000
   18       24.439231     24.890407   0.000000   0.000000
   19       29.025419     29.446195   0.000000   0.000000
   20       29.025419     29.446195   0.000000   0.000000
 
  0.2142857E+00  0.2142857E+00  0.0000000E+00  0.4373178E-02
    1       -0.842191     -0.627347   1.000000   1.000000
    2        1.568312      3.349604   1.000000   1.000000
    3        1.851575      3.596856   1.000000   1.000000
    4        3.120585      4.934561   1.000000   1.000000
    5        3.428408      5.237689   1.000000   1.000038
    6        4.338637      6.214949   1.000000  -0.017331
    7        4.504938      6.493670   1.000000  -0.000046
    8        4.589994      6.725526   1.000000  -0.000000
    9        4.776881      7.188627   1.000000  -0.000000
   10        4.830105      7.592092   1.000000  -0.000000
   11        6.103328      8.289526  -0.034964  -0.000000
   12       11.875790     12.806710   0.000000   0.000000
   13       14.021217     14.984810   0.000000   0.000000
   14       18.844896     19.353121   0.000000   0.000000
   15       22.886086     23.634969   0.000000   0.000000
   16       23.416520     23.949935   0.000000   0.000000
   17       27.311139     27.741538   0.000000   0.000000
   18       27.933399     28.018531   0.000000   0.000000
   19       30.094459     30.268636   0.000000   0.000000
   20       31.169860     31.953031   0.000000   0.000000
 
  0.2857143E+00  0.2142857E+00  0.0000000E+00  0.8746356E-02
    1       -0.283401     -0.014296   1.000000   1.000000
    2        1.643081      3.311565   1.000000   1.000000
    3        2.154780      3.893315   1.000000   1.000000
    4        3.027224      4.820434   1.000000   1.000000
    5        3.411555      5.160714   1.000000   1.000003
    6        3.958813      5.791484   1.000000   0.803224
    7        4.554030      6.559968   1.000000  -0.000006
    8        4.560755      6.807181   1.000000  -0.000000
    9        4.789031      7.090243   1.000000  -0.000000
   10        4.912124      7.679766   1.000000  -0.000000
   11        6.087138      8.269335  -0.032082  -0.000000
   12       10.543274     11.650716  -0.000000   0.000000
   13       14.365611     15.371704   0.000000   0.000000
   14       19.816072     20.355187   0.000000   0.000000
   15       21.767554     22.405338   0.000000   0.000000
   16       23.118380     23.784670   0.000000   0.000000
   17       27.043972     27.170167   0.000000   0.000000
   18       28.562879     28.942053   0.000000   0.000000
   19       28.863696     29.344775   0.000000   0.000000
   20       31.256528     31.779959   0.000000   0.000000
 
  0.3571429E+00  0.2142857E+00  0.0000000E+00  0.8746356E-02
    1        0.314286      0.696834   1.000000   1.000000
    2        1.647177      3.102490   1.000000   1.000000
    3        2.475031      4.225125   1.000000   1.000000
    4        2.996519      4.774075   1.000000   1.000000
    5        3.391222      5.095637   1.000000   1.000000
    6        3.623959      5.423934   1.000000   1.003593
    7        4.445427      6.534671   1.000000  -0.000013
    8        4.515881      6.927561   1.000000  -0.000000
    9        5.073169      7.122026   1.000000  -0.000000
   10        5.099892      7.837083   1.000000  -0.000000
   11        5.987401      8.153169   0.084263  -0.000000
   12        8.961941     10.334897  -0.000000  -0.000000
   13       15.232516     16.224011   0.000000   0.000000
   14       20.219247     20.951438   0.000000   0.000000
   15       20.992016     21.560029   0.000000   0.000000
   16       23.428409     23.997828   0.000000   0.000000
   17       26.080099     26.269369   0.000000   0.000000
   18       27.127122     27.704567   0.000000   0.000000
   19       29.531928     29.900475   0.000000   0.000000
   20       32.064359     32.525686   0.000000   0.000000
 
  0.4285714E+00  0.2142857E+00  0.0000000E+00  0.8746356E-02
    1        0.856178      1.439280   1.000000   1.000000
    2        1.530675      2.702809   1.000000   1.000000
    3        2.786645      4.549647   1.000000   1.000000
    4        3.037445      4.806327   1.000000   1.000000
    5        3.283289      5.000964   1.000000   1.000000
    6        3.352669      5.131551   1.000000   1.000001