Automatically generated mesh
     120
Reciprocal lattice
    0.00000000000000    0.00000000000000    0.00000000000000             1
    0.07142857142857   -0.00000000000000    0.00000000000000             6
    0.14285714285715    0.00000000000000    0.00000000000000             6
    0.21428571428572    0.00000000000000    0.00000000000000             6
    0.28571428571428    0.00000000000000    0.00000000000000             6
    0.35714285714285    0.00000000000000    0.00000000000000             6
    0.42857142857143    0.00000000000000    0.00000000000000             6
    0.50000000000000    0.00000000000000    0.00000000000000             3
    0.07142857142857    0.07142857142857    0.00000000000000            12
    0.14285714285715    0.07142857142857    0.00000000000000            24
    0.21428571428572    0.07142857142857    0.00000000000000            24
    0.28571428571428    0.07142857142857    0.00000000000000            24
    0.35714285714285    0.07142857142857    0.00000000000000            24
    0.42857142857143    0.07142857142857    0.00000000000000            24
    0.50000000000000    0.07142857142857    0.00000000000000            12
    0.14285714285715    0.14285714285715    0.00000000000000            12
    0.21428571428572    0.14285714285715    0.00000000000000            24
    0.28571428571428    0.14285714285715    0.00000000000000            24
    0.35714285714285    0.14285714285715    0.00000000000000            24
    0.42857142857143    0.14285714285715    0.00000000000000            24
    0.50000000000000    0.14285714285715    0.00000000000000            12
    0.21428571428572    0.21428571428572    0.00000000000000            12
    0.28571428571428    0.21428571428572    0.00000000000000            24
    0.35714285714285    0.21428571428572    0.00000000000000            24
    0.42857142857143    0.21428571428572    0.00000000000000            24
    0.50000000000000    0.21428571428572    0.00000000000000            12
    0.28571428571428    0.28571428571428    0.00000000000000            12
    0.35714285714285    0.28571428571428    0.00000000000000            24
    0.42857142857143    0.28571428571428    0.00000000000000            24
    0.50000000000000    0.28571428571428    0.00000000000000            12
    0.35714285714285    0.35714285714285    0.00000000000000            12
    0.42857142857143    0.35714285714285    0.00000000000000            24
    0.50000000000000    0.35714285714285    0.00000000000000            12
    0.42857142857143    0.42857142857143    0.00000000000000            12
    0.50000000000000    0.42857142857143    0.00000000000000            12
    0.50000000000000    0.50000000000000    0.00000000000000             3
    0.07142857142857    0.07142857142857    0.07142857142857             8
    0.14285714285715    0.07142857142857    0.07142857142857            24
    0.21428571428572    0.07142857142857    0.07142857142857            24
    0.28571428571428    0.07142857142857    0.07142857142857            24
    0.35714285714285    0.07142857142857    0.07142857142857            24
    0.42857142857143    0.07142857142857    0.07142857142857            24
    0.50000000000000    0.07142857142857    0.07142857142857            12
    0.14285714285715    0.14285714285715    0.07142857142857            24
    0.21428571428572    0.14285714285715    0.07142857142857            48
    0.28571428571428    0.14285714285715    0.07142857142857            48
    0.35714285714285    0.14285714285715    0.07142857142857            48
    0.42857142857143    0.14285714285715    0.07142857142857            48
    0.50000000000000    0.14285714285715    0.07142857142857            24
    0.21428571428572    0.21428571428572    0.07142857142857            24
    0.28571428571428    0.21428571428572    0.07142857142857            48
    0.35714285714285    0.21428571428572    0.07142857142857            48
    0.42857142857143    0.21428571428572    0.07142857142857            48
    0.50000000000000    0.21428571428572    0.07142857142857            24
    0.28571428571428    0.28571428571428    0.07142857142857            24
    0.35714285714285    0.28571428571428    0.07142857142857            48
    0.42857142857143    0.28571428571428    0.07142857142857            48
    0.50000000000000    0.28571428571428    0.07142857142857            24
    0.35714285714285    0.35714285714285    0.07142857142857            24
    0.42857142857143    0.35714285714285    0.07142857142857            48
    0.50000000000000    0.35714285714285    0.07142857142857            24
    0.42857142857143    0.42857142857143    0.07142857142857            24
    0.50000000000000    0.42857142857143    0.07142857142857            24
    0.50000000000000    0.50000000000000    0.07142857142857             6
    0.14285714285715    0.14285714285715    0.14285714285715             8
    0.21428571428572    0.14285714285715    0.14285714285715            24
    0.28571428571428    0.14285714285715    0.14285714285715            24
    0.35714285714285    0.14285714285715    0.14285714285715            24
    0.42857142857143    0.14285714285715    0.14285714285715            24
    0.50000000000000    0.14285714285715    0.14285714285715            12
    0.21428571428572    0.21428571428572    0.14285714285715            24
    0.28571428571428    0.21428571428572    0.14285714285715            48
    0.35714285714285    0.21428571428572    0.14285714285715            48
    0.42857142857143    0.21428571428572    0.14285714285715            48
    0.50000000000000    0.21428571428572    0.14285714285715            24
    0.28571428571428    0.28571428571428    0.14285714285715            24
    0.35714285714285    0.28571428571428    0.14285714285715            48
    0.42857142857143    0.28571428571428    0.14285714285715            48
    0.50000000000000    0.28571428571428    0.14285714285715            24
    0.35714285714285    0.35714285714285    0.14285714285715            24
    0.42857142857143    0.35714285714285    0.14285714285715            48
    0.50000000000000    0.35714285714285    0.14285714285715            24
    0.42857142857143    0.42857142857143    0.14285714285715            24
    0.50000000000000    0.42857142857143    0.14285714285715            24
    0.50000000000000    0.50000000000000    0.14285714285715             6
    0.21428571428572    0.21428571428572    0.21428571428572             8
    0.28571428571428    0.21428571428572    0.21428571428572            24
    0.35714285714285    0.21428571428572    0.21428571428572            24
    0.42857142857143    0.21428571428572    0.21428571428572            24
    0.50000000000000    0.21428571428572    0.21428571428572            12
    0.28571428571428    0.28571428571428    0.21428571428572            24
    0.35714285714285    0.28571428571428    0.21428571428572            48
    0.42857142857143    0.28571428571428    0.21428571428572            48
    0.50000000000000    0.28571428571428    0.21428571428572            24
    0.35714285714285    0.35714285714285    0.21428571428572            24
    0.42857142857143    0.35714285714285    0.21428571428572            48
    0.50000000000000    0.35714285714285    0.21428571428572            24
    0.42857142857143    0.42857142857143    0.21428571428572            24
    0.50000000000000    0.42857142857143    0.21428571428572            24
    0.50000000000000    0.50000000000000    0.21428571428572             6
    0.28571428571428    0.28571428571428    0.28571428571428             8
    0.35714285714285    0.28571428571428    0.28571428571428            24
    0.42857142857143    0.28571428571428    0.28571428571428            24
    0.50000000000000    0.28571428571428    0.28571428571428            12
    0.35714285714285    0.35714285714285    0.28571428571428            24
    0.42857142857143    0.35714285714285    0.28571428571428            48
    0.50000000000000    0.35714285714285    0.28571428571428            24
    0.42857142857143    0.42857142857143    0.28571428571428            24
    0.50000000000000    0.42857142857143    0.28571428571428            24
    0.50000000000000    0.50000000000000    0.28571428571428             6
    0.35714285714285    0.35714285714285    0.35714285714285             8
    0.42857142857143    0.35714285714285    0.35714285714285            24
    0.50000000000000    0.35714285714285    0.35714285714285            12
    0.42857142857143    0.42857142857143    0.35714285714285            24
    0.50000000000000    0.42857142857143    0.35714285714285            24
    0.50000000000000    0.50000000000000    0.35714285714285             6
    0.42857142857143    0.42857142857143    0.42857142857143             8
    0.50000000000000    0.42857142857143    0.42857142857143            12
    0.50000000000000    0.50000000000000    0.42857142857143             6
    0.50000000000000    0.50000000000000    0.50000000000000             1
