       N       E                     dE             d eps       ncg     rms          rms(c)
DAV:   1     0.633570306966E+02    0.63357E+02   -0.60977E+03 10716   0.819E+02
DAV:   2    -0.133728656229E+02   -0.76730E+02   -0.68410E+02  9816   0.167E+02
DAV:   3    -0.160658971934E+02   -0.26930E+01   -0.26333E+01 10876   0.400E+01
DAV:   4    -0.160859725505E+02   -0.20075E-01   -0.20071E-01 10444   0.324E+00
DAV:   5    -0.160862190458E+02   -0.24650E-03   -0.24649E-03 10792   0.342E-01    0.196E+01
DAV:   6    -0.165700455512E+02   -0.48383E+00   -0.51793E+00 10632   0.440E+01    0.611E+00
DAV:   7    -0.165093704494E+02    0.60675E-01   -0.37450E-01 11380   0.943E+00    0.435E+00
DAV:   8    -0.164929267320E+02    0.16444E-01   -0.97359E-03 12304   0.100E+00    0.161E+00
DAV:   9    -0.164817233406E+02    0.11203E-01   -0.28105E-03 14272   0.932E-01    0.419E-01
DAV:  10    -0.164813399101E+02    0.38343E-03   -0.14492E-03 11432   0.597E-01    0.594E-02
DAV:  11    -0.164813743025E+02   -0.34392E-04   -0.79350E-05 11420   0.730E-02    0.512E-02
DAV:  12    -0.164813591092E+02    0.15193E-04   -0.20019E-06  9676   0.133E-02    0.220E-02
DAV:  13    -0.164813591473E+02   -0.38171E-07   -0.17432E-06  8584   0.113E-02
   1 F= -.16481359E+02 E0= -.16481960E+02  d E =-.164814E+02  mag=     4.4782
       N       E                     dE             d eps       ncg     rms          rms(c)
DAV:   1    -0.172335860846E+02   -0.75223E+00   -0.70444E+00 10516   0.439E+01    0.829E+00
DAV:   2    -0.165329499939E+02    0.70064E+00   -0.13094E+00 10472   0.255E+01    0.674E+00
DAV:   3    -0.164981502998E+02    0.34800E-01   -0.94253E-02 11376   0.556E+00    0.235E+00
DAV:   4    -0.164905725244E+02    0.75778E-02   -0.52540E-03 12040   0.821E-01    0.547E-01
DAV:   5    -0.164845850180E+02    0.59875E-02   -0.38792E-03 11760   0.500E-01    0.885E-02
DAV:   6    -0.164846984900E+02   -0.11347E-03   -0.31590E-04 10600   0.190E-01    0.499E-02
DAV:   7    -0.164847063984E+02   -0.79084E-05   -0.15327E-05  9968   0.426E-02    0.242E-02
DAV:   8    -0.164847026172E+02    0.37811E-05   -0.13807E-06  8400   0.167E-02    0.938E-03
DAV:   9    -0.164847018088E+02    0.80836E-06   -0.32711E-07  4984   0.859E-03
   2 F= -.16484702E+02 E0= -.16484806E+02  d E =-.334266E-02  mag=     4.2661
       N       E                     dE             d eps       ncg     rms          rms(c)
DAV:   1    -0.166650582303E+02   -0.18036E+00   -0.15683E+00 10468   0.216E+01    0.401E+00
DAV:   2    -0.165162805332E+02    0.14878E+00   -0.40247E-01 10520   0.127E+01    0.365E+00
DAV:   3    -0.165022833469E+02    0.13997E-01   -0.26385E-02 11304   0.316E+00    0.110E+00
DAV:   4    -0.165004608465E+02    0.18225E-02   -0.19122E-03 12744   0.545E-01    0.315E-01
DAV:   5    -0.164990393561E+02    0.14215E-02   -0.11243E-03 11176   0.290E-01    0.504E-02
DAV:   6    -0.164990625514E+02   -0.23195E-04   -0.38576E-05 10120   0.513E-02    0.231E-02
DAV:   7    -0.164990674922E+02   -0.49408E-05   -0.23092E-06  9752   0.160E-02    0.137E-02
DAV:   8    -0.164990705254E+02   -0.30332E-05   -0.44729E-07  5556   0.718E-03    0.334E-03
DAV:   9    -0.164990705813E+02   -0.55906E-07   -0.81966E-08  4864   0.295E-03
   3 F= -.16499071E+02 E0= -.16499160E+02  d E =-.177114E-01  mag=     4.3702
