 vasp.6.2.0 18Jan21 (build Aug 12 2022 13:00:08) complex                        
  
 executed on             LinuxIFC date 2024.11.04  04:39:17
 running on    4 total cores
 distrk:  each k-point on    4 cores,    1 groups
 distr:  one band on NCORE=   1 cores,    4 groups


--------------------------------------------------------------------------------------------------------


 INCAR:
   ISTART = 0            (Read existing wavefunction, if there)
   ISPIN = 2            (Non-Spin polarised DFT)
   MAGMOM = 5 5          (Set this parameters manually)
   GGA_COMPAT = .FALSE.   (Apply spherical cutoff on gradient field)
   VOSKOWN = 1        (Enhances the magnetic moments and the magnetic energies)
   LMAXMIX = 4        (For d elements increase LMAXMIX to 4, f: LMAXMIX \= 6)
   LREAL = .FALSE.       (Projection operators: automatic)
   ENCUT = 350          (Cut-off energy for plane wave basis set, in eV)
   LORBIT = 11           (Write orbital decomposed charge densities and magnetic moments)
   ADDGRID = .TRUE.        (Increase grid, helps GGA convergence)
   LASPH = .TRUE.        (Give more accurate total energies and band structure calculations)
   PREC = Accurate      (Accurate strictly avoids any aliasing or wrap around errors)
   KSPACING = 0.16
   ISMEAR = 1            (Gaussian smearing, metals:1)
   SIGMA = 0.2          (Smearing value in eV, metals:0.2)
   NELM = 90           (Max electronic SCF steps)
   NELMIN = 6            (Min electronic SCF steps)
   EDIFF = 1E-06        (SCF energy convergence, in eV)
   NSW = 100          (Max ionic steps)
   IBRION = 2            (Algorithm: 0-MD, 1-Quasi-New, 2-CG)
   ISIF = 3            (Stress/relaxation: 2-Ions, 3-Shape/Ions/V, 4-Shape/Ions)
   EDIFFG = -2E-03        (Ionic convergence, eV/AA)
   ISYM = 2              (Symmetry: 0\=none, 2\=GGA, 3\=hybrids)

 POTCAR:    PAW_PBE Fe 06Sep2000                  
 POTCAR:    PAW_PBE Fe 06Sep2000                  
   VRHFIN =Fe:  d7 s1                                                                               
   LEXCH  = PE                                                                                      
   EATOM  =   594.3153 eV,   43.6809 Ry                                                             
                                                                                                    
   TITEL  = PAW_PBE Fe 06Sep2000                                                                    
   LULTRA =        F    use ultrasoft PP ?                                                          
   IUNSCR =        1    unscreen: 0-lin 1-nonlin 2-no                                               
   RPACOR =    2.000    partial core radius                                                         
   POMASS =   55.847; ZVAL   =    8.000    mass and valenz                                          
   RCORE  =    2.300    outmost cutoff radius                                                       
   RWIGS  =    2.460; RWIGS  =    1.302    wigner-seitz radius (au A)                               
   ENMAX  =  267.882; ENMIN  =  200.911 eV                                                          
   RCLOC  =    1.701    cutoff for local pot                                                        
   LCOR   =        T    correct aug charges                                                         
   LPAW   =        T    paw PP                                                                      
   EAUG   =  511.368                                                                                
   DEXC   =    0.000                                                                                
   RMAX   =    2.356    core radius for proj-oper                                                   
   RAUG   =    1.300    factor for augmentation sphere                                              
   RDEP   =    2.442    radius for radial grids                                                     
   RDEPT  =    1.890    core radius for aug-charge                                                  
                                                                                                    
   Atomic configuration                                                                             
    9 entries                                                                                       
     n  l   j            E        occ.                                                              
     1  0  0.50     -6993.8440   2.0000                                                             
     2  0  0.50      -814.6047   2.0000                                                             
     2  1  1.50      -693.3689   6.0000                                                             
     3  0  0.50       -89.4732   2.0000                                                             
     3  1  1.50       -55.6373   6.0000                                                             
     3  2  2.50        -3.8151   7.0000                                                             
     4  0  0.50        -4.2551   1.0000                                                             
     4  1  1.50        -3.4015   0.0000                                                             
     4  3  2.50        -1.3606   0.0000                                                             
   Description                                                                                      
     l       E           TYP  RCUT    TYP  RCUT                                                     
     2     -3.8151135     23  2.300                                                                 
     2     -5.1756961     23  2.300                                                                 
     0     -4.2550963     23  2.300                                                                 
     0      7.2035603     23  2.300                                                                 
     1     -2.7211652     23  2.300                                                                 
     1     18.4316424     23  2.300                                                                 
  local pseudopotential read in
  partial core-charges read in
  partial kinetic energy density read in
  atomic valenz-charges read in
  non local Contribution for L=           2  read in
    real space projection operators read in
  non local Contribution for L=           2  read in
    real space projection operators read in
  non local Contribution for L=           0  read in
    real space projection operators read in
  non local Contribution for L=           0  read in
    real space projection operators read in
  non local Contribution for L=           1  read in
    real space projection operators read in
  non local Contribution for L=           1  read in
    real space projection operators read in
    PAW grid and wavefunctions read in
 
   number of l-projection  operators is LMAX  =           6
   number of lm-projection operators is LMMAX =          18
 
  PAW_PBE Fe 06Sep2000                  :
 energy of atom  1       EATOM= -594.3153
 kinetic energy error for atom=    0.0205 (will be added to EATOM!!)
 
 
 POSCAR: Fe2
  positions in direct lattice
  No initial velocities read in
 exchange correlation table for  LEXCH =        8
   RHO(1)=    0.500       N(1)  =     2000
   RHO(2)=  100.500       N(2)  =     4000
 


--------------------------------------------------------------------------------------------------------


 ion  position               nearest neighbor table
   1  0.000  0.000  0.000-   2 2.48   2 2.48   2 2.48   2 2.48   2 2.48   2 2.48   2 2.48   2 2.48

   2  0.500  0.500  0.500-   1 2.48   1 2.48   1 2.48   1 2.48   1 2.48   1 2.48   1 2.48   1 2.48

 
  LATTYP: Found a simple cubic cell.
 ALAT       =     2.8630354989
  
  Lattice vectors:
  
 A1 = (   2.8630354989,   0.0000000000,   0.0000000000)
 A2 = (   0.0000000000,   2.8630354989,   0.0000000000)
 A3 = (   0.0000000000,   0.0000000000,   2.8630354989)


Analysis of symmetry for initial positions (statically):
=====================================================================
 Subroutine PRICEL returns following result:
 
  LATTYP: Found a body centered cubic cell.
 ALAT       =     2.8630354989
  
  Lattice vectors:
  
 A1 = (   1.4315177495,   1.4315177495,  -1.4315177495)
 A2 = (  -1.4315177495,   1.4315177495,   1.4315177495)
 A3 = (   1.4315177495,  -1.4315177495,   1.4315177495)
 
   2 primitive cells build up your supercell.
 

 Routine SETGRP: Setting up the symmetry group for a 
 simple cubic supercell.


 Subroutine GETGRP returns: Found 48 space group operations
 (whereof 48 operations were pure point group operations)
 out of a pool of 48 trial point group operations.


The static configuration has the point symmetry O_h .


Analysis of symmetry for dynamics (positions and initial velocities):
=====================================================================
 Subroutine PRICEL returns following result:
 
  LATTYP: Found a body centered cubic cell.
 ALAT       =     2.8630354989
  
  Lattice vectors:
  
 A1 = (   1.4315177495,   1.4315177495,  -1.4315177495)
 A2 = (  -1.4315177495,   1.4315177495,   1.4315177495)
 A3 = (   1.4315177495,  -1.4315177495,   1.4315177495)
 
   2 primitive cells build up your supercell.
 

 Routine SETGRP: Setting up the symmetry group for a 
 simple cubic supercell.


 Subroutine GETGRP returns: Found 48 space group operations
 (whereof 48 operations were pure point group operations)
 out of a pool of 48 trial point group operations.


The dynamic configuration has the point symmetry O_h .


Analysis of structural, dynamic, and magnetic symmetry:
=====================================================================
 Subroutine PRICEL returns following result:
 
  LATTYP: Found a body centered cubic cell.
 ALAT       =     2.8630354989
  
  Lattice vectors:
  
 A1 = (   1.4315177495,   1.4315177495,  -1.4315177495)
 A2 = (  -1.4315177495,   1.4315177495,   1.4315177495)
 A3 = (   1.4315177495,  -1.4315177495,   1.4315177495)
 
   2 primitive cells build up your supercell.
 

 Routine SETGRP: Setting up the symmetry group for a 
 simple cubic supercell.


 Subroutine GETGRP returns: Found 48 space group operations
 (whereof 48 operations were pure point group operations)
 out of a pool of 48 trial point group operations.


The overall configuration has the point symmetry O_h .


 Subroutine INISYM returns: Found 48 space group operations
 (whereof 48 operations are pure point group operations),
 and found     2 'primitive' translations


----------------------------------------------------------------------------------------

                                     Primitive cell                                     

  volume of cell :      11.7341

  direct lattice vectors                    reciprocal lattice vectors
     1.431517749  1.431517749 -1.431517749     0.349279637  0.349279637  0.000000000
    -1.431517749  1.431517749  1.431517749     0.000000000  0.349279637  0.349279637
     1.431517749 -1.431517749  1.431517749     0.349279637 -0.000000000  0.349279637

  length of vectors
     2.479461474  2.479461474  2.479461474     0.493956000  0.493956000  0.493956000

  position of ions in fractional coordinates (direct lattice)
     0.000000000  0.000000000  0.000000000

  ion indices of the primitive-cell ions
   primitive index   ion index
                 1           1

----------------------------------------------------------------------------------------

 
 -----------------------------------------------------------------------------
|                                                                             |
|           W    W    AA    RRRRR   N    N  II  N    N   GGGG   !!!           |
|           W    W   A  A   R    R  NN   N  II  NN   N  G    G  !!!           |
|           W    W  A    A  R    R  N N  N  II  N N  N  G       !!!           |
|           W WW W  AAAAAA  RRRRR   N  N N  II  N  N N  G  GGG   !            |
|           WW  WW  A    A  R   R   N   NN  II  N   NN  G    G                |
|           W    W  A    A  R    R  N    N  II  N    N   GGGG   !!!           |
|                                                                             |
|     The requested file  could not be found or opened for reading            |
|     k-point information. Automatic k-point generation is used as a          |
|     fallback, which may lead to unwanted results.                           |
|                                                                             |
 -----------------------------------------------------------------------------

 

Automatic generation of k-mesh.
 Grid dimensions derived from KSPACING:
 generate k-points for:   14   14   14

 Generating k-lattice:

  Cartesian coordinates                     Fractional coordinates (reciprocal lattice)
     0.024948546 -0.000000000  0.000000000     0.071428571  0.000000000  0.000000000
     0.000000000  0.024948546  0.000000000     0.000000000  0.071428571  0.000000000
    -0.000000000 -0.000000000  0.024948546     0.000000000  0.000000000  0.071428571

  Length of vectors
     0.024948546  0.024948546  0.024948546

  Shift w.r.t. Gamma in fractional coordinates (k-lattice)
     0.000000000  0.000000000  0.000000000

 
 Subroutine IBZKPT returns following result:
 ===========================================
 
 Found    120 irreducible k-points:
 
 Following reciprocal coordinates:
            Coordinates               Weight
  0.000000  0.000000  0.000000      1.000000
  0.071429 -0.000000  0.000000      6.000000
  0.142857  0.000000  0.000000      6.000000
  0.214286  0.000000  0.000000      6.000000
  0.285714  0.000000  0.000000      6.000000
  0.357143  0.000000  0.000000      6.000000
  0.428571  0.000000  0.000000      6.000000
  0.500000  0.000000  0.000000      3.000000
  0.071429  0.071429  0.000000     12.000000
  0.142857  0.071429  0.000000     24.000000
  0.214286  0.071429  0.000000     24.000000
  0.285714  0.071429  0.000000     24.000000
  0.357143  0.071429  0.000000     24.000000
  0.428571  0.071429  0.000000     24.000000
  0.500000  0.071429  0.000000     12.000000
  0.142857  0.142857  0.000000     12.000000
  0.214286  0.142857  0.000000     24.000000
  0.285714  0.142857  0.000000     24.000000
  0.357143  0.142857  0.000000     24.000000
  0.428571  0.142857  0.000000     24.000000
  0.500000  0.142857  0.000000     12.000000
  0.214286  0.214286  0.000000     12.000000
  0.285714  0.214286  0.000000     24.000000
  0.357143  0.214286  0.000000     24.000000
  0.428571  0.214286  0.000000     24.000000
  0.500000  0.214286  0.000000     12.000000
  0.285714  0.285714  0.000000     12.000000
  0.357143  0.285714  0.000000     24.000000
  0.428571  0.285714  0.000000     24.000000
  0.500000  0.285714  0.000000     12.000000
  0.357143  0.357143  0.000000     12.000000
  0.428571  0.357143  0.000000     24.000000
  0.500000  0.357143  0.000000     12.000000
  0.428571  0.428571  0.000000     12.000000
  0.500000  0.428571  0.000000     12.000000
  0.500000  0.500000  0.000000      3.000000
  0.071429  0.071429  0.071429      8.000000
  0.142857  0.071429  0.071429     24.000000
  0.214286  0.071429  0.071429     24.000000
  0.285714  0.071429  0.071429     24.000000
  0.357143  0.071429  0.071429     24.000000
  0.428571  0.071429  0.071429     24.000000
  0.500000  0.071429  0.071429     12.000000
  0.142857  0.142857  0.071429     24.000000
  0.214286  0.142857  0.071429     48.000000
  0.285714  0.142857  0.071429     48.000000
  0.357143  0.142857  0.071429     48.000000
  0.428571  0.142857  0.071429     48.000000
  0.500000  0.142857  0.071429     24.000000
  0.214286  0.214286  0.071429     24.000000
  0.285714  0.214286  0.071429     48.000000
  0.357143  0.214286  0.071429     48.000000
  0.428571  0.214286  0.071429     48.000000
  0.500000  0.214286  0.071429     24.000000
  0.285714  0.285714  0.071429     24.000000
  0.357143  0.285714  0.071429     48.000000
  0.428571  0.285714  0.071429     48.000000
  0.500000  0.285714  0.071429     24.000000
  0.357143  0.357143  0.071429     24.000000
  0.428571  0.357143  0.071429     48.000000
  0.500000  0.357143  0.071429     24.000000
  0.428571  0.428571  0.071429     24.000000
  0.500000  0.428571  0.071429     24.000000
  0.500000  0.500000  0.071429      6.000000
  0.142857  0.142857  0.142857      8.000000
  0.214286  0.142857  0.142857     24.000000
  0.285714  0.142857  0.142857     24.000000
  0.357143  0.142857  0.142857     24.000000
  0.428571  0.142857  0.142857     24.000000
  0.500000  0.142857  0.142857     12.000000
  0.214286  0.214286  0.142857     24.000000
  0.285714  0.214286  0.142857     48.000000
  0.357143  0.214286  0.142857     48.000000
  0.428571  0.214286  0.142857     48.000000
  0.500000  0.214286  0.142857     24.000000
  0.285714  0.285714  0.142857     24.000000
  0.357143  0.285714  0.142857     48.000000
  0.428571  0.285714  0.142857     48.000000
  0.500000  0.285714  0.142857     24.000000
  0.357143  0.357143  0.142857     24.000000
  0.428571  0.357143  0.142857     48.000000
  0.500000  0.357143  0.142857     24.000000
  0.428571  0.428571  0.142857     24.000000
  0.500000  0.428571  0.142857     24.000000
  0.500000  0.500000  0.142857      6.000000
  0.214286  0.214286  0.214286      8.000000
  0.285714  0.214286  0.214286     24.000000
  0.357143  0.214286  0.214286     24.000000
  0.428571  0.214286  0.214286     24.000000
  0.500000  0.214286  0.214286     12.000000
  0.285714  0.285714  0.214286     24.000000
  0.357143  0.285714  0.214286     48.000000
  0.428571  0.285714  0.214286     48.000000
  0.500000  0.285714  0.214286     24.000000
  0.357143  0.357143  0.214286     24.000000
  0.428571  0.357143  0.214286     48.000000
  0.500000  0.357143  0.214286     24.000000
  0.428571  0.428571  0.214286     24.000000
  0.500000  0.428571  0.214286     24.000000
  0.500000  0.500000  0.214286      6.000000
  0.285714  0.285714  0.285714      8.000000
  0.357143  0.285714  0.285714     24.000000
  0.428571  0.285714  0.285714     24.000000
  0.500000  0.285714  0.285714     12.000000
  0.357143  0.357143  0.285714     24.000000
  0.428571  0.357143  0.285714     48.000000
  0.500000  0.357143  0.285714     24.000000
  0.428571  0.428571  0.285714     24.000000
  0.500000  0.428571  0.285714     24.000000
  0.500000  0.500000  0.285714      6.000000
  0.357143  0.357143  0.357143      8.000000
  0.428571  0.357143  0.357143     24.000000
  0.500000  0.357143  0.357143     12.000000
  0.428571  0.428571  0.357143     24.000000
  0.500000  0.428571  0.357143     24.000000
  0.500000  0.500000  0.357143      6.000000
  0.428571  0.428571  0.428571      8.000000
  0.500000  0.428571  0.428571     12.000000
  0.500000  0.500000  0.428571      6.000000
  0.500000  0.500000  0.500000      1.000000
 
 Following cartesian coordinates:
            Coordinates               Weight
  0.000000  0.000000  0.000000      1.000000
  0.024949 -0.000000  0.000000      6.000000
  0.049897 -0.000000  0.000000      6.000000
  0.074846 -0.000000  0.000000      6.000000
  0.099794 -0.000000  0.000000      6.000000
  0.124743 -0.000000  0.000000      6.000000
  0.149691 -0.000000  0.000000      6.000000
  0.174640 -0.000000  0.000000      3.000000
  0.024949  0.024949  0.000000     12.000000
  0.049897  0.024949  0.000000     24.000000
  0.074846  0.024949  0.000000     24.000000
  0.099794  0.024949  0.000000     24.000000
  0.124743  0.024949  0.000000     24.000000
  0.149691  0.024949  0.000000     24.000000
  0.174640  0.024949  0.000000     12.000000
  0.049897  0.049897  0.000000     12.000000
  0.074846  0.049897  0.000000     24.000000
  0.099794  0.049897  0.000000     24.000000
  0.124743  0.049897  0.000000     24.000000
  0.149691  0.049897  0.000000     24.000000
  0.174640  0.049897  0.000000     12.000000
  0.074846  0.074846  0.000000     12.000000
  0.099794  0.074846  0.000000     24.000000
  0.124743  0.074846  0.000000     24.000000
  0.149691  0.074846  0.000000     24.000000
  0.174640  0.074846  0.000000     12.000000
  0.099794  0.099794  0.000000     12.000000
  0.124743  0.099794  0.000000     24.000000
  0.149691  0.099794  0.000000     24.000000
  0.174640  0.099794  0.000000     12.000000
  0.124743  0.124743  0.000000     12.000000
  0.149691  0.124743  0.000000     24.000000
  0.174640  0.124743  0.000000     12.000000
  0.149691  0.149691  0.000000     12.000000
  0.174640  0.149691  0.000000     12.000000
  0.174640  0.174640  0.000000      3.000000
  0.024949  0.024949  0.024949      8.000000
  0.049897  0.024949  0.024949     24.000000
  0.074846  0.024949  0.024949     24.000000
  0.099794  0.024949  0.024949     24.000000
  0.124743  0.024949  0.024949     24.000000
  0.149691  0.024949  0.024949     24.000000
  0.174640  0.024949  0.024949     12.000000
  0.049897  0.049897  0.024949     24.000000
  0.074846  0.049897  0.024949     48.000000
  0.099794  0.049897  0.024949     48.000000
  0.124743  0.049897  0.024949     48.000000
  0.149691  0.049897  0.024949     48.000000
  0.174640  0.049897  0.024949     24.000000
  0.074846  0.074846  0.024949     24.000000
  0.099794  0.074846  0.024949     48.000000
  0.124743  0.074846  0.024949     48.000000
  0.149691  0.074846  0.024949     48.000000
  0.174640  0.074846  0.024949     24.000000
  0.099794  0.099794  0.024949     24.000000
  0.124743  0.099794  0.024949     48.000000
  0.149691  0.099794  0.024949     48.000000
  0.174640  0.099794  0.024949     24.000000
  0.124743  0.124743  0.024949     24.000000
  0.149691  0.124743  0.024949     48.000000
  0.174640  0.124743  0.024949     24.000000
  0.149691  0.149691  0.024949     24.000000
  0.174640  0.149691  0.024949     24.000000
  0.174640  0.174640  0.024949      6.000000
  0.049897  0.049897  0.049897      8.000000
  0.074846  0.049897  0.049897     24.000000
  0.099794  0.049897  0.049897     24.000000
  0.124743  0.049897  0.049897     24.000000
  0.149691  0.049897  0.049897     24.000000
  0.174640  0.049897  0.049897     12.000000
  0.074846  0.074846  0.049897     24.000000
  0.099794  0.074846  0.049897     48.000000
  0.124743  0.074846  0.049897     48.000000
  0.149691  0.074846  0.049897     48.000000
  0.174640  0.074846  0.049897     24.000000
  0.099794  0.099794  0.049897     24.000000
  0.124743  0.099794  0.049897     48.000000
  0.149691  0.099794  0.049897     48.000000
  0.174640  0.099794  0.049897     24.000000
  0.124743  0.124743  0.049897     24.000000
  0.149691  0.124743  0.049897     48.000000
  0.174640  0.124743  0.049897     24.000000
  0.149691  0.149691  0.049897     24.000000
  0.174640  0.149691  0.049897     24.000000
  0.174640  0.174640  0.049897      6.000000
  0.074846  0.074846  0.074846      8.000000
  0.099794  0.074846  0.074846     24.000000
  0.124743  0.074846  0.074846     24.000000
  0.149691  0.074846  0.074846     24.000000
  0.174640  0.074846  0.074846     12.000000
  0.099794  0.099794  0.074846     24.000000
  0.124743  0.099794  0.074846     48.000000
  0.149691  0.099794  0.074846     48.000000
  0.174640  0.099794  0.074846     24.000000
  0.124743  0.124743  0.074846     24.000000
  0.149691  0.124743  0.074846     48.000000
  0.174640  0.124743  0.074846     24.000000
  0.149691  0.149691  0.074846     24.000000
  0.174640  0.149691  0.074846     24.000000
  0.174640  0.174640  0.074846      6.000000
  0.099794  0.099794  0.099794      8.000000
  0.124743  0.099794  0.099794     24.000000
  0.149691  0.099794  0.099794     24.000000
  0.174640  0.099794  0.099794     12.000000
  0.124743  0.124743  0.099794     24.000000
  0.149691  0.124743  0.099794     48.000000
  0.174640  0.124743  0.099794     24.000000
  0.149691  0.149691  0.099794     24.000000
  0.174640  0.149691  0.099794     24.000000
  0.174640  0.174640  0.099794      6.000000
  0.124743  0.124743  0.124743      8.000000
  0.149691  0.124743  0.124743     24.000000
  0.174640  0.124743  0.124743     12.000000
  0.149691  0.149691  0.124743     24.000000
  0.174640  0.149691  0.124743     24.000000
  0.174640  0.174640  0.124743      6.000000
  0.149691  0.149691  0.149691      8.000000
  0.174640  0.149691  0.149691     12.000000
  0.174640  0.174640  0.149691      6.000000
  0.174640  0.174640  0.174640      1.000000
 


--------------------------------------------------------------------------------------------------------




 Dimension of arrays:
   k-points           NKPTS =    120   k-points in BZ     NKDIM =    120   number of bands    NBANDS=     20
   number of dos      NEDOS =    301   number of ions     NIONS =      2
   non local maximal  LDIM  =      6   non local SUM 2l+1 LMDIM =     18
   total plane-waves  NPLWV =   5832
   max r-space proj   IRMAX =      1   max aug-charges    IRDMAX=  71010
   dimension x,y,z NGX =    18 NGY =   18 NGZ =   18
   dimension x,y,z NGXF=    36 NGYF=   36 NGZF=   36
   support grid    NGXF=    72 NGYF=   72 NGZF=   72
   ions per type =               2
   NGX,Y,Z   is equivalent  to a cutoff of  10.45, 10.45, 10.45 a.u.
   NGXF,Y,Z  is equivalent  to a cutoff of  20.90, 20.90, 20.90 a.u.

 SYSTEM =  unknown system                          
 POSCAR =  Fe2                                     

 Startparameter for this run:
   NWRITE =      2    write-flag & timer
   PREC   = accura    normal or accurate (medium, high low for compatibility)
   ISTART =      0    job   : 0-new  1-cont  2-samecut
   ICHARG =      2    charge: 1-file 2-atom 10-const
   ISPIN  =      2    spin polarized calculation?
   LNONCOLLINEAR =      F non collinear calculations
   LSORBIT =      F    spin-orbit coupling
   INIWAV =      1    electr: 0-lowe 1-rand  2-diag
   LASPH  =      T    aspherical Exc in radial PAW
   METAGGA=      F    non-selfconsistent MetaGGA calc.

 Electronic Relaxation 1
   ENCUT  =  350.0 eV  25.72 Ry    5.07 a.u.   4.37  4.37  4.37*2*pi/ulx,y,z
   ENINI  =  350.0     initial cutoff
   ENAUG  =  511.4 eV  augmentation charge cutoff
   NELM   =     90;   NELMIN=  6; NELMDL= -5     # of ELM steps 
   EDIFF  = 0.1E-05   stopping-criterion for ELM
   LREAL  =      F    real-space projection
   NLSPLINE    = F    spline interpolate recip. space projectors
   LCOMPAT=      F    compatible to vasp.4.4
   GGA_COMPAT  = F    GGA compatible to vasp.4.4-vasp.4.6
   LMAXPAW     = -100 max onsite density
   LMAXMIX     =    4 max onsite mixed and CHGCAR
   VOSKOWN=      1    Vosko Wilk Nusair interpolation
   ROPT   =    0.00000
 Ionic relaxation
   EDIFFG = -.2E-02   stopping-criterion for IOM
   NSW    =    100    number of steps for IOM
   NBLOCK =      1;   KBLOCK =    100    inner block; outer block 
   IBRION =      2    ionic relax: 0-MD 1-quasi-New 2-CG
   NFREE  =      1    steps in history (QN), initial steepest desc. (CG)
   ISIF   =      3    stress and relaxation
   IWAVPR =     11    prediction:  0-non 1-charg 2-wave 3-comb
   ISYM   =      2    0-nonsym 1-usesym 2-fastsym
   LCORR  =      T    Harris-Foulkes like correction to forces

   POTIM  = 0.5000    time-step for ionic-motion
   TEIN   =    0.0    initial temperature
   TEBEG  =    0.0;   TEEND  =   0.0 temperature during run
   SMASS  =  -3.00    Nose mass-parameter (am)
   estimated Nose-frequenzy (Omega)   =  0.10E-29 period in steps = 0.13E+47 mass=  -0.187E-27a.u.
   SCALEE = 1.0000    scale energy and forces
   NPACO  =    256;   APACO  = 16.0  distance and # of slots for P.C.
   PSTRESS=    0.0 pullay stress

  Mass of Ions in am
   POMASS =  55.85
  Ionic Valenz
   ZVAL   =   8.00
  Atomic Wigner-Seitz radii
   RWIGS  =  -1.00
  virtual crystal weights 
   VCA    =   1.00
   NELECT =      16.0000    total number of electrons
   NUPDOWN=      -1.0000    fix difference up-down

 DOS related values:
   EMIN   =  10.00;   EMAX   =-10.00  energy-range for DOS
   EFERMI =   0.00
   ISMEAR =     1;   SIGMA  =   0.20  broadening in eV -4-tet -1-fermi 0-gaus

 Electronic relaxation 2 (details)
   IALGO  =     38    algorithm
   LDIAG  =      T    sub-space diagonalisation (order eigenvalues)
   LSUBROT=      F    optimize rotation matrix (better conditioning)
   TURBO    =      0    0=normal 1=particle mesh
   IRESTART =      0    0=no restart 2=restart with 2 vectors
   NREBOOT  =      0    no. of reboots
   NMIN     =      0    reboot dimension
   EREF     =   0.00    reference energy to select bands
   IMIX   =      4    mixing-type and parameters
     AMIX     =   0.40;   BMIX     =  1.00
     AMIX_MAG =   1.60;   BMIX_MAG =  1.00
     AMIN     =   0.10
     WC   =   100.;   INIMIX=   1;  MIXPRE=   1;  MAXMIX= -45

 Intra band minimization:
   WEIMIN = 0.0010     energy-eigenvalue tresh-hold
   EBREAK =  0.12E-07  absolut break condition
   DEPER  =   0.30     relativ break condition  

   TIME   =   0.40     timestep for ELM

  volume/ion in A,a.u.               =      11.73        79.19
  Fermi-wavevector in a.u.,A,eV,Ry     =   1.440859  2.722828 28.246703  2.076074
  Thomas-Fermi vector in A             =   2.559556
 
 Write flags
   LWAVE        =      T    write WAVECAR
   LDOWNSAMPLE  =      F    k-point downsampling of WAVECAR
   LCHARG       =      T    write CHGCAR
   LVTOT        =      F    write LOCPOT, total local potential
   LVHAR        =      F    write LOCPOT, Hartree potential only
   LELF         =      F    write electronic localiz. function (ELF)
   LORBIT       =     11    0 simple, 1 ext, 2 COOP (PROOUT), +10 PAW based schemes


 Dipole corrections
   LMONO  =      F    monopole corrections only (constant potential shift)
   LDIPOL =      F    correct potential (dipole corrections)
   IDIPOL =      0    1-x, 2-y, 3-z, 4-all directions 
   EPSILON=  1.0000000 bulk dielectric constant

 Exchange correlation treatment:
   GGA     =    --    GGA type
   LEXCH   =     8    internal setting for exchange type
   VOSKOWN=      1    Vosko Wilk Nusair interpolation
   LHFCALC =     F    Hartree Fock is set to
   LHFONE  =     F    Hartree Fock one center treatment
   AEXX    =    0.0000 exact exchange contribution

 Linear response parameters
   LEPSILON=     F    determine dielectric tensor
   LRPA    =     F    only Hartree local field effects (RPA)
   LNABLA  =     F    use nabla operator in PAW spheres
   LVEL    =     F    velocity operator in full k-point grid
   LINTERFAST=   F  fast interpolation
   KINTER  =     0    interpolate to denser k-point grid
   CSHIFT  =0.1000    complex shift for real part using Kramers Kronig
   OMEGAMAX=  -1.0    maximum frequency
   DEG_THRESHOLD= 0.2000000E-02 threshold for treating states as degnerate
   RTIME   =   -0.100 relaxation time in fs
  (WPLASMAI=    0.000 imaginary part of plasma frequency in eV, 0.658/RTIME)
   DFIELD  = 0.0000000 0.0000000 0.0000000 field for delta impulse in time
 
 Orbital magnetization related:
   ORBITALMAG=     F  switch on orbital magnetization
   LCHIMAG   =     F  perturbation theory with respect to B field
   DQ        =  0.001000  dq finite difference perturbation B field
   LLRAUG    =     F  two centre corrections for induced B field



--------------------------------------------------------------------------------------------------------


 conjugate gradient relaxation of ions
 charge density and potential will be updated during run
 spin polarized calculation
 Variant of blocked Davidson
 Davidson routine will perform the subspace rotation
 perform sub-space diagonalisation
    after iterative eigenvector-optimisation
 modified Broyden-mixing scheme, WC =      100.0
 initial mixing is a Kerker type mixing with AMIX =  0.4000 and BMIX =      1.0000
 Hartree-type preconditioning will be used
 using additional bands           12
 reciprocal scheme for non local part
 use partial core corrections
 calculate Harris-corrections to forces 
   (improved forces if not selfconsistent)
 use gradient corrections 
 use of overlap-Matrix (Vanderbilt PP)
 Methfessel and Paxton  Order N= 1 SIGMA  =   0.20


--------------------------------------------------------------------------------------------------------


  energy-cutoff  :      350.00
  volume of cell :       23.47
      direct lattice vectors                 reciprocal lattice vectors
     2.863035499  0.000000000  0.000000000     0.349279637 -0.000000000  0.000000000
     0.000000000  2.863035499  0.000000000     0.000000000  0.349279637  0.000000000
     0.000000000  0.000000000  2.863035499    -0.000000000 -0.000000000  0.349279637

  length of vectors
     2.863035499  2.863035499  2.863035499     0.349279637  0.349279637  0.349279637


 
 k-points in units of 2pi/SCALE and weight: read from INCAR                         
   0.00000000  0.00000000  0.00000000       0.000
   0.02494855 -0.00000000  0.00000000       0.002
   0.04989709 -0.00000000  0.00000000       0.002
   0.07484564 -0.00000000  0.00000000       0.002
   0.09979418 -0.00000000  0.00000000       0.002
   0.12474273 -0.00000000  0.00000000       0.002
   0.14969127 -0.00000000  0.00000000       0.002
   0.17463982 -0.00000000  0.00000000       0.001
   0.02494855  0.02494855  0.00000000       0.004
   0.04989709  0.02494855  0.00000000       0.009
   0.07484564  0.02494855  0.00000000       0.009
   0.09979418  0.02494855  0.00000000       0.009
   0.12474273  0.02494855  0.00000000       0.009
   0.14969127  0.02494855  0.00000000       0.009
   0.17463982  0.02494855  0.00000000       0.004
   0.04989709  0.04989709  0.00000000       0.004
   0.07484564  0.04989709  0.00000000       0.009
   0.09979418  0.04989709  0.00000000       0.009
   0.12474273  0.04989709  0.00000000       0.009
   0.14969127  0.04989709  0.00000000       0.009
   0.17463982  0.04989709  0.00000000       0.004
   0.07484564  0.07484564  0.00000000       0.004
   0.09979418  0.07484564  0.00000000       0.009
   0.12474273  0.07484564  0.00000000       0.009
   0.14969127  0.07484564  0.00000000       0.009
   0.17463982  0.07484564  0.00000000       0.004
   0.09979418  0.09979418  0.00000000       0.004
   0.12474273  0.09979418  0.00000000       0.009
   0.14969127  0.09979418  0.00000000       0.009
   0.17463982  0.09979418  0.00000000       0.004
   0.12474273  0.12474273  0.00000000       0.004
   0.14969127  0.12474273  0.00000000       0.009
   0.17463982  0.12474273  0.00000000       0.004
   0.14969127  0.14969127  0.00000000       0.004
   0.17463982  0.14969127  0.00000000       0.004
   0.17463982  0.17463982  0.00000000       0.001
   0.02494855  0.02494855  0.02494855       0.003
   0.04989709  0.02494855  0.02494855       0.009
   0.07484564  0.02494855  0.02494855       0.009
   0.09979418  0.02494855  0.02494855       0.009
   0.12474273  0.02494855  0.02494855       0.009
   0.14969127  0.02494855  0.02494855       0.009
   0.17463982  0.02494855  0.02494855       0.004
   0.04989709  0.04989709  0.02494855       0.009
   0.07484564  0.04989709  0.02494855       0.017
   0.09979418  0.04989709  0.02494855       0.017
   0.12474273  0.04989709  0.02494855       0.017
   0.14969127  0.04989709  0.02494855       0.017
   0.17463982  0.04989709  0.02494855       0.009
   0.07484564  0.07484564  0.02494855       0.009
   0.09979418  0.07484564  0.02494855       0.017
   0.12474273  0.07484564  0.02494855       0.017
   0.14969127  0.07484564  0.02494855       0.017
   0.17463982  0.07484564  0.02494855       0.009
   0.09979418  0.09979418  0.02494855       0.009
   0.12474273  0.09979418  0.02494855       0.017
   0.14969127  0.09979418  0.02494855       0.017
   0.17463982  0.09979418  0.02494855       0.009
   0.12474273  0.12474273  0.02494855       0.009
   0.14969127  0.12474273  0.02494855       0.017
   0.17463982  0.12474273  0.02494855       0.009
   0.14969127  0.14969127  0.02494855       0.009
   0.17463982  0.14969127  0.02494855       0.009
   0.17463982  0.17463982  0.02494855       0.002
   0.04989709  0.04989709  0.04989709       0.003
   0.07484564  0.04989709  0.04989709       0.009
   0.09979418  0.04989709  0.04989709       0.009
   0.12474273  0.04989709  0.04989709       0.009
   0.14969127  0.04989709  0.04989709       0.009
   0.17463982  0.04989709  0.04989709       0.004
   0.07484564  0.07484564  0.04989709       0.009
   0.09979418  0.07484564  0.04989709       0.017
   0.12474273  0.07484564  0.04989709       0.017
   0.14969127  0.07484564  0.04989709       0.017
   0.17463982  0.07484564  0.04989709       0.009
   0.09979418  0.09979418  0.04989709       0.009
   0.12474273  0.09979418  0.04989709       0.017
   0.14969127  0.09979418  0.04989709       0.017
   0.17463982  0.09979418  0.04989709       0.009
   0.12474273  0.12474273  0.04989709       0.009
   0.14969127  0.12474273  0.04989709       0.017
   0.17463982  0.12474273  0.04989709       0.009
   0.14969127  0.14969127  0.04989709       0.009
   0.17463982  0.14969127  0.04989709       0.009
   0.17463982  0.17463982  0.04989709       0.002
   0.07484564  0.07484564  0.07484564       0.003
   0.09979418  0.07484564  0.07484564       0.009
   0.12474273  0.07484564  0.07484564       0.009
   0.14969127  0.07484564  0.07484564       0.009
   0.17463982  0.07484564  0.07484564       0.004
   0.09979418  0.09979418  0.07484564       0.009
   0.12474273  0.09979418  0.07484564       0.017
   0.14969127  0.09979418  0.07484564       0.017
   0.17463982  0.09979418  0.07484564       0.009
   0.12474273  0.12474273  0.07484564       0.009
   0.14969127  0.12474273  0.07484564       0.017
   0.17463982  0.12474273  0.07484564       0.009
   0.14969127  0.14969127  0.07484564       0.009
   0.17463982  0.14969127  0.07484564       0.009
   0.17463982  0.17463982  0.07484564       0.002
   0.09979418  0.09979418  0.09979418       0.003
   0.12474273  0.09979418  0.09979418       0.009
   0.14969127  0.09979418  0.09979418       0.009
   0.17463982  0.09979418  0.09979418       0.004
   0.12474273  0.12474273  0.09979418       0.009
   0.14969127  0.12474273  0.09979418       0.017
   0.17463982  0.12474273  0.09979418       0.009
   0.14969127  0.14969127  0.09979418       0.009
   0.17463982  0.14969127  0.09979418       0.009
   0.17463982  0.17463982  0.09979418       0.002
   0.12474273  0.12474273  0.12474273       0.003
   0.14969127  0.12474273  0.12474273       0.009
   0.17463982  0.12474273  0.12474273       0.004
   0.14969127  0.14969127  0.12474273       0.009
   0.17463982  0.14969127  0.12474273       0.009
   0.17463982  0.17463982  0.12474273       0.002
   0.14969127  0.14969127  0.14969127       0.003
   0.17463982  0.14969127  0.14969127       0.004
   0.17463982  0.17463982  0.14969127       0.002
   0.17463982  0.17463982  0.17463982       0.000
 
 k-points in reciprocal lattice and weights: read from INCAR                         
   0.00000000  0.00000000  0.00000000       0.000
   0.07142857 -0.00000000  0.00000000       0.002
   0.14285714  0.00000000  0.00000000       0.002
   0.21428571  0.00000000  0.00000000       0.002
   0.28571429  0.00000000  0.00000000       0.002
   0.35714286  0.00000000  0.00000000       0.002
   0.42857143  0.00000000  0.00000000       0.002
   0.50000000  0.00000000  0.00000000       0.001
   0.07142857  0.07142857  0.00000000       0.004
   0.14285714  0.07142857  0.00000000       0.009
   0.21428571  0.07142857  0.00000000       0.009
   0.28571429  0.07142857  0.00000000       0.009
   0.35714286  0.07142857  0.00000000       0.009
   0.42857143  0.07142857  0.00000000       0.009
   0.50000000  0.07142857  0.00000000       0.004
   0.14285714  0.14285714  0.00000000       0.004
   0.21428571  0.14285714  0.00000000       0.009
   0.28571429  0.14285714  0.00000000       0.009
   0.35714286  0.14285714  0.00000000       0.009
   0.42857143  0.14285714  0.00000000       0.009
   0.50000000  0.14285714  0.00000000       0.004
   0.21428571  0.21428571  0.00000000       0.004
   0.28571429  0.21428571  0.00000000       0.009
   0.35714286  0.21428571  0.00000000       0.009
   0.42857143  0.21428571  0.00000000       0.009
   0.50000000  0.21428571  0.00000000       0.004
   0.28571429  0.28571429  0.00000000       0.004
   0.35714286  0.28571429  0.00000000       0.009
   0.42857143  0.28571429  0.00000000       0.009
   0.50000000  0.28571429  0.00000000       0.004
   0.35714286  0.35714286  0.00000000       0.004
   0.42857143  0.35714286  0.00000000       0.009
   0.50000000  0.35714286  0.00000000       0.004
   0.42857143  0.42857143  0.00000000       0.004
   0.50000000  0.42857143  0.00000000       0.004
   0.50000000  0.50000000  0.00000000       0.001
   0.07142857  0.07142857  0.07142857       0.003
   0.14285714  0.07142857  0.07142857       0.009
   0.21428571  0.07142857  0.07142857       0.009
   0.28571429  0.07142857  0.07142857       0.009
   0.35714286  0.07142857  0.07142857       0.009
   0.42857143  0.07142857  0.07142857       0.009
   0.50000000  0.07142857  0.07142857       0.004
   0.14285714  0.14285714  0.07142857       0.009
   0.21428571  0.14285714  0.07142857       0.017
   0.28571429  0.14285714  0.07142857       0.017
   0.35714286  0.14285714  0.07142857       0.017
   0.42857143  0.14285714  0.07142857       0.017
   0.50000000  0.14285714  0.07142857       0.009
   0.21428571  0.21428571  0.07142857       0.009
   0.28571429  0.21428571  0.07142857       0.017
   0.35714286  0.21428571  0.07142857       0.017
   0.42857143  0.21428571  0.07142857       0.017
   0.50000000  0.21428571  0.07142857       0.009
   0.28571429  0.28571429  0.07142857       0.009
   0.35714286  0.28571429  0.07142857       0.017
   0.42857143  0.28571429  0.07142857       0.017
   0.50000000  0.28571429  0.07142857       0.009
   0.35714286  0.35714286  0.07142857       0.009
   0.42857143  0.35714286  0.07142857       0.017
   0.50000000  0.35714286  0.07142857       0.009
   0.42857143  0.42857143  0.07142857       0.009
   0.50000000  0.42857143  0.07142857       0.009
   0.50000000  0.50000000  0.07142857       0.002
   0.14285714  0.14285714  0.14285714       0.003
   0.21428571  0.14285714  0.14285714       0.009
   0.28571429  0.14285714  0.14285714       0.009
   0.35714286  0.14285714  0.14285714       0.009
   0.42857143  0.14285714  0.14285714       0.009
   0.50000000  0.14285714  0.14285714       0.004
   0.21428571  0.21428571  0.14285714       0.009
   0.28571429  0.21428571  0.14285714       0.017
   0.35714286  0.21428571  0.14285714       0.017
   0.42857143  0.21428571  0.14285714       0.017
   0.50000000  0.21428571  0.14285714       0.009
   0.28571429  0.28571429  0.14285714       0.009
   0.35714286  0.28571429  0.14285714       0.017
   0.42857143  0.28571429  0.14285714       0.017
   0.50000000  0.28571429  0.14285714       0.009
   0.35714286  0.35714286  0.14285714       0.009
   0.42857143  0.35714286  0.14285714       0.017
   0.50000000  0.35714286  0.14285714       0.009
   0.42857143  0.42857143  0.14285714       0.009
   0.50000000  0.42857143  0.14285714       0.009
   0.50000000  0.50000000  0.14285714       0.002
   0.21428571  0.21428571  0.21428571       0.003
   0.28571429  0.21428571  0.21428571       0.009
   0.35714286  0.21428571  0.21428571       0.009
   0.42857143  0.21428571  0.21428571       0.009
   0.50000000  0.21428571  0.21428571       0.004
   0.28571429  0.28571429  0.21428571       0.009
   0.35714286  0.28571429  0.21428571       0.017
   0.42857143  0.28571429  0.21428571       0.017
   0.50000000  0.28571429  0.21428571       0.009
   0.35714286  0.35714286  0.21428571       0.009
   0.42857143  0.35714286  0.21428571       0.017
   0.50000000  0.35714286  0.21428571       0.009
   0.42857143  0.42857143  0.21428571       0.009
   0.50000000  0.42857143  0.21428571       0.009
   0.50000000  0.50000000  0.21428571       0.002
   0.28571429  0.28571429  0.28571429       0.003
   0.35714286  0.28571429  0.28571429       0.009
   0.42857143  0.28571429  0.28571429       0.009
   0.50000000  0.28571429  0.28571429       0.004
   0.35714286  0.35714286  0.28571429       0.009
   0.42857143  0.35714286  0.28571429       0.017
   0.50000000  0.35714286  0.28571429       0.009
   0.42857143  0.42857143  0.28571429       0.009
   0.50000000  0.42857143  0.28571429       0.009
   0.50000000  0.50000000  0.28571429       0.002
   0.35714286  0.35714286  0.35714286       0.003
   0.42857143  0.35714286  0.35714286       0.009
   0.50000000  0.35714286  0.35714286       0.004
   0.42857143  0.42857143  0.35714286       0.009
   0.50000000  0.42857143  0.35714286       0.009
   0.50000000  0.50000000  0.35714286       0.002
   0.42857143  0.42857143  0.42857143       0.003
   0.50000000  0.42857143  0.42857143       0.004
   0.50000000  0.50000000  0.42857143       0.002
   0.50000000  0.50000000  0.50000000       0.000
 
 position of ions in fractional coordinates (direct lattice) 
   0.00000000  0.00000000  0.00000000
   0.50000000  0.50000000  0.50000000
 
 position of ions in cartesian coordinates  (Angst):
   0.00000000  0.00000000  0.00000000
   1.43151775  1.43151775  1.43151775
 


--------------------------------------------------------------------------------------------------------


 k-point   1 :   0.0000 0.0000 0.0000  plane waves:     365
 k-point   2 :   0.0714-0.0000 0.0000  plane waves:     353
 k-point   3 :   0.1429 0.0000 0.0000  plane waves:     353
 k-point   4 :   0.2143 0.0000 0.0000  plane waves:     349
 k-point   5 :   0.2857 0.0000 0.0000  plane waves:     357
 k-point   6 :   0.3571 0.0000 0.0000  plane waves:     353
 k-point   7 :   0.4286 0.0000 0.0000  plane waves:     352
 k-point   8 :   0.5000 0.0000 0.0000  plane waves:     336
 k-point   9 :   0.0714 0.0714 0.0000  plane waves:     355
 k-point  10 :   0.1429 0.0714 0.0000  plane waves:     354
 k-point  11 :   0.2143 0.0714 0.0000  plane waves:     355
 k-point  12 :   0.2857 0.0714 0.0000  plane waves:     350
 k-point  13 :   0.3571 0.0714 0.0000  plane waves:     352
 k-point  14 :   0.4286 0.0714 0.0000  plane waves:     346
 k-point  15 :   0.5000 0.0714 0.0000  plane waves:     348
 k-point  16 :   0.1429 0.1429 0.0000  plane waves:     356
 k-point  17 :   0.2143 0.1429 0.0000  plane waves:     357
 k-point  18 :   0.2857 0.1429 0.0000  plane waves:     351
 k-point  19 :   0.3571 0.1429 0.0000  plane waves:     350
 k-point  20 :   0.4286 0.1429 0.0000  plane waves:     348
 k-point  21 :   0.5000 0.1429 0.0000  plane waves:     346
 k-point  22 :   0.2143 0.2143 0.0000  plane waves:     346
 k-point  23 :   0.2857 0.2143 0.0000  plane waves:     345
 k-point  24 :   0.3571 0.2143 0.0000  plane waves:     348
 k-point  25 :   0.4286 0.2143 0.0000  plane waves:     350
 k-point  26 :   0.5000 0.2143 0.0000  plane waves:     354
 k-point  27 :   0.2857 0.2857 0.0000  plane waves:     346
 k-point  28 :   0.3571 0.2857 0.0000  plane waves:     352
 k-point  29 :   0.4286 0.2857 0.0000  plane waves:     352
 k-point  30 :   0.5000 0.2857 0.0000  plane waves:     350
 k-point  31 :   0.3571 0.3571 0.0000  plane waves:     346
 k-point  32 :   0.4286 0.3571 0.0000  plane waves:     353
 k-point  33 :   0.5000 0.3571 0.0000  plane waves:     356
 k-point  34 :   0.4286 0.4286 0.0000  plane waves:     354
 k-point  35 :   0.5000 0.4286 0.0000  plane waves:     360
 k-point  36 :   0.5000 0.5000 0.0000  plane waves:     356
 k-point  37 :   0.0714 0.0714 0.0714  plane waves:     353
 k-point  38 :   0.1429 0.0714 0.0714  plane waves:     352
 k-point  39 :   0.2143 0.0714 0.0714  plane waves:     353
 k-point  40 :   0.2857 0.0714 0.0714  plane waves:     348
 k-point  41 :   0.3571 0.0714 0.0714  plane waves:     348
 k-point  42 :   0.4286 0.0714 0.0714  plane waves:     351
 k-point  43 :   0.5000 0.0714 0.0714  plane waves:     346
 k-point  44 :   0.1429 0.1429 0.0714  plane waves:     351
 k-point  45 :   0.2143 0.1429 0.0714  plane waves:     355
 k-point  46 :   0.2857 0.1429 0.0714  plane waves:     349
 k-point  47 :   0.3571 0.1429 0.0714  plane waves:     353
 k-point  48 :   0.4286 0.1429 0.0714  plane waves:     352
 k-point  49 :   0.5000 0.1429 0.0714  plane waves:     350
 k-point  50 :   0.2143 0.2143 0.0714  plane waves:     350
 k-point  51 :   0.2857 0.2143 0.0714  plane waves:     350
 k-point  52 :   0.3571 0.2143 0.0714  plane waves:     357
 k-point  53 :   0.4286 0.2143 0.0714  plane waves:     350
 k-point  54 :   0.5000 0.2143 0.0714  plane waves:     350
 k-point  55 :   0.2857 0.2857 0.0714  plane waves:     352
 k-point  56 :   0.3571 0.2857 0.0714  plane waves:     350
 k-point  57 :   0.4286 0.2857 0.0714  plane waves:     349
 k-point  58 :   0.5000 0.2857 0.0714  plane waves:     352
 k-point  59 :   0.3571 0.3571 0.0714  plane waves:     346
 k-point  60 :   0.4286 0.3571 0.0714  plane waves:     350
 k-point  61 :   0.5000 0.3571 0.0714  plane waves:     350
 k-point  62 :   0.4286 0.4286 0.0714  plane waves:     350
 k-point  63 :   0.5000 0.4286 0.0714  plane waves:     354
 k-point  64 :   0.5000 0.5000 0.0714  plane waves:     348
 k-point  65 :   0.1429 0.1429 0.1429  plane waves:     353
 k-point  66 :   0.2143 0.1429 0.1429  plane waves:     349
 k-point  67 :   0.2857 0.1429 0.1429  plane waves:     353
 k-point  68 :   0.3571 0.1429 0.1429  plane waves:     354
 k-point  69 :   0.4286 0.1429 0.1429  plane waves:     351
 k-point  70 :   0.5000 0.1429 0.1429  plane waves:     352
 k-point  71 :   0.2143 0.2143 0.1429  plane waves:     347
 k-point  72 :   0.2857 0.2143 0.1429  plane waves:     353
 k-point  73 :   0.3571 0.2143 0.1429  plane waves:     353
 k-point  74 :   0.4286 0.2143 0.1429  plane waves:     351
 k-point  75 :   0.5000 0.2143 0.1429  plane waves:     350
 k-point  76 :   0.2857 0.2857 0.1429  plane waves:     353
 k-point  77 :   0.3571 0.2857 0.1429  plane waves:     345
 k-point  78 :   0.4286 0.2857 0.1429  plane waves:     346
 k-point  79 :   0.5000 0.2857 0.1429  plane waves:     350
 k-point  80 :   0.3571 0.3571 0.1429  plane waves:     345
 k-point  81 :   0.4286 0.3571 0.1429  plane waves:     345
 k-point  82 :   0.5000 0.3571 0.1429  plane waves:     346
 k-point  83 :   0.4286 0.4286 0.1429  plane waves:     347
 k-point  84 :   0.5000 0.4286 0.1429  plane waves:     348
 k-point  85 :   0.5000 0.5000 0.1429  plane waves:     340
 k-point  86 :   0.2143 0.2143 0.2143  plane waves:     353
 k-point  87 :   0.2857 0.2143 0.2143  plane waves:     350
 k-point  88 :   0.3571 0.2143 0.2143  plane waves:     345
 k-point  89 :   0.4286 0.2143 0.2143  plane waves:     345
 k-point  90 :   0.5000 0.2143 0.2143  plane waves:     350
 k-point  91 :   0.2857 0.2857 0.2143  plane waves:     353
 k-point  92 :   0.3571 0.2857 0.2143  plane waves:     345
 k-point  93 :   0.4286 0.2857 0.2143  plane waves:     348
 k-point  94 :   0.5000 0.2857 0.2143  plane waves:     348
 k-point  95 :   0.3571 0.3571 0.2143  plane waves:     346
 k-point  96 :   0.4286 0.3571 0.2143  plane waves:     346
 k-point  97 :   0.5000 0.3571 0.2143  plane waves:     344
 k-point  98 :   0.4286 0.4286 0.2143  plane waves:     345
 k-point  99 :   0.5000 0.4286 0.2143  plane waves:     348
 k-point 100 :   0.5000 0.5000 0.2143  plane waves:     344
 k-point 101 :   0.2857 0.2857 0.2857  plane waves:     350
 k-point 102 :   0.3571 0.2857 0.2857  plane waves:     345
 k-point 103 :   0.4286 0.2857 0.2857  plane waves:     346
 k-point 104 :   0.5000 0.2857 0.2857  plane waves:     346
 k-point 105 :   0.3571 0.3571 0.2857  plane waves:     348
 k-point 106 :   0.4286 0.3571 0.2857  plane waves:     347
 k-point 107 :   0.5000 0.3571 0.2857  plane waves:     344
 k-point 108 :   0.4286 0.4286 0.2857  plane waves:     342
 k-point 109 :   0.5000 0.4286 0.2857  plane waves:     340
 k-point 110 :   0.5000 0.5000 0.2857  plane waves:     344
 k-point 111 :   0.3571 0.3571 0.3571  plane waves:     344
 k-point 112 :   0.4286 0.3571 0.3571  plane waves:     340
 k-point 113 :   0.5000 0.3571 0.3571  plane waves:     334
 k-point 114 :   0.4286 0.4286 0.3571  plane waves:     341
 k-point 115 :   0.5000 0.4286 0.3571  plane waves:     336
 k-point 116 :   0.5000 0.5000 0.3571  plane waves:     340
 k-point 117 :   0.4286 0.4286 0.4286  plane waves:     344
 k-point 118 :   0.5000 0.4286 0.4286  plane waves:     342
 k-point 119 :   0.5000 0.5000 0.4286  plane waves:     340
 k-point 120 :   0.5000 0.5000 0.5000  plane waves:     360

 maximum and minimum number of plane-waves per node :       365      334

 maximum number of plane-waves:       365
 maximum index in each direction: 
   IXMAX=    4   IYMAX=    4   IZMAX=    4
   IXMIN=   -4   IYMIN=   -4   IZMIN=   -4


 serial   3D FFT for wavefunctions
 parallel 3D FFT for charge:
    minimum data exchange during FFTs selected (reduces bandwidth)


 total amount of memory used by VASP MPI-rank0    47316. kBytes
=======================================================================

   base      :      30000. kBytes
   nonl-proj :       6370. kBytes
   fftplans  :       1775. kBytes
   grid      :       1353. kBytes
   one-center:         62. kBytes
   wavefun   :       7756. kBytes
 
     INWAV:  cpu time    0.0000: real time    0.0005
 Broyden mixing: mesh for mixing (old mesh)
   NGX =  9   NGY =  9   NGZ =  9
  (NGX  = 36   NGY  = 36   NGZ  = 36)
  gives a total of    729 points

 initial charge density was supplied:
 charge density of overlapping atoms calculated
 number of electron      16.0000000 magnetization      10.0000000
 keeping initial charge density in first step


--------------------------------------------------------------------------------------------------------


 Maximum index for augmentation-charges        17277 (set IRDMAX)


--------------------------------------------------------------------------------------------------------


 First call to EWALD:  gamma=   0.619
 Maximum number of real-space cells 3x 3x 3
 Maximum number of reciprocal cells 3x 3x 3

    FEWALD:  cpu time    0.0030: real time    0.0035


--------------------------------------- Iteration      1(   1)  ---------------------------------------


    POTLOK:  cpu time    0.0350: real time    0.0382
    SETDIJ:  cpu time    1.5518: real time    1.5519
     EDDAV:  cpu time    3.8384: real time    3.8429
       DOS:  cpu time    0.0100: real time    0.0102
    --------------------------------------------
      LOOP:  cpu time    5.4352: real time    5.4436

 eigenvalue-minimisations  : 10716
 total energy-change (2. order) : 0.6335703E+02  (-0.6097708E+03)
 number of electron      16.0000000 magnetization      10.0000000
 augmentation part       16.0000000 magnetization      10.0000000

 Free energy of the ion-electron system (eV)
  ---------------------------------------------------
  alpha Z        PSCENC =       117.79976220
  Ewald energy   TEWEN  =     -1171.43779597
  -Hartree energ DENC   =      -228.04061711
  -exchange      EXHF   =         0.00000000
  -V(xc)+E(xc)   XCENC  =        14.27160946
  PAW double counting   =      1103.49540010    -1119.11610375
  entropy T*S    EENTRO =         0.00137960
  eigenvalues    EBANDS =       157.79373995
  atomic energy  EATOM  =      1188.58965621
  Solvation  Ediel_sol  =         0.00000000
  ---------------------------------------------------
  free energy    TOTEN  =        63.35703070 eV

  energy without entropy =       63.35565109  energy(sigma->0) =       63.35657083


--------------------------------------------------------------------------------------------------------




--------------------------------------- Iteration      1(   2)  ---------------------------------------


     EDDAV:  cpu time    3.5665: real time    3.5861
       DOS:  cpu time    0.0100: real time    0.0106
    --------------------------------------------
      LOOP:  cpu time    3.5775: real time    3.5967

 eigenvalue-minimisations  :  9816
 total energy-change (2. order) :-0.7672990E+02  (-0.6841027E+02)
 number of electron      16.0000000 magnetization      10.0000000
 augmentation part       16.0000000 magnetization      10.0000000

 Free energy of the ion-electron system (eV)
  ---------------------------------------------------
  alpha Z        PSCENC =       117.79976220
  Ewald energy   TEWEN  =     -1171.43779597
  -Hartree energ DENC   =      -228.04061711
  -exchange      EXHF   =         0.00000000
  -V(xc)+E(xc)   XCENC  =        14.27160946
  PAW double counting   =      1103.49540010    -1119.11610375
  entropy T*S    EENTRO =        -0.00052196
  eigenvalues    EBANDS =        81.06574520
  atomic energy  EATOM  =      1188.58965621
  Solvation  Ediel_sol  =         0.00000000
  ---------------------------------------------------
  free energy    TOTEN  =       -13.37286562 eV

  energy without entropy =      -13.37234366  energy(sigma->0) =      -13.37269164


--------------------------------------------------------------------------------------------------------




--------------------------------------- Iteration      1(   3)  ---------------------------------------


     EDDAV:  cpu time    3.8704: real time    3.8911
       DOS:  cpu time    0.0100: real time    0.0110
    --------------------------------------------
      LOOP:  cpu time    3.8804: real time    3.9021

 eigenvalue-minimisations  : 10876
 total energy-change (2. order) :-0.2693032E+01  (-0.2633276E+01)
 number of electron      16.0000000 magnetization      10.0000000
 augmentation part       16.0000000 magnetization      10.0000000

 Free energy of the ion-electron system (eV)
  ---------------------------------------------------
  alpha Z        PSCENC =       117.79976220
  Ewald energy   TEWEN  =     -1171.43779597
  -Hartree energ DENC   =      -228.04061711
  -exchange      EXHF   =         0.00000000
  -V(xc)+E(xc)   XCENC  =        14.27160946
  PAW double counting   =      1103.49540010    -1119.11610375
  entropy T*S    EENTRO =         0.00130727
  eigenvalues    EBANDS =        78.37088440
  atomic energy  EATOM  =      1188.58965621
  Solvation  Ediel_sol  =         0.00000000
  ---------------------------------------------------
  free energy    TOTEN  =       -16.06589719 eV

  energy without entropy =      -16.06720446  energy(sigma->0) =      -16.06633295


--------------------------------------------------------------------------------------------------------




--------------------------------------- Iteration      1(   4)  ---------------------------------------


     EDDAV:  cpu time    3.7954: real time    3.8144
       DOS:  cpu time    0.0090: real time    0.0106
    --------------------------------------------
      LOOP:  cpu time    3.8044: real time    3.8250

 eigenvalue-minimisations  : 10444
 total energy-change (2. order) :-0.2007536E-01  (-0.2007072E-01)
 number of electron      16.0000000 magnetization      10.0000000
 augmentation part       16.0000000 magnetization      10.0000000

 Free energy of the ion-electron system (eV)
  ---------------------------------------------------
  alpha Z        PSCENC =       117.79976220
  Ewald energy   TEWEN  =     -1171.43779597
  -Hartree energ DENC   =      -228.04061711
  -exchange      EXHF   =         0.00000000
  -V(xc)+E(xc)   XCENC  =        14.27160946
  PAW double counting   =      1103.49540010    -1119.11610375
  entropy T*S    EENTRO =         0.00132373
  eigenvalues    EBANDS =        78.35079258
  atomic energy  EATOM  =      1188.58965621
  Solvation  Ediel_sol  =         0.00000000
  ---------------------------------------------------
  free energy    TOTEN  =       -16.08597255 eV

  energy without entropy =      -16.08729628  energy(sigma->0) =      -16.08641379


--------------------------------------------------------------------------------------------------------




--------------------------------------- Iteration      1(   5)  ---------------------------------------


     EDDAV:  cpu time    3.8584: real time    3.8778
       DOS:  cpu time    0.0110: real time    0.0108
    CHARGE:  cpu time    0.2220: real time    0.2229
    MIXING:  cpu time    0.0010: real time    0.0011
    --------------------------------------------
      LOOP:  cpu time    4.0924: real time    4.1125

 eigenvalue-minimisations  : 10792
 total energy-change (2. order) :-0.2464953E-03  (-0.2464911E-03)
 number of electron      16.0000001 magnetization       4.3862779
 augmentation part        7.3764907 magnetization       2.7148319

 Broyden mixing:
  rms(total) = 0.19571E+01    rms(broyden)= 0.19569E+01
  rms(prec ) = 0.35390E+01
  weight for this iteration     100.00

 Free energy of the ion-electron system (eV)
  ---------------------------------------------------
  alpha Z        PSCENC =       117.79976220
  Ewald energy   TEWEN  =     -1171.43779597
  -Hartree energ DENC   =      -228.04061711
  -exchange      EXHF   =         0.00000000
  -V(xc)+E(xc)   XCENC  =        14.27160946
  PAW double counting   =      1103.49540010    -1119.11610375
  entropy T*S    EENTRO =         0.00132378
  eigenvalues    EBANDS =        78.35054604
  atomic energy  EATOM  =      1188.58965621
  Solvation  Ediel_sol  =         0.00000000
  ---------------------------------------------------
  free energy    TOTEN  =       -16.08621905 eV

  energy without entropy =      -16.08754282  energy(sigma->0) =      -16.08666030


--------------------------------------------------------------------------------------------------------




--------------------------------------- Iteration      1(   6)  ---------------------------------------


    POTLOK:  cpu time    0.0390: real time    0.0508
    SETDIJ:  cpu time    1.5458: real time    1.5475
     EDDAV:  cpu time    3.7734: real time    3.7772
       DOS:  cpu time    0.0120: real time    0.0115
    CHARGE:  cpu time    0.2050: real time    0.2064
    MIXING:  cpu time    0.0010: real time    0.0012
    --------------------------------------------
      LOOP:  cpu time    5.5762: real time    5.5945

 eigenvalue-minimisations  : 10632
 total energy-change (2. order) :-0.4838265E+00  (-0.5179327E+00)
 number of electron      16.0000001 magnetization       4.6215571
 augmentation part        8.4864649 magnetization       3.7922895

 Broyden mixing:
  rms(total) = 0.61076E+00    rms(broyden)= 0.60995E+00
  rms(prec ) = 0.68549E+00
  weight for this iteration     100.00

 eigenvalues of (default mixing * dielectric matrix)
  average eigenvalue GAMMA=   0.8846
  0.8846

 Free energy of the ion-electron system (eV)
  ---------------------------------------------------
  alpha Z        PSCENC =       117.79976220
  Ewald energy   TEWEN  =     -1171.43779597
  -Hartree energ DENC   =      -196.91579651
  -exchange      EXHF   =         0.00000000
  -V(xc)+E(xc)   XCENC  =         8.24222733
  PAW double counting   =      1215.39916772    -1227.63416814
  entropy T*S    EENTRO =         0.00219574
  eigenvalues    EBANDS =        49.38470587
  atomic energy  EATOM  =      1188.58965621
  Solvation  Ediel_sol  =         0.00000000
  ---------------------------------------------------
  free energy    TOTEN  =       -16.57004555 eV

  energy without entropy =      -16.57224129  energy(sigma->0) =      -16.57077746


--------------------------------------------------------------------------------------------------------




--------------------------------------- Iteration      1(   7)  ---------------------------------------


    POTLOK:  cpu time    0.0360: real time    0.0503
    SETDIJ:  cpu time    1.5478: real time    1.5482
     EDDAV:  cpu time    3.9884: real time    3.9931
       DOS:  cpu time    0.0110: real time    0.0113
    CHARGE:  cpu time    0.2070: real time    0.2068
    MIXING:  cpu time    0.0010: real time    0.0011
    --------------------------------------------
      LOOP:  cpu time    5.7901: real time    5.8109

 eigenvalue-minimisations  : 11380
 total energy-change (2. order) : 0.6067510E-01  (-0.3744959E-01)
 number of electron      16.0000001 magnetization       4.4962104
 augmentation part        8.2568979 magnetization       3.7097043

 Broyden mixing:
  rms(total) = 0.43547E+00    rms(broyden)= 0.43536E+00
  rms(prec ) = 0.51402E+00
  weight for this iteration     100.00

 eigenvalues of (default mixing * dielectric matrix)
  average eigenvalue GAMMA=   0.7737
  1.0305  0.5169

 Free energy of the ion-electron system (eV)
  ---------------------------------------------------
  alpha Z        PSCENC =       117.79976220
  Ewald energy   TEWEN  =     -1171.43779597
  -Hartree energ DENC   =      -199.43254906
  -exchange      EXHF   =         0.00000000
  -V(xc)+E(xc)   XCENC  =         8.86161092
  PAW double counting   =      1292.67463617    -1307.96936726
  entropy T*S    EENTRO =         0.00191253
  eigenvalues    EBANDS =        54.40276381
  atomic energy  EATOM  =      1188.58965621
  Solvation  Ediel_sol  =         0.00000000
  ---------------------------------------------------
  free energy    TOTEN  =       -16.50937045 eV

  energy without entropy =      -16.51128297  energy(sigma->0) =      -16.51000796


--------------------------------------------------------------------------------------------------------




--------------------------------------- Iteration      1(   8)  ---------------------------------------


    POTLOK:  cpu time    0.0360: real time    0.0518
    SETDIJ:  cpu time    1.5458: real time    1.5467
     EDDAV:  cpu time    4.2444: real time    4.2525
       DOS:  cpu time    0.0120: real time    0.0115
    CHARGE:  cpu time    0.2060: real time    0.2063
    MIXING:  cpu time    0.0010: real time    0.0012
    --------------------------------------------
      LOOP:  cpu time    6.0451: real time    6.0698

 eigenvalue-minimisations  : 12304
 total energy-change (2. order) : 0.1644372E-01  (-0.9735907E-03)
 number of electron      16.0000001 magnetization       4.4315496
 augmentation part        8.2815989 magnetization       3.6435954

 Broyden mixing:
  rms(total) = 0.16088E+00    rms(broyden)= 0.16085E+00
  rms(prec ) = 0.22977E+00
  weight for this iteration     100.00

 eigenvalues of (default mixing * dielectric matrix)
  average eigenvalue GAMMA=   1.1138
  1.8843  0.8816  0.5756

 Free energy of the ion-electron system (eV)
  ---------------------------------------------------
  alpha Z        PSCENC =       117.79976220
  Ewald energy   TEWEN  =     -1171.43779597
  -Hartree energ DENC   =      -197.74132992
  -exchange      EXHF   =         0.00000000
  -V(xc)+E(xc)   XCENC  =         8.63160474
  PAW double counting   =      1331.09082366    -1347.22458556
  entropy T*S    EENTRO =         0.00176311
  eigenvalues    EBANDS =        53.79717479
  atomic energy  EATOM  =      1188.58965621
  Solvation  Ediel_sol  =         0.00000000
  ---------------------------------------------------
  free energy    TOTEN  =       -16.49292673 eV

  energy without entropy =      -16.49468984  energy(sigma->0) =      -16.49351444


--------------------------------------------------------------------------------------------------------




--------------------------------------- Iteration      1(   9)  ---------------------------------------


    POTLOK:  cpu time    0.0360: real time    0.0511
    SETDIJ:  cpu time    1.5458: real time    1.5465
     EDDAV:  cpu time    4.8213: real time    4.8304
       DOS:  cpu time    0.0110: real time    0.0109
    CHARGE:  cpu time    0.2060: real time    0.2062
    MIXING:  cpu time    0.0020: real time    0.0012
    --------------------------------------------
      LOOP:  cpu time    6.6220: real time    6.6463

 eigenvalue-minimisations  : 14272
 total energy-change (2. order) : 0.1120339E-01  (-0.2810501E-03)
 number of electron      16.0000001 magnetization       4.4731938
 augmentation part        8.3192860 magnetization       3.6828179

 Broyden mixing:
  rms(total) = 0.41916E-01    rms(broyden)= 0.41897E-01
  rms(prec ) = 0.48077E-01
  weight for this iteration     100.00

 eigenvalues of (default mixing * dielectric matrix)
  average eigenvalue GAMMA=   1.1898
  2.3407  1.0552  0.6816  0.6816

 Free energy of the ion-electron system (eV)
  ---------------------------------------------------
  alpha Z        PSCENC =       117.79976220
  Ewald energy   TEWEN  =     -1171.43779597
  -Hartree energ DENC   =      -195.32445163
  -exchange      EXHF   =         0.00000000
  -V(xc)+E(xc)   XCENC  =         8.49125519
  PAW double counting   =      1391.90050420    -1409.41580107
  entropy T*S    EENTRO =         0.00155898
  eigenvalues    EBANDS =        52.91358856
  atomic energy  EATOM  =      1188.58965621
  Solvation  Ediel_sol  =         0.00000000
  ---------------------------------------------------
  free energy    TOTEN  =       -16.48172334 eV

  energy without entropy =      -16.48328232  energy(sigma->0) =      -16.48224300


--------------------------------------------------------------------------------------------------------




--------------------------------------- Iteration      1(  10)  ---------------------------------------


    POTLOK:  cpu time    0.0350: real time    0.0517
    SETDIJ:  cpu time    1.5468: real time    1.5474
     EDDAV:  cpu time    4.0014: real time    4.0085
       DOS:  cpu time    0.0100: real time    0.0114
    CHARGE:  cpu time    0.2070: real time    0.2063
    MIXING:  cpu time    0.0010: real time    0.0013
    --------------------------------------------
      LOOP:  cpu time    5.8011: real time    5.8265

 eigenvalue-minimisations  : 11432
 total energy-change (2. order) : 0.3834305E-03  (-0.1449246E-03)
 number of electron      16.0000001 magnetization       4.4832135
 augmentation part        8.3078100 magnetization       3.6886968

 Broyden mixing:
  rms(total) = 0.59360E-02    rms(broyden)= 0.59322E-02
  rms(prec ) = 0.82417E-02
  weight for this iteration     100.00

 eigenvalues of (default mixing * dielectric matrix)
  average eigenvalue GAMMA=   1.1472
  2.4125  1.1235  0.6358  0.7820  0.7820

 Free energy of the ion-electron system (eV)
  ---------------------------------------------------
  alpha Z        PSCENC =       117.79976220
  Ewald energy   TEWEN  =     -1171.43779597
  -Hartree energ DENC   =      -195.15757426
  -exchange      EXHF   =         0.00000000
  -V(xc)+E(xc)   XCENC  =         8.52893875
  PAW double counting   =      1409.45392148    -1427.44492013
  entropy T*S    EENTRO =         0.00181334
  eigenvalues    EBANDS =        53.18485845
  atomic energy  EATOM  =      1188.58965621
  Solvation  Ediel_sol  =         0.00000000
  ---------------------------------------------------
  free energy    TOTEN  =       -16.48133991 eV

  energy without entropy =      -16.48315325  energy(sigma->0) =      -16.48194436


--------------------------------------------------------------------------------------------------------




--------------------------------------- Iteration      1(  11)  ---------------------------------------


    POTLOK:  cpu time    0.0360: real time    0.0513
    SETDIJ:  cpu time    1.5438: real time    1.5460
     EDDAV:  cpu time    4.0184: real time    4.0246
       DOS:  cpu time    0.0110: real time    0.0114
    CHARGE:  cpu time    0.2070: real time    0.2067
    MIXING:  cpu time    0.0010: real time    0.0012
    --------------------------------------------
      LOOP:  cpu time    5.8171: real time    5.8413

 eigenvalue-minimisations  : 11420
 total energy-change (2. order) :-0.3439237E-04  (-0.7935025E-05)
 number of electron      16.0000001 magnetization       4.4802196
 augmentation part        8.3093373 magnetization       3.6861217

 Broyden mixing:
  rms(total) = 0.51233E-02    rms(broyden)= 0.51231E-02
  rms(prec ) = 0.54609E-02
  weight for this iteration     100.00

 eigenvalues of (default mixing * dielectric matrix)
  average eigenvalue GAMMA=   1.1171
  2.4054  1.2740  1.0122  0.6964  0.6964  0.6181

 Free energy of the ion-electron system (eV)
  ---------------------------------------------------
  alpha Z        PSCENC =       117.79976220
  Ewald energy   TEWEN  =     -1171.43779597
  -Hartree energ DENC   =      -195.10993338
  -exchange      EXHF   =         0.00000000
  -V(xc)+E(xc)   XCENC  =         8.54126586
  PAW double counting   =      1411.63331430    -1429.64749178
  entropy T*S    EENTRO =         0.00179848
  eigenvalues    EBANDS =        53.14804979
  atomic energy  EATOM  =      1188.58965621
  Solvation  Ediel_sol  =         0.00000000
  ---------------------------------------------------
  free energy    TOTEN  =       -16.48137430 eV

  energy without entropy =      -16.48317278  energy(sigma->0) =      -16.48197379


--------------------------------------------------------------------------------------------------------




--------------------------------------- Iteration      1(  12)  ---------------------------------------


    POTLOK:  cpu time    0.0350: real time    0.0513
    SETDIJ:  cpu time    1.5458: real time    1.5455
     EDDAV:  cpu time    3.5565: real time    3.5598
       DOS:  cpu time    0.0110: real time    0.0112
    CHARGE:  cpu time    0.2070: real time    0.2067
    MIXING:  cpu time    0.0000: real time    0.0013
    --------------------------------------------
      LOOP:  cpu time    5.3562: real time    5.3758

 eigenvalue-minimisations  :  9676
 total energy-change (2. order) : 0.1519333E-04  (-0.2001887E-06)
 number of electron      16.0000001 magnetization       4.4786870
 augmentation part        8.3093931 magnetization       3.6847128

 Broyden mixing:
  rms(total) = 0.22048E-02    rms(broyden)= 0.22048E-02
  rms(prec ) = 0.25137E-02
  weight for this iteration     100.00

 eigenvalues of (default mixing * dielectric matrix)
  average eigenvalue GAMMA=   1.2437
  2.4464  2.3282  1.0756  0.8259  0.7142  0.6579  0.6579

 Free energy of the ion-electron system (eV)
  ---------------------------------------------------
  alpha Z        PSCENC =       117.79976220
  Ewald energy   TEWEN  =     -1171.43779597
  -Hartree energ DENC   =      -195.12190745
  -exchange      EXHF   =         0.00000000
  -V(xc)+E(xc)   XCENC  =         8.53870348
  PAW double counting   =      1411.71407364    -1429.70992026
  entropy T*S    EENTRO =         0.00180282
  eigenvalues    EBANDS =        53.14426623
  atomic energy  EATOM  =      1188.58965621
  Solvation  Ediel_sol  =         0.00000000
  ---------------------------------------------------
  free energy    TOTEN  =       -16.48135911 eV

  energy without entropy =      -16.48316193  energy(sigma->0) =      -16.48196005


--------------------------------------------------------------------------------------------------------




--------------------------------------- Iteration      1(  13)  ---------------------------------------


    POTLOK:  cpu time    0.0370: real time    0.0510
    SETDIJ:  cpu time    1.5458: real time    1.5476
     EDDAV:  cpu time    3.2985: real time    3.3019
       DOS:  cpu time    0.0120: real time    0.0115
    --------------------------------------------
      LOOP:  cpu time    4.8923: real time    4.9120

 eigenvalue-minimisations  :  8584
 total energy-change (2. order) :-0.3817081E-07  (-0.1743247E-06)
 number of electron      16.0000001 magnetization       4.4786870
 augmentation part        8.3093931 magnetization       3.6847128

 Free energy of the ion-electron system (eV)
  ---------------------------------------------------
  alpha Z        PSCENC =       117.79976220
  Ewald energy   TEWEN  =     -1171.43779597
  -Hartree energ DENC   =      -195.12882186
  -exchange      EXHF   =         0.00000000
  -V(xc)+E(xc)   XCENC  =         8.53846047
  PAW double counting   =      1412.19833773    -1430.18041616
  entropy T*S    EENTRO =         0.00180155
  eigenvalues    EBANDS =        53.13765668
  atomic energy  EATOM  =      1188.58965621
  Solvation  Ediel_sol  =         0.00000000
  ---------------------------------------------------
  free energy    TOTEN  =       -16.48135915 eV

  energy without entropy =      -16.48316070  energy(sigma->0) =      -16.48195966


--------------------------------------------------------------------------------------------------------




 average (electrostatic) potential at core
  the test charge radii are     1.0103
  (the norm of the test charge is              1.0000)
       1 -43.6069       2 -43.6069
 
 
 
 E-fermi :   5.4735     XC(G=0): -12.9360     alpha+bet :-13.2097

 Fermi energy:         5.4734948742

 spin component 1

 k-point     1 :       0.0000    0.0000    0.0000
  band No.  band energies     occupation 
      1      -2.7466      1.00000
      2       0.8367      1.00000
      3       0.8367      1.00000
      4       3.2520      1.00000
      5       3.2520      1.00000
      6       3.2520      1.00000
      7       4.4031      1.00000
      8       4.4031      1.00000
      9       5.5547      0.18581
     10       5.5547      0.18581
     11       5.5547      0.18581
     12      15.2045      0.00000
     13      15.2045      0.00000
     14      15.2045      0.00000
     15      20.8171      0.00000
     16      20.8171      0.00000
     17      25.5374      0.00000
     18      30.2032      0.00000
     19      30.2032      0.00000
     20      30.2032      0.00000

 k-point     2 :       0.0714   -0.0000    0.0000
  band No.  band energies     occupation 
      1      -2.6433      1.00000
      2       0.8801      1.00000
      3       0.8813      1.00000
      4       3.2514      1.00000
      5       3.2514      1.00000
      6       3.2797      1.00000
      7       4.3586      1.00000
      8       4.4207      1.00000
      9       5.4704      0.51302
     10       5.4704      0.51302
     11       5.5249      0.29018
     12      14.4529      0.00000
     13      15.3982      0.00000
     14      15.3982      0.00000
     15      20.8489      0.00000
     16      21.3784      0.00000
     17      25.8853      0.00000
     18      29.4853      0.00000
     19      30.0956      0.00000
     20      30.0956      0.00000

 k-point     3 :       0.1429    0.0000    0.0000
  band No.  band energies     occupation 
      1      -2.3377      1.00000
      2       1.0051      1.00000
      3       1.0080      1.00000
      4       3.2525      1.00000
      5       3.2525      1.00000
      6       3.3617      1.00000
      7       4.2268      1.00000
      8       4.4723      1.00000
      9       5.2404      1.03487
     10       5.2404      1.03487
     11       5.4367      0.65272
     12      12.8537      0.00000
     13      15.9546      0.00000
     14      15.9546      0.00000
     15      20.9450      0.00000
     16      22.2740      0.00000
     17      27.0715      0.00000
     18      28.1108      0.00000
     19      29.6137      0.00000
     20      29.6137      0.00000

 k-point     4 :       0.2143    0.0000    0.0000
  band No.  band energies     occupation 
      1      -1.8446      1.00000
      2       1.1790      1.00000
      3       1.2152      1.00000
      4       3.2648      1.00000
      5       3.2648      1.00000
      6       3.4942      1.00000
      7       4.0137      1.00000
      8       4.5551      1.00000
      9       4.9194      1.00032
     10       4.9194      1.00032
     11       5.2951      1.01002
     12      11.0651      0.00000
     13      16.8154      0.00000
     14      16.8154      0.00000
     15      21.1119      0.00000
     16      22.8650      0.00000
     17      26.7137      0.00000
     18      28.5530      0.00000
     19      28.5530      0.00000
     20      29.1138      0.00000

 k-point     5 :       0.2857    0.0000    0.0000
  band No.  band energies     occupation 
      1      -1.1929      1.00000
      2       1.3510      1.00000
      3       1.4927      1.00000
      4       3.3005      1.00000
      5       3.3005      1.00000
      6       3.6714      1.00000
      7       3.7288      1.00000
      8       4.5654      1.00000
      9       4.5654      1.00000
[...]

 k-point   114 :       0.4286    0.4286    0.3571
  band No.  band energies     occupation 
      1       3.5912      1.00000
      2       3.6377      1.00000
      3       3.9528      1.00000
      4       4.0539      1.00000
      5       4.2061      1.00000
      6       4.3779      1.00000
      7       7.6959     -0.00000
      8       7.7200     -0.00000
      9       7.7796     -0.00000
     10       7.7959     -0.00000
     11      11.6991      0.00000
     12      13.0994      0.00000
     13      14.7371      0.00000
     14      16.5406      0.00000
     15      16.8541      0.00000
     16      18.4011      0.00000
     17      19.4195      0.00000
     18      21.2010      0.00000
     19      37.9782      0.00000
     20      38.9732      0.00000

 k-point   115 :       0.5000    0.4286    0.3571
  band No.  band energies     occupation 
      1       3.6134      1.00000
      2       3.6134      1.00000
      3       3.9690      1.00000
      4       3.9690      1.00000
      5       4.3638      1.00000
      6       4.3638      1.00000
      7       7.7170     -0.00000
      8       7.7170     -0.00000
      9       7.8119     -0.00000
     10       7.8119     -0.00000
     11      12.4835      0.00000
     12      12.4835      0.00000
     13      15.4464      0.00000
     14      15.4464      0.00000
     15      17.6429      0.00000
     16      17.6429      0.00000
     17      20.0119      0.00000
     18      20.0119      0.00000
     19      38.7304      0.00000
     20      38.7304      0.00000

 k-point   116 :       0.5000    0.5000    0.3571
  band No.  band energies     occupation 
      1       3.6267      1.00000
      2       3.6267      1.00000
      3       3.9225      1.00000
      4       3.9225      1.00000
      5       4.4309      1.00000
      6       4.4309      1.00000
      7       7.7344     -0.00000
      8       7.7344     -0.00000
      9       7.8282     -0.00000
     10       7.8282     -0.00000
     11      12.8529      0.00000
     12      12.8529      0.00000
     13      14.9584      0.00000
     14      14.9584      0.00000
     15      18.2157      0.00000
     16      18.2157      0.00000
     17      19.1687      0.00000
     18      19.1687      0.00000
     19      39.1369      0.00000
     20      39.1369      0.00000

 k-point   117 :       0.4286    0.4286    0.4286
  band No.  band energies     occupation 
      1       3.7163      1.00000
      2       3.9503      1.00000
      3       3.9504      1.00000
      4       4.0037      1.00000
      5       4.1543      1.00000
      6       4.1544      1.00000
      7       7.7843     -0.00000
      8       7.7844     -0.00000
      9       7.7956     -0.00000
     10       7.7957     -0.00000
     11      12.5688      0.00000
     12      14.3271      0.00000
     13      14.3272      0.00000
     14      16.3744      0.00000
     15      16.9861      0.00000
     16      16.9861      0.00000
     17      18.3916      0.00000
     18      19.8160      0.00000
     19      40.4217      0.00000
     20      40.4217      0.00000

 k-point   118 :       0.5000    0.4286    0.4286
  band No.  band energies     occupation 
      1       3.8128      1.00000
      2       3.8128      1.00000
      3       4.0136      1.00000
      4       4.0136      1.00000
      5       4.1654      1.00000
      6       4.1654      1.00000
      7       7.7912     -0.00000
      8       7.7912     -0.00000
      9       7.8208     -0.00000
     10       7.8208     -0.00000
     11      13.4716      0.00000
     12      13.4716      0.00000
     13      15.6253      0.00000
     14      15.6253      0.00000
     15      16.7115      0.00000
     16      16.7115      0.00000
     17      18.7020      0.00000
     18      18.7020      0.00000
     19      41.0763      0.00000
     20      41.0763      0.00000

 k-point   119 :       0.5000    0.5000    0.4286
  band No.  band energies     occupation 
      1       3.9078      1.00000
      2       3.9078      1.00000
      3       3.9325      1.00000
      4       3.9325      1.00000
      5       4.1752      1.00000
      6       4.1752      1.00000
      7       7.8087     -0.00000
      8       7.8087     -0.00000
      9       7.8348     -0.00000
     10       7.8348     -0.00000
     11      14.1035      0.00000
     12      14.1035      0.00000
     13      15.2376      0.00000
     14      15.2376      0.00000
     15      16.7937      0.00000
     16      16.7937      0.00000
     17      18.0019      0.00000
     18      18.0019      0.00000
     19      41.9383      0.00000
     20      41.9383      0.00000

 k-point   120 :       0.5000    0.5000    0.5000
  band No.  band energies     occupation 
      1       4.0114      1.00000
      2       4.0114      1.00000
      3       4.0115      1.00000
      4       4.0115      1.00000
      5       4.0115      1.00000
      6       4.0115      1.00000
      7       7.8368     -0.00000
      8       7.8368     -0.00000
      9       7.8370     -0.00000
     10       7.8370     -0.00000
     11      15.4199      0.00000
     12      15.4199      0.00000
     13      15.4199      0.00000
     14      15.4199      0.00000
     15      15.4199      0.00000
     16      15.4199      0.00000
     17      17.5089      0.00000
     18      17.5089      0.00000
     19      44.7317      0.00000
     20      44.7317      0.00000


--------------------------------------------------------------------------------------------------------


 soft charge-density along one line, spin component           1
         0         1         2         3         4         5         6         7         8         9
 total charge-density along one line
 
 soft charge-density along one line, spin component           2
         0         1         2         3         4         5         6         7         8         9
 total charge-density along one line
 
 pseudopotential strength for first ion, spin component:           1
 -5.566  -0.000  -0.000  -0.000  -0.000  -6.097  -0.000  -0.000
 -0.000  -5.566   0.000  -0.000   0.000  -0.000  -6.097   0.000
 -0.000   0.000  -5.776   0.000   0.000  -0.000   0.000  -6.301
 -0.000  -0.000   0.000  -5.566  -0.000  -0.000  -0.000   0.000
 -0.000   0.000   0.000  -0.000  -5.776  -0.000   0.000   0.000
 -6.097  -0.000  -0.000  -0.000  -0.000  -6.587  -0.000  -0.000
 -0.000  -6.097   0.000  -0.000   0.000  -0.000  -6.587   0.000
 -0.000   0.000  -6.301   0.000   0.000  -0.000   0.000  -6.784
 -0.000  -0.000   0.000  -6.097  -0.000  -0.000  -0.000   0.000
 -0.000   0.000   0.000  -0.000  -6.301  -0.000   0.000   0.000
 -0.000   0.000   0.000   0.000  -0.000  -0.000   0.000   0.000
 -0.000   0.000   0.000   0.000  -0.000  -0.000   0.000   0.000
  0.000   0.000  -0.000  -0.000  -0.000   0.000   0.000  -0.000
 -0.000   0.000   0.000  -0.000   0.000  -0.000   0.000   0.000
  0.000  -0.000   0.000   0.000  -0.000   0.000  -0.000   0.000
  0.000   0.000  -0.000   0.000  -0.000   0.000   0.000  -0.000
  0.000   0.000   0.000  -0.000   0.000   0.000   0.000   0.000
  0.000   0.000   0.000   0.000  -0.000   0.000   0.000   0.000
 pseudopotential strength for first ion, spin component:           2
 -4.133   0.000  -0.000   0.000  -0.000  -4.708   0.000  -0.000
  0.000  -4.133  -0.000  -0.000  -0.000   0.000  -4.708  -0.000
 -0.000  -0.000  -3.881  -0.000  -0.000  -0.000  -0.000  -4.466
  0.000  -0.000  -0.000  -4.133   0.000   0.000  -0.000  -0.000
 -0.000  -0.000  -0.000   0.000  -3.881  -0.000  -0.000  -0.000
 -4.708   0.000  -0.000   0.000  -0.000  -5.241   0.000  -0.000
  0.000  -4.708  -0.000  -0.000  -0.000   0.000  -5.241  -0.000
 -0.000  -0.000  -4.466  -0.000  -0.000  -0.000  -0.000  -5.007
  0.000  -0.000  -0.000  -4.708   0.000   0.000  -0.000  -0.000
 -0.000  -0.000  -0.000   0.000  -4.466  -0.000  -0.000  -0.000
 -0.000  -0.000  -0.000  -0.000   0.000  -0.000  -0.000  -0.000
 -0.000  -0.000  -0.000  -0.000   0.000  -0.000  -0.000  -0.000
  0.000   0.000  -0.000  -0.000  -0.000   0.000   0.000  -0.000
 -0.000   0.000   0.000  -0.000   0.000  -0.000   0.000   0.000
  0.000  -0.000   0.000   0.000  -0.000   0.000  -0.000   0.000
  0.000   0.000  -0.000  -0.000  -0.000   0.000   0.000  -0.000
 -0.000   0.000   0.000  -0.000   0.000  -0.000   0.000   0.000
  0.000  -0.000   0.000   0.000  -0.000   0.000  -0.000   0.000
 total augmentation occupancy for first ion, spin component:           1
  2.248   0.000  -0.000   0.000  -0.000  -1.251  -0.000   0.000  -0.000   0.000  -0.000   0.000   0.000   0.000   0.000   0.000
  0.000   2.248   0.000   0.000  -0.000  -0.000  -1.251  -0.000  -0.000   0.000  -0.000  -0.000   0.000   0.000   0.000   0.000
 -0.000   0.000   3.684   0.000   0.000   0.000  -0.000  -2.403  -0.000   0.000   0.000  -0.000  -0.000   0.000  -0.000   0.000
  0.000   0.000   0.000   2.248   0.000  -0.000  -0.000   0.000  -1.251  -0.000   0.000   0.000   0.000   0.000   0.000   0.000
 -0.000  -0.000   0.000   0.000   3.684   0.000   0.000   0.000  -0.000  -2.403  -0.000  -0.000   0.000   0.000  -0.000   0.000
 -1.251  -0.000   0.000  -0.000   0.000   1.647   0.000  -0.000   0.000  -0.000  -0.000   0.000   0.000   0.000   0.000   0.000
 -0.000  -1.251  -0.000  -0.000   0.000   0.000   1.647   0.000   0.000  -0.000   0.000  -0.000   0.000   0.000   0.000   0.000
  0.000  -0.000  -2.403  -0.000   0.000  -0.000   0.000   2.384   0.000  -0.000  -0.000   0.000   0.000   0.000   0.000   0.000
 -0.000  -0.000  -0.000  -1.251  -0.000   0.000   0.000   0.000   1.647   0.000   0.000  -0.000   0.000  -0.000   0.000   0.000
  0.000   0.000   0.000  -0.000  -2.403  -0.000  -0.000  -0.000   0.000   2.384  -0.000   0.000   0.000   0.000   0.000   0.000
 -0.000  -0.000   0.000   0.000  -0.000  -0.000   0.000  -0.000   0.000  -0.000   2.434  -0.284   0.000   0.000   0.000   0.000
  0.000  -0.000  -0.000   0.000   0.000   0.000  -0.000   0.000  -0.000  -0.000  -0.284   0.039   0.000   0.000   0.000   0.000
  0.000   0.000   0.000   0.000  -0.000   0.000   0.000   0.000   0.000   0.000   0.000   0.000   0.297   0.000   0.000  -0.026
  0.000   0.000   0.000   0.000   0.000   0.000   0.000   0.000  -0.000   0.000   0.000   0.000   0.000   0.297   0.000  -0.000
  0.000   0.000  -0.000   0.000  -0.000   0.000   0.000   0.000   0.000   0.000   0.000   0.000   0.000   0.000   0.297  -0.000
  0.000   0.000   0.000   0.000   0.000   0.000   0.000   0.000   0.000   0.000   0.000   0.000  -0.026  -0.000  -0.000   0.003
  0.000   0.000   0.000   0.000   0.000   0.000   0.000   0.000   0.000   0.000   0.000   0.000  -0.000  -0.026  -0.000   0.000
  0.000   0.000   0.000   0.000   0.000   0.000   0.000   0.000   0.000   0.000   0.000   0.000  -0.000  -0.000  -0.026   0.000
 total augmentation occupancy for first ion, spin component:           2
  1.863   0.000  -0.000   0.000  -0.000  -0.777  -0.000   0.000  -0.000   0.000   0.000  -0.000   0.000   0.000  -0.000   0.000
  0.000   1.863   0.000   0.000  -0.000  -0.000  -0.777   0.000  -0.000   0.000  -0.000   0.000   0.000   0.000   0.000   0.000
 -0.000   0.000   3.115   0.000  -0.000   0.000   0.000  -1.392  -0.000  -0.000  -0.000   0.000   0.000   0.000  -0.000   0.000
  0.000   0.000   0.000   1.863   0.000  -0.000  -0.000  -0.000  -0.777  -0.000  -0.000  -0.000   0.000   0.000   0.000   0.000
 -0.000  -0.000   0.000   0.000   3.115   0.000   0.000  -0.000  -0.000  -1.392  -0.000  -0.000  -0.000   0.000  -0.000  -0.000
 -0.777  -0.000   0.000  -0.000   0.000   0.087   0.000  -0.000   0.000  -0.000  -0.000   0.000   0.000   0.000   0.000   0.000
 -0.000  -0.777   0.000  -0.000   0.000   0.000   0.087   0.000   0.000  -0.000   0.000   0.000   0.000   0.000   0.000   0.000
  0.000   0.000  -1.392   0.000   0.000  -0.000  -0.000   0.384   0.000  -0.000   0.000  -0.000   0.000   0.000   0.000   0.000
 -0.000  -0.000   0.000  -0.777  -0.000   0.000   0.000  -0.000   0.087   0.000   0.000   0.000   0.000   0.000   0.000   0.000
  0.000   0.000  -0.000  -0.000  -1.392  -0.000  -0.000   0.000   0.000   0.384   0.000  -0.000   0.000   0.000   0.000  -0.000
 -0.000   0.000  -0.000  -0.000   0.000  -0.000   0.000   0.000   0.000   0.000  -0.328   0.099   0.000   0.000   0.000   0.000
 -0.000   0.000   0.000   0.000  -0.000   0.000   0.000  -0.000   0.000  -0.000   0.099  -0.017   0.000   0.000   0.000   0.000
  0.000   0.000   0.000   0.000   0.000   0.000   0.000  -0.000   0.000   0.000   0.000   0.000  -0.036  -0.000  -0.000   0.006
  0.000   0.000   0.000   0.000   0.000   0.000   0.000   0.000   0.000   0.000   0.000   0.000  -0.000  -0.036  -0.000   0.000
 -0.000   0.000   0.000   0.000  -0.000   0.000   0.000   0.000   0.000   0.000   0.000   0.000  -0.000  -0.000  -0.036   0.000
  0.000   0.000   0.000   0.000   0.000   0.000   0.000   0.000   0.000  -0.000   0.000   0.000   0.006   0.000   0.000  -0.001
  0.000   0.000   0.000   0.000   0.000  -0.000   0.000   0.000   0.000   0.000   0.000  -0.000   0.000   0.006   0.000  -0.000
  0.000   0.000   0.000   0.000   0.000   0.000   0.000   0.000   0.000   0.000   0.000   0.000   0.000   0.000   0.006  -0.000


------------------------ aborting loop because EDIFF is reached ----------------------------------------





 total charge

# of ion       s       p       d       tot
------------------------------------------
    1        0.489   0.546   6.238   7.273
    2        0.489   0.546   6.238   7.273
--------------------------------------------------
tot          0.979   1.092  12.476  14.547



 magnetization (x)

# of ion       s       p       d       tot
------------------------------------------
    1       -0.013  -0.054   2.247   2.180
    2       -0.013  -0.054   2.247   2.180
--------------------------------------------------
tot         -0.026  -0.108   4.495   4.360
 
    CHARGE:  cpu time    0.2070: real time    0.2077
    FORLOC:  cpu time    0.0000: real time    0.0008
    FORNL :  cpu time    0.4079: real time    0.4082
    STRESS:  cpu time    1.4468: real time    1.4478
    FORCOR:  cpu time    0.0330: real time    0.0339
    FORHAR:  cpu time    0.0020: real time    0.0028
    MIXING:  cpu time    0.0000: real time    0.0010
    OFIELD:  cpu time    0.0010: real time    0.0002

  FORCE on cell =-STRESS in cart. coord.  units (eV):
  Direction    XX          YY          ZZ          XY          YZ          ZX
  --------------------------------------------------------------------------------------
  Alpha Z   122.20194   122.20194   122.20194
  Ewald    -395.28394  -395.28394  -395.28394    -0.00000     0.00000     0.00000
  Hartree    63.14184    63.14184    63.14184    -0.00000    -0.00000    -0.00000
  E(xc)     -79.46217   -79.46217   -79.46217    -0.00000     0.00000     0.00000
  Local     118.16598   118.16598   118.16598    -0.00000     0.00000    -0.00000
  n-local   -54.75204   -51.64474   -48.94243     2.42615    -0.86731     0.69397
  augment    77.41857    77.41857    77.41858    -0.00000     0.00000     0.00000
  Kinetic   148.09395   145.21192   143.49091     2.79572    -0.54356     0.16329
  Fock        0.00000     0.00000     0.00000     0.00000     0.00000     0.00000
  -------------------------------------------------------------------------------------
  Total       0.00140     0.00140     0.00140    -0.00000     0.00000     0.00000
  in kB       0.09919     0.09919     0.09919    -0.00000     0.00000     0.00000
  external pressure =        0.10 kB  Pullay stress =        0.00 kB


 VOLUME and BASIS-vectors are now :
 -----------------------------------------------------------------------------
  energy-cutoff  :      350.00
  volume of cell :       22.62
      direct lattice vectors                 reciprocal lattice vectors
     2.828235087  0.000000000  0.000000000     0.353577397 -0.000000000  0.000000000
     0.000000000  2.828235087  0.000000000    -0.000000000  0.353577397 -0.000000000
    -0.000000000  0.000000000  2.828235087    -0.000000000 -0.000000000  0.353577397

  length of vectors
     2.828235087  2.828235087  2.828235087     0.353577397  0.353577397  0.353577397


 FORCES acting on ions
    electron-ion (+dipol)            ewald-force                    non-local-force                 convergence-correction
 -----------------------------------------------------------------------------------------------
   -.364E-14 -.116E-13 -.196E-13   -.140E-14 -.647E-14 -.359E-14   -.305E-25 0.667E-28 0.258E-25   0.731E-14 0.201E-13 -.714E-14
   0.148E-12 -.542E-12 0.491E-13   0.150E-14 0.633E-14 0.420E-14   0.392E-25 -.351E-28 0.129E-25   -.525E-14 0.109E-13 -.108E-13
 -----------------------------------------------------------------------------------------------
   0.145E-12 -.554E-12 0.295E-13   0.969E-16 -.144E-15 0.609E-15   0.876E-26 0.315E-28 0.388E-25   0.206E-14 0.310E-13 -.179E-13
 
 
 POSITION                                       TOTAL-FORCE (eV/Angst)
 -----------------------------------------------------------------------------------
     -0.00000      0.00000      0.00000        -0.000000     -0.000000      0.000000
      1.41412      1.41412      1.41412         0.000000      0.000000     -0.000000
 -----------------------------------------------------------------------------------
    total drift:                                0.000000     -0.000000      0.000000


--------------------------------------------------------------------------------------------------------



  FREE ENERGIE OF THE ION-ELECTRON SYSTEM (eV)
  ---------------------------------------------------
  free  energy   TOTEN  =       -16.49907058 eV

  energy  without entropy=      -16.49933869  energy(sigma->0) =      -16.49915995
 
 d Force = 0.0000000E+00[ 0.000E+00, 0.000E+00]  d Energy = 0.1436877E-01-0.144E-01
 d Force = 0.0000000E+00[ 0.000E+00, 0.000E+00]  d Ewald  =-0.1277973E+02 0.128E+02


--------------------------------------------------------------------------------------------------------


    POTLOK:  cpu time    1.5838: real time    1.5916


--------------------------------------------------------------------------------------------------------




--------------------------------------------------------------------------------------------------------


  
 reached required accuracy - stopping structural energy minimisation
 writing wavefunctions
     LOOP+:  cpu time   53.8388: real time   55.4528
    4ORBIT:  cpu time    0.0000: real time    0.0000



 total charge

# of ion       s       p       d       tot
------------------------------------------
    1        0.489   0.546   6.238   7.273
    2        0.489   0.546   6.238   7.273
--------------------------------------------------
tot          0.979   1.092  12.476  14.547



 magnetization (x)

# of ion       s       p       d       tot
------------------------------------------
    1       -0.013  -0.054   2.247   2.180
    2       -0.013  -0.054   2.247   2.180
--------------------------------------------------
tot         -0.026  -0.108   4.495   4.360
 

 total amount of memory used by VASP MPI-rank0    47316. kBytes
=======================================================================

   base      :      30000. kBytes
   nonl-proj :       6370. kBytes
   fftplans  :       1775. kBytes
   grid      :       1353. kBytes
   one-center:         62. kBytes
   wavefun   :       7756. kBytes
 
  
  
 General timing and accounting informations for this job:
 ========================================================
  
                  Total CPU time used (sec):      185.040
                            User time (sec):      181.982
                          System time (sec):        3.058
                         Elapsed time (sec):      194.637
  
                   Maximum memory used (kb):       78116.
                   Average memory used (kb):          N/A
  
                          Minor page faults:        11439
                          Major page faults:            1
                 Voluntary context switches:       249649
