PROCAR lm decomposed
# of k-points:  120         # of bands:   20         # of ions:    2

 k-point     1 :    0.00000000 0.00000000 0.00000000     weight = 0.00036443

band     1 # energy   -2.59286128 # occ.  1.00000000
 
ion      s     py     pz     px    dxy    dyz    dz2    dxz  x2-y2    tot
    1  0.368  0.000  0.000  0.000  0.000  0.000  0.000  0.000  0.000  0.368
    2  0.368  0.000  0.000  0.000  0.000  0.000  0.000  0.000  0.000  0.368
tot    0.735  0.000  0.000  0.000  0.000  0.000  0.000  0.000  0.000  0.735
 
band     2 # energy    0.99821910 # occ.  1.00000000
 
ion      s     py     pz     px    dxy    dyz    dz2    dxz  x2-y2    tot
    1  0.000  0.000  0.000  0.000  0.000  0.000  0.219  0.000  0.219  0.438
    2  0.000  0.000  0.000  0.000  0.000  0.000  0.219  0.000  0.219  0.438
tot    0.000  0.000  0.000  0.000  0.000  0.000  0.438  0.000  0.438  0.877
 
band     3 # energy    0.99821925 # occ.  1.00000000
 
ion      s     py     pz     px    dxy    dyz    dz2    dxz  x2-y2    tot
    1  0.000  0.000  0.000  0.000  0.000  0.000  0.219  0.000  0.219  0.438
    2  0.000  0.000  0.000  0.000  0.000  0.000  0.219  0.000  0.219  0.438
tot    0.000  0.000  0.000  0.000  0.000  0.000  0.438  0.000  0.438  0.877
 
band     4 # energy    3.56292408 # occ.  1.00000000
 
ion      s     py     pz     px    dxy    dyz    dz2    dxz  x2-y2    tot
    1  0.000  0.000  0.000  0.000  0.489  0.000  0.000  0.000  0.000  0.489
    2  0.000  0.000  0.000  0.000  0.489  0.000  0.000  0.000  0.000  0.489
tot    0.000  0.000  0.000  0.000  0.979  0.000  0.000  0.000  0.000  0.979
 
band     5 # energy    3.56292504 # occ.  1.00000000
 
ion      s     py     pz     px    dxy    dyz    dz2    dxz  x2-y2    tot
    1  0.000  0.000  0.000  0.000  0.000  0.000  0.000  0.489  0.000  0.489
    2  0.000  0.000  0.000  0.000  0.000  0.000  0.000  0.489  0.000  0.489
tot    0.000  0.000  0.000  0.000  0.000  0.000  0.000  0.979  0.000  0.979
 
band     6 # energy    3.56292506 # occ.  1.00000000
 
ion      s     py     pz     px    dxy    dyz    dz2    dxz  x2-y2    tot
    1  0.000  0.000  0.000  0.000  0.000  0.489  0.000  0.000  0.000  0.489
    2  0.000  0.000  0.000  0.000  0.000  0.489  0.000  0.000  0.000  0.489
tot    0.000  0.000  0.000  0.000  0.000  0.979  0.000  0.000  0.000  0.979
 
band     7 # energy    4.77981498 # occ.  1.00000000
 
ion      s     py     pz     px    dxy    dyz    dz2    dxz  x2-y2    tot
    1  0.000  0.000  0.000  0.000  0.000  0.000  0.482  0.000  0.003  0.485
    2  0.000  0.000  0.000  0.000  0.000  0.000  0.482  0.000  0.003  0.485
tot    0.000  0.000  0.000  0.000  0.000  0.000  0.964  0.000  0.006  0.970
 
band     8 # energy    4.77981608 # occ.  1.00000000
 
ion      s     py     pz     px    dxy    dyz    dz2    dxz  x2-y2    tot
    1  0.000  0.000  0.000  0.000  0.000  0.000  0.003  0.000  0.482  0.485
    2  0.000  0.000  0.000  0.000  0.000  0.000  0.003  0.000  0.482  0.485
tot    0.000  0.000  0.000  0.000  0.000  0.000  0.006  0.000  0.964  0.970
 
band     9 # energy    5.99814425 # occ.  0.06110380
 
ion      s     py     pz     px    dxy    dyz    dz2    dxz  x2-y2    tot
    1  0.000  0.000  0.000  0.000  0.494  0.000  0.000  0.000  0.000  0.494
    2  0.000  0.000  0.000  0.000  0.494  0.000  0.000  0.000  0.000  0.494
tot    0.000  0.000  0.000  0.000  0.988  0.000  0.000  0.000  0.000  0.988
 
band    10 # energy    5.99814599 # occ.  0.06110029
 
ion      s     py     pz     px    dxy    dyz    dz2    dxz  x2-y2    tot
    1  0.000  0.000  0.000  0.000  0.000  0.000  0.000  0.494  0.000  0.494
    2  0.000  0.000  0.000  0.000  0.000  0.000  0.000  0.494  0.000  0.494
tot    0.000  0.000  0.000  0.000  0.000  0.000  0.000  0.988  0.000  0.988
 
band    11 # energy    5.99814601 # occ.  0.06110025
 
ion      s     py     pz     px    dxy    dyz    dz2    dxz  x2-y2    tot
    1  0.000  0.000  0.000  0.000  0.000  0.494  0.000  0.000  0.000  0.494
    2  0.000  0.000  0.000  0.000  0.000  0.494  0.000  0.000  0.000  0.494
tot    0.000  0.000  0.000  0.000  0.000  0.988  0.000  0.000  0.000  0.988
 
band    12 # energy   15.83230500 # occ.  0.00000000
 
ion      s     py     pz     px    dxy    dyz    dz2    dxz  x2-y2    tot
    1  0.000  0.000  0.000  0.377  0.000  0.000  0.000  0.000  0.000  0.377
    2  0.000  0.000  0.000  0.377  0.000  0.000  0.000  0.000  0.000  0.377
tot    0.000  0.000  0.000  0.753  0.000  0.000  0.000  0.000  0.000  0.753
 
band    13 # energy   15.83230510 # occ.  0.00000000
 
ion      s     py     pz     px    dxy    dyz    dz2    dxz  x2-y2    tot
    1  0.000  0.377  0.000  0.000  0.000  0.000  0.000  0.000  0.000  0.377
    2  0.000  0.377  0.000  0.000  0.000  0.000  0.000  0.000  0.000  0.377
tot    0.000  0.753  0.000  0.000  0.000  0.000  0.000  0.000  0.000  0.753
 
band    14 # energy   15.83230521 # occ.  0.00000000
 
ion      s     py     pz     px    dxy    dyz    dz2    dxz  x2-y2    tot
    1  0.000  0.000  0.377  0.000  0.000  0.000  0.000  0.000  0.000  0.377
    2  0.000  0.000  0.377  0.000  0.000  0.000  0.000  0.000  0.000  0.377
tot    0.000  0.000  0.753  0.000  0.000  0.000  0.000  0.000  0.000  0.753
 
band    15 # energy   21.56168061 # occ.  0.00000000
 
ion      s     py     pz     px    dxy    dyz    dz2    dxz  x2-y2    tot
    1  0.000  0.000  0.000  0.000  0.000  0.000  0.476  0.000  0.000  0.477
    2  0.000  0.000  0.000  0.000  0.000  0.000  0.476  0.000  0.000  0.477
tot    0.000  0.000  0.000  0.000  0.000  0.000  0.953  0.000  0.000  0.953
 
band    16 # energy   21.56168244 # occ.  0.00000000
 
ion      s     py     pz     px    dxy    dyz    dz2    dxz  x2-y2    tot
    1  0.000  0.000  0.000  0.000  0.000  0.000  0.000  0.000  0.476  0.477
    2  0.000  0.000  0.000  0.000  0.000  0.000  0.000  0.000  0.476  0.477
tot    0.000  0.000  0.000  0.000  0.000  0.000  0.000  0.000  0.953  0.953
 
band    17 # energy   26.72624181 # occ.  0.00000000
 
ion      s     py     pz     px    dxy    dyz    dz2    dxz  x2-y2    tot
    1  0.391  0.000  0.000  0.000  0.000  0.000  0.000  0.000  0.000  0.391
    2  0.391  0.000  0.000  0.000  0.000  0.000  0.000  0.000  0.000  0.391
tot    0.782  0.000  0.000  0.000  0.000  0.000  0.000  0.000  0.000  0.782
 
band    18 # energy   30.93052506 # occ.  0.00000000
 
ion      s     py     pz     px    dxy    dyz    dz2    dxz  x2-y2    tot
    1  0.000  0.000  0.000  0.000  0.000  0.000  0.000  0.000  0.000  0.000
    2  0.000  0.000  0.000  0.000  0.000  0.000  0.000  0.000  0.000  0.000
tot    0.000  0.000  0.000  0.000  0.000  0.000  0.000  0.000  0.000  0.000
 
band    19 # energy   30.93052506 # occ.  0.00000000
 
ion      s     py     pz     px    dxy    dyz    dz2    dxz  x2-y2    tot
    1  0.000  0.000  0.000  0.000  0.000  0.000  0.000  0.000  0.000  0.000
    2  0.000  0.000  0.000  0.000  0.000  0.000  0.000  0.000  0.000  0.000
tot    0.000  0.000  0.000  0.000  0.000  0.000  0.000  0.000  0.000  0.000
 
band    20 # energy   30.93052506 # occ.  0.00000000
 
ion      s     py     pz     px    dxy    dyz    dz2    dxz  x2-y2    tot
    1  0.000  0.000  0.000  0.000  0.000  0.000  0.000  0.000  0.000  0.000
    2  0.000  0.000  0.000  0.000  0.000  0.000  0.000  0.000  0.000  0.000
tot    0.000  0.000  0.000  0.000  0.000  0.000  0.000  0.000  0.000  0.000
 

 k-point     2 :    0.07142857-0.00000000 0.00000000     weight = 0.00218659

band     1 # energy   -2.48647380 # occ.  1.00000000
 
ion      s     py     pz     px    dxy    dyz    dz2    dxz  x2-y2    tot
    1  0.364  0.000  0.000  0.004  0.000  0.000  0.000  0.000  0.000  0.368
    2  0.364  0.000  0.000  0.004  0.000  0.000  0.000  0.000  0.000  0.368
tot    0.728  0.000  0.000  0.008  0.000  0.000  0.000  0.000  0.000  0.735
 
band     2 # energy    1.04384673 # occ.  1.00000000
 
ion      s     py     pz     px    dxy    dyz    dz2    dxz  x2-y2    tot
    1  0.000  0.000  0.000  0.000  0.000  0.000  0.329  0.000  0.110  0.438
    2  0.000  0.000  0.000  0.000  0.000  0.000  0.329  0.000  0.110  0.438
tot    0.000  0.000  0.000  0.000  0.000  0.000  0.658  0.000  0.219  0.877
 
band     3 # energy    1.04574164 # occ.  1.00000000
 
ion      s     py     pz     px    dxy    dyz    dz2    dxz  x2-y2    tot
    1  0.000  0.000  0.000  0.003  0.000  0.000  0.109  0.000  0.326  0.438
    2  0.000  0.000  0.000  0.003  0.000  0.000  0.109  0.000  0.326  0.438
tot    0.000  0.000  0.000  0.006  0.000  0.000  0.218  0.000  0.653  0.876
 
band     4 # energy    3.56203819 # occ.  1.00000000
 
ion      s     py     pz     px    dxy    dyz    dz2    dxz  x2-y2    tot
    1  0.000  0.000  0.000  0.000  0.489  0.000  0.000  0.000  0.000  0.489
    2  0.000  0.000  0.000  0.000  0.489  0.000  0.000  0.000  0.000  0.489
tot    0.000  0.001  0.000  0.000  0.977  0.000  0.000  0.000  0.000  0.978
 
band     5 # energy    3.56203915 # occ.  1.00000000
 
ion      s     py     pz     px    dxy    dyz    dz2    dxz  x2-y2    tot
    1  0.000  0.000  0.000  0.000  0.000  0.000  0.000  0.489  0.000  0.489
    2  0.000  0.000  0.000  0.000  0.000  0.000  0.000  0.489  0.000  0.489
tot    0.000  0.000  0.001  0.000  0.000  0.000  0.000  0.977  0.000  0.978
 
band     6 # energy    3.59213027 # occ.  1.00000000
 
ion      s     py     pz     px    dxy    dyz    dz2    dxz  x2-y2    tot
    1  0.000  0.000  0.000  0.000  0.000  0.489  0.000  0.000  0.000  0.489
    2  0.000  0.000  0.000  0.000  0.000  0.489  0.000  0.000  0.000  0.489
tot    0.000  0.000  0.000  0.000  0.000  0.978  0.000  0.000  0.000  0.978
 
band     7 # energy    4.73217324 # occ.  1.00000000
 
ion      s     py     pz     px    dxy    dyz    dz2    dxz  x2-y2    tot
    1  0.000  0.000  0.000  0.000  0.000  0.000  0.363  0.000  0.121  0.484
    2  0.000  0.000  0.000  0.000  0.000  0.000  0.363  0.000  0.121  0.484
tot    0.000  0.000  0.000  0.000  0.000  0.000  0.726  0.000  0.242  0.968
 
band     8 # energy    4.79865745 # occ.  1.00000000
 
ion      s     py     pz     px    dxy    dyz    dz2    dxz  x2-y2    tot
    1  0.000  0.000  0.000  0.000  0.000  0.000  0.121  0.000  0.364  0.486
    2  0.000  0.000  0.000  0.000  0.000  0.000  0.121  0.000  0.364  0.486
tot    0.000  0.000  0.000  0.000  0.000  0.000  0.243  0.000  0.728  0.971
 
band     9 # energy    5.90832529 # occ.  0.33825755
 
ion      s     py     pz     px    dxy    dyz    dz2    dxz  x2-y2    tot
    1  0.000  0.002  0.000  0.000  0.490  0.000  0.000  0.000  0.000  0.492
    2  0.000  0.002  0.000  0.000  0.490  0.000  0.000  0.000  0.000  0.492
tot    0.000  0.005  0.000  0.000  0.980  0.000  0.000  0.000  0.000  0.985
 
band    10 # energy    5.90832698 # occ.  0.33825080
 
ion      s     py     pz     px    dxy    dyz    dz2    dxz  x2-y2    tot
    1  0.000  0.000  0.002  0.000  0.000  0.000  0.000  0.490  0.000  0.492
    2  0.000  0.000  0.002  0.000  0.000  0.000  0.000  0.490  0.000  0.492
tot    0.000  0.000  0.005  0.000  0.000  0.000  0.000  0.980  0.000  0.985
 
band    11 # energy    5.96661029 # occ.  0.13734406
 
ion      s     py     pz     px    dxy    dyz    dz2    dxz  x2-y2    tot
    1  0.000  0.000  0.000  0.000  0.000  0.494  0.000  0.000  0.000  0.494
    2  0.000  0.000  0.000  0.000  0.000  0.494  0.000  0.000  0.000  0.494
tot    0.000  0.000  0.000  0.000  0.000  0.987  0.000  0.000  0.000  0.987
 
band    12 # energy   15.07315117 # occ.  0.00000000
 
ion      s     py     pz     px    dxy    dyz    dz2    dxz  x2-y2    tot
    1  0.018  0.000  0.000  0.337  0.000  0.000  0.008  0.000  0.025  0.387
    2  0.018  0.000  0.000  0.337  0.000  0.000  0.008  0.000  0.025  0.387
tot    0.036  0.000  0.000  0.673  0.000  0.000  0.016  0.000  0.049  0.775
 
band    13 # energy   16.03413840 # occ.  0.00000000
 
ion      s     py     pz     px    dxy    dyz    dz2    dxz  x2-y2    tot
    1  0.000  0.372  0.000  0.000  0.008  0.000  0.000  0.000  0.000  0.380
    2  0.000  0.372  0.000  0.000  0.008  0.000  0.000  0.000  0.000  0.380
tot    0.000  0.744  0.000  0.000  0.016  0.000  0.000  0.000  0.000  0.760
 
band    14 # energy   16.03413855 # occ.  0.00000000
 
ion      s     py     pz     px    dxy    dyz    dz2    dxz  x2-y2    tot
    1  0.000  0.000  0.372  0.000  0.000  0.000  0.000  0.008  0.000  0.380
    2  0.000  0.000  0.372  0.000  0.000  0.000  0.000  0.008  0.000  0.380
tot    0.000  0.000  0.744  0.000  0.000  0.000  0.000  0.016  0.000  0.760
 
band    15 # energy   21.59253809 # occ.  0.00000000
 
ion      s     py     pz     px    dxy    dyz    dz2    dxz  x2-y2    tot
    1  0.000  0.000  0.000  0.000  0.000  0.000  0.356  0.000  0.119  0.474
    2  0.000  0.000  0.000  0.000  0.000  0.000  0.356  0.000  0.119  0.474
tot    0.000  0.000  0.000  0.000  0.000  0.000  0.711  0.000  0.237  0.948
 
band    16 # energy   22.13078721 # occ.  0.00000000
 
ion      s     py     pz     px    dxy    dyz    dz2    dxz  x2-y2    tot
    1  0.006  0.000  0.000  0.015  0.000  0.000  0.110  0.000  0.329  0.460
    2  0.006  0.000  0.000  0.015  0.000  0.000  0.110  0.000  0.329  0.460
tot    0.013  0.000  0.000  0.030  0.000  0.000  0.219  0.000  0.657  0.919
 
band    17 # energy   27.07280265 # occ.  0.00000000
 
ion      s     py     pz     px    dxy    dyz    dz2    dxz  x2-y2    tot
    1  0.366  0.000  0.000  0.023  0.000  0.000  0.001  0.000  0.002  0.392
    2  0.366  0.000  0.000  0.023  0.000  0.000  0.001  0.000  0.002  0.392
tot    0.731  0.000  0.000  0.046  0.000  0.000  0.002  0.000  0.005  0.784
 
band    18 # energy   30.21799986 # occ.  0.00000000
 
ion      s     py     pz     px    dxy    dyz    dz2    dxz  x2-y2    tot
    1  0.000  0.000  0.000  0.000  0.000  0.000  0.051  0.000  0.017  0.067
    2  0.000  0.000  0.000  0.000  0.000  0.000  0.051  0.000  0.017  0.067
tot    0.000  0.000  0.000  0.000  0.000  0.000  0.101  0.000  0.034  0.135
 
band    19 # energy   30.83710137 # occ.  0.00000000
 
ion      s     py     pz     px    dxy    dyz    dz2    dxz  x2-y2    tot
    1  0.000  0.001  0.000  0.000  0.042  0.000  0.000  0.000  0.000  0.043
    2  0.000  0.001  0.000  0.000  0.042  0.000  0.000  0.000  0.000  0.043
tot    0.000  0.003  0.000  0.000  0.084  0.000  0.000  0.000  0.000  0.086
 
band    20 # energy   30.83710146 # occ.  0.00000000
 
ion      s     py     pz     px    dxy    dyz    dz2    dxz  x2-y2    tot
    1  0.000  0.000  0.001  0.000  0.000  0.000  0.000  0.042  0.000  0.043
    2  0.000  0.000  0.001  0.000  0.000  0.000  0.000  0.042  0.000  0.043
tot    0.000  0.000  0.003  0.000  0.000  0.000  0.000  0.084  0.000  0.086
 

 k-point     3 :    0.14285714 0.00000000 0.00000000     weight = 0.00218659

band     1 # energy   -2.17218215 # occ.  1.00000000
 
ion      s     py     pz     px    dxy    dyz    dz2    dxz  x2-y2    tot
    1  0.352  0.000  0.000  0.015  0.000  0.000  0.000  0.000  0.000  0.368
    2  0.352  0.000  0.000  0.015  0.000  0.000  0.000  0.000  0.000  0.368
tot    0.705  0.000  0.000  0.030  0.000  0.000  0.000  0.000  0.001  0.736
 
band     2 # energy    1.17784125 # occ.  1.00000000
 
ion      s     py     pz     px    dxy    dyz    dz2    dxz  x2-y2    tot
    1  0.001  0.000  0.000  0.011  0.000  0.000  0.106  0.000  0.319  0.437
    2  0.001  0.000  0.000  0.011  0.000  0.000  0.106  0.000  0.319  0.437
tot    0.001  0.000  0.000  0.022  0.000  0.000  0.213  0.000  0.638  0.875
 
band     3 # energy    1.17845033 # occ.  1.00000000
 
ion      s     py     pz     px    dxy    dyz    dz2    dxz  x2-y2    tot
    1  0.000  0.000  0.000  0.000  0.000  0.000  0.329  0.000  0.110  0.439
    2  0.000  0.000  0.000  0.000  0.000  0.000  0.329  0.000  0.110  0.439
tot    0.000  0.000  0.000  0.000  0.000  0.000  0.659  0.000  0.220  0.878
 
band     4 # energy    3.56281334 # occ.  1.00000000
 
ion      s     py     pz     px    dxy    dyz    dz2    dxz  x2-y2    tot
    1  0.000  0.001  0.000  0.000  0.486  0.000  0.000  0.000  0.000  0.488
    2  0.000  0.001  0.000  0.000  0.486  0.000  0.000  0.000  0.000  0.488
tot    0.000  0.003  0.000  0.000  0.973  0.000  0.000  0.000  0.000  0.976
 
band     5 # energy    3.56281430 # occ.  1.00000000
 
ion      s     py     pz     px    dxy    dyz    dz2    dxz  x2-y2    tot
    1  0.000  0.000  0.001  0.000  0.000  0.000  0.000  0.486  0.000  0.488
    2  0.000  0.000  0.001  0.000  0.000  0.000  0.000  0.486  0.000  0.488
tot    0.000  0.000  0.003  0.000  0.000  0.000  0.000  0.973  0.000  0.976
 
band     6 # energy    3.67849231 # occ.  1.00000000
 
ion      s     py     pz     px    dxy    dyz    dz2    dxz  x2-y2    tot
    1  0.000  0.000  0.000  0.000  0.000  0.489  0.000  0.000  0.000  0.489
    2  0.000  0.000  0.000  0.000  0.000  0.489  0.000  0.000  0.000  0.489
tot    0.000  0.000  0.000  0.000  0.000  0.977  0.000  0.000  0.000  0.977
 
band     7 # energy    4.59132480 # occ.  1.00000000
 
ion      s     py     pz     px    dxy    dyz    dz2    dxz  x2-y2    tot
    1  0.000  0.000  0.000  0.000  0.000  0.000  0.361  0.000  0.120  0.481
    2  0.000  0.000  0.000  0.000  0.000  0.000  0.361  0.000  0.120  0.481
tot    0.000  0.000  0.000  0.000  0.000  0.000  0.722  0.000  0.241  0.963
 
band     8 # energy    4.85381958 # occ.  1.00000000
 
ion      s     py     pz     px    dxy    dyz    dz2    dxz  x2-y2    tot
    1  0.000  0.000  0.000  0.000  0.000  0.000  0.122  0.000  0.365  0.487
    2  0.000  0.000  0.000  0.000  0.000  0.000  0.122  0.000  0.365  0.487
tot    0.001  0.000  0.000  0.000  0.000  0.000  0.243  0.000  0.729  0.973
 
band     9 # energy    5.66338611 # occ.  1.02792478
 
ion      s     py     pz     px    dxy    dyz    dz2    dxz  x2-y2    tot
    1  0.000  0.008  0.000  0.000  0.481  0.000  0.000  0.000  0.000  0.489
    2  0.000  0.008  0.000  0.000  0.481  0.000  0.000  0.000  0.000  0.489
tot    0.000  0.016  0.000  0.000  0.962  0.000  0.000  0.000  0.000  0.978
 
band    10 # energy    5.66338771 # occ.  1.02792409
 
ion      s     py     pz     px    dxy    dyz    dz2    dxz  x2-y2    tot
    1  0.000  0.000  0.008  0.000  0.000  0.000  0.000  0.481  0.000  0.489
    2  0.000  0.000  0.008  0.000  0.000  0.000  0.000  0.481  0.000  0.489
tot    0.000  0.000  0.016  0.000  0.000  0.000  0.000  0.962  0.000  0.978
 
band    11 # energy    5.87299713 # occ.  0.48430798
 
ion      s     py     pz     px    dxy    dyz    dz2    dxz  x2-y2    tot
    1  0.000  0.000  0.000  0.000  0.000  0.493  0.000  0.000  0.000  0.493
    2  0.000  0.000  0.000  0.000  0.000  0.493  0.000  0.000  0.000  0.493
tot    0.000  0.000  0.000  0.000  0.000  0.985  0.000  0.000  0.000  0.985
 
band    12 # energy   13.45146099 # occ.  0.00000000
 
ion      s     py     pz     px    dxy    dyz    dz2    dxz  x2-y2    tot
    1  0.050  0.000  0.000  0.280  0.000  0.000  0.018  0.000  0.053  0.401
    2  0.050  0.000  0.000  0.280  0.000  0.000  0.018  0.000  0.053  0.401
tot    0.100  0.000  0.000  0.560  0.000  0.000  0.035  0.000  0.106  0.802
 
band    13 # energy   16.61290915 # occ.  0.00000000
 
ion      s     py     pz     px    dxy    dyz    dz2    dxz  x2-y2    tot
    1  0.000  0.359  0.000  0.000  0.029  0.000  0.000  0.000  0.000  0.389
    2  0.000  0.359  0.000  0.000  0.029  0.000  0.000  0.000  0.000  0.389
tot    0.000  0.719  0.000  0.000  0.059  0.000  0.000  0.000  0.000  0.778
 
band    14 # energy   16.61290941 # occ.  0.00000000
 
ion      s     py     pz     px    dxy    dyz    dz2    dxz  x2-y2    tot
    1  0.000  0.000  0.359  0.000  0.000  0.000  0.000  0.029  0.000  0.389
    2  0.000  0.000  0.359  0.000  0.000  0.000  0.000  0.029  0.000  0.389
tot    0.000  0.000  0.719  0.000  0.000  0.000  0.000  0.059  0.000  0.778
 
band    15 # energy   21.68608880 # occ.  0.00000000
 
ion      s     py     pz     px    dxy    dyz    dz2    dxz  x2-y2    tot
    1  0.000  0.000  0.000  0.000  0.000  0.000  0.350  0.000  0.117  0.467
    2  0.000  0.000  0.000  0.000  0.000  0.000  0.350  0.000  0.117  0.467
tot    0.000  0.000  0.000  0.000  0.000  0.000  0.701  0.000  0.234  0.935
 
band    16 # energy   23.06162897 # occ.  0.00000000
 
ion      s     py     pz     px    dxy    dyz    dz2    dxz  x2-y2    tot
    1  0.054  0.000  0.000  0.009  0.000  0.000  0.091  0.000  0.272  0.425
    2  0.054  0.000  0.000  0.009  0.000  0.000  0.091  0.000  0.272  0.425
tot    0.108  0.000  0.000  0.018  0.000  0.000  0.181  0.000  0.543  0.850
 
band    17 # energy   28.24391501 # occ.  0.00000000
 
ion      s     py     pz     px    dxy    dyz    dz2    dxz  x2-y2    tot
    1  0.283  0.000  0.000  0.080  0.000  0.000  0.009  0.000  0.028  0.400
    2  0.283  0.000  0.000  0.080  0.000  0.000  0.009  0.000  0.028  0.400
tot    0.566  0.000  0.000  0.160  0.000  0.000  0.018  0.000  0.055  0.799
 
band    18 # energy   28.84035777 # occ.  0.00000000
 
ion      s     py     pz     px    dxy    dyz    dz2    dxz  x2-y2    tot
    1  0.000  0.000  0.000  0.000  0.000  0.000  0.112  0.000  0.037  0.150
    2  0.000  0.000  0.000  0.000  0.000  0.000  0.112  0.000  0.037  0.150
tot    0.000  0.000  0.000  0.000  0.000  0.000  0.224  0.000  0.075  0.299
 
band    19 # energy   30.40785070 # occ.  0.00000000
 
ion      s     py     pz     px    dxy    dyz    dz2    dxz  x2-y2    tot
    1  0.000  0.020  0.000  0.000  0.160  0.000  0.000  0.000  0.000  0.180
    2  0.000  0.020  0.000  0.000  0.160  0.000  0.000  0.000  0.000  0.180
tot    0.000  0.040  0.000  0.000  0.320  0.000  0.000  0.000  0.000  0.360
 
band    20 # energy   30.40785107 # occ.  0.00000000
 
ion      s     py     pz     px    dxy    dyz    dz2    dxz  x2-y2    tot
    1  0.000  0.000  0.020  0.000  0.000  0.000  0.000  0.160  0.000  0.180
    2  0.000  0.000  0.020  0.000  0.000  0.000  0.000  0.160  0.000  0.180
tot    0.000  0.000  0.040  0.000  0.000  0.000  0.000  0.320  0.000  0.360
 

 k-point     4 :    0.21428571 0.00000000 0.00000000     weight = 0.00218659

band     1 # energy   -1.66576275 # occ.  1.00000000
 
ion      s     py     pz     px    dxy    dyz    dz2    dxz  x2-y2    tot
    1  0.333  0.000  0.000  0.033  0.000  0.000  0.001  0.000  0.002  0.369
    2  0.333  0.000  0.000  0.033  0.000  0.000  0.001  0.000  0.002  0.369
tot    0.666  0.000  0.000  0.065  0.000  0.000  0.001  0.000  0.004  0.737
 
band     2 # energy    1.36390519 # occ.  1.00000000
 
ion      s     py     pz     px    dxy    dyz    dz2    dxz  x2-y2    tot
    1  0.004  0.000  0.000  0.025  0.000  0.000  0.102  0.000  0.305  0.436
    2  0.004  0.000  0.000  0.025  0.000  0.000  0.102  0.000  0.305  0.436
tot    0.007  0.000  0.000  0.049  0.000  0.000  0.204  0.000  0.611  0.871
 
band     3 # energy    1.39660594 # occ.  1.00000000
 
ion      s     py     pz     px    dxy    dyz    dz2    dxz  x2-y2    tot
    1  0.000  0.000  0.000  0.000  0.000  0.000  0.330  0.000  0.110  0.440
    2  0.000  0.000  0.000  0.000  0.000  0.000  0.330  0.000  0.110  0.440
tot    0.000  0.000  0.000  0.000  0.000  0.000  0.660  0.000  0.220  0.881
 
band     4 # energy    3.57518313 # occ.  1.00000000
 
ion      s     py     pz     px    dxy    dyz    dz2    dxz  x2-y2    tot
    1  0.000  0.003  0.000  0.000  0.483  0.000  0.000  0.000  0.000  0.486
    2  0.000  0.003  0.000  0.000  0.483  0.000  0.000  0.000  0.000  0.486
tot    0.000  0.007  0.000  0.000  0.965  0.000  0.000  0.000  0.000  0.972
 
band     5 # energy    3.57518408 # occ.  1.00000000
 
ion      s     py     pz     px    dxy    dyz    dz2    dxz  x2-y2    tot
    1  0.000  0.000  0.003  0.000  0.000  0.000  0.000  0.483  0.000  0.486
    2  0.000  0.000  0.003  0.000  0.000  0.000  0.000  0.483  0.000  0.486
tot    0.000  0.000  0.007  0.000  0.000  0.000  0.000  0.965  0.000  0.972
 
band     6 # energy    3.81822883 # occ.  1.00000000
 
ion      s     py     pz     px    dxy    dyz    dz2    dxz  x2-y2    tot
    1  0.000  0.000  0.000  0.000  0.000  0.488  0.000  0.000  0.000  0.488
    2  0.000  0.000  0.000  0.000  0.000  0.488  0.000  0.000  0.000  0.488
tot    0.000  0.000  0.000  0.000  0.000  0.976  0.000  0.000  0.000  0.976
 
band     7 # energy    4.36367078 # occ.  1.00000000
 
ion      s     py     pz     px    dxy    dyz    dz2    dxz  x2-y2    tot
    1  0.000  0.000  0.000  0.000  0.000  0.000  0.358  0.000  0.119  0.477
    2  0.000  0.000  0.000  0.000  0.000  0.000  0.358  0.000  0.119  0.477
tot    0.000  0.000  0.000  0.000  0.000  0.000  0.715  0.000  0.238  0.953
 
band     8 # energy    4.94249429 # occ.  1.00000000
 
ion      s     py     pz     px    dxy    dyz    dz2    dxz  x2-y2    tot
    1  0.002  0.000  0.000  0.000  0.000  0.000  0.121  0.000  0.364  0.488
    2  0.002  0.000  0.000  0.000  0.000  0.000  0.121  0.000  0.364  0.488
tot    0.004  0.000  0.000  0.001  0.000  0.000  0.243  0.000  0.729  0.976
 
band     9 # energy    5.32240963 # occ.  1.00038151
 
ion      s     py     pz     px    dxy    dyz    dz2    dxz  x2-y2    tot
    1  0.000  0.014  0.000  0.000  0.471  0.000  0.000  0.000  0.000  0.485
    2  0.000  0.014  0.000  0.000  0.471  0.000  0.000  0.000  0.000  0.485
tot    0.000  0.027  0.000  0.000  0.943  0.000  0.000  0.000  0.000  0.970
 
band    10 # energy    5.32241109 # occ.  1.00038152
 
ion      s     py     pz     px    dxy    dyz    dz2    dxz  x2-y2    tot
    1  0.000  0.000  0.014  0.000  0.000  0.000  0.000  0.471  0.000  0.485
    2  0.000  0.000  0.014  0.000  0.000  0.000  0.000  0.471  0.000  0.485
tot    0.000  0.000  0.027  0.000  0.000  0.000  0.000  0.943  0.000  0.970
 
band    11 # energy    5.72271372 # occ.  0.97082747
 
ion      s     py     pz     px    dxy    dyz    dz2    dxz  x2-y2    tot
    1  0.000  0.000  0.000  0.000  0.000  0.491  0.000  0.000  0.000  0.491
    2  0.000  0.000  0.000  0.000  0.000  0.491  0.000  0.000  0.000  0.491
tot    0.000  0.000  0.000  0.000  0.000  0.983  0.000  0.000  0.000  0.983
 
band    12 # energy   11.63209404 # occ.  0.00000000
 
ion      s     py     pz     px    dxy    dyz    dz2    dxz  x2-y2    tot
    1  0.080  0.000  0.000  0.232  0.000  0.000  0.025  0.000  0.074  0.411
    2  0.080  0.000  0.000  0.232  0.000  0.000  0.025  0.000  0.074  0.411
tot    0.161  0.000  0.000  0.464  0.000  0.000  0.049  0.000  0.148  0.822
 
band    13 # energy   17.50595426 # occ.  0.00000000
 
ion      s     py     pz     px    dxy    dyz    dz2    dxz  x2-y2    tot
    1  0.000  0.342  0.000  0.000  0.059  0.000  0.000  0.000  0.000  0.401
    2  0.000  0.342  0.000  0.000  0.059  0.000  0.000  0.000  0.000  0.401
tot    0.000  0.684  0.000  0.000  0.118  0.000  0.000  0.000  0.000  0.803
 
band    14 # energy   17.50595467 # occ.  0.00000000
 
ion      s     py     pz     px    dxy    dyz    dz2    dxz  x2-y2    tot
    1  0.000  0.000  0.342  0.000  0.000  0.000  0.000  0.059  0.000  0.401
    2  0.000  0.000  0.342  0.000  0.000  0.000  0.000  0.059  0.000  0.401
tot    0.000  0.000  0.684  0.000  0.000  0.000  0.000  0.118  0.000  0.803
 
band    15 # energy   21.84905055 # occ.  0.00000000
 
ion      s     py     pz     px    dxy    dyz    dz2    dxz  x2-y2    tot
    1  0.000  0.000  0.000  0.000  0.000  0.000  0.342  0.000  0.114  0.456
    2  0.000  0.000  0.000  0.000  0.000  0.000  0.342  0.000  0.114  0.456
tot    0.000  0.000  0.000  0.000  0.000  0.000  0.684  0.000  0.228  0.912
 
band    16 # energy   23.69525646 # occ.  0.00000000
 
ion      s     py     pz     px    dxy    dyz    dz2    dxz  x2-y2    tot
    1  0.114  0.000  0.000  0.000  0.000  0.000  0.068  0.000  0.203  0.384
    2  0.114  0.000  0.000  0.000  0.000  0.000  0.068  0.000  0.203  0.384
tot    0.229  0.000  0.000  0.000  0.000  0.000  0.135  0.000  0.405  0.769
 
band    17 # energy   27.43494225 # occ.  0.00000000
 
ion      s     py     pz     px    dxy    dyz    dz2    dxz  x2-y2    tot
    1  0.000  0.000  0.000  0.000  0.000  0.000  0.157  0.000  0.052  0.209
    2  0.000  0.000  0.000  0.000  0.000  0.000  0.157  0.000  0.052  0.209
tot    0.000  0.000  0.000  0.000  0.000  0.000  0.314  0.000  0.105  0.418
 
band    18 # energy   29.41695956 # occ.  0.00000000
 
ion      s     py     pz     px    dxy    dyz    dz2    dxz  x2-y2    tot
    1  0.000  0.072  0.000  0.000  0.271  0.000  0.000  0.000  0.000  0.343
    2  0.000  0.072  0.000  0.000  0.271  0.000  0.000  0.000  0.000  0.343
tot    0.000  0.144  0.000  0.000  0.543  0.000  0.000  0.000  0.000  0.686
 
band    19 # energy   29.41696024 # occ.  0.00000000
 
ion      s     py     pz     px    dxy    dyz    dz2    dxz  x2-y2    tot
    1  0.000  0.000  0.072  0.000  0.000  0.000  0.000  0.271  0.000  0.343
    2  0.000  0.000  0.072  0.000  0.000  0.000  0.000  0.271  0.000  0.343
tot    0.000  0.000  0.144  0.000  0.000  0.000  0.000  0.543  0.000  0.686
 
band    20 # energy   30.27217388 # occ.  0.00000000
 
ion      s     py     pz     px    dxy    dyz    dz2    dxz  x2-y2    tot
    1  0.185  0.000  0.000  0.127  0.000  0.000  0.025  0.000  0.075  0.412
    2  0.185  0.000  0.000  0.127  0.000  0.000  0.025  0.000  0.075  0.412
tot    0.370  0.000  0.000  0.254  0.000  0.000  0.050  0.000  0.150  0.823
 

 k-point     5 :    0.28571429 0.00000000 0.00000000     weight = 0.00218659

band     1 # energy   -0.99803389 # occ.  1.00000000
 
ion      s     py     pz     px    dxy    dyz    dz2    dxz  x2-y2    tot
    1  0.304  0.000  0.000  0.055  0.000  0.000  0.003  0.000  0.008  0.370
    2  0.304  0.000  0.000  0.055  0.000  0.000  0.003  0.000  0.008  0.370
tot    0.608  0.000  0.000  0.110  0.000  0.000  0.005  0.000  0.016  0.740
 
band     2 # energy    1.54986485 # occ.  1.00000000
 
ion      s     py     pz     px    dxy    dyz    dz2    dxz  x2-y2    tot
    1  0.013  0.000  0.000  0.043  0.000  0.000  0.094  0.000  0.282  0.432
    2  0.013  0.000  0.000  0.043  0.000  0.000  0.094  0.000  0.282  0.432
tot    0.025  0.000  0.000  0.086  0.000  0.000  0.188  0.000  0.564  0.863
 
band     3 # energy    1.68900091 # occ.  1.00000000
 