<?xml version="1.0" encoding="ISO-8859-1"?>
<modeling>
 <generator>
  <i name="program" type="string">vasp </i>
  <i name="version" type="string">6.2.0  </i>
  <i name="subversion" type="string">18Jan21 (build Aug 12 2022 13:00:08) complex                          parallel </i>
  <i name="platform" type="string">LinuxIFC </i>
  <i name="date" type="string">2024 11 04 </i>
  <i name="time" type="string">04:39:17 </i>
 </generator>
 <incar>
  <i type="int" name="ISTART">     0</i>
  <i type="string" name="PREC">Accurate      (Accurate strictly avoids</i>
  <i type="logical" name="ADDGRID"> T  </i>
  <i type="int" name="ISPIN">     2</i>
  <i type="int" name="NELM">    90</i>
  <i type="int" name="NELMIN">     6</i>
  <i type="int" name="IBRION">     2</i>
  <i name="EDIFF">      0.00000100</i>
  <i name="EDIFFG">     -0.00200000</i>
  <i type="int" name="NSW">   100</i>
  <i type="int" name="ISIF">     3</i>
  <i type="int" name="ISYM">     2</i>
  <i name="ENCUT">    350.00000000</i>
  <v name="MAGMOM">      5.00000000      5.00000000</v>
  <i type="logical" name="LREAL"> F  </i>
  <i type="int" name="ISMEAR">     1</i>
  <i name="SIGMA">      0.20000000</i>
  <i name="KSPACING">      0.16000000</i>
  <i type="int" name="LMAXMIX">     4</i>
  <i type="int" name="LORBIT">    11</i>
  <i type="logical" name="LASPH"> T  </i>
  <i type="logical" name="GGA_COMPAT"> F  </i>
  <i type="int" name="VOSKOWN">     1</i>
 </incar>
 <primitive_cell>
  <structure name="primitive_cell" >
   <crystal>
    <varray name="basis" >
     <v>       1.43151775       1.43151775      -1.43151775 </v>
     <v>      -1.43151775       1.43151775       1.43151775 </v>
     <v>       1.43151775      -1.43151775       1.43151775 </v>
    </varray>
    <i name="volume">     11.73411129 </i>
    <varray name="rec_basis" >
     <v>       0.34927964       0.34927964       0.00000000 </v>
     <v>       0.00000000       0.34927964       0.34927964 </v>
     <v>       0.34927964      -0.00000000       0.34927964 </v>
    </varray>
   </crystal>
   <varray name="positions" >
    <v>       0.00000000       0.00000000       0.00000000 </v>
   </varray>
  </structure>
  <varray name="primitive_index" >
   <v type="int" >        1 </v>
  </varray>
 </primitive_cell>
 <kpoints>
  <generation param="Gamma">
   <v type="int" name="divisions">      14       14       14 </v>
   <v name="usershift">      0.00000000       0.00000000       0.00000000 </v>
   <v name="genvec1">      0.07142857       0.00000000       0.00000000 </v>
   <v name="genvec2">      0.00000000       0.07142857       0.00000000 </v>
   <v name="genvec3">      0.00000000       0.00000000       0.07142857 </v>
   <v name="shift">      0.00000000       0.00000000       0.00000000 </v>
  </generation>
  <varray name="kpointlist" >
   <v>       0.00000000       0.00000000       0.00000000 </v>
   <v>       0.07142857      -0.00000000       0.00000000 </v>
   <v>       0.14285714       0.00000000       0.00000000 </v>
   <v>       0.21428571       0.00000000       0.00000000 </v>
   <v>       0.28571429       0.00000000       0.00000000 </v>
   <v>       0.35714286       0.00000000       0.00000000 </v>
   <v>       0.42857143       0.00000000       0.00000000 </v>
   <v>       0.50000000       0.00000000       0.00000000 </v>
   <v>       0.07142857       0.07142857       0.00000000 </v>
   <v>       0.14285714       0.07142857       0.00000000 </v>
   <v>       0.21428571       0.07142857       0.00000000 </v>
   <v>       0.28571429       0.07142857       0.00000000 </v>
   <v>       0.35714286       0.07142857       0.00000000 </v>
   <v>       0.42857143       0.07142857       0.00000000 </v>
   <v>       0.50000000       0.07142857       0.00000000 </v>
   <v>       0.14285714       0.14285714       0.00000000 </v>
   <v>       0.21428571       0.14285714       0.00000000 </v>
   <v>       0.28571429       0.14285714       0.00000000 </v>
   <v>       0.35714286       0.14285714       0.00000000 </v>
   <v>       0.42857143       0.14285714       0.00000000 </v>
   <v>       0.50000000       0.14285714       0.00000000 </v>
   <v>       0.21428571       0.21428571       0.00000000 </v>
   <v>       0.28571429       0.21428571       0.00000000 </v>
   <v>       0.35714286       0.21428571       0.00000000 </v>
   <v>       0.42857143       0.21428571       0.00000000 </v>
   <v>       0.50000000       0.21428571       0.00000000 </v>
   <v>       0.28571429       0.28571429       0.00000000 </v>
   <v>       0.35714286       0.28571429       0.00000000 </v>
   <v>       0.42857143       0.28571429       0.00000000 </v>
   <v>       0.50000000       0.28571429       0.00000000 </v>
   <v>       0.35714286       0.35714286       0.00000000 </v>
   <v>       0.42857143       0.35714286       0.00000000 </v>
   <v>       0.50000000       0.35714286       0.00000000 </v>
   <v>       0.42857143       0.42857143       0.00000000 </v>
   <v>       0.50000000       0.42857143       0.00000000 </v>
   <v>       0.50000000       0.50000000       0.00000000 </v>
   <v>       0.07142857       0.07142857       0.07142857 </v>
   <v>       0.14285714       0.07142857       0.07142857 </v>
   <v>       0.21428571       0.07142857       0.07142857 </v>
   <v>       0.28571429       0.07142857       0.07142857 </v>
   <v>       0.35714286       0.07142857       0.07142857 </v>
   <v>       0.42857143       0.07142857       0.07142857 </v>
   <v>       0.50000000       0.07142857       0.07142857 </v>
   <v>       0.14285714       0.14285714       0.07142857 </v>
   <v>       0.21428571       0.14285714       0.07142857 </v>
   <v>       0.28571429       0.14285714       0.07142857 </v>
   <v>       0.35714286       0.14285714       0.07142857 </v>
   <v>       0.42857143       0.14285714       0.07142857 </v>
   <v>       0.50000000       0.14285714       0.07142857 </v>
   <v>       0.21428571       0.21428571       0.07142857 </v>
   <v>       0.28571429       0.21428571       0.07142857 </v>
   <v>       0.35714286       0.21428571       0.07142857 </v>
   <v>       0.42857143       0.21428571       0.07142857 </v>
   <v>       0.50000000       0.21428571       0.07142857 </v>
   <v>       0.28571429       0.28571429       0.07142857 </v>
   <v>       0.35714286       0.28571429       0.07142857 </v>
   <v>       0.42857143       0.28571429       0.07142857 </v>
   <v>       0.50000000       0.28571429       0.07142857 </v>
   <v>       0.35714286       0.35714286       0.07142857 </v>
   <v>       0.42857143       0.35714286       0.07142857 </v>
   <v>       0.50000000       0.35714286       0.07142857 </v>
   <v>       0.42857143       0.42857143       0.07142857 </v>
   <v>       0.50000000       0.42857143       0.07142857 </v>
   <v>       0.50000000       0.50000000       0.07142857 </v>
   <v>       0.14285714       0.14285714       0.14285714 </v>
   <v>       0.21428571       0.14285714       0.14285714 </v>
   <v>       0.28571429       0.14285714       0.14285714 </v>
   <v>       0.35714286       0.14285714       0.14285714 </v>
   <v>       0.42857143       0.14285714       0.14285714 </v>
   <v>       0.50000000       0.14285714       0.14285714 </v>
   <v>       0.21428571       0.21428571       0.14285714 </v>
   <v>       0.28571429       0.21428571       0.14285714 </v>
   <v>       0.35714286       0.21428571       0.14285714 </v>
   <v>       0.42857143       0.21428571       0.14285714 </v>
   <v>       0.50000000       0.21428571       0.14285714 </v>
   <v>       0.28571429       0.28571429       0.14285714 </v>
   <v>       0.35714286       0.28571429       0.14285714 </v>
   <v>       0.42857143       0.28571429       0.14285714 </v>
   <v>       0.50000000       0.28571429       0.14285714 </v>
   <v>       0.35714286       0.35714286       0.14285714 </v>
   <v>       0.42857143       0.35714286       0.14285714 </v>
   <v>       0.50000000       0.35714286       0.14285714 </v>
   <v>       0.42857143       0.42857143       0.14285714 </v>
   <v>       0.50000000       0.42857143       0.14285714 </v>
   <v>       0.50000000       0.50000000       0.14285714 </v>
   <v>       0.21428571       0.21428571       0.21428571 </v>
   <v>       0.28571429       0.21428571       0.21428571 </v>
   <v>       0.35714286       0.21428571       0.21428571 </v>
   <v>       0.42857143       0.21428571       0.21428571 </v>
   <v>       0.50000000       0.21428571       0.21428571 </v>
   <v>       0.28571429       0.28571429       0.21428571 </v>
   <v>       0.35714286       0.28571429       0.21428571 </v>
   <v>       0.42857143       0.28571429       0.21428571 </v>
   <v>       0.50000000       0.28571429       0.21428571 </v>
   <v>       0.35714286       0.35714286       0.21428571 </v>
   <v>       0.42857143       0.35714286       0.21428571 </v>
   <v>       0.50000000       0.35714286       0.21428571 </v>
   <v>       0.42857143       0.42857143       0.21428571 </v>
   <v>       0.50000000       0.42857143       0.21428571 </v>
   <v>       0.50000000       0.50000000       0.21428571 </v>
   <v>       0.28571429       0.28571429       0.28571429 </v>
   <v>       0.35714286       0.28571429       0.28571429 </v>
   <v>       0.42857143       0.28571429       0.28571429 </v>
   <v>       0.50000000       0.28571429       0.28571429 </v>
   <v>       0.35714286       0.35714286       0.28571429 </v>
   <v>       0.42857143       0.35714286       0.28571429 </v>
   <v>       0.50000000       0.35714286       0.28571429 </v>
   <v>       0.42857143       0.42857143       0.28571429 </v>
   <v>       0.50000000       0.42857143       0.28571429 </v>
   <v>       0.50000000       0.50000000       0.28571429 </v>
   <v>       0.35714286       0.35714286       0.35714286 </v>
   <v>       0.42857143       0.35714286       0.35714286 </v>
   <v>       0.50000000       0.35714286       0.35714286 </v>
   <v>       0.42857143       0.42857143       0.35714286 </v>
   <v>       0.50000000       0.42857143       0.35714286 </v>
   <v>       0.50000000       0.50000000       0.35714286 </v>
   <v>       0.42857143       0.42857143       0.42857143 </v>
   <v>       0.50000000       0.42857143       0.42857143 </v>
   <v>       0.50000000       0.50000000       0.42857143 </v>
   <v>       0.50000000       0.50000000       0.50000000 </v>
  </varray>
  <varray name="weights" >
   <v>       0.00036443 </v>
   <v>       0.00218659 </v>
   <v>       0.00218659 </v>
   <v>       0.00218659 </v>
   <v>       0.00218659 </v>
   <v>       0.00218659 </v>
   <v>       0.00218659 </v>
   <v>       0.00109329 </v>
   <v>       0.00437318 </v>
   <v>       0.00874636 </v>
   <v>       0.00874636 </v>
   <v>       0.00874636 </v>
   <v>       0.00874636 </v>
   <v>       0.00874636 </v>
   <v>       0.00437318 </v>
   <v>       0.00437318 </v>
   <v>       0.00874636 </v>
   <v>       0.00874636 </v>
   <v>       0.00874636 </v>
   <v>       0.00874636 </v>
   <v>       0.00437318 </v>
   <v>       0.00437318 </v>
   <v>       0.00874636 </v>
   <v>       0.00874636 </v>
   <v>       0.00874636 </v>
   <v>       0.00437318 </v>
   <v>       0.00437318 </v>
   <v>       0.00874636 </v>
   <v>       0.00874636 </v>
   <v>       0.00437318 </v>
   <v>       0.00437318 </v>
   <v>       0.00874636 </v>
   <v>       0.00437318 </v>
   <v>       0.00437318 </v>
   <v>       0.00437318 </v>
   <v>       0.00109329 </v>
   <v>       0.00291545 </v>
   <v>       0.00874636 </v>
   <v>       0.00874636 </v>
   <v>       0.00874636 </v>
   <v>       0.00874636 </v>
   <v>       0.00874636 </v>
   <v>       0.00437318 </v>
   <v>       0.00874636 </v>
   <v>       0.01749271 </v>
   <v>       0.01749271 </v>
   <v>       0.01749271 </v>
   <v>       0.01749271 </v>
   <v>       0.00874636 </v>
   <v>       0.00874636 </v>
   <v>       0.01749271 </v>
   <v>       0.01749271 </v>
   <v>       0.01749271 </v>
   <v>       0.00874636 </v>
   <v>       0.00874636 </v>
   <v>       0.01749271 </v>
   <v>       0.01749271 </v>
   <v>       0.00874636 </v>
   <v>       0.00874636 </v>
   <v>       0.01749271 </v>
   <v>       0.00874636 </v>
   <v>       0.00874636 </v>
   <v>       0.00874636 </v>
   <v>       0.00218659 </v>
   <v>       0.00291545 </v>
   <v>       0.00874636 </v>
   <v>       0.00874636 </v>
   <v>       0.00874636 </v>
   <v>       0.00874636 </v>
   <v>       0.00437318 </v>
   <v>       0.00874636 </v>
   <v>       0.01749271 </v>
   <v>       0.01749271 </v>
   <v>       0.01749271 </v>
   <v>       0.00874636 </v>
   <v>       0.00874636 </v>
   <v>       0.01749271 </v>
   <v>       0.01749271 </v>
   <v>       0.00874636 </v>
   <v>       0.00874636 </v>
   <v>       0.01749271 </v>
   <v>       0.00874636 </v>
   <v>       0.00874636 </v>
   <v>       0.00874636 </v>
   <v>       0.00218659 </v>
   <v>       0.00291545 </v>
   <v>       0.00874636 </v>
   <v>       0.00874636 </v>
   <v>       0.00874636 </v>
   <v>       0.00437318 </v>
   <v>       0.00874636 </v>
   <v>       0.01749271 </v>
   <v>       0.01749271 </v>
   <v>       0.00874636 </v>
   <v>       0.00874636 </v>
   <v>       0.01749271 </v>
   <v>       0.00874636 </v>
   <v>       0.00874636 </v>
   <v>       0.00874636 </v>
   <v>       0.00218659 </v>
   <v>       0.00291545 </v>
   <v>       0.00874636 </v>
   <v>       0.00874636 </v>
   <v>       0.00437318 </v>
   <v>       0.00874636 </v>
   <v>       0.01749271 </v>
   <v>       0.00874636 </v>
   <v>       0.00874636 </v>
   <v>       0.00874636 </v>
   <v>       0.00218659 </v>
   <v>       0.00291545 </v>
   <v>       0.00874636 </v>
   <v>       0.00437318 </v>
   <v>       0.00874636 </v>
   <v>       0.00874636 </v>
   <v>       0.00218659 </v>
   <v>       0.00291545 </v>
   <v>       0.00437318 </v>
   <v>       0.00218659 </v>
   <v>       0.00036443 </v>
  </varray>
 </kpoints>
 <parameters>
  <separator name="general" >
   <i type="string" name="SYSTEM">unknown system</i>
   <i type="logical" name="LCOMPAT"> F  </i>
  </separator>
  <separator name="electronic" >
   <i type="string" name="PREC">accura</i>
   <i name="ENMAX">    350.00000000</i>
   <i name="ENAUG">    511.36800000</i>
   <i name="EDIFF">      0.00000100</i>
   <i type="int" name="IALGO">    38</i>
   <i type="int" name="IWAVPR">    11</i>
   <i type="int" name="NBANDS">    20</i>
   <i type="int" name="NBANDSLOW">    -1</i>
   <i type="int" name="NBANDSHIGH">    -1</i>
   <i name="NELECT">     16.00000000</i>
   <i type="int" name="TURBO">     0</i>
   <i type="int" name="IRESTART">     0</i>
   <i type="int" name="NREBOOT">     0</i>
   <i type="int" name="NMIN">     0</i>
   <i name="EREF">      0.00000000</i>
   <separator name="electronic smearing" >
    <i type="int" name="ISMEAR">     1</i>
    <i name="SIGMA">      0.20000000</i>
    <i name="KSPACING">      0.16000000</i>
    <i type="logical" name="KGAMMA"> T  </i>
    <i type="logical" name="KBLOWUP"> T  </i>
   </separator>
   <separator name="electronic projectors" >
    <i type="logical" name="LREAL"> F  </i>
    <v name="ROPT">      0.00000000</v>
    <i type="int" name="LMAXPAW">  -100</i>
    <i type="int" name="LMAXMIX">     4</i>
    <i type="logical" name="NLSPLINE"> F  </i>
   </separator>
   <separator name="electronic startup" >
    <i type="int" name="ISTART">     0</i>
    <i type="int" name="ICHARG">     2</i>
    <i type="int" name="INIWAV">     1</i>
   </separator>
   <separator name="electronic spin" >
    <i type="int" name="ISPIN">     2</i>
    <i type="logical" name="LNONCOLLINEAR"> F  </i>
    <v name="MAGMOM">      5.00000000      5.00000000</v>
    <i name="NUPDOWN">     -1.00000000</i>
    <i type="logical" name="LSORBIT"> F  </i>
    <v name="SAXIS">      0.00000000      0.00000000      1.00000000</v>
    <i type="logical" name="LSPIRAL"> F  </i>
    <v name="QSPIRAL">      0.00000000      0.00000000      0.00000000</v>
    <i type="logical" name="LZEROZ"> F  </i>
   </separator>
   <separator name="electronic exchange-correlation" >
    <i type="logical" name="LASPH"> T  </i>
    <i type="logical" name="LMETAGGA"> F  </i>
   </separator>
   <separator name="electronic convergence" >
    <i type="int" name="NELM">    90</i>
    <i type="int" name="NELMDL">    -5</i>
    <i type="int" name="NELMIN">     6</i>
    <i name="ENINI">    350.00000000</i>
    <separator name="electronic convergence detail" >
     <i type="logical" name="LDIAG"> T  </i>
     <i type="logical" name="LSUBROT"> F  </i>
     <i name="WEIMIN">      0.00100000</i>
     <i name="EBREAK">      0.00000001</i>
     <i name="DEPER">      0.30000000</i>
     <i type="int" name="NRMM">     4</i>
     <i name="TIME">      0.40000000</i>
    </separator>
   </separator>
   <separator name="electronic mixer" >
    <i name="AMIX">      0.40000000</i>
    <i name="BMIX">      1.00000000</i>
    <i name="AMIN">      0.10000000</i>
    <i name="AMIX_MAG">      1.60000000</i>
    <i name="BMIX_MAG">      1.00000000</i>
    <separator name="electronic mixer details" >
     <i type="int" name="IMIX">     4</i>
     <i type="logical" name="MIXFIRST"> F  </i>
     <i type="int" name="MAXMIX">   -45</i>
     <i name="WC">    100.00000000</i>
     <i type="int" name="INIMIX">     1</i>
     <i type="int" name="MIXPRE">     1</i>
     <i type="int" name="MREMOVE">     5</i>
    </separator>
   </separator>
   <separator name="electronic dipolcorrection" >
    <i type="logical" name="LDIPOL"> F  </i>
    <i type="logical" name="LMONO"> F  </i>
    <i type="int" name="IDIPOL">     0</i>
    <i name="EPSILON">      1.00000000</i>
    <v name="DIPOL">   -100.00000000   -100.00000000   -100.00000000</v>
    <i name="EFIELD">      0.00000000</i>
   </separator>
  </separator>
  <separator name="grids" >
   <i type="int" name="NGX">    18</i>
   <i type="int" name="NGY">    18</i>
   <i type="int" name="NGZ">    18</i>
   <i type="int" name="NGXF">    36</i>
   <i type="int" name="NGYF">    36</i>
   <i type="int" name="NGZF">    36</i>
   <i type="logical" name="ADDGRID"> T  </i>
  </separator>
  <separator name="ionic" >
   <i type="int" name="NSW">   100</i>
   <i type="int" name="IBRION">     2</i>
   <i type="int" name="MDALGO">     0</i>
   <i type="int" name="ISIF">     3</i>
   <i name="PSTRESS">      0.00000000</i>
   <i name="EDIFFG">     -0.00200000</i>
   <i type="int" name="NFREE">     1</i>
   <i name="POTIM">      0.50000000</i>
   <i name="SMASS">     -3.00000000</i>
   <i name="SCALEE">      1.00000000</i>
  </separator>
  <separator name="ionic md" >
   <i name="TEBEG">      0.00010000</i>
   <i name="TEEND">      0.00010000</i>
   <i type="int" name="NBLOCK">     1</i>
   <i type="int" name="KBLOCK">   100</i>
   <i type="int" name="NPACO">   256</i>
   <i name="APACO">     16.00000000</i>
  </separator>
  <separator name="symmetry" >
   <i type="int" name="ISYM">     2</i>
   <i name="SYMPREC">      0.00001000</i>
  </separator>
  <separator name="dos" >
   <i type="int" name="LORBIT">    11</i>
   <v name="RWIGS">     -1.00000000</v>
   <i type="int" name="NEDOS">   301</i>
   <i name="EMIN">     10.00000000</i>
   <i name="EMAX">    -10.00000000</i>
   <i name="EFERMI">      0.00000000</i>
  </separator>
  <separator name="writing" >
   <i type="int" name="NWRITE">     2</i>
   <i type="logical" name="LWAVE"> T  </i>
   <i type="logical" name="LDOWNSAMPLE"> F  </i>
   <i type="logical" name="LCHARG"> T  </i>
   <i type="logical" name="LPARD"> F  </i>
   <i type="logical" name="LVTOT"> F  </i>
   <i type="logical" name="LVHAR"> F  </i>
   <i type="logical" name="LELF"> F  </i>
   <i type="logical" name="LOPTICS"> F  </i>
   <v name="STM">      0.00000000      0.00000000      0.00000000      0.00000000      0.00000000      0.00000000      0.00000000</v>
  </separator>
  <separator name="performance" >
   <i type="int" name="NPAR">     4</i>
   <i type="int" name="NSIM">     4</i>
   <i type="int" name="NBLK">    -1</i>
   <i type="logical" name="LPLANE"> T  </i>
   <i type="logical" name="LSCALAPACK"> T  </i>
   <i type="logical" name="LSCAAWARE"> F  </i>
   <i type="logical" name="LSCALU"> F  </i>
   <i type="logical" name="LASYNC"> F  </i>
   <i type="logical" name="LORBITALREAL"> F  </i>
  </separator>
  <separator name="miscellaneous" >
   <i type="int" name="IDIOT">     3</i>
   <i type="int" name="PHON_NSTRUCT">    -1</i>
   <i type="logical" name="LMUSIC"> F  </i>
   <v name="POMASS">     55.84700000</v>
   <v name="DARWINR">      0.00000000</v>
   <v name="DARWINV">      1.00000000</v>
   <i type="logical" name="LCORR"> T  </i>
  </separator>
  <i type="logical" name="GGA_COMPAT"> F  </i>
  <i type="logical" name="LBERRY"> F  </i>
  <i type="int" name="ICORELEVEL">     0</i>
  <i type="logical" name="LDAU"> F  </i>
  <i type="int" name="I_CONSTRAINED_M">     0</i>
  <separator name="electronic exchange-correlation" >
   <i type="string" name="GGA">--</i>
   <i type="int" name="VOSKOWN">     1</i>
   <i type="logical" name="LHFCALC"> F  </i>
   <i type="string" name="PRECFOCK"></i>
   <i type="logical" name="LSYMGRAD"> F  </i>
   <i type="logical" name="LHFONE"> F  </i>
   <i type="logical" name="LRHFCALC"> F  </i>
   <i type="logical" name="LTHOMAS"> F  </i>
   <i type="logical" name="LMODELHF"> F  </i>
   <i type="logical" name="LFOCKACE"> F  </i>
   <i name="ENCUT4O">     -1.00000000</i>
   <i type="int" name="EXXOEP">     0</i>
   <i type="int" name="FOURORBIT">     0</i>
   <i name="AEXX">      0.00000000</i>
   <i name="HFALPHA">      0.00000000</i>
   <i name="MCALPHA">      0.00000000</i>
   <i name="ALDAX">      1.00000000</i>
   <i name="AGGAX">      1.00000000</i>
   <i name="ALDAC">      1.00000000</i>
   <i name="AGGAC">      1.00000000</i>
   <i type="int" name="NKREDX">     1</i>
   <i type="int" name="NKREDY">     1</i>
   <i type="int" name="NKREDZ">     1</i>
   <i type="logical" name="SHIFTRED"> F  </i>
   <i type="logical" name="ODDONLY"> F  </i>
   <i type="logical" name="EVENONLY"> F  </i>
   <i type="int" name="LMAXFOCK">     0</i>
   <i type="int" name="NMAXFOCKAE">     0</i>
   <i type="logical" name="LFOCKAEDFT"> F  </i>
   <i name="HFSCREEN">      0.00000000</i>
   <i name="HFSCREENC">      0.00000000</i>
   <i type="int" name="NBANDSGWLOW">     0</i>
  </separator>
  <separator name="vdW DFT" >
   <i type="logical" name="LUSE_VDW"> F  </i>
   <i name="Zab_VDW">     -0.84910000</i>
   <i name="PARAM1">      0.12340000</i>
   <i name="PARAM2">      1.00000000</i>
   <i name="PARAM3">      0.00000000</i>
  </separator>
  <separator name="model GW" >
   <i type="int" name="MODEL_GW">     0</i>
   <i name="MODEL_EPS0">      7.04046678</i>
   <i name="MODEL_ALPHA">      1.00000000</i>
  </separator>
  <separator name="linear response parameters" >
   <i type="logical" name="LEPSILON"> F  </i>
   <i type="logical" name="LRPA"> F  </i>
   <i type="logical" name="LNABLA"> F  </i>
   <i type="logical" name="LVEL"> F  </i>
   <i type="int" name="KINTER">     0</i>
   <i name="CSHIFT">      0.10000000</i>
   <i name="OMEGAMAX">     -1.00000000</i>
   <i name="DEG_THRESHOLD">      0.00200000</i>
   <i name="RTIME">     -0.10000000</i>
   <i name="WPLASMAI">      0.00000000</i>
   <v name="DFIELD">      0.00000000      0.00000000      0.00000000</v>
   <v name="WPLASMA">      0.00000000      0.00000000      0.00000000      0.00000000      0.00000000      0.00000000      0.00000000      0.00000000      0.00000000</v>
  </separator>
  <separator name="orbital magnetization" >
   <i type="logical" name="NUCIND"> F  </i>
   <v name="MAGPOS">      0.00000000      0.00000000      0.00000000</v>
   <i type="logical" name="LNICSALL"> T  </i>
   <i type="logical" name="ORBITALMAG"> F  </i>
   <i type="logical" name="LMAGBLOCH"> F  </i>
   <i type="logical" name="LCHIMAG"> F  </i>
   <i type="logical" name="LGAUGE"> T  </i>
   <i type="int" name="MAGATOM">     0</i>
   <v name="MAGDIPOL">      0.00000000      0.00000000      0.00000000</v>
   <v name="AVECCONST">      0.00000000      0.00000000      0.00000000</v>
  </separator>
  <separator name="response functions" >
   <i type="logical" name="LFINITE_TEMPERATURE"> F  </i>
   <i type="logical" name="LADDER"> F  </i>
   <i type="logical" name="LRPAFORCE"> F  </i>
   <i type="logical" name="LFXC"> F  </i>
   <i type="logical" name="LHARTREE"> T  </i>
   <i type="int" name="IBSE">     0</i>
   <v type="int" name="KPOINT">    -1     0     0     0</v>
   <i type="logical" name="LTCTC"> F  </i>
   <i type="logical" name="LTCTE"> F  </i>
   <i type="logical" name="LTETE"> F  </i>
   <i type="logical" name="LTRIPLET"> F  </i>
   <i type="logical" name="LFXCEPS"> F  </i>
   <i type="logical" name="LFXHEG"> F  </i>
   <i type="int" name="NATURALO">     2</i>
   <i type="logical" name="LHOLEGF"> F  </i>
   <i type="logical" name="L2ORDER"> F  </i>
   <i type="logical" name="LDMP1"> F  </i>
   <i type="logical" name="LMP2LT"> F  </i>
   <i type="logical" name="LSMP2LT"> F  </i>
   <i type="logical" name="LGWLF"> F  </i>
   <i name="ENCUTGW">     -2.00000000</i>
   <i name="ENCUTGWSOFT">     -2.00000000</i>
   <i name="ENCUTLF">     -1.00000000</i>
   <i type="logical" name="LESF_SPLINES"> F  </i>
   <i type="int" name="LMAXMP2">    -1</i>
   <i name="SCISSOR">      0.00000000</i>
   <i type="int" name="NOMEGA">     0</i>
   <i type="int" name="NOMEGAR">     0</i>
   <i type="int" name="NBANDSGW">    -1</i>
   <i type="int" name="NBANDSO">    -1</i>
   <i type="int" name="NBANDSV">    -1</i>
   <i type="int" name="NELM">    90</i>
   <i type="int" name="NELMHF">     1</i>
   <i type="int" name="DIM">     3</i>
   <i type="int" name="IESPILON">     4</i>
   <i type="int" name="ANTIRES">     0</i>
   <i name="OMEGAMAX">    -30.00000000</i>
   <i name="OMEGAMIN">    -30.00000000</i>
   <i name="OMEGATL">   -200.00000000</i>
   <i type="int" name="OMEGAGRID">     0</i>
   <i name="CSHIFT">     -0.10000000</i>
   <i type="logical" name="LSELFENERGY"> F  </i>
   <i type="logical" name="LSPECTRAL"> F  </i>
   <i type="logical" name="LSPECTRALGW"> F  </i>
   <i type="logical" name="LSINGLES"> F  </i>
   <i type="logical" name="LFERMIGW"> F  </i>
   <i type="logical" name="ODDONLYGW"> F  </i>
   <i type="logical" name="EVENONLYGW"> F  </i>
   <i type="int" name="NKREDLFX">     1</i>
   <i type="int" name="NKREDLFY">     1</i>
   <i type="int" name="NKREDLFZ">     1</i>
   <i type="int" name="MAXMEM">  2800</i>
   <i type="int" name="TELESCOPE">     0</i>
   <i type="int" name="NTAUPAR">    -1</i>
   <i type="int" name="NOMEGAPAR">    -1</i>
   <i name="DAMP_NEWTON">      0.80000001</i>
   <i name="LAMBDA">      1.00000000</i>
  </separator>
  <separator name="External order field" >
   <i name="OFIELD_KAPPA">      0.00000000</i>
   <v name="OFIELD_K">      0.00000000      0.00000000      0.00000000</v>
   <i name="OFIELD_Q6_NEAR">      0.00000000</i>
   <i name="OFIELD_Q6_FAR">      0.00000000</i>
   <i name="OFIELD_A">      0.00000000</i>
  </separator>
 </parameters>
 <atominfo>
  <atoms>       2 </atoms>
  <types>       1 </types>
  <array name="atoms" >
   <dimension dim="1">ion</dimension>
   <field type="string">element</field>
   <field type="int">atomtype</field>
   <set>
    <rc><c>Fe</c><c>   1</c></rc>
    <rc><c>Fe</c><c>   1</c></rc>
   </set>
  </array>
  <array name="atomtypes" >
   <dimension dim="1">type</dimension>
   <field type="int">atomspertype</field>
   <field type="string">element</field>
   <field>mass</field>
   <field>valence</field>
   <field type="string">pseudopotential</field>
   <set>
    <rc><c>   2</c><c>Fe</c><c>     55.84700000</c><c>      8.00000000</c><c>  PAW_PBE Fe 06Sep2000                  </c></rc>
   </set>
  </array>
 </atominfo>
 <structure name="initialpos" >
  <crystal>
   <varray name="basis" >
    <v>       2.86303550       0.00000000       0.00000000 </v>
    <v>       0.00000000       2.86303550       0.00000000 </v>
    <v>       0.00000000       0.00000000       2.86303550 </v>
   </varray>
   <i name="volume">     23.46822259 </i>
   <varray name="rec_basis" >
    <v>       0.34927964      -0.00000000       0.00000000 </v>
    <v>       0.00000000       0.34927964       0.00000000 </v>
    <v>      -0.00000000      -0.00000000       0.34927964 </v>
   </varray>
  </crystal>
  <varray name="positions" >
   <v>       0.00000000       0.00000000       0.00000000 </v>
   <v>       0.50000000       0.50000000       0.50000000 </v>
  </varray>
 </structure>
 <calculation>
  <scstep>
   <time name="dav">    3.84    3.84</time>
   <time name="total">    5.44    5.44</time>
   <energy>
    <i name="alphaZ">    117.79976220 </i>
    <i name="ewald">  -1171.43779597 </i>
    <i name="hartreedc">   -228.04061711 </i>
    <i name="XCdc">     14.27160946 </i>
    <i name="pawpsdc">   1103.49540010 </i>
    <i name="pawaedc">  -1119.11610375 </i>
    <i name="eentropy">      0.00137960 </i>
    <i name="bandstr">    157.79373995 </i>
    <i name="atom">   1188.58965621 </i>
    <i name="e_fr_energy">     63.35703070 </i>
    <i name="e_wo_entrp">     63.35565109 </i>
    <i name="e_0_energy">     63.35657083 </i>
   </energy>
  </scstep>
  <scstep>
   <time name="dav">    3.57    3.59</time>
   <time name="total">    3.58    3.60</time>
   <energy>
    <i name="e_fr_energy">    -13.37286562 </i>
    <i name="e_wo_entrp">    -13.37234366 </i>
    <i name="e_0_energy">    -13.37269164 </i>
   </energy>
  </scstep>
  <scstep>
   <time name="dav">    3.87    3.89</time>
   <time name="total">    3.88    3.90</time>
   <energy>
    <i name="e_fr_energy">    -16.06589719 </i>
    <i name="e_wo_entrp">    -16.06720446 </i>
    <i name="e_0_energy">    -16.06633295 </i>
   </energy>
  </scstep>
  <scstep>
   <time name="dav">    3.80    3.81</time>
   <time name="total">    3.80    3.83</time>
   <energy>
    <i name="e_fr_energy">    -16.08597255 </i>
    <i name="e_wo_entrp">    -16.08729628 </i>
    <i name="e_0_energy">    -16.08641379 </i>
   </energy>
  </scstep>
  <scstep>
   <time name="dav">    3.86    3.88</time>
   <time name="total">    4.09    4.11</time>
   <energy>
    <i name="e_fr_energy">    -16.08621905 </i>
    <i name="e_wo_entrp">    -16.08754282 </i>
    <i name="e_0_energy">    -16.08666030 </i>
   </energy>
  </scstep>
  <scstep>
   <time name="dav">    3.77    3.78</time>
   <time name="total">    5.58    5.59</time>
   <energy>
    <i name="e_fr_energy">    -16.57004555 </i>
    <i name="e_wo_entrp">    -16.57224129 </i>
    <i name="e_0_energy">    -16.57077746 </i>
   </energy>
  </scstep>
  <scstep>
   <time name="dav">    3.99    3.99</time>
   <time name="total">    5.79    5.81</time>
   <energy>
    <i name="e_fr_energy">    -16.50937045 </i>
    <i name="e_wo_entrp">    -16.51128297 </i>
    <i name="e_0_energy">    -16.51000796 </i>
   </energy>
  </scstep>
  <scstep>
   <time name="dav">    4.24    4.25</time>
   <time name="total">    6.05    6.07</time>
   <energy>
    <i name="e_fr_energy">    -16.49292673 </i>
    <i name="e_wo_entrp">    -16.49468984 </i>
    <i name="e_0_energy">    -16.49351444 </i>
   </energy>
  </scstep>
  <scstep>
   <time name="dav">    4.82    4.83</time>
   <time name="total">    6.62    6.65</time>
   <energy>
    <i name="e_fr_energy">    -16.48172334 </i>
    <i name="e_wo_entrp">    -16.48328232 </i>
    <i name="e_0_energy">    -16.48224300 </i>
   </energy>
  </scstep>
  <scstep>
   <time name="dav">    4.00    4.01</time>
   <time name="total">    5.80    5.83</time>
   <energy>
    <i name="e_fr_energy">    -16.48133991 </i>
    <i name="e_wo_entrp">    -16.48315325 </i>
    <i name="e_0_energy">    -16.48194436 </i>
   </energy>
  </scstep>
  <scstep>
   <time name="dav">    4.02    4.02</time>
   <time name="total">    5.82    5.84</time>
   <energy>
    <i name="e_fr_energy">    -16.48137430 </i>
    <i name="e_wo_entrp">    -16.48317278 </i>
    <i name="e_0_energy">    -16.48197379 </i>
   </energy>
  </scstep>
  <scstep>
   <time name="dav">    3.56    3.56</time>
   <time name="total">    5.36    5.38</time>
   <energy>
    <i name="e_fr_energy">    -16.48135911 </i>
    <i name="e_wo_entrp">    -16.48316193 </i>
    <i name="e_0_energy">    -16.48196005 </i>
   </energy>
  </scstep>
  <scstep>
   <time name="dav">    3.30    3.30</time>
   <time name="total">    4.89    4.91</time>
   <energy>
    <i name="alphaZ">    117.79976220 </i>
    <i name="ewald">  -1171.43779597 </i>
    <i name="hartreedc">   -195.12882186 </i>
    <i name="XCdc">      8.53846047 </i>
    <i name="pawpsdc">   1412.19833773 </i>
    <i name="pawaedc">  -1430.18041616 </i>
    <i name="eentropy">      0.00180155 </i>
    <i name="bandstr">     53.13765668 </i>
    <i name="atom">   1188.58965621 </i>
    <i name="e_fr_energy">    -16.48135915 </i>
    <i name="e_wo_entrp">    -16.48316070 </i>
    <i name="e_0_energy">    -16.48195966 </i>
   </energy>
  </scstep>
  <structure>
   <crystal>
    <varray name="basis" >
     <v>       2.86303550       0.00000000       0.00000000 </v>
     <v>       0.00000000       2.86303550       0.00000000 </v>
     <v>       0.00000000       0.00000000       2.86303550 </v>
    </varray>
    <i name="volume">     23.46822259 </i>
    <varray name="rec_basis" >
     <v>       0.34927964      -0.00000000       0.00000000 </v>
     <v>       0.00000000       0.34927964       0.00000000 </v>
     <v>      -0.00000000      -0.00000000       0.34927964 </v>
    </varray>
   </crystal>
   <varray name="positions" >
    <v>       0.00000000       0.00000000       0.00000000 </v>
    <v>       0.50000000       0.50000000       0.50000000 </v>
   </varray>
  </structure>
  <varray name="forces" >
   <v>      -0.00000000       0.00000000       0.00000000 </v>
   <v>       0.00000000      -0.00000000      -0.00000000 </v>
  </varray>
  <varray name="stress" >
   <v>     -64.21169925       0.00000000       0.00000000 </v>
   <v>      -0.00000000     -64.21169925       0.00000000 </v>
   <v>      -0.00000000       0.00000000     -64.21169925 </v>
  </varray>
  <energy>
   <i name="e_fr_energy">    -16.48135915 </i>
   <i name="e_wo_entrp">    -16.48316070 </i>
   <i name="e_0_energy">    -16.48195966 </i>
  </energy>
  <time name="totalsc">   72.77   74.10</time>
 </calculation>
 <calculation>
  <scstep>
   <time name="dav">    3.75    3.75</time>
   <time name="total">    5.55    5.56</time>
   <energy>
    <i name="alphaZ">    126.19551990 </i>
    <i name="ewald">  -1198.63164714 </i>
    <i name="hartreedc">   -199.66207064 </i>
    <i name="XCdc">      9.88198024 </i>
    <i name="pawpsdc">   1412.19077725 </i>
    <i name="pawaedc">  -1430.17182658 </i>
    <i name="eentropy">      0.00201860 </i>
    <i name="bandstr">     74.37200608 </i>
    <i name="atom">   1188.58965621 </i>
    <i name="e_fr_energy">    -17.23358608 </i>
    <i name="e_wo_entrp">    -17.23560468 </i>
    <i name="e_0_energy">    -17.23425895 </i>
   </energy>
  </scstep>
  <scstep>
   <time name="dav">    3.74    3.74</time>
   <time name="total">    5.55    5.57</time>
   <energy>
    <i name="e_fr_energy">    -16.53294999 </i>
    <i name="e_wo_entrp">    -16.53378693 </i>
    <i name="e_0_energy">    -16.53322897 </i>
   </energy>
  </scstep>
  <scstep>
   <time name="dav">    3.98    3.98</time>
   <time name="total">    5.78    5.80</time>
   <energy>
    <i name="e_fr_energy">    -16.49815030 </i>
    <i name="e_wo_entrp">    -16.49875873 </i>
    <i name="e_0_energy">    -16.49835311 </i>
   </energy>
  </scstep>
  <scstep>
   <time name="dav">    4.17    4.17</time>
   <time name="total">    5.96    5.99</time>
   <energy>
    <i name="e_fr_energy">    -16.49057252 </i>
    <i name="e_wo_entrp">    -16.49104824 </i>
    <i name="e_0_energy">    -16.49073110 </i>
   </energy>
  </scstep>
  <scstep>
   <time name="dav">    4.10    4.12</time>
   <time name="total">    5.90    5.94</time>
   <energy>
    <i name="e_fr_energy">    -16.48458502 </i>
    <i name="e_wo_entrp">    -16.48487481 </i>
    <i name="e_0_energy">    -16.48468162 </i>
   </energy>
  </scstep>
  <scstep>
   <time name="dav">    3.77    3.77</time>
   <time name="total">    5.57    5.59</time>
   <energy>
    <i name="e_fr_energy">    -16.48469849 </i>
    <i name="e_wo_entrp">    -16.48500861 </i>
    <i name="e_0_energy">    -16.48480186 </i>
   </energy>
  </scstep>
  <scstep>
   <time name="dav">    3.60    3.61</time>
   <time name="total">    5.40    5.42</time>
   <energy>
    <i name="e_fr_energy">    -16.48470640 </i>
    <i name="e_wo_entrp">    -16.48502212 </i>
    <i name="e_0_energy">    -16.48481164 </i>
   </energy>
  </scstep>
  <scstep>
   <time name="dav">    3.23    3.23</time>
   <time name="total">    5.03    5.05</time>
   <energy>
    <i name="e_fr_energy">    -16.48470262 </i>
    <i name="e_wo_entrp">    -16.48501754 </i>
    <i name="e_0_energy">    -16.48480759 </i>
   </energy>
  </scstep>
  <scstep>
   <time name="dav">    2.41    2.41</time>
   <time name="total">    4.00    4.02</time>
   <energy>
    <i name="alphaZ">    126.19551990 </i>
    <i name="ewald">  -1198.63164714 </i>
    <i name="hartreedc">   -184.49857053 </i>
    <i name="XCdc">      8.69839457 </i>
    <i name="pawpsdc">   1474.94673558 </i>
    <i name="pawaedc">  -1493.35070433 </i>
    <i name="eentropy">      0.00031148 </i>
    <i name="bandstr">     61.56560245 </i>
    <i name="atom">   1188.58965621 </i>
    <i name="e_fr_energy">    -16.48470181 </i>
    <i name="e_wo_entrp">    -16.48501329 </i>
    <i name="e_0_energy">    -16.48480564 </i>
   </energy>
  </scstep>
  <structure>
   <crystal>
    <varray name="basis" >
     <v>       2.79808063       0.00000000       0.00000000 </v>
     <v>       0.00000000       2.79808063       0.00000000 </v>
     <v>      -0.00000000       0.00000000       2.79808063 </v>
    </varray>
    <i name="volume">     21.90688736 </i>
    <varray name="rec_basis" >
     <v>       0.35738784      -0.00000000       0.00000000 </v>
     <v>      -0.00000000       0.35738784      -0.00000000 </v>
     <v>      -0.00000000      -0.00000000       0.35738784 </v>
    </varray>
   </crystal>
   <varray name="positions" >
    <v>      -0.00000000       0.00000000       0.00000000 </v>
    <v>       0.50000000       0.50000000       0.50000000 </v>
   </varray>
  </structure>
  <varray name="forces" >
   <v>       0.00000000      -0.00000000       0.00000000 </v>
   <v>      -0.00000000       0.00000000      -0.00000000 </v>
  </varray>
  <varray name="stress" >
   <v>      66.69666925       0.00000000       0.00000000 </v>
   <v>       0.00000000      66.69666925       0.00000000 </v>
   <v>       0.00000000       0.00000000      66.69666925 </v>
  </varray>
  <energy>
   <i name="e_fr_energy">    -16.48470181 </i>
   <i name="e_wo_entrp">    -16.48501329 </i>
   <i name="e_0_energy">    -16.48480564 </i>
  </energy>
  <time name="totalsc">   54.33   54.90</time>
 </calculation>
 <calculation>
  <scstep>
   <time name="dav">    3.77    3.78</time>
   <time name="total">    5.57    5.58</time>
   <energy>
    <i name="alphaZ">    122.20193850 </i>
    <i name="ewald">  -1185.85191543 </i>
    <i name="hartreedc">   -182.53422380 </i>
    <i name="XCdc">      8.08699644 </i>
    <i name="pawpsdc">   1474.97277216 </i>
    <i name="pawaedc">  -1493.37479563 </i>
    <i name="eentropy">     -0.00138659 </i>
    <i name="bandstr">     51.24589991 </i>
    <i name="atom">   1188.58965621 </i>
    <i name="e_fr_energy">    -16.66505823 </i>
    <i name="e_wo_entrp">    -16.66367164 </i>
    <i name="e_0_energy">    -16.66459603 </i>
   </energy>
  </scstep>
  <scstep>
   <time name="dav">    3.74    3.75</time>
   <time name="total">    5.54    5.56</time>
   <energy>
    <i name="e_fr_energy">    -16.51628053 </i>
    <i name="e_wo_entrp">    -16.51694447 </i>
    <i name="e_0_energy">    -16.51650185 </i>
   </energy>
  </scstep>
  <scstep>
   <time name="dav">    3.96    3.97</time>
   <time name="total">    5.76    5.78</time>
   <energy>
    <i name="e_fr_energy">    -16.50228335 </i>
    <i name="e_wo_entrp">    -16.50265596 </i>
    <i name="e_0_energy">    -16.50240755 </i>
   </energy>
  </scstep>
  <scstep>
   <time name="dav">    4.37    4.37</time>
   <time name="total">    6.17    6.19</time>
   <energy>
    <i name="e_fr_energy">    -16.50046085 </i>
    <i name="e_wo_entrp">    -16.50077857 </i>
    <i name="e_0_energy">    -16.50056675 </i>
   </energy>
  </scstep>
  <scstep>
   <time name="dav">    3.94    3.94</time>
   <time name="total">    5.73    5.75</time>
   <energy>
    <i name="e_fr_energy">    -16.49903936 </i>
    <i name="e_wo_entrp">    -16.49930315 </i>
    <i name="e_0_energy">    -16.49912729 </i>
   </energy>
  </scstep>
  <scstep>
   <time name="dav">    3.64    3.64</time>
   <time name="total">    5.44    5.46</time>
   <energy>
    <i name="e_fr_energy">    -16.49906255 </i>
    <i name="e_wo_entrp">    -16.49932714 </i>
    <i name="e_0_energy">    -16.49915075 </i>
   </energy>
  </scstep>
  <scstep>
   <time name="dav">    3.55    3.55</time>
   <time name="total">    5.35    5.37</time>
   <energy>
    <i name="e_fr_energy">    -16.49906749 </i>
    <i name="e_wo_entrp">    -16.49933620 </i>
    <i name="e_0_energy">    -16.49915706 </i>
   </energy>
  </scstep>
  <scstep>
   <time name="dav">    2.54    2.55</time>
   <time name="total">    4.34    4.36</time>
   <energy>
    <i name="e_fr_energy">    -16.49907053 </i>
    <i name="e_wo_entrp">    -16.49933903 </i>
    <i name="e_0_energy">    -16.49916003 </i>
   </energy>
  </scstep>
  <scstep>
   <time name="dav">    2.38    2.38</time>
   <time name="total">    3.97    3.98</time>
   <energy>
    <i name="alphaZ">    122.20193850 </i>
    <i name="ewald">  -1185.85191543 </i>
    <i name="hartreedc">   -189.42880352 </i>
    <i name="XCdc">      8.62320837 </i>
    <i name="pawpsdc">   1444.35810474 </i>
    <i name="pawaedc">  -1462.55265742 </i>
    <i name="eentropy">      0.00026811 </i>
    <i name="bandstr">     57.56112985 </i>
    <i name="atom">   1188.58965621 </i>
    <i name="e_fr_energy">    -16.49907058 </i>
    <i name="e_wo_entrp">    -16.49933869 </i>
    <i name="e_0_energy">    -16.49915995 </i>
   </energy>
  </scstep>
  <structure>
   <crystal>
    <varray name="basis" >
     <v>       2.82823509       0.00000000       0.00000000 </v>
     <v>       0.00000000       2.82823509       0.00000000 </v>
     <v>      -0.00000000       0.00000000       2.82823509 </v>
    </varray>
    <i name="volume">     22.62280839 </i>
    <varray name="rec_basis" >
     <v>       0.35357740      -0.00000000       0.00000000 </v>
     <v>      -0.00000000       0.35357740      -0.00000000 </v>
     <v>      -0.00000000      -0.00000000       0.35357740 </v>
    </varray>
   </crystal>
   <varray name="positions" >
    <v>      -0.00000000       0.00000000       0.00000000 </v>
    <v>       0.50000000       0.50000000       0.50000000 </v>
   </varray>
  </structure>
  <varray name="forces" >
   <v>      -0.00000000      -0.00000000       0.00000000 </v>
   <v>       0.00000000       0.00000000      -0.00000000 </v>
  </varray>
  <varray name="stress" >
   <v>       0.09919054       0.00000000       0.00000000 </v>
   <v>      -0.00000000       0.09919054      -0.00000000 </v>
   <v>       0.00000000       0.00000000       0.09919054 </v>
  </varray>
  <energy>
   <i name="e_fr_energy">    -16.49907058 </i>
   <i name="e_wo_entrp">    -16.49933869 </i>
   <i name="e_0_energy">    -16.49915995 </i>
  </energy>
  <time name="totalsc">   53.84   55.45</time>
  <eigenvalues>
   <array>
    <dimension dim="1">band</dimension>
    <dimension dim="2">kpoint</dimension>
    <dimension dim="3">spin</dimension>
    <field>eigene</field>
    <field>occ</field>
    <set>
     <set comment="spin 1">
      <set comment="kpoint 1">
       <r>   -2.5929    1.0000 </r>
       <r>    0.9982    1.0000 </r>
       <r>    0.9982    1.0000 </r>
       <r>    3.5629    1.0000 </r>
       <r>    3.5629    1.0000 </r>
       <r>    3.5629    1.0000 </r>
       <r>    4.7798    1.0000 </r>
       <r>    4.7798    1.0000 </r>
       <r>    5.9981    0.0611 </r>
       <r>    5.9981    0.0611 </r>
       <r>    5.9981    0.0611 </r>
       <r>   15.8323    0.0000 </r>
       <r>   15.8323    0.0000 </r>
       <r>   15.8323    0.0000 </r>
       <r>   21.5617    0.0000 </r>
       <r>   21.5617    0.0000 </r>
       <r>   26.7262    0.0000 </r>
       <r>   30.9305    0.0000 </r>
       <r>   30.9305    0.0000 </r>
       <r>   30.9305    0.0000 </r>
      </set>
      <set comment="kpoint 2">
       <r>   -2.4865    1.0000 </r>
       <r>    1.0438    1.0000 </r>
       <r>    1.0457    1.0000 </r>
       <r>    3.5620    1.0000 </r>
       <r>    3.5620    1.0000 </r>
       <r>    3.5921    1.0000 </r>
       <r>    4.7322    1.0000 </r>
       <r>    4.7987    1.0000 </r>
       <r>    5.9083    0.3383 </r>
       <r>    5.9083    0.3383 </r>
       <r>    5.9666    0.1373 </r>
       <r>   15.0732    0.0000 </r>
       <r>   16.0341    0.0000 </r>
       <r>   16.0341    0.0000 </r>
       <r>   21.5925    0.0000 </r>
       <r>   22.1308    0.0000 </r>
       <r>   27.0728    0.0000 </r>
       <r>   30.2180    0.0000 </r>
       <r>   30.8371    0.0000 </r>
       <r>   30.8371    0.0000 </r>
      </set>
      <set comment="kpoint 3">
       <r>   -2.1722    1.0000 </r>
       <r>    1.1778    1.0000 </r>
       <r>    1.1785    1.0000 </r>
       <r>    3.5628    1.0000 </r>
       <r>    3.5628    1.0000 </r>
       <r>    3.6785    1.0000 </r>
       <r>    4.5913    1.0000 </r>
       <r>    4.8538    1.0000 </r>
       <r>    5.6634    1.0279 </r>
       <r>    5.6634    1.0279 </r>
       <r>    5.8730    0.4843 </r>
       <r>   13.4515    0.0000 </r>
       <r>   16.6129    0.0000 </r>
       <r>   16.6129    0.0000 </r>
       <r>   21.6861    0.0000 </r>
       <r>   23.0616    0.0000 </r>
       <r>   28.2439    0.0000 </r>
       <r>   28.8404    0.0000 </r>
       <r>   30.4079    0.0000 </r>
       <r>   30.4079    0.0000 </r>
      </set>
      <set comment="kpoint 4">
       <r>   -1.6658    1.0000 </r>
       <r>    1.3639    1.0000 </r>
       <r>    1.3966    1.0000 </r>
       <r>    3.5752    1.0000 </r>
       <r>    3.5752    1.0000 </r>
       <r>    3.8182    1.0000 </r>
       <r>    4.3637    1.0000 </r>
       <r>    4.9425    1.0000 </r>
       <r>    5.3224    1.0004 </r>
       <r>    5.3224    1.0004 </r>
       <r>    5.7227    0.9708 </r>
       <r>   11.6321    0.0000 </r>
       <r>   17.5060    0.0000 </r>
       <r>   17.5060    0.0000 </r>
       <r>   21.8491    0.0000 </r>
       <r>   23.6953    0.0000 </r>
       <r>   27.4349    0.0000 </r>
       <r>   29.4170    0.0000 </r>
       <r>   29.4170    0.0000 </r>
       <r>   30.2722    0.0000 </r>
      </set>
      <set comment="kpoint 5">
       <r>   -0.9980    1.0000 </r>
       <r>    1.5499    1.0000 </r>
       <r>    1.6890    1.0000 </r>
       <r>    3.6121    1.0000 </r>
       <r>    3.6121    1.0000 </r>
       <r>    4.0051    1.0000 </r>
       <r>    4.0597    1.0000 </r>
       <r>    4.9471    1.0000 </r>
       <r>    4.9471    1.0000 </r>
       <r>    5.0669    1.0000 </r>
       <r>    5.5240    1.0174 </r>
       <r>    9.8689   -0.0000 </r>
       <r>   18.6446    0.0000 </r>
       <r>   18.6446    0.0000 </r>
       <r>   22.0916    0.0000 </r>
       <r>   24.1204    0.0000 </r>
       <r>   26.1693    0.0000 </r>
       <r>   27.9766    0.0000 </r>
       <r>   27.9766    0.0000 </r>
       <r>   29.7495    0.0000 </r>
      </set>
      <set comment="kpoint 6">
       <r>   -0.2243    1.0000 </r>
       <r>    1.6549    1.0000 </r>
       <r>    2.0426    1.0000 </r>
       <r>    3.6889    1.0000 </r>
       <r>    3.6889    1.0000 </r>
       <r>    3.6952    1.0000 </r>
       <r>    4.2307    1.0000 </r>
       <r>    4.5855    1.0000 </r>
       <r>    4.5855    1.0000 </r>
       <r>    5.2482    1.0001 </r>
       <r>    5.2878    1.0002 </r>
       <r>    8.2897   -0.0000 </r>
       <r>   19.9715    0.0000 </r>
       <r>   19.9715    0.0000 </r>
       <r>   22.4280    0.0000 </r>
       <r>   24.5443    0.0000 </r>
       <r>   25.0851    0.0000 </r>
       <r>   26.3435    0.0000 </r>
       <r>   26.3435    0.0000 </r>
       <r>   28.2063    0.0000 </r>
      </set>
      <set comment="kpoint 7">
       <r>    0.5582    1.0000 </r>
       <r>    1.5711    1.0000 </r>
       <r>    2.4407    1.0000 </r>
       <r>    3.2891    1.0000 </r>
       <r>    3.8186    1.0000 </r>
       <r>    3.8186    1.0000 </r>
       <r>    4.2678    1.0000 </r>
       <r>    4.2678    1.0000 </r>
       <r>    4.4846    1.0000 </r>
       <r>    5.0266    1.0000 </r>
       <r>    5.5499    1.0232 </r>
       <r>    7.0023   -0.0000 </r>
       <r>   21.4414    0.0000 </r>
       <r>   21.4414    0.0000 </r>
       <r>   22.8758    0.0000 </r>
       <r>   24.1839    0.0000 </r>
       <r>   24.6664    0.0000 </r>
       <r>   24.6664    0.0000 </r>
       <r>   25.1017    0.0000 </r>
       <r>   26.9065    0.0000 </r>
      </set>
      <set comment="kpoint 8">
       <r>    1.2018    1.0000 </r>
       <r>    1.2018    1.0000 </r>
       <r>    2.8637    1.0000 </r>
       <r>    2.8637    1.0000 </r>
       <r>    4.0107    1.0000 </r>
       <r>    4.0107    1.0000 </r>
       <r>    4.0107    1.0000 </r>
       <r>    4.0107    1.0000 </r>
       <r>    4.7545    1.0000 </r>
       <r>    4.7545    1.0000 </r>
       <r>    6.0935   -0.0336 </r>
       <r>    6.0935   -0.0336 </r>
       <r>   23.0184    0.0000 </r>
       <r>   23.0184    0.0000 </r>
       <r>   23.0184    0.0000 </r>
       <r>   23.0184    0.0000 </r>
       <r>   23.4549    0.0000 </r>
       <r>   23.4549    0.0000 </r>
       <r>   25.8746    0.0000 </r>
       <r>   25.8746    0.0000 </r>
      </set>
      <set comment="kpoint 9">
       <r>   -2.3810    1.0000 </r>
       <r>    1.0880    1.0000 </r>
       <r>    1.0935    1.0000 </r>
       <r>    3.5051    1.0000 </r>
       <r>    3.5579    1.0000 </r>
       <r>    3.6771    1.0000 </r>
       <r>    4.7234    1.0000 </r>
       <r>    4.7845    1.0000 </r>
       <r>    5.7486    0.9216 </r>
       <r>    5.8182    0.7086 </r>
       <r>    6.0117    0.0360 </r>
       <r>   15.0946    0.0000 </r>
       <r>   15.4307    0.0000 </r>
       <r>   16.2289    0.0000 </r>
       <r>   21.8848    0.0000 </r>
       <r>   22.4936    0.0000 </r>
       <r>   27.3864    0.0000 </r>
       <r>   29.5836    0.0000 </r>
       <r>   30.6105    0.0000 </r>
       <r>   30.7839    0.0000 </r>
      </set>
      <set comment="kpoint 10">
       <r>   -2.0698    1.0000 </r>
       <r>    1.2151    1.0000 </r>
       <r>    1.2302    1.0000 </r>
       <r>    3.4602    1.0000 </r>
       <r>    3.5492    1.0000 </r>
       <r>    3.8080    1.0000 </r>
       <r>    4.6095    1.0000 </r>
       <r>    4.8299    1.0000 </r>
       <r>    5.4621    1.0071 </r>
       <r>    5.5751    1.0289 </r>
       <r>    5.9781    0.1066 </r>
       <r>   13.5855    0.0000 </r>
       <r>   15.8405    0.0000 </r>
       <r>   16.7897    0.0000 </r>
       <r>   22.0744    0.0000 </r>
       <r>   23.4658    0.0000 </r>
       <r>   28.1864    0.0000 </r>
       <r>   28.4710    0.0000 </r>
       <r>   30.0728    0.0000 </r>
       <r>   30.4532    0.0000 </r>
      </set>
      <set comment="kpoint 11">
       <r>   -1.5691    1.0000 </r>
       <r>    1.4031    1.0000 </r>
       <r>    1.4401    1.0000 </r>
       <r>    3.4426    1.0000 </r>
       <r>    3.5433    1.0000 </r>
       <r>    3.9756    1.0000 </r>
       <r>    4.4104    1.0000 </r>
       <r>    4.9206    1.0000 </r>
       <r>    5.1089    1.0000 </r>
       <r>    5.2408    1.0000 </r>
       <r>    5.8630    0.5265 </r>
       <r>   11.7622    0.0000 </r>
       <r>   16.6499    0.0000 </r>
       <r>   17.6605    0.0000 </r>
       <r>   22.2806    0.0000 </r>
       <r>   24.2103    0.0000 </r>
       <r>   26.6893    0.0000 </r>
       <r>   29.0489    0.0000 </r>
       <r>   29.5212    0.0000 </r>
       <r>   30.4182    0.0000 </r>
      </set>
      <set comment="kpoint 12">
       <r>   -0.9109    1.0000 </r>
       <r>    1.5900    1.0000 </r>
       <r>    1.7206    1.0000 </r>
       <r>    3.4597    1.0000 </r>
       <r>    3.5377    1.0000 </r>
       <r>    4.1652    1.0000 </r>
       <r>    4.1790    1.0000 </r>
       <r>    4.7354    1.0000 </r>
       <r>    4.8826    1.0000 </r>
       <r>    5.0469    1.0000 </r>
       <r>    5.6855    1.0145 </r>
       <r>    9.9898   -0.0000 </r>
       <r>   17.6665    0.0000 </r>
       <r>   18.7778    0.0000 </r>
       <r>   22.5730    0.0000 </r>
       <r>   24.7412    0.0000 </r>
       <r>   25.2616    0.0000 </r>
       <r>   27.7262    0.0000 </r>
       <r>   28.0794    0.0000 </r>
       <r>   30.9502    0.0000 </r>
      </set>
      <set comment="kpoint 13">
       <r>   -0.1523    1.0000 </r>
       <r>    1.6903    1.0000 </r>
       <r>    2.0598    1.0000 </r>
       <r>    3.4641    1.0000 </r>
       <r>    3.5224    1.0000 </r>
       <r>    3.9708    1.0000 </r>
       <r>    4.3807    1.0000 </r>
       <r>    4.4136    1.0000 </r>
       <r>    4.5541    1.0000 </r>
       <r>    5.2315    1.0000 </r>
       <r>    5.4622    1.0071 </r>
       <r>    8.3935   -0.0000 </r>
       <r>   18.8190    0.0000 </r>
       <r>   20.0864    0.0000 </r>
       <r>   22.9790    0.0000 </r>
       <r>   23.9132    0.0000 </r>
       <r>   25.2782    0.0000 </r>
       <r>   26.3926    0.0000 </r>
       <r>   26.4360    0.0000 </r>
       <r>   29.4037    0.0000 </r>
      </set>
      <set comment="kpoint 14">
       <r>    0.6097    1.0000 </r>
       <r>    1.6002    1.0000 </r>
       <r>    2.4383    1.0000 </r>
       <r>    3.2023    1.0000 </r>
       <r>    3.6412    1.0000 </r>
       <r>    3.9698    1.0000 </r>
       <r>    4.0720    1.0000 </r>
       <r>    4.2902    1.0000 </r>
       <r>    4.6711    1.0000 </r>
       <r>    5.2088    1.0000 </r>
       <r>    5.5470    1.0225 </r>
       <r>    7.0752   -0.0000 </r>
       <r>   20.0525    0.0000 </r>
       <r>   21.5427    0.0000 </r>
       <r>   22.6111    0.0000 </r>
       <r>   23.5297    0.0000 </r>
       <r>   24.7554    0.0000 </r>
       <r>   25.2168    0.0000 </r>
       <r>   25.9648    0.0000 </r>
       <r>   28.0281    0.0000 </r>
      </set>
      <set comment="kpoint 15">
       <r>    1.2351    1.0000 </r>
       <r>    1.2351    1.0000 </r>
       <r>    2.8319    1.0000 </r>
       <r>    2.8319    1.0000 </r>
       <r>    3.8236    1.0000 </r>
       <r>    3.8236    1.0000 </r>
       <r>    4.0964    1.0000 </r>
       <r>    4.0964    1.0000 </r>
       <r>    4.9403    1.0000 </r>
       <r>    4.9403    1.0000 </r>
       <r>    6.1241   -0.0351 </r>
       <r>    6.1241   -0.0351 </r>
       <r>   21.3246    0.0000 </r>
       <r>   21.3246    0.0000 </r>
       <r>   23.1101    0.0000 </r>
       <r>   23.1101    0.0000 </r>
       <r>   24.2639    0.0000 </r>
       <r>   24.2639    0.0000 </r>
       <r>   26.8745    0.0000 </r>
       <r>   26.8745    0.0000 </r>
      </set>
      <set comment="kpoint 16">
       <r>   -1.7682    1.0000 </r>
       <r>    1.3207    1.0000 </r>
       <r>    1.3784    1.0000 </r>
       <r>    3.3452    1.0000 </r>
       <r>    3.5163    1.0000 </r>
       <r>    4.0055    1.0000 </r>
       <r>    4.6176    1.0000 </r>
       <r>    4.8003    1.0000 </r>
       <r>    5.1191    1.0000 </r>
       <r>    5.3407    1.0006 </r>
       <r>    6.0491   -0.0112 </r>
       <r>   13.5685    0.0000 </r>
       <r>   14.6652    0.0000 </r>
       <r>   17.3040    0.0000 </r>
       <r>   22.4293    0.0000 </r>
       <r>   24.6098    0.0000 </r>
       <r>   26.7304    0.0000 </r>
       <r>   29.2899    0.0000 </r>
       <r>   29.4954    0.0000 </r>
       <r>   30.4501    0.0000 </r>
      </set>
      <set comment="kpoint 17">
       <r>   -1.2864    1.0000 </r>
       <r>    1.4768    1.0000 </r>
       <r>    1.6006    1.0000 </r>
       <r>    3.2646    1.0000 </r>
       <r>    3.4787    1.0000 </r>
       <r>    4.2296    1.0000 </r>
       <r>    4.5149    1.0000 </r>
       <r>    4.7362    1.0000 </r>
       <r>    4.8646    1.0000 </r>
       <r>    5.0318    1.0000 </r>
       <r>    6.0261    0.0141 </r>
       <r>   12.0506    0.0000 </r>
       <r>   15.0620    0.0000 </r>
       <r>   18.1150    0.0000 </r>
       <r>   22.6647    0.0000 </r>
       <r>   25.1193    0.0000 </r>
       <r>   25.6881    0.0000 </r>
       <r>   28.5919    0.0000 </r>
       <r>   29.8161    0.0000 </r>
       <r>   30.9320    0.0000 </r>
      </set>
      <set comment="kpoint 18">
       <r>   -0.6608    1.0000 </r>
       <r>    1.6381    1.0000 </r>
       <r>    1.8728    1.0000 </r>
       <r>    3.2290    1.0000 </r>
       <r>    3.4347    1.0000 </r>
       <r>    4.3556    1.0000 </r>
       <r>    4.3636    1.0000 </r>
       <r>    4.4749    1.0000 </r>
       <r>    4.7264    1.0000 </r>
       <r>    4.9901    1.0000 </r>
       <r>    5.9193    0.2955 </r>
       <r>   10.2895   -0.0000 </r>
       <r>   15.9369    0.0000 </r>
       <r>   19.1726    0.0000 </r>
       <r>   22.9359    0.0000 </r>
       <r>   23.5476    0.0000 </r>
       <r>   26.4839    0.0000 </r>
       <r>   27.4525    0.0000 </r>
       <r>   28.3821    0.0000 </r>
       <r>   32.8747    0.0000 </r>
      </set>
      <set comment="kpoint 19">
       <r>    0.0456    1.0000 </r>
       <r>    1.7188    1.0000 </r>
       <r>    2.1799    1.0000 </r>
       <r>    3.2489    1.0000 </r>
       <r>    3.3400    1.0000 </r>
       <r>    4.0078    1.0000 </r>
       <r>    4.2577    1.0000 </r>
       <r>    4.4890    1.0000 </r>
       <r>    4.7365    1.0000 </r>
       <r>    5.1816    1.0000 </r>
       <r>    5.7462    0.9269 </r>
       <r>    8.6597   -0.0000 </r>
       <r>   16.9704    0.0000 </r>
       <r>   20.4290    0.0000 </r>
       <r>   22.0574    0.0000 </r>
       <r>   23.2968    0.0000 </r>
       <r>   26.3016    0.0000 </r>
       <r>   26.7065    0.0000 </r>
       <r>   27.2133    0.0000 </r>
       <r>   31.4979    0.0000 </r>
      </set>
      <set comment="kpoint 20">
       <r>    0.7348    1.0000 </r>
       <r>    1.6212    1.0000 </r>
       <r>    2.5114    1.0000 </r>
       <r>    3.1373    1.0000 </r>
       <r>    3.3331    1.0000 </r>
       <r>    3.7144    1.0000 </r>
       <r>    4.2482    1.0000 </r>
       <r>    4.3513    1.0000 </r>
       <r>    5.0059    1.0000 </r>
       <r>    5.5253    1.0177 </r>
       <r>    5.5375    1.0204 </r>
       <r>    7.2690   -0.0000 </r>
       <r>   18.1105    0.0000 </r>
       <r>   20.6548    0.0000 </r>
       <r>   21.8439    0.0000 </r>
       <r>   23.7866    0.0000 </r>
       <r>   25.0162    0.0000 </r>
       <r>   25.2788    0.0000 </r>
       <r>   28.0382    0.0000 </r>
       <r>   30.1875    0.0000 </r>
      </set>
      <set comment="kpoint 21">
       <r>    1.2885    1.0000 </r>
       <r>    1.2885    1.0000 </r>
       <r>    2.8435    1.0000 </r>
       <r>    2.8435    1.0000 </r>
       <r>    3.4879    1.0000 </r>
       <r>    3.4879    1.0000 </r>
       <r>    4.2869    1.0000 </r>
       <r>    4.2869    1.0000 </r>
       <r>    5.2734    1.0001 </r>
       <r>    5.2734    1.0001 </r>
       <r>    6.2105   -0.0183 </r>
       <r>    6.2105   -0.0183 </r>
       <r>   19.3397    0.0000 </r>
       <r>   19.3397    0.0000 </r>
       <r>   23.3832    0.0000 </r>
       <r>   23.3832    0.0000 </r>
       <r>   24.4392    0.0000 </r>
       <r>   24.4392    0.0000 </r>
       <r>   29.0254    0.0000 </r>
       <r>   29.0254    0.0000 </r>
      </set>
      <set comment="kpoint 22">
       <r>   -0.8422    1.0000 </r>
       <r>    1.5683    1.0000 </r>
       <r>    1.8516    1.0000 </r>
       <r>    3.1206    1.0000 </r>
       <r>    3.4284    1.0000 </r>
       <r>    4.3386    1.0000 </r>
       <r>    4.5049    1.0000 </r>
       <r>    4.5900    1.0000 </r>
       <r>    4.7769    1.0000 </r>
       <r>    4.8301    1.0000 </r>
       <r>    6.1033   -0.0350 </r>
       <r>   11.8758    0.0000 </r>
       <r>   14.0212    0.0000 </r>
       <r>   18.8449    0.0000 </r>
       <r>   22.8861    0.0000 </r>
       <r>   23.4165    0.0000 </r>
       <r>   27.3111    0.0000 </r>
       <r>   27.9334    0.0000 </r>
       <r>   30.0945    0.0000 </r>
       <r>   31.1699    0.0000 </r>
      </set>
      <set comment="kpoint 23">
       <r>   -0.2834    1.0000 </r>
       <r>    1.6431    1.0000 </r>
       <r>    2.1548    1.0000 </r>
       <r>    3.0272    1.0000 </r>
       <r>    3.4116    1.0000 </r>
       <r>    3.9588    1.0000 </r>
       <r>    4.5540    1.0000 </r>
       <r>    4.5608    1.0000 </r>
       <r>    4.7890    1.0000 </r>
       <r>    4.9121    1.0000 </r>
       <r>    6.0871   -0.0321 </r>
       <r>   10.5433   -0.0000 </r>
       <r>   14.3656    0.0000 </r>
       <r>   19.8161    0.0000 </r>
       <r>   21.7676    0.0000 </r>
       <r>   23.1184    0.0000 </r>
       <r>   27.0440    0.0000 </r>
       <r>   28.5629    0.0000 </r>
       <r>   28.8637    0.0000 </r>
       <r>   31.2565    0.0000 </r>
      </set>
      <set comment="kpoint 24">
       <r>    0.3143    1.0000 </r>
       <r>    1.6472    1.0000 </r>
       <r>    2.4750    1.0000 </r>
       <r>    2.9965    1.0000 </r>
       <r>    3.3912    1.0000 </r>
       <r>    3.6240    1.0000 </r>
       <r>    4.4454    1.0000 </r>
       <r>    4.5159    1.0000 </r>
       <r>    5.0732    1.0000 </r>
       <r>    5.0999    1.0000 </r>
       <r>    5.9874    0.0843 </r>
       <r>    8.9619   -0.0000 </r>
       <r>   15.2325    0.0000 </r>
       <r>   20.2192    0.0000 </r>
       <r>   20.9920    0.0000 </r>
       <r>   23.4284    0.0000 </r>
       <r>   26.0801    0.0000 </r>
       <r>   27.1271    0.0000 </r>
       <r>   29.5319    0.0000 </r>
       <r>   32.0644    0.0000 </r>
      </set>
      <set comment="kpoint 25">
       <r>    0.8562    1.0000 </r>
       <r>    1.5307    1.0000 </r>
       <r>    2.7866    1.0000 </r>
       <r>    3.0374    1.0000 </r>
       <r>    3.2833    1.0000 </r>
       <r>    3.3527    1.0000 </r>
       <r>    4.4391    1.0000 </r>
       <r>    4.5174    1.0000 </r>
       <r>    5.3478    1.0007 </r>
       <r>    5.5195    1.0165 </r>
       <r>    5.8198    0.7023 </r>
       <r>    7.5145   -0.0000 </r>
       <r>   16.2878    0.0000 </r>
       <r>   18.7871    0.0000 </r>
       <r>   22.3390    0.0000 </r>
       <r>   23.8584    0.0000 </r>
       <r>   25.1871    0.0000 </r>
       <r>   25.4320    0.0000 </r>
       <r>   30.4455    0.0000 </r>
       <r>   32.3869    0.0000 </r>
      </set>
      <set comment="kpoint 26">
       <r>    1.2692    1.0000 </r>
       <r>    1.2692    1.0000 </r>
       <r>    3.0675    1.0000 </r>
       <r>    3.0675    1.0000 </r>
       <r>    3.1557    1.0000 </r>
       <r>    3.1557    1.0000 </r>
       <r>    4.4876    1.0000 </r>
       <r>    4.4876    1.0000 </r>
       <r>    5.6013    1.0337 </r>
       <r>    5.6013    1.0337 </r>
       <r>    6.3322   -0.0025 </r>
       <r>    6.3322   -0.0025 </r>
       <r>   17.4760    0.0000 </r>
       <r>   17.4760    0.0000 </r>
       <r>   23.8274    0.0000 </r>
       <r>   23.8274    0.0000 </r>
       <r>   24.4397    0.0000 </r>
       <r>   24.4397    0.0000 </r>
       <r>   31.4054    0.0000 </r>
       <r>   31.4054    0.0000 </r>
      </set>
      <set comment="kpoint 27">
       <r>    0.1560    1.0000 </r>
       <r>    1.6033    1.0000 </r>
       <r>    2.5091    1.0000 </r>
       <r>    2.8784    1.0000 </r>
       <r>    3.5150    1.0000 </r>
       <r>    3.5906    1.0000 </r>
       <r>    4.4600    1.0000 </r>
       <r>    4.6737    1.0000 </r>
       <r>    4.8722    1.0000 </r>
       <r>    5.0991    1.0000 </r>
       <r>    6.1639   -0.0288 </r>
       <r>   10.2053   -0.0000 </r>
       <r>   13.6113    0.0000 </r>
       <r>   20.0725    0.0000 </r>
       <r>   20.6879    0.0000 </r>
       <r>   23.3021    0.0000 </r>
       <r>   26.4432    0.0000 </r>
       <r>   29.1637    0.0000 </r>
       <r>   29.7986    0.0000 </r>
       <r>   30.4407    0.0000 </r>
      </set>
      <set comment="kpoint 28">
       <r>    0.5738    1.0000 </r>
       <r>    1.5091    1.0000 </r>
       <r>    2.7968    1.0000 </r>
       <r>    2.8849    1.0000 </r>
       <r>    3.2765    1.0000 </r>
       <r>    3.6922    1.0000 </r>
       <r>    4.4592    1.0000 </r>
       <r>    4.7115    1.0000 </r>
       <r>    4.9945    1.0000 </r>
       <r>    5.3926    1.0019 </r>
       <r>    6.1486   -0.0319 </r>
       <r>    9.0638   -0.0000 </r>
       <r>   13.9192    0.0000 </r>
       <r>   18.5054    0.0000 </r>
       <r>   21.7634    0.0000 </r>
       <r>   23.5521    0.0000 </r>
       <r>   25.7257    0.0000 </r>
       <r>   27.5974    0.0000 </r>
       <r>   30.4444    0.0000 </r>
       <r>   31.8575    0.0000 </r>
      </set>
      <set comment="kpoint 29">
       <r>    0.9117    1.0000 </r>
       <r>    1.3623    1.0000 </r>
       <r>    2.7923    1.0000 </r>
       <r>    3.0333    1.0000 </r>
       <r>    3.2378    1.0000 </r>
       <r>    3.7155    1.0000 </r>
       <r>    4.5421    1.0000 </r>
       <r>    4.7236    1.0000 </r>
       <r>    5.4872    1.0106 </r>
       <r>    5.6579    1.0301 </r>
       <r>    6.0501   -0.0121 </r>
       <r>    7.6992   -0.0000 </r>
       <r>   14.7482    0.0000 </r>
       <r>   17.0855    0.0000 </r>
       <r>   23.0164    0.0000 </r>
       <r>   23.9075    0.0000 </r>
       <r>   25.0129    0.0000 </r>
       <r>   25.9579    0.0000 </r>
       <r>   31.4031    0.0000 </r>
       <r>   32.8541    0.0000 </r>
      </set>
      <set comment="kpoint 30">
       <r>    1.1670    1.0000 </r>
       <r>    1.1670    1.0000 </r>
       <r>    2.8707    1.0000 </r>
       <r>    2.8707    1.0000 </r>
       <r>    3.5315    1.0000 </r>
       <r>    3.5315    1.0000 </r>
       <r>    4.6527    1.0000 </r>
       <r>    4.6527    1.0000 </r>
       <r>    5.8818    0.4472 </r>
       <r>    5.8818    0.4472 </r>
       <r>    6.4475   -0.0002 </r>
       <r>    6.4475   -0.0002 </r>
       <r>   15.8264    0.0000 </r>
       <r>   15.8264    0.0000 </r>
       <r>   24.3941    0.0000 </r>
       <r>   24.3941    0.0000 </r>
       <r>   24.4223    0.0000 </r>
       <r>   24.4223    0.0000 </r>
       <r>   32.4985    0.0000 </r>
       <r>   32.4985    0.0000 </r>
      </set>
      <set comment="kpoint 31">
       <r>    0.7711    1.0000 </r>
       <r>    1.3473    1.0000 </r>
       <r>    2.6667    1.0000 </r>
       <r>    2.9899    1.0000 </r>
       <r>    3.3375    1.0000 </r>
       <r>    4.2069    1.0000 </r>
       <r>    4.5339    1.0000 </r>
       <r>    4.8417    1.0000 </r>
       <r>    4.9192    1.0000 </r>
       <r>    5.6785    1.0196 </r>
       <r>    6.2188   -0.0165 </r>
       <r>    8.6292   -0.0000 </r>
       <r>   13.3908    0.0000 </r>
       <r>   16.9564    0.0000 </r>
       <r>   22.7258    0.0000 </r>
       <r>   23.7254    0.0000 </r>
       <r>   25.2685    0.0000 </r>
       <r>   27.5671    0.0000 </r>
       <r>   29.5891    0.0000 </r>
       <r>   33.1908    0.0000 </r>
      </set>
      <set comment="kpoint 32">
       <r>    0.9159    1.0000 </r>
       <r>    1.1882    1.0000 </r>
       <r>    2.6170    1.0000 </r>
       <r>    2.7793    1.0000 </r>
       <r>    3.7698    1.0000 </r>
       <r>    4.3664    1.0000 </r>
       <r>    4.6490    1.0000 </r>
       <r>    4.8513    1.0000 </r>
       <r>    5.4451    1.0053 </r>
       <r>    5.9167    0.3055 </r>
       <r>    6.1982   -0.0210 </r>
       <r>    7.6543   -0.0000 </r>
       <r>   13.6830    0.0000 </r>
       <r>   15.6039    0.0000 </r>
       <r>   23.8562    0.0000 </r>
       <r>   23.9806    0.0000 </r>
       <r>   24.7800    0.0000 </r>
       <r>   26.4619    0.0000 </r>
       <r>   30.0707    0.0000 </r>
       <r>   32.2354    0.0000 </r>
      </set>
      <set comment="kpoint 33">
       <r>    1.0461    1.0000 </r>
       <r>    1.0461    1.0000 </r>
       <r>    2.6539    1.0000 </r>
       <r>    2.6539    1.0000 </r>
       <r>    4.1304    1.0000 </r>
       <r>    4.1304    1.0000 </r>
       <r>    4.7693    1.0000 </r>
       <r>    4.7693    1.0000 </r>
       <r>    6.0940   -0.0336 </r>
       <r>    6.0940   -0.0336 </r>
       <r>    6.4986   -0.0000 </r>
       <r>    6.4986   -0.0000 </r>
       <r>   14.4867    0.0000 </r>
       <r>   14.4867    0.0000 </r>
       <r>   24.3355    0.0000 </r>
       <r>   24.3355    0.0000 </r>
       <r>   25.1237    0.0000 </r>
       <r>   25.1237    0.0000 </r>
       <r>   31.0510    0.0000 </r>
       <r>   31.0510    0.0000 </r>
      </set>
      <set comment="kpoint 34">
       <r>    0.9190    1.0000 </r>
       <r>    1.0479    1.0000 </r>
       <r>    2.5236    1.0000 </r>
       <r>    2.6051    1.0000 </r>
       <r>    4.2899    1.0000 </r>
       <r>    4.7490    1.0000 </r>
       <r>    4.7853    1.0000 </r>
       <r>    4.9569    1.0000 </r>
       <r>    5.6546    1.0312 </r>
       <r>    6.1098   -0.0354 </r>
       <r>    6.2569   -0.0097 </r>
       <r>    7.2198   -0.0000 </r>
       <r>   13.2916    0.0000 </r>
       <r>   14.4062    0.0000 </r>
       <r>   24.1034    0.0000 </r>
       <r>   24.5238    0.0000 </r>
       <r>   24.8206    0.0000 </r>
       <r>   26.5230    0.0000 </r>
       <r>   29.4664    0.0000 </r>
       <r>   30.9411    0.0000 </r>
      </set>
      <set comment="kpoint 35">
       <r>    0.9577    1.0000 </r>
       <r>    0.9577    1.0000 </r>
       <r>    2.5189    1.0000 </r>
       <r>    2.5189    1.0000 </r>
       <r>    4.6933    1.0000 </r>
       <r>    4.6933    1.0000 </r>
       <r>    4.8421    1.0000 </r>
       <r>    4.8421    1.0000 </r>
       <r>    6.2258   -0.0151 </r>
       <r>    6.2258   -0.0151 </r>
       <r>    6.4484   -0.0002 </r>
       <r>    6.4484   -0.0002 </r>
       <r>   13.5864    0.0000 </r>
       <r>   13.5864    0.0000 </r>
       <r>   24.2875    0.0000 </r>
       <r>   24.2875    0.0000 </r>
       <r>   25.8142    0.0000 </r>
       <r>   25.8142    0.0000 </r>
       <r>   29.9164    0.0000 </r>
       <r>   29.9164    0.0000 </r>
      </set>
      <set comment="kpoint 36">
       <r>    0.9261    1.0000 </r>
       <r>    0.9261    1.0000 </r>
       <r>    2.4731    1.0000 </r>
       <r>    2.4731    1.0000 </r>
       <r>    4.8493    1.0000 </r>
       <r>    4.8493    1.0000 </r>
       <r>    4.9713    1.0000 </r>
       <r>    4.9713    1.0000 </r>
       <r>    6.2705   -0.0078 </r>
       <r>    6.2705   -0.0078 </r>
       <r>    6.3848   -0.0008 </r>
       <r>    6.3848   -0.0008 </r>
       <r>   13.2646    0.0000 </r>
       <r>   13.2646    0.0000 </r>
       <r>   24.2690    0.0000 </r>
       <r>   24.2690    0.0000 </r>
       <r>   26.1573    0.0000 </r>
       <r>   26.1573    0.0000 </r>
       <r>   29.4258    0.0000 </r>
       <r>   29.4258    0.0000 </r>
      </set>
      <set comment="kpoint 37">
       <r>   -2.2765    1.0000 </r>
       <r>    1.1364    1.0000 </r>
       <r>    1.1364    1.0000 </r>
       <r>    3.4990    1.0000 </r>
       <r>    3.4990    1.0000 </r>
       <r>    3.7632    1.0000 </r>
       <r>    4.7449    1.0000 </r>
       <r>    4.7449    1.0000 </r>
       <r>    5.5371    1.0203 </r>
       <r>    5.9217    0.2863 </r>
       <r>    5.9217    0.2863 </r>
       <r>   15.2814    0.0000 </r>
       <r>   15.2814    0.0000 </r>
       <r>   15.7734    0.0000 </r>
       <r>   22.5408    0.0000 </r>
       <r>   22.5408    0.0000 </r>
       <r>   27.6745    0.0000 </r>
       <r>   29.4726    0.0000 </r>
       <r>   29.4726    0.0000 </r>
       <r>   31.2171    0.0000 </r>
      </set>
      <set comment="kpoint 38">
       <r>   -1.9679    1.0000 </r>
       <r>    1.2632    1.0000 </r>
       <r>    1.2708    1.0000 </r>
       <r>    3.4309    1.0000 </r>
       <r>    3.4828    1.0000 </r>
       <r>    3.9169    1.0000 </r>
       <r>    4.6291    1.0000 </r>
       <r>    4.8062    1.0000 </r>
       <r>    5.2115    1.0000 </r>
       <r>    5.6782    1.0199 </r>
       <r>    5.9459    0.2009 </r>
       <r>   13.7247    0.0000 </r>
       <r>   15.8123    0.0000 </r>
       <r>   16.1884    0.0000 </r>
       <r>   22.6863    0.0000 </r>
       <r>   23.6793    0.0000 </r>
       <r>   27.9317    0.0000 </r>
       <r>   28.6852    0.0000 </r>
       <r>   28.9755    0.0000 </r>
       <r>   31.1507    0.0000 </r>
      </set>
      <set comment="kpoint 39">
       <r>   -1.4725    1.0000 </r>
       <r>    1.4586    1.0000 </r>
       <r>    1.4679    1.0000 </r>
       <r>    3.3951    1.0000 </r>
       <r>    3.4597    1.0000 </r>
       <r>    4.1065    1.0000 </r>
       <r>    4.4492    1.0000 </r>
       <r>    4.8425    1.0000 </r>
       <r>    4.9008    1.0000 </r>
       <r>    5.3420    1.0006 </r>
       <r>    5.8757    0.4728 </r>
       <r>   11.8952    0.0000 </r>
       <r>   16.6168    0.0000 </r>
       <r>   16.9634    0.0000 </r>
       <r>   22.9426    0.0000 </r>
       <r>   24.5219    0.0000 </r>
       <r>   26.3909    0.0000 </r>
       <r>   27.8807    0.0000 </r>
       <r>   30.5051    0.0000 </r>
       <r>   30.5532    0.0000 </r>
      </set>
      <set comment="kpoint 40">
       <r>   -0.8233    1.0000 </r>
       <r>    1.6427    1.0000 </r>
       <r>    1.7403    1.0000 </r>
       <r>    3.4054    1.0000 </r>
       <r>    3.4235    1.0000 </r>
       <r>    4.2348    1.0000 </r>
       <r>    4.3281    1.0000 </r>
       <r>    4.4789    1.0000 </r>
       <r>    4.9764    1.0000 </r>
       <r>    5.0292    1.0000 </r>
       <r>    5.7307    0.9573 </r>
       <r>   10.1156   -0.0000 </r>
       <r>   17.6150    0.0000 </r>
       <r>   17.9588    0.0000 </r>
       <r>   23.3304    0.0000 </r>
       <r>   24.9475    0.0000 </r>
       <r>   25.1079    0.0000 </r>
       <r>   26.3948    0.0000 </r>
       <r>   29.3624    0.0000 </r>
       <r>   31.2499    0.0000 </r>
      </set>
      <set comment="kpoint 41">
       <r>   -0.0787    1.0000 </r>
       <r>    1.7368    1.0000 </r>
       <r>    2.0658    1.0000 </r>
       <r>    3.3312    1.0000 </r>
       <r>    3.4713    1.0000 </r>
       <r>    4.0571    1.0000 </r>
       <r>    4.1646    1.0000 </r>
       <r>    4.5723    1.0000 </r>
       <r>    4.6309    1.0000 </r>
       <r>    5.2197    1.0000 </r>
       <r>    5.5319    1.0191 </r>
       <r>    8.5073   -0.0000 </r>
       <r>   18.7348    0.0000 </r>
       <r>   19.1163    0.0000 </r>
       <r>   23.6082    0.0000 </r>
       <r>   23.8781    0.0000 </r>
       <r>   24.8066    0.0000 </r>
       <r>   25.6743    0.0000 </r>
       <r>   28.0284    0.0000 </r>
       <r>   29.7728    0.0000 </r>
      </set>
      <set comment="kpoint 42">
       <r>    0.6646    1.0000 </r>
       <r>    1.6382    1.0000 </r>
       <r>    2.4243    1.0000 </r>
       <r>    3.1129    1.0000 </r>
       <r>    3.5905    1.0000 </r>
       <r>    3.9247    1.0000 </r>
       <r>    4.0170    1.0000 </r>
       <r>    4.3389    1.0000 </r>
       <r>    4.8191    1.0000 </r>
       <r>    5.3010    1.0002 </r>
       <r>    5.5589    1.0253 </r>
       <r>    7.1665   -0.0000 </r>
       <r>   19.9171    0.0000 </r>
       <r>   20.3966    0.0000 </r>
       <r>   22.3460    0.0000 </r>
       <r>   23.2519    0.0000 </r>
       <r>   24.6171    0.0000 </r>
       <r>   26.3747    0.0000 </r>
       <r>   26.7247    0.0000 </r>
       <r>   28.4264    0.0000 </r>
      </set>
      <set comment="kpoint 43">
       <r>    1.2743    1.0000 </r>
       <r>    1.2743    1.0000 </r>
       <r>    2.7881    1.0000 </r>
       <r>    2.7881    1.0000 </r>
       <r>    3.7438    1.0000 </r>
       <r>    3.7438    1.0000 </r>
       <r>    4.1252    1.0000 </r>
       <r>    4.1252    1.0000 </r>
       <r>    5.0599    1.0000 </r>
       <r>    5.0599    1.0000 </r>
       <r>    6.1781   -0.0256 </r>
       <r>    6.1781   -0.0256 </r>
       <r>   21.1236    0.0000 </r>
       <r>   21.1236    0.0000 </r>
       <r>   21.7780    0.0000 </r>
       <r>   21.7780    0.0000 </r>
       <r>   25.5694    0.0000 </r>
       <r>   25.5694    0.0000 </r>
       <r>   27.2853    0.0000 </r>
       <r>   27.2853    0.0000 </r>
      </set>
      <set comment="kpoint 44">
       <r>   -1.6684    1.0000 </r>
       <r>    1.3729    1.0000 </r>
       <r>    1.4137    1.0000 </r>
       <r>    3.3298    1.0000 </r>
       <r>    3.4299    1.0000 </r>
       <r>    4.1198    1.0000 </r>
       <r>    4.6422    1.0000 </r>
       <r>    4.7775    1.0000 </r>
       <r>    4.8465    1.0000 </r>
       <r>    5.5374    1.0204 </r>
       <r>    5.9585    0.1609 </r>
       <r>   13.7444    0.0000 </r>
       <r>   14.7169    0.0000 </r>
       <r>   16.5183    0.0000 </r>
       <r>   23.2778    0.0000 </r>
       <r>   24.6741    0.0000 </r>
       <r>   26.7082    0.0000 </r>
       <r>   28.2225    0.0000 </r>
       <r>   29.4582    0.0000 </r>
       <r>   31.3843    0.0000 </r>
      </set>
      <set comment="kpoint 45">
       <r>   -1.1905    1.0000 </r>
       <r>    1.5342    1.0000 </r>
       <r>    1.6272    1.0000 </r>
       <r>    3.2432    1.0000 </r>
       <r>    3.3825    1.0000 </r>
       <r>    4.3567    1.0000 </r>
       <r>    4.4627    1.0000 </r>
       <r>    4.5413    1.0000 </r>
       <r>    4.8503    1.0000 </r>
       <r>    5.2349    1.0000 </r>
       <r>    5.9488    0.1912 </r>
       <r>   12.1990    0.0000 </r>
       <r>   15.1346    0.0000 </r>
       <r>   17.2345    0.0000 </r>
       <r>   23.6115    0.0000 </r>
       <r>   25.1155    0.0000 </r>
       <r>   25.7827    0.0000 </r>
       <r>   27.3040    0.0000 </r>
       <r>   30.8153    0.0000 </r>
       <r>   31.0250    0.0000 </r>
      </set>
      <set comment="kpoint 46">
       <r>   -0.5716    1.0000 </r>
       <r>    1.7049    1.0000 </r>
       <r>    1.8803    1.0000 </r>
       <r>    3.1993    1.0000 </r>
       <r>    3.3334    1.0000 </r>
       <r>    4.1107    1.0000 </r>
       <r>    4.3932    1.0000 </r>
       <r>    4.6195    1.0000 </r>
       <r>    4.9054    1.0000 </r>
       <r>    4.9794    1.0000 </r>
       <r>    5.8618    0.5315 </r>
       <r>   10.4305   -0.0000 </r>
       <r>   16.0066    0.0000 </r>
       <r>   18.1626    0.0000 </r>
       <r>   23.5552    0.0000 </r>
       <r>   24.0130    0.0000 </r>
       <r>   25.9620    0.0000 </r>
       <r>   26.5906    0.0000 </r>
       <r>   29.7487    0.0000 </r>
       <r>   31.2952    0.0000 </r>
      </set>
      <set comment="kpoint 47">
       <r>    0.1240    1.0000 </r>
       <r>    1.7881    1.0000 </r>
       <r>    2.1626    1.0000 </r>
       <r>    3.1582    1.0000 </r>
       <r>    3.3089    1.0000 </r>
       <r>    3.8324    1.0000 </r>
       <r>    4.2762    1.0000 </r>
       <r>    4.6161    1.0000 </r>
       <r>    4.8710    1.0000 </r>
       <r>    5.1956    1.0000 </r>
       <r>    5.7064    0.9936 </r>
       <r>    8.7988   -0.0000 </r>
       <r>   17.0317    0.0000 </r>
       <r>   19.2447    0.0000 </r>
       <r>   22.0777    0.0000 </r>
       <r>   24.4965    0.0000 </r>
       <r>   24.5514    0.0000 </r>
       <r>   27.3008    0.0000 </r>
       <r>   28.5045    0.0000 </r>
       <r>   30.9065    0.0000 </r>
      </set>
      <set comment="kpoint 48">
       <r>    0.7993    1.0000 </r>
       <r>    1.6810    1.0000 </r>
       <r>    2.4664    1.0000 </r>
       <r>    3.0102    1.0000 </r>
[...]
       </set>
       <set comment="band 16">
        <r>  0.0000  0.0260  0.0000  0.1430  0.0000  0.0338  0.0000  0.1863  0.0000 </r>
        <r>  0.0000  0.1430  0.0000  0.0260  0.0000  0.1863  0.0000  0.0338  0.0000 </r>
       </set>
       <set comment="band 17">
        <r>  0.1553  0.0000  0.0752  0.0000  0.0342  0.0000  0.0034  0.0000  0.0000 </r>
        <r>  0.3400  0.0000  0.1647  0.0000  0.0156  0.0000  0.0074  0.0000  0.0000 </r>
       </set>
       <set comment="band 18">
        <r>  0.3400  0.0000  0.1647  0.0000  0.0156  0.0000  0.0074  0.0000  0.0000 </r>
        <r>  0.1553  0.0000  0.0752  0.0000  0.0342  0.0000  0.0034  0.0000  0.0000 </r>
       </set>
       <set comment="band 19">
        <r>  0.0000  0.0000  0.0000  0.0001  0.0000  0.0142  0.0000  0.1258  0.0000 </r>
        <r>  0.0000  0.0001  0.0000  0.0000  0.0000  0.1258  0.0000  0.0142  0.0000 </r>
       </set>
       <set comment="band 20">
        <r>  0.0000  0.0001  0.0000  0.0000  0.0000  0.1258  0.0000  0.0142  0.0000 </r>
        <r>  0.0000  0.0000  0.0000  0.0001  0.0000  0.0142  0.0000  0.1258  0.0000 </r>
       </set>
      </set>
      <set comment="kpoint 117">
       <set comment="band 1">
        <r>  0.0121  0.0119  0.0120  0.0119  0.1366  0.1365  0.0000  0.1365  0.0000 </r>
        <r>  0.0121  0.0119  0.0120  0.0119  0.1366  0.1365  0.0000  0.1365  0.0000 </r>
       </set>
       <set comment="band 2">
        <r>  0.0000  0.0083  0.0364  0.0099  0.2605  0.0707  0.0095  0.0594  0.0000 </r>
        <r>  0.0000  0.0083  0.0364  0.0099  0.2605  0.0707  0.0095  0.0594  0.0000 </r>
       </set>
       <set comment="band 3">
        <r>  0.0000  0.0280  0.0000  0.0265  0.0002  0.1895  0.0000  0.2008  0.0095 </r>
        <r>  0.0000  0.0280  0.0000  0.0265  0.0002  0.1895  0.0000  0.2008  0.0095 </r>
       </set>
       <set comment="band 4">
        <r>  0.0234  0.0384  0.0383  0.0384  0.0964  0.0968  0.0000  0.0968  0.0000 </r>
        <r>  0.0234  0.0384  0.0383  0.0384  0.0964  0.0968  0.0000  0.0968  0.0000 </r>
       </set>
       <set comment="band 5">
        <r>  0.0000  0.0148  0.0631  0.0168  0.2186  0.0584  0.0181  0.0511  0.0000 </r>
        <r>  0.0000  0.0148  0.0631  0.0168  0.2186  0.0584  0.0181  0.0511  0.0000 </r>
       </set>
       <set comment="band 6">
        <r>  0.0000  0.0484  0.0000  0.0463  0.0001  0.1604  0.0000  0.1676  0.0181 </r>
        <r>  0.0000  0.0484  0.0000  0.0463  0.0001  0.1604  0.0000  0.1676  0.0181 </r>
       </set>
       <set comment="band 7">
        <r>  0.0000  0.0000  0.0001  0.0000  0.0172  0.0031  0.4637  0.0056  0.0032 </r>
        <r>  0.0000  0.0000  0.0001  0.0000  0.0172  0.0031  0.4637  0.0056  0.0032 </r>
       </set>
       <set comment="band 8">
        <r>  0.0000  0.0001  0.0000  0.0001  0.0001  0.0141  0.0032  0.0117  0.4637 </r>
        <r>  0.0000  0.0001  0.0000  0.0001  0.0001  0.0141  0.0032  0.0117  0.4637 </r>
       </set>
       <set comment="band 9">
        <r>  0.0000  0.0000  0.0000  0.0000  0.0085  0.0016  0.4768  0.0028  0.0034 </r>
        <r>  0.0000  0.0000  0.0000  0.0000  0.0085  0.0016  0.4768  0.0028  0.0034 </r>
       </set>
       <set comment="band 10">
        <r>  0.0000  0.0000  0.0000  0.0000  0.0001  0.0070  0.0034  0.0058  0.4768 </r>
        <r>  0.0000  0.0000  0.0000  0.0000  0.0001  0.0070  0.0034  0.0058  0.4768 </r>
       </set>
       <set comment="band 11">
        <r>  0.0367  0.0440  0.0440  0.0440  0.0887  0.0887  0.0000  0.0887  0.0000 </r>
        <r>  0.0367  0.0440  0.0440  0.0440  0.0887  0.0887  0.0000  0.0887  0.0000 </r>
       </set>
       <set comment="band 12">
        <r>  0.0000  0.0276  0.1221  0.0336  0.1482  0.0408  0.0125  0.0335  0.0000 </r>
        <r>  0.0000  0.0276  0.1221  0.0336  0.1482  0.0408  0.0125  0.0335  0.0000 </r>
       </set>
       <set comment="band 13">
        <r>  0.0000  0.0946  0.0001  0.0886  0.0001  0.1075  0.0000  0.1149  0.0125 </r>
        <r>  0.0000  0.0946  0.0001  0.0886  0.0001  0.1075  0.0000  0.1149  0.0125 </r>
       </set>
       <set comment="band 14">
        <r>  0.2488  0.0101  0.0101  0.0101  0.0452  0.0452  0.0000  0.0452  0.0000 </r>
        <r>  0.2488  0.0101  0.0101  0.0101  0.0452  0.0452  0.0000  0.0452  0.0000 </r>
       </set>
       <set comment="band 15">
        <r>  0.0000  0.0250  0.1175  0.0341  0.1453  0.0422  0.0078  0.0309  0.0000 </r>
        <r>  0.0000  0.0250  0.1175  0.0341  0.1453  0.0422  0.0078  0.0309  0.0000 </r>
       </set>
       <set comment="band 16">
        <r>  0.0000  0.0927  0.0002  0.0836  0.0003  0.1034  0.0000  0.1147  0.0078 </r>
        <r>  0.0000  0.0927  0.0002  0.0836  0.0003  0.1034  0.0000  0.1147  0.0078 </r>
       </set>
       <set comment="band 17">
        <r>  0.3416  0.0199  0.0199  0.0199  0.0003  0.0003  0.0000  0.0003  0.0000 </r>
        <r>  0.3416  0.0199  0.0199  0.0199  0.0003  0.0003  0.0000  0.0003  0.0000 </r>
       </set>
       <set comment="band 18">
        <r>  0.1384  0.0507  0.0507  0.0507  0.0335  0.0335  0.0000  0.0335  0.0000 </r>
        <r>  0.1384  0.0507  0.0507  0.0507  0.0335  0.0335  0.0000  0.0335  0.0000 </r>
       </set>
       <set comment="band 19">
        <r>  0.0000  0.0076  0.0001  0.0058  0.0005  0.0233  0.0008  0.0304  0.0599 </r>
        <r>  0.0000  0.0076  0.0001  0.0058  0.0005  0.0233  0.0008  0.0304  0.0599 </r>
       </set>
       <set comment="band 20">
        <r>  0.0000  0.0014  0.0089  0.0032  0.0357  0.0128  0.0599  0.0057  0.0008 </r>
        <r>  0.0000  0.0014  0.0089  0.0032  0.0357  0.0128  0.0599  0.0057  0.0008 </r>
       </set>
      </set>
      <set comment="kpoint 118">
       <set comment="band 1">
        <r>  0.0081  0.0227  0.0227  0.0061  0.1487  0.0940  0.0007  0.1485  0.0021 </r>
        <r>  0.0081  0.0227  0.0227  0.0061  0.1487  0.0940  0.0007  0.1485  0.0021 </r>
       </set>
       <set comment="band 2">
        <r>  0.0081  0.0227  0.0227  0.0061  0.1487  0.0940  0.0007  0.1485  0.0021 </r>
        <r>  0.0081  0.0227  0.0227  0.0061  0.1487  0.0940  0.0007  0.1485  0.0021 </r>
       </set>
       <set comment="band 3">
        <r>  0.0000  0.0333  0.0333  0.0000  0.1976  0.0000  0.0089  0.1977  0.0030 </r>
        <r>  0.0000  0.0401  0.0401  0.0000  0.1638  0.0000  0.0107  0.1639  0.0036 </r>
       </set>
       <set comment="band 4">
        <r>  0.0000  0.0401  0.0401  0.0000  0.1638  0.0000  0.0107  0.1639  0.0036 </r>
        <r>  0.0000  0.0333  0.0333  0.0000  0.1976  0.0000  0.0089  0.1977  0.0030 </r>
       </set>
       <set comment="band 5">
        <r>  0.0037  0.0143  0.0142  0.0733  0.0288  0.2737  0.0005  0.0289  0.0014 </r>
        <r>  0.0037  0.0143  0.0142  0.0733  0.0288  0.2737  0.0005  0.0289  0.0014 </r>
       </set>
       <set comment="band 6">
        <r>  0.0037  0.0143  0.0142  0.0733  0.0288  0.2737  0.0005  0.0289  0.0014 </r>
        <r>  0.0037  0.0143  0.0142  0.0733  0.0288  0.2737  0.0005  0.0289  0.0014 </r>
       </set>
       <set comment="band 7">
        <r>  0.0000  0.0000  0.0000  0.0000  0.0091  0.0000  0.3570  0.0091  0.1178 </r>
        <r>  0.0000  0.0000  0.0000  0.0000  0.0091  0.0000  0.3570  0.0091  0.1178 </r>
       </set>
       <set comment="band 8">
        <r>  0.0000  0.0000  0.0000  0.0000  0.0091  0.0000  0.3570  0.0091  0.1178 </r>
        <r>  0.0000  0.0000  0.0000  0.0000  0.0091  0.0000  0.3570  0.0091  0.1178 </r>
       </set>
       <set comment="band 9">
        <r>  0.0000  0.0000  0.0000  0.0000  0.0032  0.0004  0.1208  0.0032  0.3659 </r>
        <r>  0.0000  0.0000  0.0000  0.0000  0.0032  0.0004  0.1208  0.0032  0.3659 </r>
       </set>
       <set comment="band 10">
        <r>  0.0000  0.0000  0.0000  0.0000  0.0032  0.0004  0.1208  0.0032  0.3659 </r>
        <r>  0.0000  0.0000  0.0000  0.0000  0.0032  0.0004  0.1208  0.0032  0.3659 </r>
       </set>
       <set comment="band 11">
        <r>  0.0224  0.0391  0.0391  0.0798  0.0668  0.1085  0.0006  0.0668  0.0018 </r>
        <r>  0.0224  0.0391  0.0391  0.0798  0.0668  0.1085  0.0006  0.0668  0.0018 </r>
       </set>
       <set comment="band 12">
        <r>  0.0224  0.0391  0.0391  0.0798  0.0668  0.1085  0.0006  0.0668  0.0018 </r>
        <r>  0.0224  0.0391  0.0391  0.0798  0.0668  0.1085  0.0006  0.0668  0.0018 </r>
       </set>
       <set comment="band 13">
        <r>  0.0000  0.0911  0.0911  0.0000  0.1099  0.0000  0.0073  0.1099  0.0024 </r>
        <r>  0.0000  0.0909  0.0909  0.0000  0.1101  0.0000  0.0073  0.1101  0.0024 </r>
       </set>
       <set comment="band 14">
        <r>  0.0000  0.0909  0.0909  0.0000  0.1101  0.0000  0.0073  0.1101  0.0024 </r>
        <r>  0.0000  0.0911  0.0911  0.0000  0.1099  0.0000  0.0073  0.1099  0.0024 </r>
       </set>
       <set comment="band 15">
        <r>  0.1496  0.0076  0.0076  0.0797  0.0332  0.0965  0.0001  0.0332  0.0003 </r>
        <r>  0.1494  0.0076  0.0076  0.0798  0.0332  0.0964  0.0001  0.0332  0.0003 </r>
       </set>
       <set comment="band 16">
        <r>  0.1494  0.0076  0.0076  0.0798  0.0332  0.0964  0.0001  0.0332  0.0003 </r>
        <r>  0.1496  0.0076  0.0076  0.0797  0.0332  0.0965  0.0001  0.0332  0.0003 </r>
       </set>
       <set comment="band 17">
        <r>  0.2188  0.0468  0.0468  0.0177  0.0198  0.0267  0.0002  0.0198  0.0005 </r>
        <r>  0.2187  0.0468  0.0468  0.0177  0.0198  0.0267  0.0002  0.0198  0.0005 </r>
       </set>
       <set comment="band 18">
        <r>  0.2187  0.0468  0.0468  0.0177  0.0198  0.0267  0.0002  0.0198  0.0005 </r>
        <r>  0.2188  0.0468  0.0468  0.0177  0.0198  0.0267  0.0002  0.0198  0.0005 </r>
       </set>
       <set comment="band 19">
        <r>  0.0000  0.0025  0.0025  0.0000  0.0273  0.0000  0.0165  0.0273  0.0055 </r>
        <r>  0.0000  0.0030  0.0030  0.0000  0.0227  0.0000  0.0199  0.0227  0.0066 </r>
       </set>
       <set comment="band 20">
        <r>  0.0000  0.0030  0.0030  0.0000  0.0227  0.0000  0.0199  0.0227  0.0066 </r>
        <r>  0.0000  0.0025  0.0025  0.0000  0.0273  0.0000  0.0165  0.0273  0.0055 </r>
       </set>
      </set>
      <set comment="kpoint 119">
       <set comment="band 1">
        <r>  0.0060  0.0000  0.0744  0.0000  0.3500  0.0000  0.0088  0.0000  0.0000 </r>
        <r>  0.0057  0.0000  0.0703  0.0000  0.3702  0.0000  0.0083  0.0000  0.0000 </r>
       </set>
       <set comment="band 2">
        <r>  0.0057  0.0000  0.0703  0.0000  0.3702  0.0000  0.0083  0.0000  0.0000 </r>
        <r>  0.0060  0.0000  0.0744  0.0000  0.3500  0.0000  0.0088  0.0000  0.0000 </r>
       </set>
       <set comment="band 3">
        <r>  0.0000  0.0243  0.0000  0.0325  0.0000  0.1704  0.0000  0.2273  0.0000 </r>
        <r>  0.0000  0.0325  0.0000  0.0243  0.0000  0.2273  0.0000  0.1704  0.0000 </r>
       </set>
       <set comment="band 4">
        <r>  0.0000  0.0325  0.0000  0.0243  0.0000  0.2273  0.0000  0.1704  0.0000 </r>
        <r>  0.0000  0.0243  0.0000  0.0325  0.0000  0.1704  0.0000  0.2273  0.0000 </r>
       </set>
       <set comment="band 5">
        <r>  0.0000  0.0332  0.0000  0.0661  0.0000  0.1142  0.0000  0.2273  0.0000 </r>
        <r>  0.0000  0.0661  0.0000  0.0332  0.0000  0.2272  0.0000  0.1142  0.0000 </r>
       </set>
       <set comment="band 6">
        <r>  0.0000  0.0661  0.0000  0.0332  0.0000  0.2272  0.0000  0.1142  0.0000 </r>
        <r>  0.0000  0.0332  0.0000  0.0661  0.0000  0.1142  0.0000  0.2273  0.0000 </r>
       </set>
       <set comment="band 7">
        <r>  0.0000  0.0000  0.0000  0.0000  0.0121  0.0000  0.4788  0.0000  0.0000 </r>
        <r>  0.0000  0.0000  0.0000  0.0000  0.0120  0.0000  0.4838  0.0000  0.0000 </r>
       </set>
       <set comment="band 8">
        <r>  0.0000  0.0000  0.0000  0.0000  0.0120  0.0000  0.4838  0.0000  0.0000 </r>
        <r>  0.0000  0.0000  0.0000  0.0000  0.0121  0.0000  0.4788  0.0000  0.0000 </r>
       </set>
       <set comment="band 9">
        <r>  0.0000  0.0000  0.0000  0.0000  0.0000  0.0000  0.0000  0.0000  0.6991 </r>
        <r>  0.0000  0.0000  0.0000  0.0000  0.0000  0.0000  0.0000  0.0000  0.2884 </r>
       </set>
       <set comment="band 10">
        <r>  0.0000  0.0000  0.0000  0.0000  0.0000  0.0000  0.0000  0.0000  0.2884 </r>
        <r>  0.0000  0.0000  0.0000  0.0000  0.0000  0.0000  0.0000  0.0000  0.6991 </r>
       </set>
       <set comment="band 11">
        <r>  0.0000  0.1178  0.0000  0.0638  0.0000  0.1530  0.0000  0.0828  0.0000 </r>
        <r>  0.0000  0.0638  0.0000  0.1178  0.0000  0.0828  0.0000  0.1530  0.0000 </r>
       </set>
       <set comment="band 12">
        <r>  0.0000  0.0638  0.0000  0.1178  0.0000  0.0828  0.0000  0.1530  0.0000 </r>
        <r>  0.0000  0.1178  0.0000  0.0638  0.0000  0.1530  0.0000  0.0828  0.0000 </r>
       </set>
       <set comment="band 13">
        <r>  0.0515  0.0000  0.1132  0.0000  0.2501  0.0000  0.0047  0.0000  0.0000 </r>
        <r>  0.0727  0.0000  0.1598  0.0000  0.1771  0.0000  0.0067  0.0000  0.0000 </r>
       </set>
       <set comment="band 14">
        <r>  0.0727  0.0000  0.1598  0.0000  0.1771  0.0000  0.0067  0.0000  0.0000 </r>
        <r>  0.0515  0.0000  0.1132  0.0000  0.2501  0.0000  0.0047  0.0000  0.0000 </r>
       </set>
       <set comment="band 15">
        <r>  0.0000  0.1139  0.0000  0.0632  0.0000  0.1448  0.0000  0.0804  0.0000 </r>
        <r>  0.0000  0.0632  0.0000  0.1139  0.0000  0.0804  0.0000  0.1448  0.0000 </r>
       </set>
       <set comment="band 16">
        <r>  0.0000  0.0632  0.0000  0.1139  0.0000  0.0804  0.0000  0.1448  0.0000 </r>
        <r>  0.0000  0.1139  0.0000  0.0632  0.0000  0.1448  0.0000  0.0804  0.0000 </r>
       </set>
       <set comment="band 17">
        <r>  0.2006  0.0000  0.0299  0.0000  0.0212  0.0000  0.0004  0.0000  0.0000 </r>
        <r>  0.4726  0.0000  0.0704  0.0000  0.0090  0.0000  0.0010  0.0000  0.0000 </r>
       </set>
       <set comment="band 18">
        <r>  0.4726  0.0000  0.0704  0.0000  0.0090  0.0000  0.0010  0.0000  0.0000 </r>
        <r>  0.2006  0.0000  0.0299  0.0000  0.0212  0.0000  0.0004  0.0000  0.0000 </r>
       </set>
       <set comment="band 19">
        <r>  0.0000  0.0007  0.0000  0.0004  0.0000  0.0450  0.0000  0.0256  0.0000 </r>
        <r>  0.0000  0.0004  0.0000  0.0007  0.0000  0.0256  0.0000  0.0450  0.0000 </r>
       </set>
       <set comment="band 20">
        <r>  0.0000  0.0004  0.0000  0.0007  0.0000  0.0256  0.0000  0.0450  0.0000 </r>
        <r>  0.0000  0.0007  0.0000  0.0004  0.0000  0.0450  0.0000  0.0256  0.0000 </r>
       </set>
      </set>
      <set comment="kpoint 120">
       <set comment="band 1">
        <r>  0.0000  0.0000  0.0101  0.0000  0.6938  0.0000  0.0000  0.0000  0.0000 </r>
        <r>  0.0000  0.0000  0.1432  0.0000  0.0491  0.0000  0.0000  0.0000  0.0000 </r>
       </set>
       <set comment="band 2">
        <r>  0.0000  0.0000  0.1432  0.0000  0.0491  0.0000  0.0000  0.0000  0.0000 </r>
        <r>  0.0000  0.0000  0.0101  0.0000  0.6938  0.0000  0.0000  0.0000  0.0000 </r>
       </set>
       <set comment="band 3">
        <r>  0.0000  0.0000  0.0000  0.0676  0.0000  0.4154  0.0000  0.0000  0.0000 </r>
        <r>  0.0000  0.0000  0.0000  0.0857  0.0000  0.3276  0.0000  0.0000  0.0000 </r>
       </set>
       <set comment="band 4">
        <r>  0.0000  0.0000  0.0000  0.0857  0.0000  0.3276  0.0000  0.0000  0.0000 </r>
        <r>  0.0000  0.0000  0.0000  0.0676  0.0000  0.4154  0.0000  0.0000  0.0000 </r>
       </set>
       <set comment="band 5">
        <r>  0.0000  0.0649  0.0000  0.0000  0.0000  0.0000  0.0000  0.4283  0.0000 </r>
        <r>  0.0000  0.0884  0.0000  0.0000  0.0000  0.0000  0.0000  0.3147  0.0000 </r>
       </set>
       <set comment="band 6">
        <r>  0.0000  0.0884  0.0000  0.0000  0.0000  0.0000  0.0000  0.3147  0.0000 </r>
        <r>  0.0000  0.0649  0.0000  0.0000  0.0000  0.0000  0.0000  0.4283  0.0000 </r>
       </set>
       <set comment="band 7">
        <r>  0.0000  0.0000  0.0000  0.0000  0.0000  0.0000  0.1519  0.0000  0.0011 </r>
        <r>  0.0000  0.0000  0.0000  0.0000  0.0000  0.0000  0.8285  0.0000  0.0062 </r>
       </set>
       <set comment="band 8">
        <r>  0.0000  0.0000  0.0000  0.0000  0.0000  0.0000  0.8285  0.0000  0.0062 </r>
        <r>  0.0000  0.0000  0.0000  0.0000  0.0000  0.0000  0.1519  0.0000  0.0011 </r>
       </set>
       <set comment="band 9">
        <r>  0.0000  0.0000  0.0000  0.0000  0.0000  0.0000  0.0061  0.0000  0.8192 </r>
        <r>  0.0000  0.0000  0.0000  0.0000  0.0000  0.0000  0.0012  0.0000  0.1612 </r>
       </set>
       <set comment="band 10">
        <r>  0.0000  0.0000  0.0000  0.0000  0.0000  0.0000  0.0012  0.0000  0.1612 </r>
        <r>  0.0000  0.0000  0.0000  0.0000  0.0000  0.0000  0.0061  0.0000  0.8192 </r>
       </set>
       <set comment="band 11">
        <r>  0.0000  0.0000  0.0630  0.0000  0.3791  0.0000  0.0000  0.0000  0.0000 </r>
        <r>  0.0000  0.0000  0.3003  0.0000  0.0796  0.0000  0.0000  0.0000  0.0000 </r>
       </set>
       <set comment="band 12">
        <r>  0.0000  0.0000  0.3003  0.0000  0.0796  0.0000  0.0000  0.0000  0.0000 </r>
        <r>  0.0000  0.0000  0.0630  0.0000  0.3791  0.0000  0.0000  0.0000  0.0000 </r>
       </set>
       <set comment="band 13">
        <r>  0.0000  0.0000  0.0000  0.2266  0.0000  0.1726  0.0000  0.0000  0.0000 </r>
        <r>  0.0000  0.0000  0.0000  0.1367  0.0000  0.2861  0.0000  0.0000  0.0000 </r>
       </set>
       <set comment="band 14">
        <r>  0.0000  0.0000  0.0000  0.1367  0.0000  0.2861  0.0000  0.0000  0.0000 </r>
        <r>  0.0000  0.0000  0.0000  0.2266  0.0000  0.1726  0.0000  0.0000  0.0000 </r>
       </set>
       <set comment="band 15">
        <r>  0.0000  0.0756  0.0000  0.0000  0.0000  0.0000  0.0000  0.3632  0.0000 </r>
        <r>  0.0000  0.2877  0.0000  0.0000  0.0000  0.0000  0.0000  0.0955  0.0000 </r>
       </set>
       <set comment="band 16">
        <r>  0.0000  0.2877  0.0000  0.0000  0.0000  0.0000  0.0000  0.0955  0.0000 </r>
        <r>  0.0000  0.0756  0.0000  0.0000  0.0000  0.0000  0.0000  0.3632  0.0000 </r>
       </set>
       <set comment="band 17">
        <r>  0.7873  0.0000  0.0000  0.0000  0.0000  0.0000  0.0000  0.0000  0.0000 </r>
        <r>  0.0258  0.0000  0.0000  0.0000  0.0000  0.0000  0.0000  0.0000  0.0000 </r>
       </set>
       <set comment="band 18">
        <r>  0.0258  0.0000  0.0000  0.0000  0.0000  0.0000  0.0000  0.0000  0.0000 </r>
        <r>  0.7873  0.0000  0.0000  0.0000  0.0000  0.0000  0.0000  0.0000  0.0000 </r>
       </set>
       <set comment="band 19">
        <r>  0.0000  0.0000  0.0000  0.0000  0.0000  0.0000  0.0000  0.0000  0.0000 </r>
        <r>  0.0000  0.0000  0.0000  0.0000  0.0000  0.0000  0.0000  0.0000  0.0000 </r>
       </set>
       <set comment="band 20">
        <r>  0.0000  0.0000  0.0000  0.0000  0.0000  0.0000  0.0000  0.0000  0.0000 </r>
        <r>  0.0000  0.0000  0.0000  0.0000  0.0000  0.0000  0.0000  0.0000  0.0000 </r>
       </set>
      </set>
     </set>
    </set>
   </array>
  </projected>
 </calculation>
 <structure name="finalpos" >
  <crystal>
   <varray name="basis" >
    <v>       2.82823509       0.00000000       0.00000000 </v>
    <v>       0.00000000       2.82823509       0.00000000 </v>
    <v>      -0.00000000       0.00000000       2.82823509 </v>
   </varray>
   <i name="volume">     22.62280839 </i>
   <varray name="rec_basis" >
    <v>       0.35357740      -0.00000000       0.00000000 </v>
    <v>      -0.00000000       0.35357740      -0.00000000 </v>
    <v>      -0.00000000      -0.00000000       0.35357740 </v>
   </varray>
  </crystal>
  <varray name="positions" >
   <v>      -0.00000000       0.00000000       0.00000000 </v>
   <v>       0.50000000       0.50000000       0.50000000 </v>
  </varray>
 </structure>
</modeling>
