   2   2   0   0
  0.2136336E+02  0.3924083E-09  0.3924084E-09  0.3924082E-09  0.5000000E-15
  1.000000000000000E-004
  CAR 
 unknown system                          
     15.57382484     -7.35637549  301      5.40929697      1.00000000
     -7.356  0.0000E+00  0.0000E+00
     -7.280  0.0000E+00  0.0000E+00
     -7.204  0.0000E+00  0.0000E+00
     -7.127  0.0000E+00  0.0000E+00
     -7.051  0.0000E+00  0.0000E+00
     -6.974  0.0000E+00  0.0000E+00
     -6.898  0.0000E+00  0.0000E+00
     -6.821  0.0000E+00  0.0000E+00
     -6.745  0.0000E+00  0.0000E+00
     -6.668  0.0000E+00  0.0000E+00
     -6.592  0.5716E-18  0.4369E-19
     -6.516  0.1820E-11  0.1391E-12
     -6.439  0.6125E-07  0.4682E-08
     -6.363  0.2675E-04  0.2049E-05
     -6.286  0.3999E-03  0.3262E-04
     -6.210  0.1084E-02  0.1155E-03
     -6.133  0.1468E-02  0.2277E-03
     -6.057  0.1991E-02  0.3799E-03
     -5.981  0.1831E-02  0.5198E-03
     -5.904  0.2840E-02  0.7369E-03
     -5.828  0.2260E-02  0.9096E-03
     -5.751  0.2914E-02  0.1132E-02
     -5.675  0.3106E-02  0.1370E-02
     -5.598  0.3539E-02  0.1640E-02
     -5.522  0.3224E-02  0.1887E-02
     -5.446  0.3062E-02  0.2121E-02
     -5.369  0.4921E-02  0.2497E-02
     -5.293  0.3848E-02  0.2791E-02
     -5.216  0.3827E-02  0.3083E-02
     -5.140  0.3968E-02  0.3387E-02
     -5.063  0.5586E-02  0.3814E-02
     -4.987  0.4298E-02  0.4142E-02
     -4.910  0.5580E-02  0.4569E-02
     -4.834  0.4831E-02  0.4938E-02
     -4.758  0.4737E-02  0.5300E-02
     -4.681  0.5630E-02  0.5730E-02
     -4.605  0.6969E-02  0.6263E-02
     -4.528  0.6711E-02  0.6776E-02
     -4.452  0.5084E-02  0.7165E-02
     -4.375  0.6657E-02  0.7673E-02
     -4.299  0.6985E-02  0.8207E-02
     -4.223  0.8870E-02  0.8885E-02
     -4.146  0.8147E-02  0.9508E-02
     -4.070  0.9773E-02  0.1025E-01
     -3.993  0.1107E-01  0.1110E-01
     -3.917  0.5050E-02  0.1149E-01
     -3.840  0.9683E-02  0.1223E-01
     -3.764  0.8981E-02  0.1291E-01
     -3.688  0.7871E-02  0.1351E-01
     -3.611  0.7327E-02  0.1408E-01
     -3.535  0.9228E-02  0.1478E-01
     -3.458  0.7820E-02  0.1538E-01
     -3.382  0.3897E-02  0.1568E-01
     -3.305  0.4200E-02  0.1600E-01
     -3.229  0.7643E-02  0.1658E-01
     -3.153  0.8899E-02  0.1726E-01
     -3.076  0.6445E-02  0.1775E-01
     -3.000  0.5166E-02  0.1815E-01
     -2.923  0.2452E-02  0.1834E-01
     -2.847  0.2828E-02  0.1855E-01
     -2.770  0.2988E-02  0.1878E-01
     -2.694  0.6172E-02  0.1925E-01
     -2.617  0.5224E-02  0.1965E-01
     -2.541  0.3496E-02  0.1992E-01
     -2.465  0.1044E-02  0.2000E-01
     -2.388  0.1587E-04  0.2000E-01
     -2.312  0.4390E-08  0.2000E-01
     -2.235  0.3757E-06  0.2000E-01
     -2.159  0.2219E-03  0.2002E-01
     -2.082  0.4158E-02  0.2033E-01
     -2.006  0.7415E-02  0.2090E-01
     -1.930  0.3199E-02  0.2115E-01
     -1.853  0.2178E-02  0.2131E-01
     -1.777  0.2712E-02  0.2152E-01
     -1.700  0.1950E-02  0.2167E-01
     -1.624  0.4344E-02  0.2200E-01
     -1.547  0.8589E-02  0.2266E-01
     -1.471  0.1355E-01  0.2369E-01
     -1.395  0.1190E-01  0.2460E-01
     -1.318  0.1455E-01  0.2571E-01
     -1.242  0.1244E-01  0.2667E-01
     -1.165  0.8640E-02  0.2733E-01
     -1.089  0.8650E-02  0.2799E-01
     -1.012  0.1072E-01  0.2881E-01
     -0.936  0.5134E-02  0.2920E-01
     -0.859  0.7640E-02  0.2978E-01
     -0.783  0.1059E-01  0.3059E-01
     -0.707  0.4714E-02  0.3095E-01
     -0.630  0.2411E-02  0.3114E-01
     -0.554  0.3890E-02  0.3143E-01
     -0.477  0.8625E-02  0.3209E-01
     -0.401  0.5567E-02  0.3252E-01
     -0.324  0.1849E-02  0.3266E-01
     -0.248  0.3575E-02  0.3293E-01
     -0.172  0.5884E-02  0.3338E-01
     -0.095  0.7482E-02  0.3395E-01
     -0.019  0.2243E-02  0.3413E-01
      0.058  0.1558E-02  0.3424E-01
      0.134  0.2480E-02  0.3443E-01
      0.211  0.2807E-02  0.3465E-01
      0.287  0.7091E-02  0.3519E-01
      0.363  0.2570E-02  0.3539E-01
      0.440  0.1027E-02  0.3547E-01
      0.516  0.2674E-02  0.3567E-01
      0.593  0.3347E-02  0.3593E-01
      0.669  0.3304E-02  0.3618E-01
      0.746  0.3486E-02  0.3645E-01
      0.822  0.1247E-02  0.3654E-01
      0.898  0.1254E-02  0.3664E-01
      0.975  0.1613E-02  0.3676E-01
      1.051  0.2156E-02  0.3692E-01
      1.128  0.6266E-02  0.3740E-01
      1.204  0.7427E-02  0.3797E-01
      1.281  0.6266E-02  0.3845E-01
      1.357  0.1262E-01  0.3941E-01
      1.434  0.1407E-01  0.4049E-01
      1.510  0.1092E-01  0.4133E-01
      1.586  0.1174E-01  0.4222E-01
      1.663  0.1245E-01  0.4317E-01
      1.739  0.1123E-01  0.4403E-01
      1.816  0.1070E-01  0.4485E-01
      1.892  0.8997E-02  0.4554E-01
      1.969  0.1132E-01  0.4640E-01
      2.045  0.1180E-01  0.4731E-01
      2.121  0.1388E-01  0.4837E-01
      2.198  0.1009E-01  0.4914E-01
      2.274  0.1057E-01  0.4995E-01
      2.351  0.1397E-01  0.5101E-01
      2.427  0.1277E-01  0.5199E-01
      2.504  0.1445E-01  0.5309E-01
      2.580  0.1653E-01  0.5436E-01
      2.656  0.1706E-01  0.5566E-01
      2.733  0.1635E-01  0.5691E-01
      2.809  0.1491E-01  0.5805E-01
      2.886  0.1333E-01  0.5907E-01
      2.962  0.1428E-01  0.6016E-01
      3.039  0.1714E-01  0.6147E-01
      3.115  0.1593E-01  0.6269E-01
      3.192  0.1470E-01  0.6381E-01
      3.268  0.1161E-01  0.6470E-01
      3.344  0.1214E-01  0.6563E-01
      3.421  0.1605E-01  0.6685E-01
      3.497  0.1498E-01  0.6800E-01
      3.574  0.1302E-01  0.6899E-01
      3.650  0.1117E-01  0.6985E-01
      3.727  0.1353E-01  0.7088E-01
      3.803  0.1145E-01  0.7176E-01
      3.879  0.1489E-01  0.7289E-01
      3.956  0.1186E-01  0.7380E-01
      4.032  0.9480E-02  0.7453E-01
      4.109  0.1105E-01  0.7537E-01
      4.185  0.1195E-01  0.7628E-01
      4.262  0.5998E-02  0.7674E-01
      4.338  0.5537E-02  0.7717E-01
      4.414  0.5474E-02  0.7758E-01
      4.491  0.6353E-02  0.7807E-01
      4.567  0.5426E-02  0.7848E-01
      4.644  0.3855E-02  0.7878E-01
      4.720  0.3257E-02  0.7903E-01
      4.797  0.3383E-02  0.7929E-01
      4.873  0.2363E-02  0.7947E-01
      4.949  0.2807E-02  0.7968E-01
      5.026  0.2049E-02  0.7984E-01
      5.102  0.1105E-02  0.7992E-01
      5.179  0.8626E-03  0.7999E-01
      5.255  0.1503E-03  0.8000E-01
      5.332  0.1134E-05  0.8000E-01
      5.408  0.1256E-09  0.8000E-01
      5.485  0.1529E-15  0.8000E-01
      5.561  0.0000E+00  0.8000E-01
      5.637  0.0000E+00  0.8000E-01
      5.714  0.4991E-14  0.8000E-01
      5.790  0.1985E-08  0.8000E-01
      5.867  0.9016E-05  0.8000E-01
      5.943  0.6324E-03  0.8005E-01
      6.020  0.1976E-02  0.8020E-01
      6.096  0.1089E-02  0.8028E-01
      6.172  0.2289E-02  0.8046E-01
      6.249  0.5689E-02  0.8089E-01
      6.325  0.3384E-02  0.8115E-01
      6.402  0.4829E-02  0.8152E-01
      6.478  0.4789E-02  0.8189E-01
      6.555  0.3541E-02  0.8216E-01
      6.631  0.6282E-02  0.8264E-01
      6.707  0.1087E-01  0.8347E-01
      6.784  0.8178E-02  0.8409E-01
      6.860  0.6991E-02  0.8463E-01
      6.937  0.8828E-02  0.8530E-01
      7.013  0.1110E-01  0.8615E-01
      7.090  0.1040E-01  0.8695E-01
      7.166  0.1276E-01  0.8792E-01
      7.243  0.1397E-01  0.8899E-01
      7.319  0.1504E-01  0.9014E-01
      7.395  0.1904E-01  0.9159E-01
      7.472  0.1890E-01  0.9304E-01
      7.548  0.1442E-01  0.9414E-01
      7.625  0.1346E-01  0.9517E-01
      7.701  0.1598E-01  0.9639E-01
      7.778  0.1231E-01  0.9733E-01
      7.854  0.1310E-01  0.9833E-01
      7.930  0.1321E-01  0.9934E-01
      8.007  0.1015E-01  0.1001E+00
      8.083  0.1474E-01  0.1012E+00
      8.160  0.9171E-02  0.1019E+00
      8.236  0.8318E-02  0.1026E+00
      8.313  0.1099E-01  0.1034E+00
      8.389  0.1156E-01  0.1043E+00
      8.465  0.2230E-01  0.1060E+00
      8.542  0.2779E-01  0.1081E+00
      8.618  0.1695E-01  0.1094E+00
      8.695  0.2295E-01  0.1112E+00
      8.771  0.1654E-01  0.1124E+00
      8.848  0.2156E-01  0.1141E+00
      8.924  0.1681E-01  0.1154E+00
      9.001  0.1411E-01  0.1165E+00
      9.077  0.1303E-01  0.1175E+00
      9.153  0.1337E-01  0.1185E+00
      9.230  0.1302E-01  0.1195E+00
      9.306  0.1319E-01  0.1205E+00
      9.383  0.1057E-01  0.1213E+00
      9.459  0.1398E-01  0.1224E+00
      9.536  0.1500E-01  0.1235E+00
      9.612  0.1008E-01  0.1243E+00
      9.688  0.1360E-01  0.1253E+00
      9.765  0.1828E-01  0.1267E+00
      9.841  0.1331E-01  0.1277E+00
      9.918  0.1125E-01  0.1286E+00
      9.994  0.1344E-01  0.1296E+00
     10.071  0.1265E-01  0.1306E+00
     10.147  0.1361E-01  0.1316E+00
     10.223  0.1209E-01  0.1325E+00
     10.300  0.1427E-01  0.1336E+00
     10.376  0.1393E-01  0.1347E+00
     10.453  0.1416E-01  0.1358E+00
     10.529  0.7955E-02  0.1364E+00
     10.606  0.1201E-01  0.1373E+00
     10.682  0.1013E-01  0.1381E+00
     10.758  0.1025E-01  0.1389E+00
     10.835  0.1102E-01  0.1397E+00
     10.911  0.1380E-01  0.1408E+00
     10.988  0.1387E-01  0.1418E+00
     11.064  0.8531E-02  0.1425E+00
     11.141  0.1244E-01  0.1434E+00
     11.217  0.9525E-02  0.1442E+00
     11.294  0.7342E-02  0.1447E+00
     11.370  0.1039E-01  0.1455E+00
     11.446  0.8726E-02  0.1462E+00
     11.523  0.7625E-02  0.1468E+00
     11.599  0.1133E-01  0.1476E+00
     11.676  0.1240E-01  0.1486E+00
     11.752  0.1071E-01  0.1494E+00
     11.829  0.7759E-02  0.1500E+00
     11.905  0.9305E-02  0.1507E+00
     11.981  0.6843E-02  0.1512E+00
     12.058  0.4040E-02  0.1515E+00
     12.134  0.5147E-02  0.1519E+00
     12.211  0.6745E-02  0.1524E+00
     12.287  0.1095E-01  0.1533E+00
     12.364  0.7629E-02  0.1539E+00
     12.440  0.8620E-02  0.1545E+00
     12.516  0.7544E-02  0.1551E+00
     12.593  0.3290E-02  0.1553E+00
     12.669  0.5682E-02  0.1558E+00
     12.746  0.3148E-02  0.1560E+00
     12.822  0.2472E-02  0.1562E+00
     12.899  0.4336E-02  0.1565E+00
     12.975  0.6337E-02  0.1570E+00
     13.052  0.5003E-02  0.1574E+00
     13.128  0.5407E-02  0.1578E+00
     13.204  0.9049E-02  0.1585E+00
     13.281  0.2080E-02  0.1587E+00
     13.357  0.9997E-03  0.1587E+00
     13.434  0.4905E-04  0.1588E+00
     13.510  0.5636E-03  0.1588E+00
     13.587  0.2089E-02  0.1590E+00
     13.663  0.9775E-03  0.1590E+00
     13.739  0.6130E-03  0.1591E+00
     13.816  0.1907E-02  0.1592E+00
     13.892  0.4602E-02  0.1596E+00
     13.969  0.1924E-02  0.1597E+00
     14.045  0.3717E-04  0.1597E+00
     14.122  0.1299E-07  0.1597E+00
     14.198  0.1150E-05  0.1597E+00
     14.274  0.2609E-03  0.1597E+00
     14.351  0.1309E-02  0.1598E+00
     14.427  0.2660E-03  0.1599E+00
     14.504  0.6774E-03  0.1599E+00
     14.580  0.1033E-02  0.1600E+00
     14.657  0.8653E-04  0.1600E+00
     14.733  0.1873E-06  0.1600E+00
     14.809  0.5475E-11  0.1600E+00
     14.886  0.1715E-17  0.1600E+00
     14.962  0.0000E+00  0.1600E+00
     15.039  0.0000E+00  0.1600E+00
     15.115  0.0000E+00  0.1600E+00
     15.192  0.0000E+00  0.1600E+00
     15.268  0.0000E+00  0.1600E+00
     15.345  0.0000E+00  0.1600E+00
     15.421  0.0000E+00  0.1600E+00
     15.497  0.0000E+00  0.1600E+00
     15.574  0.0000E+00  0.1600E+00
