    2    2  100    1
  0.2136336E+02  0.3924083E-09  0.3924084E-09  0.3924082E-09  0.5000000E-15
  1.000000000000000E-004
  CAR 
 unknown system                          
      8    182      8
 
  0.4166667E-01  0.4166667E-01  0.4166667E-01  0.1157407E-02
    1       -6.314094   1.000000
    2        4.925316   1.000000
    3        5.152694   1.000000
    4        5.152696   1.000000
    5        7.718496   0.000000
    6        7.779221   0.000000
    7        7.779227   0.000000
    8        8.063142   0.000000
 
  0.1250000E+00  0.4166667E-01  0.4166667E-01  0.3472222E-02
    1       -6.199565   1.000000
    2        4.037455   1.000000
    3        4.761023   1.000000
    4        5.100388   1.000000
    5        7.713234   0.000000
    6        7.891894   0.000000
    7        8.042659   0.000000
    8        9.004218   0.000000
 
  0.2083333E+00  0.4166667E-01  0.4166667E-01  0.3472222E-02
    1       -5.917164   1.000000
    2        2.586800   1.000000
    3        4.408396   1.000000
    4        4.845200   1.000000
    5        7.411248   0.000000
    6        8.264225   0.000000
    7        8.536510   0.000000
    8       10.360884   0.000000
 
  0.2916667E+00  0.4166667E-01  0.4166667E-01  0.3472222E-02
    1       -5.479985   1.000000
    2        1.139912   1.000000
    3        4.123354   1.000000
    4        4.544199   1.000000
    5        7.098321   0.000000
    6        8.558906   0.000000
    7        8.797745   0.000000
    8       11.589605   0.000000
 
  0.3750000E+00  0.4166667E-01  0.4166667E-01  0.3472222E-02
    1       -4.924063   1.000000
    2       -0.154568   1.000000
    3        3.935473   1.000000
    4        4.283896   1.000000
    5        6.853575   0.000000
    6        8.624887   0.000000
    7        8.753476   0.000000
    8       12.588414   0.000000
 
  0.4583333E+00  0.4166667E-01  0.4166667E-01  0.3472222E-02
    1       -4.365011   1.000000
    2       -1.144518   1.000000
    3        3.854332   1.000000
    4        4.099096   1.000000
    5        6.708011   0.000000
    6        8.605472   0.000000
    7        8.609044   0.000000
    8       12.915139   0.000000
 
 -0.4583333E+00  0.4166667E-01  0.4166667E-01  0.3472222E-02
    1       -4.154657   1.000000
    2       -1.463471   1.000000
    3        3.878987   1.000000
    4        4.005241   1.000000
    5        6.672536   0.000000
    6        8.517140   0.000000
    7        8.639251   0.000000
    8       12.899508   0.000000
 
 -0.3750000E+00  0.4166667E-01  0.4166667E-01  0.3472222E-02
    1       -4.536651   1.000000
    2       -0.864783   1.000000
    3        4.003529   1.000000
    4        4.011003   1.000000
    5        6.749410   0.000000
    6        8.514862   0.000000
    7        8.756421   0.000000
    8       12.784578   0.000000
 
 -0.2916667E+00  0.4166667E-01  0.4166667E-01  0.3472222E-02
    1       -5.118157   1.000000
    2        0.252464   1.000000
    3        4.121016   1.000000
    4        4.218366   1.000000
    5        6.932888   0.000000
    6        8.535156   0.000000
    7        8.885795   0.000000
    8       11.981591   0.000000
 
 -0.2083333E+00  0.4166667E-01  0.4166667E-01  0.3472222E-02
    1       -5.641336   1.000000
    2        1.611003   1.000000
    3        4.332525   1.000000
    4        4.504737   1.000000
    5        7.205689   0.000000
    6        8.401082   0.000000
    7        8.850227   0.000000
    8       11.088735   0.000000
 
 -0.1250000E+00  0.4166667E-01  0.4166667E-01  0.3472222E-02
    1       -6.029341   1.000000
    2        3.085939   1.000000
    3        4.626349   1.000000
    4        4.815442   1.000000
    5        7.517809   0.000000
    6        8.042405   0.000000
    7        8.516468   0.000000
    8        9.878177   0.000000
 
 -0.4166667E-01  0.4166667E-01  0.4166667E-01  0.3472222E-02
    1       -6.256699   1.000000
    2        4.495208   1.000000
    3        4.944729   1.000000
    4        5.031853   1.000000
    5        7.644029   0.000000
    6        7.873987   0.000000
    7        8.055891   0.000000
    8        8.516520   0.000000
 
  0.1250000E+00  0.1250000E+00  0.4166667E-01  0.3472222E-02
    1       -6.142149   1.000000
    2        3.933917   1.000000
    3        4.621878   1.000000
    4        4.703579   1.000000
    5        7.420924   0.000000
    6        8.270391   0.000000
    7        8.515298   0.000000
    8        9.060779   0.000000
 
  0.2083333E+00  0.1250000E+00  0.4166667E-01  0.6944444E-02
    1       -5.915198   1.000000
    2        2.924243   1.000000
    3        4.066001   1.000000
    4        4.563706   1.000000
    5        7.430103   0.000000
    6        8.389600   0.000000
    7        8.992286   0.000000
    8        9.854832   0.000000
 
  0.2916667E+00  0.1250000E+00  0.4166667E-01  0.6944444E-02
    1       -5.527930   1.000000
    2        1.575096   1.000000
    3        3.692486   1.000000
    4        4.287687   1.000000
    5        7.570206   0.000000
    6        8.392176   0.000000
    7        9.372505   0.000000
    8       10.233610   0.000000
 
  0.3750000E+00  0.1250000E+00  0.4166667E-01  0.6944444E-02
    1       -5.005385   1.000000
    2        0.267739   1.000000
    3        3.433766   1.000000
    4        4.003670   1.000000
    5        7.461249   0.000000
    6        8.487946   0.000000
    7        9.400990   0.000000
    8       10.815997   0.000000
 
  0.4583333E+00  0.1250000E+00  0.4166667E-01  0.6944444E-02
    1       -4.423335   1.000000
    2       -0.826966   1.000000
    3        3.253326   1.000000
    4        3.825596   1.000000
    5        7.327299   0.000000
    6        8.458730   0.000000
    7        9.253882   0.000000
    8       11.884057   0.000000
 
 -0.4583333E+00  0.1250000E+00  0.4166667E-01  0.6944444E-02
    1       -4.039515   1.000000
    2       -1.419090   1.000000
    3        3.133707   1.000000
    4        3.803118   1.000000
    5        7.275353   0.000000
    6        8.439182   0.000000
    7        9.126087   0.000000
    8       12.988614   0.000000
 
 -0.3750000E+00  0.1250000E+00  0.4166667E-01  0.6944444E-02
    1       -4.252400   1.000000
    2       -1.100528   1.000000
    3        3.091968   1.000000
    4        3.928638   1.000000
    5        7.325221   0.000000
    6        8.487889   0.000000
    7        9.100898   0.000000
    8       12.680763   0.000000
 
 -0.2916667E+00  0.1250000E+00  0.4166667E-01  0.6944444E-02
    1       -4.812909   1.000000
    2       -0.125916   1.000000
    3        3.157744   1.000000
    4        4.168008   1.000000
    5        7.471894   0.000000
    6        8.549462   0.000000
    7        9.164015   0.000000
    8       11.561870   0.000000
 
 -0.2083333E+00  0.1250000E+00  0.4166667E-01  0.6944444E-02
    1       -5.368101   1.000000
    2        1.124392   1.000000
    3        3.356900   1.000000
    4        4.476043   1.000000
    5        7.690937   0.000000
    6        8.444791   0.000000
    7        9.162780   0.000000
    8       10.733365   0.000000
 
 -0.1250000E+00  0.1250000E+00  0.4166667E-01  0.6944444E-02
    1       -5.804103   1.000000
    2        2.446590   1.000000
    3        3.734719   1.000000
    4        4.775539   1.000000
    5        7.861343   0.000000
    6        8.134977   0.000000
    7        8.825332   0.000000
    8       10.276968   0.000000
 
 -0.4166667E-01  0.1250000E+00  0.4166667E-01  0.6944444E-02
    1       -6.085577   1.000000
    2        3.496781   1.000000
    3        4.434095   1.000000
    4        4.923428   1.000000
    5        7.674584   0.000000
    6        7.986079   0.000000
    7        8.434925   0.000000
    8        9.548401   0.000000
 
  0.2083333E+00  0.2083333E+00  0.4166667E-01  0.3472222E-02
    1       -5.743708   1.000000
    2        2.638221   1.000000
    3        3.908111   1.000000
    4        3.914107   1.000000
    5        6.857542   0.000000
    6        9.013041   0.000000
    7        9.697402   0.000000
    8        9.697896   0.000000
 
  0.2916667E+00  0.2083333E+00  0.4166667E-01  0.6944444E-02
    1       -5.408767   1.000000
    2        1.719331   1.000000
    3        3.354953   1.000000
    4        3.738808   1.000000
    5        6.889928   0.000000
    6        8.759705   0.000000
    7        9.881927   0.000000
    8       10.279313   0.000000
 
  0.3750000E+00  0.2083333E+00  0.4166667E-01  0.6944444E-02
    1       -4.927667   1.000000
    2        0.585466   1.000000
    3        2.909642   1.000000
    4        3.492341   1.000000
    5        7.138151   0.000000
    6        8.980276   0.000000
    7        9.688139   0.000000
    8       10.495676   0.000000
 
  0.4583333E+00  0.2083333E+00  0.4166667E-01  0.6944444E-02
    1       -4.349920   1.000000
    2       -0.495673   1.000000
    3        2.526377   1.000000
    4        3.364202   1.000000
    5        7.204157   0.000000
    6        9.382629   0.000000
    7        9.979815   0.000000
    8       10.397276   0.000000
 
 -0.4583333E+00  0.2083333E+00  0.4166667E-01  0.6944444E-02
    1       -3.848306   1.000000
    2       -1.260713   1.000000
    3        2.230940   1.000000
    4        3.397260   1.000000
    5        7.266258   0.000000
    6        9.201687   0.000000
    7       10.201423   0.000000
    8       11.343686   0.000000
 
 -0.3750000E+00  0.2083333E+00  0.4166667E-01  0.6944444E-02
    1       -3.858825   1.000000
    2       -1.242658   1.000000
    3        2.064111   1.000000
    4        3.574272   1.000000
    5        7.434157   0.000000
    6        9.086872   0.000000
    7       10.068342   0.000000
    8       12.646841   0.000000
 
 -0.2916667E+00  0.2083333E+00  0.4166667E-01  0.6944444E-02
    1       -4.367019   1.000000
    2       -0.465498   1.000000
    3        2.067364   1.000000
    4        3.865089   1.000000
    5        7.704241   0.000000
    6        9.023068   0.000000
    7        9.973460   0.000000
    8       11.334849   0.000000
 
 -0.2083333E+00  0.2083333E+00  0.4166667E-01  0.6944444E-02
    1       -4.942109   1.000000
    2        0.561871   1.000000
    3        2.320195   1.000000
    4        4.219518   1.000000
    5        8.007247   0.000000
    6        8.798451   0.000000
    7        9.798092   0.000000
    8       10.437100   0.000000
 
 -0.1250000E+00  0.2083333E+00  0.4166667E-01  0.6944444E-02
    1       -5.418976   1.000000
    2        1.456953   1.000000
    3        3.002928   1.000000
    4        4.539201   1.000000
    5        8.063665   0.000000
    6        8.357054   0.000000
    7        9.271747   0.000000
    8       10.363873   0.000000
 
 -0.4166667E-01  0.2083333E+00  0.4166667E-01  0.6944444E-02
    1       -5.749695   1.000000
    2        2.077688   1.000000
    3        4.064507   1.000000
    4        4.657526   1.000000
    5        7.534428   0.000000
    6        8.230600   0.000000
    7        8.889910   0.000000
    8       10.578142   0.000000
 
  0.2916667E+00  0.2916667E+00  0.4166667E-01  0.3472222E-02
    1       -5.125773   1.000000
    2        1.254607   1.000000
    3        3.236531   1.000000
    4        3.286842   1.000000
    5        6.352245   0.000000
    6        8.085715   0.000000
    7       10.954418   0.000000
    8       11.037184   0.000000
 
  0.3750000E+00  0.2916667E+00  0.4166667E-01  0.6944444E-02
    1       -4.690523   1.000000
    2        0.448396   1.000000
    3        2.774161   1.000000
    4        3.070364   1.000000
    5        6.463738   0.000000
    6        7.793568   0.000000
    7       11.087469   0.000000
    8       11.686286   0.000000
 
  0.4583333E+00  0.2916667E+00  0.4166667E-01  0.6944444E-02
    1       -4.135086   1.000000
    2       -0.436082   1.000000
    3        2.178478   1.000000
    4        2.948470   1.000000
    5        6.702804   0.000000
    6        8.288587   0.000000
    7       10.874549   0.000000
    8       11.777697   0.000000
 
 -0.4583333E+00  0.2916667E+00  0.4166667E-01  0.6944444E-02
    1       -3.569102   1.000000
    2       -1.201787   1.000000
    3        1.661607   1.000000
    4        2.984741   1.000000
    5        6.814539   0.000000
    6        9.491859   0.000000
    7       10.624198   0.000000
    8       11.614551   0.000000
 
 -0.3750000E+00  0.2916667E+00  0.4166667E-01  0.6944444E-02
    1       -3.384761   1.000000
    2       -1.420627   1.000000
    3        1.345650   1.000000
    4        3.166613   1.000000
    5        7.013909   0.000000
    6       10.361469   0.000000
    7       11.064945   0.000000
    8       11.416490   0.000000
 
 -0.2916667E+00  0.2916667E+00  0.4166667E-01  0.6944444E-02
    1       -3.816444   1.000000
    2       -0.889817   1.000000
    3        1.320228   1.000000
    4        3.470259   1.000000
    5        7.339410   0.000000
    6       10.119641   0.000000
    7       11.085633   0.000000
    8       11.379186   0.000000
 
 -0.2083333E+00  0.2916667E+00  0.4166667E-01  0.6944444E-02
    1       -4.394910   1.000000
    2       -0.223619   1.000000
    3        1.741864   1.000000
    4        3.849074   1.000000
    5        7.723026   0.000000
    6        9.398928   0.000000
    7       10.407611   0.000000
    8       10.779238   0.000000
 
 -0.1250000E+00  0.2916667E+00  0.4166667E-01  0.6944444E-02
    1       -4.898400   1.000000
    2        0.267964   1.000000
    3        2.668706   1.000000
    4        4.203713   1.000000
    5        7.828541   0.000000
    6        8.650728   0.000000
    7        9.479850   0.000000
    8       10.919963   0.000000
 
 -0.4166667E-01  0.2916667E+00  0.4166667E-01  0.6944444E-02
    1       -5.267208   1.000000
    2        0.689648   1.000000
    3        3.803053   1.000000
    4        4.353982   1.000000
    5        7.265915   0.000000
    6        8.478235   0.000000
    7        9.032224   0.000000
    8       11.305081   0.000000
 
  0.3750000E+00  0.3750000E+00  0.4166667E-01  0.3472222E-02
    1       -4.300488   1.000000
    2       -0.135445   1.000000
    3        2.751415   1.000000
    4        2.834053   1.000000
    5        6.031593   0.000000
    6        7.101568   0.000000
    7       12.403861   0.000000
    8       12.449987   0.000000
 
  0.4583333E+00  0.3750000E+00  0.4166667E-01  0.6944444E-02
    1       -3.777517   1.000000
    2       -0.847506   1.000000
    3        2.379602   1.000000
    4        2.647707   1.000000
    5        6.236428   0.000000
    6        6.999886   0.000000
    7       12.452651   0.000000
    8       13.156391   0.000000
 
 -0.4583333E+00  0.3750000E+00  0.4166667E-01  0.6944444E-02
    1       -3.187458   1.000000
    2       -1.515961   1.000000
    3        1.722391   1.000000
    4        2.662074   1.000000
    5        6.431347   0.000000
    6        7.855621   0.000000
    7       12.214703   0.000000
    8       13.159479   0.000000
 
 -0.3750000E+00  0.3750000E+00  0.4166667E-01  0.6944444E-02
    1       -2.874585   1.000000
    2       -1.817312   1.000000
    3        1.218083   1.000000
    4        2.826154   1.000000
    5        6.625036   0.000000
    6        9.282552   0.000000
    7       11.904013   0.000000
    8       12.660913   0.000000
 
 -0.2916667E+00  0.3750000E+00  0.4166667E-01  0.6944444E-02
    1       -3.275730   1.000000
    2       -1.426784   1.000000
    3        1.120756   1.000000
    4        3.120295   1.000000
    5        6.955553   0.000000
    6       10.801200   0.000000
    7       11.138263   0.000000
    8       11.836280   0.000000
 
 -0.2083333E+00  0.3750000E+00  0.4166667E-01  0.6944444E-02
    1       -3.827234   1.000000
    2       -1.045569   1.000000
    3        1.605271   1.000000
    4        3.505433   1.000000
    5        7.377623   0.000000
    6        9.623624   0.000000
    7       10.628447   0.000000
    8       11.936260   0.000000
 
 -0.1250000E+00  0.3750000E+00  0.4166667E-01  0.6944444E-02
    1       -4.316077   1.000000
    2       -0.792518   1.000000
    3        2.556830   1.000000
    4        3.893716   1.000000
    5        7.601762   0.000000
    6        8.658231   0.000000
    7        9.503427   0.000000
    8       12.018484   0.000000
 
 -0.4166667E-01  0.3750000E+00  0.4166667E-01  0.6944444E-02
    1       -4.689873   1.000000
    2       -0.517224   1.000000
    3        3.646333   1.000000
    4        4.105617   1.000000
    5        7.059289   0.000000
    6        8.506508   0.000000
    7        8.926923   0.000000
    8       12.252779   0.000000
 
  0.4583333E+00  0.4583333E+00  0.4166667E-01  0.3472222E-02
    1       -3.286779   1.000000
    2       -1.476293   1.000000
    3        2.478015   1.000000
    4        2.576501   1.000000
    5        5.955560   0.000000
    6        6.414497   0.000000
    7       13.885982   0.000000
    8       13.886604   0.000000
 
 -0.4583333E+00  0.4583333E+00  0.4166667E-01  0.6944444E-02
    1       -2.697545   1.000000
    2       -2.101062   1.000000
    3        2.205028   1.000000
    4        2.469595   1.000000
    5        6.210317   0.000000
    6        6.576805   0.000000
    7       13.846591   0.000000
    8       14.311983   0.000000
 
 -0.3750000E+00  0.4583333E+00  0.4166667E-01  0.6944444E-02
    1       -2.698486   1.000000
    2       -2.033751   1.000000
    3        1.629541   1.000000
    4        2.605641   1.000000
    5        6.374705   0.000000
    6        7.769378   0.000000
    7       12.885193   0.000000
    8       13.528965   0.000000
 
 -0.2916667E+00  0.4583333E+00  0.4166667E-01  0.6944444E-02
    1       -3.177177   1.000000
    2       -1.544362   1.000000
    3        1.370710   1.000000
    4        2.878883   1.000000
    5        6.689336   0.000000
    6        9.352056   0.000000
    7       11.275002   0.000000
    8       12.273546   0.000000
 
 -0.2083333E+00  0.4583333E+00  0.4166667E-01  0.6944444E-02
    1       -3.586158   1.000000
    2       -1.373714   1.000000
    3        1.738781   1.000000
    4        3.258934   1.000000
    5        7.124088   0.000000
    6        9.772397   0.000000
    7       10.789557   0.000000
    8       11.172377   0.000000
 
 -0.1250000E+00  0.4583333E+00  0.4166667E-01  0.6944444E-02
    1       -3.926399   1.000000
    2       -1.383813   1.000000
    3        2.598508   1.000000
    4        3.674047   1.000000
    5        7.443830   0.000000
    6        8.644742   0.000000
    7        9.552924   0.000000
    8       12.958365   0.000000
 
 -0.4166667E-01  0.4583333E+00  0.4166667E-01  0.6944444E-02
    1       -4.192118   1.000000
    2       -1.335738   1.000000
    3        3.580144   1.000000
    4        3.963208   1.000000
    5        6.950495   0.000000
    6        8.476549   0.000000
    7        8.808204   0.000000
    8       12.959277   0.000000
 
 -0.4583333E+00 -0.4583333E+00  0.4166667E-01  0.3472222E-02
    1       -2.717692   1.000000
    2       -2.112090   1.000000
    3        2.423051   1.000000
    4        2.524540   1.000000
    5        6.010963   0.000000
    6        6.204400   0.000000
    7       14.499201   0.000000
    8       14.531543   0.000000
 
 -0.3750000E+00 -0.4583333E+00  0.4166667E-01  0.6944444E-02
    1       -3.255888   1.000000
    2       -1.484166   1.000000
    3        2.263543   1.000000
    4        2.528749   1.000000
    5        6.204521   0.000000
    6        6.732847   0.000000
    7       13.156647   0.000000
    8       13.874066   0.000000
 
 -0.2916667E+00 -0.4583333E+00  0.4166667E-01  0.6944444E-02
    1       -3.676768   1.000000
    2       -0.971822   1.000000
    3        1.907060   1.000000
    4        2.775692   1.000000
    5        6.542423   0.000000
    6        8.028816   0.000000
    7       11.536002   0.000000
    8       12.469994   0.000000
 
 -0.2083333E+00 -0.4583333E+00  0.4166667E-01  0.6944444E-02
    1       -3.969231   1.000000
    2       -0.851214   1.000000
    3        2.061226   1.000000
    4        3.145108   1.000000
    5        6.992247   0.000000
    6        9.703456   0.000000
    7        9.990401   0.000000
    8       10.974003   0.000000
 
 -0.1250000E+00 -0.4583333E+00  0.4166667E-01  0.6944444E-02
    1       -4.136578   1.000000
    2       -1.076931   1.000000
    3        2.758600   1.000000
    4        3.583828   1.000000
    5        7.382645   0.000000
    6        8.713936   0.000000
    7        9.682372   0.000000
    8       11.581270   0.000000
 
 -0.3750000E+00 -0.3750000E+00  0.4166667E-01  0.3472222E-02
    1       -3.815701   1.000000
    2       -0.815269   1.000000
    3        2.587668   1.000000
    4        2.679982   1.000000
    5        5.960716   0.000000
    6        6.716670   0.000000
    7       13.147734   0.000000
    8       13.172163   0.000000
 
 -0.2916667E+00 -0.3750000E+00  0.4166667E-01  0.6944444E-02
    1       -4.256951   1.000000
    2       -0.200387   1.000000
    3        2.551041   1.000000
    4        2.827767   1.000000
    5        6.322589   0.000000
    6        7.357274   0.000000
    7       11.761098   0.000000
    8       12.417334   0.000000
 
 -0.2083333E+00 -0.3750000E+00  0.4166667E-01  0.6944444E-02
    1       -4.553743   1.000000
    2        0.082729   1.000000
    3        2.522152   1.000000
    4        3.184950   1.000000
    5        6.905434   0.000000
    6        8.627410   0.000000
    7       10.238186   0.000000
    8       11.116021   0.000000
 
 -0.1250000E+00 -0.3750000E+00  0.4166667E-01  0.6944444E-02
    1       -4.697928   1.000000
    2       -0.125691   1.000000
    3        3.002334   1.000000
    4        3.650801   1.000000
    5        7.403889   0.000000
    6        8.836935   0.000000
    7        9.839838   0.000000
    8       10.382849   0.000000
 
 -0.2916667E+00 -0.2916667E+00  0.4166667E-01  0.3472222E-02
    1       -4.738058   1.000000
    2        0.556772   1.000000
    3        2.968240   1.000000
    4        3.037151   1.000000
    5        6.164168   0.000000
    6        7.563191   0.000000
    7       11.669921   0.000000
    8       11.736698   0.000000
 
 -0.2083333E+00 -0.2916667E+00  0.4166667E-01  0.6944444E-02
    1       -5.075240   1.000000
    2        1.090485   1.000000
    3        3.044090   1.000000
    4        3.375557   1.000000
    5        6.655431   0.000000
    6        8.287281   0.000000
    7       10.442423   0.000000
    8       10.971725   0.000000
 
 -0.1250000E+00 -0.2916667E+00  0.4166667E-01  0.6944444E-02
    1       -5.253260   1.000000
    2        1.079801   1.000000
    3        3.306251   1.000000
    4        3.870937   1.000000
    5        7.379939   0.000000
    6        8.834647   0.000000
    7        9.724922   0.000000
    8        9.935315   0.000000
 
 -0.2083333E+00 -0.2083333E+00  0.4166667E-01  0.3472222E-02
    1       -5.461565   1.000000
    2        1.951131   1.000000
    3        3.553519   1.000000
    4        3.579247   1.000000
    5        6.587380   0.000000
    6        8.624988   0.000000
    7       10.271865   0.000000
    8       10.355409   0.000000
 
 -0.1250000E+00 -0.2083333E+00  0.4166667E-01  0.6944444E-02
    1       -5.689235   1.000000
    2        2.331045   1.000000
    3        3.699316   1.000000
    4        4.145782   1.000000
    5        7.154765   0.000000
    6        8.819500   0.000000
    7        9.614592   0.000000
    8        9.732115   0.000000
 
 -0.1250000E+00 -0.1250000E+00  0.4166667E-01  0.3472222E-02
    1       -5.970911   1.000000
    2        3.304876   1.000000
    3        4.262523   1.000000
    4        4.306863   1.000000
    5        7.144629   0.000000
    6        8.774836   0.000000
    7        9.077041   0.000000
    8        9.453543   0.000000
 
  0.1250000E+00  0.1250000E+00  0.1250000E+00  0.1157407E-02
    1       -6.142740   1.000000
    2        3.604072   1.000000
    3        4.918616   1.000000
    4        4.918618   1.000000
    5        7.484258   0.000000
    6        8.124373   0.000000
    7        8.124379   0.000000
    8        9.366597   0.000000
 
  0.2083333E+00  0.1250000E+00  0.1250000E+00  0.3472222E-02
    1       -5.972704   1.000000
    2        2.980106   1.000000
    3        4.104309   1.000000
    4        4.980853   1.000000
    5        7.818869   0.000000
    6        8.117702   0.000000
    7        8.350205   0.000000
    8       10.058241   0.000000
 
  0.2916667E+00  0.1250000E+00  0.1250000E+00  0.3472222E-02
    1       -5.638342   1.000000
    2        1.951061   1.000000
    3        3.365538   1.000000
    4        4.776023   1.000000
    5        7.942164   0.000000
    6        8.457308   0.000000
    7        8.711765   0.000000
    8       10.583829   0.000000
 
  0.3750000E+00  0.1250000E+00  0.1250000E+00  0.3472222E-02
    1       -5.157449   1.000000
    2        0.685394   1.000000
    3        3.008001   1.000000
    4        4.450496   1.000000
    5        7.700730   0.000000
    6        8.812057   0.000000
    7        8.979743   0.000000
    8       11.210728   0.000000
 
  0.4583333E+00  0.1250000E+00  0.1250000E+00  0.3472222E-02
    1       -4.580632   1.000000
    2       -0.482470   1.000000
    3        2.860629   1.000000
    4        4.128277   1.000000
    5        7.474453   0.000000
    6        8.856764   0.000000
    7        8.984923   0.000000
    8       12.272567   0.000000
 
 -0.4583333E+00  0.1250000E+00  0.1250000E+00  0.3472222E-02
    1       -4.079684   1.000000
    2       -1.292481   1.000000
    3        2.867919   1.000000
    4        3.872300   1.000000
    5        7.323490   0.000000
    6        8.695268   0.000000
    7        9.098745   0.000000
    8       13.188672   0.000000
 
 -0.3750000E+00  0.1250000E+00  0.1250000E+00  0.3472222E-02
    1       -4.076711   1.000000
    2       -1.297939   1.000000
    3        3.008570   1.000000
    4        3.714561   1.000000
    5        7.271165   0.000000
    6        8.629054   0.000000
    7        9.264938   0.000000
    8       12.354740   0.000000
 
 -0.2916667E+00  0.1250000E+00  0.1250000E+00  0.3472222E-02
    1       -4.575680   1.000000
    2       -0.493269   1.000000
    3        3.264561   1.000000
    4        3.672523   1.000000
    5        7.317280   0.000000
    6        8.657052   0.000000
    7        9.481692   0.000000
    8       11.093517   0.000000
 
 -0.2083333E+00  0.1250000E+00  0.1250000E+00  0.3472222E-02
    1       -5.153200   1.000000
    2        0.681883   1.000000
    3        3.610879   1.000000
    4        3.753925   1.000000
    5        7.399479   0.000000
    6        8.674276   0.000000
    7        9.639940   0.000000
    8       10.187204   0.000000
 
 -0.1250000E+00  0.1250000E+00  0.1250000E+00  0.3472222E-02
    1       -5.635306   1.000000
    2        2.008170   1.000000
    3        3.956545   1.000000
    4        3.996309   1.000000
    5        7.321625   0.000000
    6        8.626307   0.000000
    7        9.529348   0.000000
    8        9.890083   0.000000
 
  0.2083333E+00  0.2083333E+00  0.1250000E+00  0.3472222E-02
    1       -5.859897   1.000000
    2        2.550028   1.000000
    3        4.292244   1.000000
    4        4.460620   1.000000
    5        7.534801   0.000000
    6        8.174266   0.000000
    7        8.998461   0.000000
    8       10.139555   0.000000
 
  0.2916667E+00  0.2083333E+00  0.1250000E+00  0.6944444E-02
    1       -5.580701   1.000000
    2        1.908457   1.000000
    3        3.369316   1.000000
    4        4.399611   1.000000
    5        7.650104   0.000000
    6        8.473827   0.000000
    7        9.463571   0.000000
    8        9.968959   0.000000
 
  0.3750000E+00  0.2083333E+00  0.1250000E+00  0.6944444E-02
    1       -5.147564   1.000000
    2        0.968253   1.000000
    3        2.669712   1.000000
    4        4.144438   1.000000
    5        8.028806   0.000000
    6        8.481318   0.000000
    7        9.821521   0.000000
    8       10.024505   0.000000
 
  0.4583333E+00  0.2083333E+00  0.1250000E+00  0.6944444E-02
    1       -4.594375   1.000000
    2       -0.126428   1.000000
    3        2.350953   1.000000
    4        3.815296   1.000000
    5        8.033603   0.000000
    6        8.482850   0.000000
    7       10.097122   0.000000
    8       10.558202   0.000000
 
 -0.4583333E+00  0.2083333E+00  0.1250000E+00  0.6944444E-02
    1       -4.030778   1.000000
    2       -1.049685   1.000000
    3        2.249627   1.000000
    4        3.549369   1.000000
    5        7.862279   0.000000
    6        8.445528   0.000000
    7       10.169572   0.000000
    8       11.715985   0.000000
 
 -0.3750000E+00  0.2083333E+00  0.1250000E+00  0.6944444E-02
    1       -3.811787   1.000000
    2       -1.364705   1.000000
    3        2.284189   1.000000
    4        3.419832   1.000000
    5        7.712778   0.000000
    6        8.513800   0.000000
    7       10.200528   0.000000
    8       12.237500   0.000000
 
 -0.2916667E+00  0.2083333E+00  0.1250000E+00  0.6944444E-02
    1       -4.199801   1.000000
    2       -0.792931   1.000000
    3        2.415331   1.000000
    4        3.464565   1.000000
    5        7.641735   0.000000
    6        8.698980   0.000000
    7       10.256687   0.000000
    8       10.839688   0.000000
 
 -0.2083333E+00  0.2083333E+00  0.1250000E+00  0.6944444E-02
    1       -4.782841   1.000000
    2        0.231190   1.000000
    3        2.643437   1.000000
    4        3.673078   1.000000
    5        7.606573   0.000000
    6        8.901341   0.000000
    7        9.715795   0.000000
    8       10.377980   0.000000
 
 -0.1250000E+00  0.2083333E+00  0.1250000E+00  0.6944444E-02
    1       -5.303722   1.000000
    2        1.365919   1.000000
    3        3.029963   1.000000
    4        3.961289   1.000000
    5        7.402703   0.000000
    6        8.834805   0.000000
    7        9.560071   0.000000
    8       10.159468   0.000000
 