<?xml version="1.0" encoding="ISO-8859-1"?>
<modeling>
 <generator>
  <i name="program" type="string">vasp </i>
  <i name="version" type="string">6.2.0  </i>
  <i name="subversion" type="string">18Jan21 (build Aug 12 2022 13:00:08) complex                          parallel </i>
  <i name="platform" type="string">LinuxIFC </i>
  <i name="date" type="string">2024 11 05 </i>
  <i name="time" type="string">06:00:36 </i>
 </generator>
 <incar>
  <i type="int" name="ISTART">     0</i>
  <i type="string" name="PREC">Accurate      (Accurate strictly avoids</i>
  <i type="logical" name="ADDGRID"> T  </i>
  <i type="int" name="ISPIN">     1</i>
  <i type="int" name="NELM">    90</i>
  <i type="int" name="NELMIN">     6</i>
  <i type="int" name="IBRION">     2</i>
  <i name="EDIFF">      0.00000100</i>
  <i name="EDIFFG">     -0.00200000</i>
  <i type="int" name="NSW">   100</i>
  <i type="int" name="ISIF">     2</i>
  <i type="int" name="ISYM">     2</i>
  <i name="ENCUT">    350.00000000</i>
  <i type="logical" name="LREAL"> F  </i>
  <i type="int" name="ISMEAR">     0</i>
  <i name="SIGMA">      0.05000000</i>
  <i type="logical" name="LWAVE"> F  </i>
  <i type="logical" name="LCHARG"> F  </i>
  <i type="logical" name="LASPH"> T  </i>
 </incar>
 <primitive_cell>
  <structure name="primitive_cell" >
   <crystal>
    <varray name="basis" >
     <v>       3.39835539       0.00000000       1.96204112 </v>
     <v>       1.13278513       3.20400146       1.96204112 </v>
     <v>       0.00000000       0.00000000       3.92408225 </v>
    </varray>
    <i name="volume">     42.72672454 </i>
    <varray name="rec_basis" >
     <v>       0.29425998      -0.10403657       0.00000000 </v>
     <v>       0.00000000       0.31210972       0.00000000 </v>
     <v>      -0.14712999      -0.10403657       0.25483666 </v>
    </varray>
   </crystal>
   <varray name="positions" >
    <v>       0.87500000       0.87500000       0.87500000 </v>
    <v>       0.12500000       0.12500000       0.12500000 </v>
   </varray>
  </structure>
  <varray name="primitive_index" >
   <v type="int" >        1 </v>
   <v type="int" >        2 </v>
  </varray>
 </primitive_cell>
 <kpoints>
  <generation param="Monkhorst-Pack">
   <v type="int" name="divisions">      12       12       12 </v>
   <v name="usershift">      0.00000000       0.00000000       0.00000000 </v>
   <v name="genvec1">      0.08333333      -0.00000000       0.00000000 </v>
   <v name="genvec2">      0.00000000       0.08333333       0.00000000 </v>
   <v name="genvec3">      0.00000000      -0.00000000       0.08333333 </v>
   <v name="shift">      0.50000000       0.50000000       0.50000000 </v>
  </generation>
  <varray name="kpointlist" >
   <v>       0.04166667       0.04166667       0.04166667 </v>
   <v>       0.12500000       0.04166667       0.04166667 </v>
   <v>       0.20833333       0.04166667       0.04166667 </v>
   <v>       0.29166667       0.04166667       0.04166667 </v>
   <v>       0.37500000       0.04166667       0.04166667 </v>
   <v>       0.45833333       0.04166667       0.04166667 </v>
   <v>      -0.45833333       0.04166667       0.04166667 </v>
   <v>      -0.37500000       0.04166667       0.04166667 </v>
   <v>      -0.29166667       0.04166667       0.04166667 </v>
   <v>      -0.20833333       0.04166667       0.04166667 </v>
   <v>      -0.12500000       0.04166667       0.04166667 </v>
   <v>      -0.04166667       0.04166667       0.04166667 </v>
   <v>       0.12500000       0.12500000       0.04166667 </v>
   <v>       0.20833333       0.12500000       0.04166667 </v>
   <v>       0.29166667       0.12500000       0.04166667 </v>
   <v>       0.37500000       0.12500000       0.04166667 </v>
   <v>       0.45833333       0.12500000       0.04166667 </v>
   <v>      -0.45833333       0.12500000       0.04166667 </v>
   <v>      -0.37500000       0.12500000       0.04166667 </v>
   <v>      -0.29166667       0.12500000       0.04166667 </v>
   <v>      -0.20833333       0.12500000       0.04166667 </v>
   <v>      -0.12500000       0.12500000       0.04166667 </v>
   <v>      -0.04166667       0.12500000       0.04166667 </v>
   <v>       0.20833333       0.20833333       0.04166667 </v>
   <v>       0.29166667       0.20833333       0.04166667 </v>
   <v>       0.37500000       0.20833333       0.04166667 </v>
   <v>       0.45833333       0.20833333       0.04166667 </v>
   <v>      -0.45833333       0.20833333       0.04166667 </v>
   <v>      -0.37500000       0.20833333       0.04166667 </v>
   <v>      -0.29166667       0.20833333       0.04166667 </v>
   <v>      -0.20833333       0.20833333       0.04166667 </v>
   <v>      -0.12500000       0.20833333       0.04166667 </v>
   <v>      -0.04166667       0.20833333       0.04166667 </v>
   <v>       0.29166667       0.29166667       0.04166667 </v>
   <v>       0.37500000       0.29166667       0.04166667 </v>
   <v>       0.45833333       0.29166667       0.04166667 </v>
   <v>      -0.45833333       0.29166667       0.04166667 </v>
   <v>      -0.37500000       0.29166667       0.04166667 </v>
   <v>      -0.29166667       0.29166667       0.04166667 </v>
   <v>      -0.20833333       0.29166667       0.04166667 </v>
   <v>      -0.12500000       0.29166667       0.04166667 </v>
   <v>      -0.04166667       0.29166667       0.04166667 </v>
   <v>       0.37500000       0.37500000       0.04166667 </v>
   <v>       0.45833333       0.37500000       0.04166667 </v>
   <v>      -0.45833333       0.37500000       0.04166667 </v>
   <v>      -0.37500000       0.37500000       0.04166667 </v>
   <v>      -0.29166667       0.37500000       0.04166667 </v>
   <v>      -0.20833333       0.37500000       0.04166667 </v>
   <v>      -0.12500000       0.37500000       0.04166667 </v>
   <v>      -0.04166667       0.37500000       0.04166667 </v>
   <v>       0.45833333       0.45833333       0.04166667 </v>
   <v>      -0.45833333       0.45833333       0.04166667 </v>
   <v>      -0.37500000       0.45833333       0.04166667 </v>
   <v>      -0.29166667       0.45833333       0.04166667 </v>
   <v>      -0.20833333       0.45833333       0.04166667 </v>
   <v>      -0.12500000       0.45833333       0.04166667 </v>
   <v>      -0.04166667       0.45833333       0.04166667 </v>
   <v>      -0.45833333      -0.45833333       0.04166667 </v>
   <v>      -0.37500000      -0.45833333       0.04166667 </v>
   <v>      -0.29166667      -0.45833333       0.04166667 </v>
   <v>      -0.20833333      -0.45833333       0.04166667 </v>
   <v>      -0.12500000      -0.45833333       0.04166667 </v>
   <v>      -0.37500000      -0.37500000       0.04166667 </v>
   <v>      -0.29166667      -0.37500000       0.04166667 </v>
   <v>      -0.20833333      -0.37500000       0.04166667 </v>
   <v>      -0.12500000      -0.37500000       0.04166667 </v>
   <v>      -0.29166667      -0.29166667       0.04166667 </v>
   <v>      -0.20833333      -0.29166667       0.04166667 </v>
   <v>      -0.12500000      -0.29166667       0.04166667 </v>
   <v>      -0.20833333      -0.20833333       0.04166667 </v>
   <v>      -0.12500000      -0.20833333       0.04166667 </v>
   <v>      -0.12500000      -0.12500000       0.04166667 </v>
   <v>       0.12500000       0.12500000       0.12500000 </v>
   <v>       0.20833333       0.12500000       0.12500000 </v>
   <v>       0.29166667       0.12500000       0.12500000 </v>
   <v>       0.37500000       0.12500000       0.12500000 </v>
   <v>       0.45833333       0.12500000       0.12500000 </v>
   <v>      -0.45833333       0.12500000       0.12500000 </v>
   <v>      -0.37500000       0.12500000       0.12500000 </v>
   <v>      -0.29166667       0.12500000       0.12500000 </v>
   <v>      -0.20833333       0.12500000       0.12500000 </v>
   <v>      -0.12500000       0.12500000       0.12500000 </v>
   <v>       0.20833333       0.20833333       0.12500000 </v>
   <v>       0.29166667       0.20833333       0.12500000 </v>
   <v>       0.37500000       0.20833333       0.12500000 </v>
   <v>       0.45833333       0.20833333       0.12500000 </v>
   <v>      -0.45833333       0.20833333       0.12500000 </v>
   <v>      -0.37500000       0.20833333       0.12500000 </v>
   <v>      -0.29166667       0.20833333       0.12500000 </v>
   <v>      -0.20833333       0.20833333       0.12500000 </v>
   <v>      -0.12500000       0.20833333       0.12500000 </v>
   <v>       0.29166667       0.29166667       0.12500000 </v>
   <v>       0.37500000       0.29166667       0.12500000 </v>
   <v>       0.45833333       0.29166667       0.12500000 </v>
   <v>      -0.45833333       0.29166667       0.12500000 </v>
   <v>      -0.37500000       0.29166667       0.12500000 </v>
   <v>      -0.29166667       0.29166667       0.12500000 </v>
   <v>      -0.20833333       0.29166667       0.12500000 </v>
   <v>      -0.12500000       0.29166667       0.12500000 </v>
   <v>       0.37500000       0.37500000       0.12500000 </v>
   <v>       0.45833333       0.37500000       0.12500000 </v>
   <v>      -0.45833333       0.37500000       0.12500000 </v>
   <v>      -0.37500000       0.37500000       0.12500000 </v>
   <v>      -0.29166667       0.37500000       0.12500000 </v>
   <v>      -0.20833333       0.37500000       0.12500000 </v>
   <v>      -0.12500000       0.37500000       0.12500000 </v>
   <v>       0.45833333       0.45833333       0.12500000 </v>
   <v>      -0.45833333       0.45833333       0.12500000 </v>
   <v>      -0.37500000       0.45833333       0.12500000 </v>
   <v>      -0.29166667       0.45833333       0.12500000 </v>
   <v>      -0.20833333       0.45833333       0.12500000 </v>
   <v>      -0.12500000       0.45833333       0.12500000 </v>
   <v>      -0.45833333      -0.45833333       0.12500000 </v>
   <v>      -0.37500000      -0.45833333       0.12500000 </v>
   <v>      -0.29166667      -0.45833333       0.12500000 </v>
   <v>      -0.20833333      -0.45833333       0.12500000 </v>
   <v>      -0.37500000      -0.37500000       0.12500000 </v>
   <v>      -0.29166667      -0.37500000       0.12500000 </v>
   <v>      -0.20833333      -0.37500000       0.12500000 </v>
   <v>      -0.29166667      -0.29166667       0.12500000 </v>
   <v>      -0.20833333      -0.29166667       0.12500000 </v>
   <v>      -0.20833333      -0.20833333       0.12500000 </v>
   <v>       0.20833333       0.20833333       0.20833333 </v>
   <v>       0.29166667       0.20833333       0.20833333 </v>
   <v>       0.37500000       0.20833333       0.20833333 </v>
   <v>       0.45833333       0.20833333       0.20833333 </v>
   <v>      -0.45833333       0.20833333       0.20833333 </v>
   <v>      -0.37500000       0.20833333       0.20833333 </v>
   <v>      -0.29166667       0.20833333       0.20833333 </v>
   <v>      -0.20833333       0.20833333       0.20833333 </v>
   <v>       0.29166667       0.29166667       0.20833333 </v>
   <v>       0.37500000       0.29166667       0.20833333 </v>
   <v>       0.45833333       0.29166667       0.20833333 </v>
   <v>      -0.45833333       0.29166667       0.20833333 </v>
   <v>      -0.37500000       0.29166667       0.20833333 </v>
   <v>      -0.29166667       0.29166667       0.20833333 </v>
   <v>      -0.20833333       0.29166667       0.20833333 </v>
   <v>       0.37500000       0.37500000       0.20833333 </v>
   <v>       0.45833333       0.37500000       0.20833333 </v>
   <v>      -0.45833333       0.37500000       0.20833333 </v>
   <v>      -0.37500000       0.37500000       0.20833333 </v>
   <v>      -0.29166667       0.37500000       0.20833333 </v>
   <v>      -0.20833333       0.37500000       0.20833333 </v>
   <v>       0.45833333       0.45833333       0.20833333 </v>
   <v>      -0.45833333       0.45833333       0.20833333 </v>
   <v>      -0.37500000       0.45833333       0.20833333 </v>
   <v>      -0.29166667       0.45833333       0.20833333 </v>
   <v>      -0.20833333       0.45833333       0.20833333 </v>
   <v>      -0.45833333      -0.45833333       0.20833333 </v>
   <v>      -0.37500000      -0.45833333       0.20833333 </v>
   <v>      -0.29166667      -0.45833333       0.20833333 </v>
   <v>      -0.37500000      -0.37500000       0.20833333 </v>
   <v>      -0.29166667      -0.37500000       0.20833333 </v>
   <v>      -0.29166667      -0.29166667       0.20833333 </v>
   <v>       0.29166667       0.29166667       0.29166667 </v>
   <v>       0.37500000       0.29166667       0.29166667 </v>
   <v>       0.45833333       0.29166667       0.29166667 </v>
   <v>      -0.45833333       0.29166667       0.29166667 </v>
   <v>      -0.37500000       0.29166667       0.29166667 </v>
   <v>      -0.29166667       0.29166667       0.29166667 </v>
   <v>       0.37500000       0.37500000       0.29166667 </v>
   <v>       0.45833333       0.37500000       0.29166667 </v>
   <v>      -0.45833333       0.37500000       0.29166667 </v>
   <v>      -0.37500000       0.37500000       0.29166667 </v>
   <v>      -0.29166667       0.37500000       0.29166667 </v>
   <v>       0.45833333       0.45833333       0.29166667 </v>
   <v>      -0.45833333       0.45833333       0.29166667 </v>
   <v>      -0.37500000       0.45833333       0.29166667 </v>
   <v>      -0.29166667       0.45833333       0.29166667 </v>
   <v>      -0.45833333      -0.45833333       0.29166667 </v>
   <v>      -0.37500000      -0.45833333       0.29166667 </v>
   <v>      -0.37500000      -0.37500000       0.29166667 </v>
   <v>       0.37500000       0.37500000       0.37500000 </v>
   <v>       0.45833333       0.37500000       0.37500000 </v>
   <v>      -0.45833333       0.37500000       0.37500000 </v>
   <v>      -0.37500000       0.37500000       0.37500000 </v>
   <v>       0.45833333       0.45833333       0.37500000 </v>
   <v>      -0.45833333       0.45833333       0.37500000 </v>
   <v>      -0.37500000       0.45833333       0.37500000 </v>
   <v>      -0.45833333      -0.45833333       0.37500000 </v>
   <v>       0.45833333       0.45833333       0.45833333 </v>
   <v>      -0.45833333       0.45833333       0.45833333 </v>
  </varray>
  <varray name="weights" >
   <v>       0.00115741 </v>
   <v>       0.00347222 </v>
   <v>       0.00347222 </v>
   <v>       0.00347222 </v>
   <v>       0.00347222 </v>
   <v>       0.00347222 </v>
   <v>       0.00347222 </v>
   <v>       0.00347222 </v>
   <v>       0.00347222 </v>
   <v>       0.00347222 </v>
   <v>       0.00347222 </v>
   <v>       0.00347222 </v>
   <v>       0.00347222 </v>
   <v>       0.00694444 </v>
   <v>       0.00694444 </v>
   <v>       0.00694444 </v>
   <v>       0.00694444 </v>
   <v>       0.00694444 </v>
   <v>       0.00694444 </v>
   <v>       0.00694444 </v>
   <v>       0.00694444 </v>
   <v>       0.00694444 </v>
   <v>       0.00694444 </v>
   <v>       0.00347222 </v>
   <v>       0.00694444 </v>
   <v>       0.00694444 </v>
   <v>       0.00694444 </v>
   <v>       0.00694444 </v>
   <v>       0.00694444 </v>
   <v>       0.00694444 </v>
   <v>       0.00694444 </v>
   <v>       0.00694444 </v>
   <v>       0.00694444 </v>
   <v>       0.00347222 </v>
   <v>       0.00694444 </v>
   <v>       0.00694444 </v>
   <v>       0.00694444 </v>
   <v>       0.00694444 </v>
   <v>       0.00694444 </v>
   <v>       0.00694444 </v>
   <v>       0.00694444 </v>
   <v>       0.00694444 </v>
   <v>       0.00347222 </v>
   <v>       0.00694444 </v>
   <v>       0.00694444 </v>
   <v>       0.00694444 </v>
   <v>       0.00694444 </v>
   <v>       0.00694444 </v>
   <v>       0.00694444 </v>
   <v>       0.00694444 </v>
   <v>       0.00347222 </v>
   <v>       0.00694444 </v>
   <v>       0.00694444 </v>
   <v>       0.00694444 </v>
   <v>       0.00694444 </v>
   <v>       0.00694444 </v>
   <v>       0.00694444 </v>
   <v>       0.00347222 </v>
   <v>       0.00694444 </v>
   <v>       0.00694444 </v>
   <v>       0.00694444 </v>
   <v>       0.00694444 </v>
   <v>       0.00347222 </v>
   <v>       0.00694444 </v>
   <v>       0.00694444 </v>
   <v>       0.00694444 </v>
   <v>       0.00347222 </v>
   <v>       0.00694444 </v>
   <v>       0.00694444 </v>
   <v>       0.00347222 </v>
   <v>       0.00694444 </v>
   <v>       0.00347222 </v>
   <v>       0.00115741 </v>
   <v>       0.00347222 </v>
   <v>       0.00347222 </v>
   <v>       0.00347222 </v>
   <v>       0.00347222 </v>
   <v>       0.00347222 </v>
   <v>       0.00347222 </v>
   <v>       0.00347222 </v>
   <v>       0.00347222 </v>
   <v>       0.00347222 </v>
   <v>       0.00347222 </v>
   <v>       0.00694444 </v>
   <v>       0.00694444 </v>
   <v>       0.00694444 </v>
   <v>       0.00694444 </v>
   <v>       0.00694444 </v>
   <v>       0.00694444 </v>
   <v>       0.00694444 </v>
   <v>       0.00694444 </v>
   <v>       0.00347222 </v>
   <v>       0.00694444 </v>
   <v>       0.00694444 </v>
   <v>       0.00694444 </v>
   <v>       0.00694444 </v>
   <v>       0.00694444 </v>
   <v>       0.00694444 </v>
   <v>       0.00694444 </v>
   <v>       0.00347222 </v>
   <v>       0.00694444 </v>
   <v>       0.00694444 </v>
   <v>       0.00694444 </v>
   <v>       0.00694444 </v>
   <v>       0.00694444 </v>
   <v>       0.00694444 </v>
   <v>       0.00347222 </v>
   <v>       0.00694444 </v>
   <v>       0.00694444 </v>
   <v>       0.00694444 </v>
   <v>       0.00694444 </v>
   <v>       0.00694444 </v>
   <v>       0.00347222 </v>
   <v>       0.00694444 </v>
   <v>       0.00694444 </v>
   <v>       0.00694444 </v>
   <v>       0.00347222 </v>
   <v>       0.00694444 </v>
   <v>       0.00694444 </v>
   <v>       0.00347222 </v>
   <v>       0.00694444 </v>
   <v>       0.00347222 </v>
   <v>       0.00115741 </v>
   <v>       0.00347222 </v>
   <v>       0.00347222 </v>
   <v>       0.00347222 </v>
   <v>       0.00347222 </v>
   <v>       0.00347222 </v>
   <v>       0.00347222 </v>
   <v>       0.00347222 </v>
   <v>       0.00347222 </v>
   <v>       0.00694444 </v>
   <v>       0.00694444 </v>
   <v>       0.00694444 </v>
   <v>       0.00694444 </v>
   <v>       0.00694444 </v>
   <v>       0.00694444 </v>
   <v>       0.00347222 </v>
   <v>       0.00694444 </v>
   <v>       0.00694444 </v>
   <v>       0.00694444 </v>
   <v>       0.00694444 </v>
   <v>       0.00694444 </v>
   <v>       0.00347222 </v>
   <v>       0.00694444 </v>
   <v>       0.00694444 </v>
   <v>       0.00694444 </v>
   <v>       0.00694444 </v>
   <v>       0.00347222 </v>
   <v>       0.00694444 </v>
   <v>       0.00694444 </v>
   <v>       0.00347222 </v>
   <v>       0.00694444 </v>
   <v>       0.00347222 </v>
   <v>       0.00115741 </v>
   <v>       0.00347222 </v>
   <v>       0.00347222 </v>
   <v>       0.00347222 </v>
   <v>       0.00347222 </v>
   <v>       0.00347222 </v>
   <v>       0.00347222 </v>
   <v>       0.00694444 </v>
   <v>       0.00694444 </v>
   <v>       0.00694444 </v>
   <v>       0.00694444 </v>
   <v>       0.00347222 </v>
   <v>       0.00694444 </v>
   <v>       0.00694444 </v>
   <v>       0.00694444 </v>
   <v>       0.00347222 </v>
   <v>       0.00694444 </v>
   <v>       0.00347222 </v>
   <v>       0.00115741 </v>
   <v>       0.00347222 </v>
   <v>       0.00347222 </v>
   <v>       0.00347222 </v>
   <v>       0.00347222 </v>
   <v>       0.00694444 </v>
   <v>       0.00694444 </v>
   <v>       0.00347222 </v>
   <v>       0.00115741 </v>
   <v>       0.00347222 </v>
  </varray>
 </kpoints>
 <parameters>
  <separator name="general" >
   <i type="string" name="SYSTEM">unknown system</i>
   <i type="logical" name="LCOMPAT"> F  </i>
  </separator>
  <separator name="electronic" >
   <i type="string" name="PREC">accura</i>
   <i name="ENMAX">    350.00000000</i>
   <i name="ENAUG">    322.06900000</i>
   <i name="EDIFF">      0.00000100</i>
   <i type="int" name="IALGO">    38</i>
   <i type="int" name="IWAVPR">    11</i>
   <i type="int" name="NBANDS">     8</i>
   <i type="int" name="NBANDSLOW">    -1</i>
   <i type="int" name="NBANDSHIGH">    -1</i>
   <i name="NELECT">      8.00000000</i>
   <i type="int" name="TURBO">     0</i>
   <i type="int" name="IRESTART">     0</i>
   <i type="int" name="NREBOOT">     0</i>
   <i type="int" name="NMIN">     0</i>
   <i name="EREF">      0.00000000</i>
   <separator name="electronic smearing" >
    <i type="int" name="ISMEAR">     0</i>
    <i name="SIGMA">      0.05000000</i>
    <i name="KSPACING">      0.50000000</i>
    <i type="logical" name="KGAMMA"> T  </i>
    <i type="logical" name="KBLOWUP"> T  </i>
   </separator>
   <separator name="electronic projectors" >
    <i type="logical" name="LREAL"> F  </i>
    <v name="ROPT">      0.00000000</v>
    <i type="int" name="LMAXPAW">  -100</i>
    <i type="int" name="LMAXMIX">     2</i>
    <i type="logical" name="NLSPLINE"> F  </i>
   </separator>
   <separator name="electronic startup" >
    <i type="int" name="ISTART">     0</i>
    <i type="int" name="ICHARG">     2</i>
    <i type="int" name="INIWAV">     1</i>
   </separator>
   <separator name="electronic spin" >
    <i type="int" name="ISPIN">     1</i>
    <i type="logical" name="LNONCOLLINEAR"> F  </i>
    <v name="MAGMOM">      1.00000000      1.00000000</v>
    <i name="NUPDOWN">     -1.00000000</i>
    <i type="logical" name="LSORBIT"> F  </i>
    <v name="SAXIS">      0.00000000      0.00000000      1.00000000</v>
    <i type="logical" name="LSPIRAL"> F  </i>
    <v name="QSPIRAL">      0.00000000      0.00000000      0.00000000</v>
    <i type="logical" name="LZEROZ"> F  </i>
   </separator>
   <separator name="electronic exchange-correlation" >
    <i type="logical" name="LASPH"> T  </i>
    <i type="logical" name="LMETAGGA"> F  </i>
   </separator>
   <separator name="electronic convergence" >
    <i type="int" name="NELM">    90</i>
    <i type="int" name="NELMDL">    -5</i>
    <i type="int" name="NELMIN">     6</i>
    <i name="ENINI">    350.00000000</i>
    <separator name="electronic convergence detail" >
     <i type="logical" name="LDIAG"> T  </i>
     <i type="logical" name="LSUBROT"> F  </i>
     <i name="WEIMIN">      0.00100000</i>
     <i name="EBREAK">      0.00000003</i>
     <i name="DEPER">      0.30000000</i>
     <i type="int" name="NRMM">     4</i>
     <i name="TIME">      0.40000000</i>
    </separator>
   </separator>
   <separator name="electronic mixer" >
    <i name="AMIX">      0.40000000</i>
    <i name="BMIX">      1.00000000</i>
    <i name="AMIN">      0.10000000</i>
    <i name="AMIX_MAG">      1.60000000</i>
    <i name="BMIX_MAG">      1.00000000</i>
    <separator name="electronic mixer details" >
     <i type="int" name="IMIX">     4</i>
     <i type="logical" name="MIXFIRST"> F  </i>
     <i type="int" name="MAXMIX">   -45</i>
     <i name="WC">    100.00000000</i>
     <i type="int" name="INIMIX">     1</i>
     <i type="int" name="MIXPRE">     1</i>
     <i type="int" name="MREMOVE">     5</i>
    </separator>
   </separator>
   <separator name="electronic dipolcorrection" >
    <i type="logical" name="LDIPOL"> F  </i>
    <i type="logical" name="LMONO"> F  </i>
    <i type="int" name="IDIPOL">     0</i>
    <i name="EPSILON">      1.00000000</i>
    <v name="DIPOL">   -100.00000000   -100.00000000   -100.00000000</v>
    <i name="EFIELD">      0.00000000</i>
   </separator>
  </separator>
  <separator name="grids" >
   <i type="int" name="NGX">    24</i>
   <i type="int" name="NGY">    24</i>
   <i type="int" name="NGZ">    24</i>
   <i type="int" name="NGXF">    48</i>
   <i type="int" name="NGYF">    48</i>
   <i type="int" name="NGZF">    48</i>
   <i type="logical" name="ADDGRID"> T  </i>
  </separator>
  <separator name="ionic" >
   <i type="int" name="NSW">   100</i>
   <i type="int" name="IBRION">     2</i>
   <i type="int" name="MDALGO">     0</i>
   <i type="int" name="ISIF">     2</i>
   <i name="PSTRESS">      0.00000000</i>
   <i name="EDIFFG">     -0.00200000</i>
   <i type="int" name="NFREE">     1</i>
   <i name="POTIM">      0.50000000</i>
   <i name="SMASS">     -3.00000000</i>
   <i name="SCALEE">      1.00000000</i>
  </separator>
  <separator name="ionic md" >
   <i name="TEBEG">      0.00010000</i>
   <i name="TEEND">      0.00010000</i>
   <i type="int" name="NBLOCK">     1</i>
   <i type="int" name="KBLOCK">   100</i>
   <i type="int" name="NPACO">   256</i>
   <i name="APACO">     16.00000000</i>
  </separator>
  <separator name="symmetry" >
   <i type="int" name="ISYM">     2</i>
   <i name="SYMPREC">      0.00001000</i>
  </separator>
  <separator name="dos" >
   <i type="int" name="LORBIT">     0</i>
   <v name="RWIGS">     -1.00000000</v>
   <i type="int" name="NEDOS">   301</i>
   <i name="EMIN">     10.00000000</i>
   <i name="EMAX">    -10.00000000</i>
   <i name="EFERMI">      0.00000000</i>
  </separator>
  <separator name="writing" >
   <i type="int" name="NWRITE">     2</i>
   <i type="logical" name="LWAVE"> F  </i>
   <i type="logical" name="LDOWNSAMPLE"> F  </i>
   <i type="logical" name="LCHARG"> F  </i>
   <i type="logical" name="LPARD"> F  </i>
   <i type="logical" name="LVTOT"> F  </i>
   <i type="logical" name="LVHAR"> F  </i>
   <i type="logical" name="LELF"> F  </i>
   <i type="logical" name="LOPTICS"> F  </i>
   <v name="STM">      0.00000000      0.00000000      0.00000000      0.00000000      0.00000000      0.00000000      0.00000000</v>
  </separator>
  <separator name="performance" >
   <i type="int" name="NPAR">     4</i>
   <i type="int" name="NSIM">     4</i>
   <i type="int" name="NBLK">    -1</i>
   <i type="logical" name="LPLANE"> T  </i>
   <i type="logical" name="LSCALAPACK"> T  </i>
   <i type="logical" name="LSCAAWARE"> F  </i>
   <i type="logical" name="LSCALU"> F  </i>
   <i type="logical" name="LASYNC"> F  </i>
   <i type="logical" name="LORBITALREAL"> F  </i>
  </separator>
  <separator name="miscellaneous" >
   <i type="int" name="IDIOT">     3</i>
   <i type="int" name="PHON_NSTRUCT">    -1</i>
   <i type="logical" name="LMUSIC"> F  </i>
   <v name="POMASS">     28.08500000</v>
   <v name="DARWINR">      0.00000000</v>
   <v name="DARWINV">      1.00000000</v>
   <i type="logical" name="LCORR"> T  </i>
  </separator>
  <i type="logical" name="GGA_COMPAT"> T  </i>
  <i type="logical" name="LBERRY"> F  </i>
  <i type="int" name="ICORELEVEL">     0</i>
  <i type="logical" name="LDAU"> F  </i>
  <i type="int" name="I_CONSTRAINED_M">     0</i>
  <separator name="electronic exchange-correlation" >
   <i type="string" name="GGA">--</i>
   <i type="int" name="VOSKOWN">     0</i>
   <i type="logical" name="LHFCALC"> F  </i>
   <i type="string" name="PRECFOCK"></i>
   <i type="logical" name="LSYMGRAD"> F  </i>
   <i type="logical" name="LHFONE"> F  </i>
   <i type="logical" name="LRHFCALC"> F  </i>
   <i type="logical" name="LTHOMAS"> F  </i>
   <i type="logical" name="LMODELHF"> F  </i>
   <i type="logical" name="LFOCKACE"> F  </i>
   <i name="ENCUT4O">     -1.00000000</i>
   <i type="int" name="EXXOEP">     0</i>
   <i type="int" name="FOURORBIT">     0</i>
   <i name="AEXX">      0.00000000</i>
   <i name="HFALPHA">      0.00000000</i>
   <i name="MCALPHA">      0.00000000</i>
   <i name="ALDAX">      1.00000000</i>
   <i name="AGGAX">      1.00000000</i>
   <i name="ALDAC">      1.00000000</i>
   <i name="AGGAC">      1.00000000</i>
   <i type="int" name="NKREDX">     1</i>
   <i type="int" name="NKREDY">     1</i>
   <i type="int" name="NKREDZ">     1</i>
   <i type="logical" name="SHIFTRED"> F  </i>
   <i type="logical" name="ODDONLY"> F  </i>
   <i type="logical" name="EVENONLY"> F  </i>
   <i type="int" name="LMAXFOCK">     0</i>
   <i type="int" name="NMAXFOCKAE">     0</i>
   <i type="logical" name="LFOCKAEDFT"> F  </i>
   <i name="HFSCREEN">      0.00000000</i>
   <i name="HFSCREENC">      0.00000000</i>
   <i type="int" name="NBANDSGWLOW">     0</i>
  </separator>
  <separator name="vdW DFT" >
   <i type="logical" name="LUSE_VDW"> F  </i>
   <i name="Zab_VDW">     -0.84910000</i>
   <i name="PARAM1">      0.12340000</i>
   <i name="PARAM2">      1.00000000</i>
   <i name="PARAM3">      0.00000000</i>
  </separator>
  <separator name="model GW" >
   <i type="int" name="MODEL_GW">     0</i>
   <i name="MODEL_EPS0">     12.81801736</i>
   <i name="MODEL_ALPHA">      1.00000000</i>
  </separator>
  <separator name="linear response parameters" >
   <i type="logical" name="LEPSILON"> F  </i>
   <i type="logical" name="LRPA"> F  </i>
   <i type="logical" name="LNABLA"> F  </i>
   <i type="logical" name="LVEL"> F  </i>
   <i type="int" name="KINTER">     0</i>
   <i name="CSHIFT">      0.10000000</i>
   <i name="OMEGAMAX">     -1.00000000</i>
   <i name="DEG_THRESHOLD">      0.00200000</i>
   <i name="RTIME">     -0.10000000</i>
   <i name="WPLASMAI">      0.00000000</i>
   <v name="DFIELD">      0.00000000      0.00000000      0.00000000</v>
   <v name="WPLASMA">      0.00000000      0.00000000      0.00000000      0.00000000      0.00000000      0.00000000      0.00000000      0.00000000      0.00000000</v>
  </separator>
  <separator name="orbital magnetization" >
   <i type="logical" name="NUCIND"> F  </i>
   <v name="MAGPOS">      0.00000000      0.00000000      0.00000000</v>
   <i type="logical" name="LNICSALL"> T  </i>
   <i type="logical" name="ORBITALMAG"> F  </i>
   <i type="logical" name="LMAGBLOCH"> F  </i>
   <i type="logical" name="LCHIMAG"> F  </i>
   <i type="logical" name="LGAUGE"> T  </i>
   <i type="int" name="MAGATOM">     0</i>
   <v name="MAGDIPOL">      0.00000000      0.00000000      0.00000000</v>
   <v name="AVECCONST">      0.00000000      0.00000000      0.00000000</v>
  </separator>
  <separator name="response functions" >
   <i type="logical" name="LFINITE_TEMPERATURE"> F  </i>
   <i type="logical" name="LADDER"> F  </i>
   <i type="logical" name="LRPAFORCE"> F  </i>
   <i type="logical" name="LFXC"> F  </i>
   <i type="logical" name="LHARTREE"> T  </i>
   <i type="int" name="IBSE">     0</i>
   <v type="int" name="KPOINT">    -1     0     0     0</v>
   <i type="logical" name="LTCTC"> F  </i>
   <i type="logical" name="LTCTE"> F  </i>
   <i type="logical" name="LTETE"> F  </i>
   <i type="logical" name="LTRIPLET"> F  </i>
   <i type="logical" name="LFXCEPS"> F  </i>
   <i type="logical" name="LFXHEG"> F  </i>
   <i type="int" name="NATURALO">     2</i>
   <i type="logical" name="LHOLEGF"> F  </i>
   <i type="logical" name="L2ORDER"> F  </i>
   <i type="logical" name="LDMP1"> F  </i>
   <i type="logical" name="LMP2LT"> F  </i>
   <i type="logical" name="LSMP2LT"> F  </i>
   <i type="logical" name="LGWLF"> F  </i>
   <i name="ENCUTGW">     -2.00000000</i>
   <i name="ENCUTGWSOFT">     -2.00000000</i>
   <i name="ENCUTLF">     -1.00000000</i>
   <i type="logical" name="LESF_SPLINES"> F  </i>
   <i type="int" name="LMAXMP2">    -1</i>
   <i name="SCISSOR">      0.00000000</i>
   <i type="int" name="NOMEGA">     0</i>
   <i type="int" name="NOMEGAR">     0</i>
   <i type="int" name="NBANDSGW">    -1</i>
   <i type="int" name="NBANDSO">    -1</i>
   <i type="int" name="NBANDSV">    -1</i>
   <i type="int" name="NELM">    90</i>
   <i type="int" name="NELMHF">     1</i>
   <i type="int" name="DIM">     3</i>
   <i type="int" name="IESPILON">     4</i>
   <i type="int" name="ANTIRES">     0</i>
   <i name="OMEGAMAX">    -30.00000000</i>
   <i name="OMEGAMIN">    -30.00000000</i>
   <i name="OMEGATL">   -200.00000000</i>
   <i type="int" name="OMEGAGRID">     0</i>
   <i name="CSHIFT">     -0.10000000</i>
   <i type="logical" name="LSELFENERGY"> F  </i>
   <i type="logical" name="LSPECTRAL"> F  </i>
   <i type="logical" name="LSPECTRALGW"> F  </i>
   <i type="logical" name="LSINGLES"> F  </i>
   <i type="logical" name="LFERMIGW"> F  </i>
   <i type="logical" name="ODDONLYGW"> F  </i>
   <i type="logical" name="EVENONLYGW"> F  </i>
   <i type="int" name="NKREDLFX">     1</i>
   <i type="int" name="NKREDLFY">     1</i>
   <i type="int" name="NKREDLFZ">     1</i>
   <i type="int" name="MAXMEM">  2800</i>
   <i type="int" name="TELESCOPE">     0</i>
   <i type="int" name="NTAUPAR">    -1</i>
   <i type="int" name="NOMEGAPAR">    -1</i>
   <i name="DAMP_NEWTON">      0.80000001</i>
   <i name="LAMBDA">      1.00000000</i>
  </separator>
  <separator name="External order field" >
   <i name="OFIELD_KAPPA">      0.00000000</i>
   <v name="OFIELD_K">      0.00000000      0.00000000      0.00000000</v>
   <i name="OFIELD_Q6_NEAR">      0.00000000</i>
   <i name="OFIELD_Q6_FAR">      0.00000000</i>
   <i name="OFIELD_A">      0.00000000</i>
  </separator>
 </parameters>
 <atominfo>
  <atoms>       2 </atoms>
  <types>       1 </types>
  <array name="atoms" >
   <dimension dim="1">ion</dimension>
   <field type="string">element</field>
   <field type="int">atomtype</field>
   <set>
    <rc><c>Si</c><c>   1</c></rc>
    <rc><c>Si</c><c>   1</c></rc>
   </set>
  </array>
  <array name="atomtypes" >
   <dimension dim="1">type</dimension>
   <field type="int">atomspertype</field>
   <field type="string">element</field>
   <field>mass</field>
   <field>valence</field>
   <field type="string">pseudopotential</field>
   <set>
    <rc><c>   2</c><c>Si</c><c>     28.08500000</c><c>      4.00000000</c><c>  PAW_PBE Si 05Jan2001                  </c></rc>
   </set>
  </array>
 </atominfo>
 <structure name="initialpos" >
  <crystal>
   <varray name="basis" >
    <v>       3.39835539       0.00000000       1.96204112 </v>
    <v>       1.13278513       3.20400146       1.96204112 </v>
    <v>       0.00000000       0.00000000       3.92408225 </v>
   </varray>
   <i name="volume">     42.72672454 </i>
   <varray name="rec_basis" >
    <v>       0.29425998      -0.10403657       0.00000000 </v>
    <v>       0.00000000       0.31210972       0.00000000 </v>
    <v>      -0.14712999      -0.10403657       0.25483666 </v>
   </varray>
  </crystal>
  <varray name="positions" >
   <v>       0.87500000       0.87500000       0.87500000 </v>
   <v>       0.12500000       0.12500000       0.12500000 </v>
  </varray>
 </structure>
 <calculation>
  <scstep>
   <time name="dav">    1.48    1.48</time>
   <time name="total">    1.69    1.69</time>
   <energy>
    <i name="alphaZ">      3.15148247 </i>
    <i name="ewald">   -223.64209780 </i>
    <i name="hartreedc">    -12.00294723 </i>
    <i name="XCdc">    -18.85355092 </i>
    <i name="pawpsdc">    176.24759923 </i>
    <i name="pawaedc">   -141.06103558 </i>
    <i name="eentropy">     -0.00049126 </i>
    <i name="bandstr">     11.85601174 </i>
    <i name="atom">    206.13125414 </i>
    <i name="e_fr_energy">      1.82622478 </i>
    <i name="e_wo_entrp">      1.82671604 </i>
    <i name="e_0_energy">      1.82647041 </i>
   </energy>
  </scstep>
  <scstep>
   <time name="dav">    2.13    2.15</time>
   <time name="total">    2.14    2.15</time>
   <energy>
    <i name="e_fr_energy">    -10.81473772 </i>
    <i name="e_wo_entrp">    -10.81473772 </i>
    <i name="e_0_energy">    -10.81473772 </i>
   </energy>
  </scstep>
  <scstep>
   <time name="dav">    1.85    1.87</time>
   <time name="total">    1.85    1.87</time>
   <energy>
    <i name="e_fr_energy">    -10.97075180 </i>
    <i name="e_wo_entrp">    -10.97075180 </i>
    <i name="e_0_energy">    -10.97075180 </i>
   </energy>
  </scstep>
  <scstep>
   <time name="dav">    2.13    2.14</time>
   <time name="total">    2.13    2.15</time>
   <energy>
    <i name="e_fr_energy">    -10.97137199 </i>
    <i name="e_wo_entrp">    -10.97137199 </i>
    <i name="e_0_energy">    -10.97137199 </i>
   </energy>
  </scstep>
  <scstep>
   <time name="dav">    1.91    1.93</time>
   <time name="total">    2.03    2.05</time>
   <energy>
    <i name="e_fr_energy">    -10.97137296 </i>
    <i name="e_wo_entrp">    -10.97137296 </i>
    <i name="e_0_energy">    -10.97137296 </i>
   </energy>
  </scstep>
  <scstep>
   <time name="dav">    1.70    1.71</time>
   <time name="total">    2.03    2.05</time>
   <energy>
    <i name="e_fr_energy">    -10.87265876 </i>
    <i name="e_wo_entrp">    -10.87265876 </i>
    <i name="e_0_energy">    -10.87265876 </i>
   </energy>
  </scstep>
  <scstep>
   <time name="dav">    1.81    1.81</time>
   <time name="total">    2.13    2.15</time>
   <energy>
    <i name="e_fr_energy">    -10.82539718 </i>
    <i name="e_wo_entrp">    -10.82539718 </i>
    <i name="e_0_energy">    -10.82539718 </i>
   </energy>
  </scstep>
  <scstep>
   <time name="dav">    1.62    1.63</time>
   <time name="total">    1.95    1.97</time>
   <energy>
    <i name="e_fr_energy">    -10.82653770 </i>
    <i name="e_wo_entrp">    -10.82653770 </i>
    <i name="e_0_energy">    -10.82653770 </i>
   </energy>
  </scstep>
  <scstep>
   <time name="dav">    2.05    2.05</time>
   <time name="total">    2.37    2.39</time>
   <energy>
    <i name="e_fr_energy">    -10.82675159 </i>
    <i name="e_wo_entrp">    -10.82675159 </i>
    <i name="e_0_energy">    -10.82675159 </i>
   </energy>
  </scstep>
  <scstep>
   <time name="dav">    1.69    1.69</time>
   <time name="total">    2.02    2.04</time>
   <energy>
    <i name="e_fr_energy">    -10.82677501 </i>
    <i name="e_wo_entrp">    -10.82677501 </i>
    <i name="e_0_energy">    -10.82677501 </i>
   </energy>
  </scstep>
  <scstep>
   <time name="dav">    2.04    2.04</time>
   <time name="total">    2.25    2.27</time>
   <energy>
    <i name="alphaZ">      3.15148247 </i>
    <i name="ewald">   -223.64209780 </i>
    <i name="hartreedc">    -15.69984373 </i>
    <i name="XCdc">    -18.25696219 </i>
    <i name="pawpsdc">    761.28515948 </i>
    <i name="pawaedc">   -726.26861951 </i>
    <i name="eentropy">     -0.00000000 </i>
    <i name="bandstr">      2.47285228 </i>
    <i name="atom">    206.13125414 </i>
    <i name="e_fr_energy">    -10.82677486 </i>
    <i name="e_wo_entrp">    -10.82677486 </i>
    <i name="e_0_energy">    -10.82677486 </i>
   </energy>
  </scstep>
  <structure>
   <crystal>
    <varray name="basis" >
     <v>       3.39835539       0.00000000       1.96204112 </v>
     <v>       1.13278513       3.20400146       1.96204112 </v>
     <v>       0.00000000       0.00000000       3.92408225 </v>
    </varray>
    <i name="volume">     42.72672454 </i>
    <varray name="rec_basis" >
     <v>       0.29425998      -0.10403657       0.00000000 </v>
     <v>       0.00000000       0.31210972       0.00000000 </v>
     <v>      -0.14712999      -0.10403657       0.25483666 </v>
    </varray>
   </crystal>
   <varray name="positions" >
    <v>       0.87500000       0.87500000       0.87500000 </v>
    <v>       0.12500000       0.12500000       0.12500000 </v>
   </varray>
  </structure>
  <varray name="forces" >
   <v>      -0.00000000       0.00000000       0.00000000 </v>
   <v>       0.00000000      -0.00000000      -0.00000000 </v>
  </varray>
  <varray name="stress" >
   <v>     -35.92061339      -0.00000000      -0.00000000 </v>
   <v>      -0.00000000     -35.92064186      -0.00000000 </v>
   <v>      -0.00000000      -0.00000000     -35.92060326 </v>
  </varray>
  <energy>
   <i name="e_fr_energy">    -10.82677486 </i>
   <i name="e_wo_entrp">    -10.82677486 </i>
   <i name="e_0_energy">    -10.82677486 </i>
  </energy>
  <time name="totalsc">   24.84   25.19</time>
  <eigenvalues>
   <array>
    <dimension dim="1">band</dimension>
    <dimension dim="2">kpoint</dimension>
    <dimension dim="3">spin</dimension>
    <field>eigene</field>
    <field>occ</field>
    <set>
     <set comment="spin 1">
      <set comment="kpoint 1">
       <r>   -6.3141    1.0000 </r>
       <r>    4.9253    1.0000 </r>
       <r>    5.1527    1.0000 </r>
       <r>    5.1527    1.0000 </r>
       <r>    7.7185    0.0000 </r>
       <r>    7.7792    0.0000 </r>
       <r>    7.7792    0.0000 </r>
       <r>    8.0631    0.0000 </r>
      </set>
      <set comment="kpoint 2">
       <r>   -6.1996    1.0000 </r>
       <r>    4.0375    1.0000 </r>
       <r>    4.7610    1.0000 </r>
       <r>    5.1004    1.0000 </r>
       <r>    7.7132    0.0000 </r>
       <r>    7.8919    0.0000 </r>
       <r>    8.0427    0.0000 </r>
       <r>    9.0042    0.0000 </r>
      </set>
      <set comment="kpoint 3">
       <r>   -5.9172    1.0000 </r>
       <r>    2.5868    1.0000 </r>
       <r>    4.4084    1.0000 </r>
       <r>    4.8452    1.0000 </r>
       <r>    7.4112    0.0000 </r>
       <r>    8.2642    0.0000 </r>
       <r>    8.5365    0.0000 </r>
       <r>   10.3609    0.0000 </r>
      </set>
      <set comment="kpoint 4">
       <r>   -5.4800    1.0000 </r>
       <r>    1.1399    1.0000 </r>
       <r>    4.1234    1.0000 </r>
       <r>    4.5442    1.0000 </r>
       <r>    7.0983    0.0000 </r>
       <r>    8.5589    0.0000 </r>
       <r>    8.7977    0.0000 </r>
       <r>   11.5896    0.0000 </r>
      </set>
      <set comment="kpoint 5">
       <r>   -4.9241    1.0000 </r>
       <r>   -0.1546    1.0000 </r>
       <r>    3.9355    1.0000 </r>
       <r>    4.2839    1.0000 </r>
       <r>    6.8536    0.0000 </r>
       <r>    8.6249    0.0000 </r>
       <r>    8.7535    0.0000 </r>
       <r>   12.5884    0.0000 </r>
      </set>
      <set comment="kpoint 6">
       <r>   -4.3650    1.0000 </r>
       <r>   -1.1445    1.0000 </r>
       <r>    3.8543    1.0000 </r>
       <r>    4.0991    1.0000 </r>
       <r>    6.7080    0.0000 </r>
       <r>    8.6055    0.0000 </r>
       <r>    8.6090    0.0000 </r>
       <r>   12.9151    0.0000 </r>
      </set>
      <set comment="kpoint 7">
       <r>   -4.1547    1.0000 </r>
       <r>   -1.4635    1.0000 </r>
       <r>    3.8790    1.0000 </r>
       <r>    4.0052    1.0000 </r>
       <r>    6.6725    0.0000 </r>
       <r>    8.5171    0.0000 </r>
       <r>    8.6393    0.0000 </r>
       <r>   12.8995    0.0000 </r>
      </set>
      <set comment="kpoint 8">
       <r>   -4.5367    1.0000 </r>
       <r>   -0.8648    1.0000 </r>
       <r>    4.0035    1.0000 </r>
       <r>    4.0110    1.0000 </r>
       <r>    6.7494    0.0000 </r>
       <r>    8.5149    0.0000 </r>
       <r>    8.7564    0.0000 </r>
       <r>   12.7846    0.0000 </r>
      </set>
      <set comment="kpoint 9">
       <r>   -5.1182    1.0000 </r>
       <r>    0.2525    1.0000 </r>
       <r>    4.1210    1.0000 </r>
       <r>    4.2184    1.0000 </r>
       <r>    6.9329    0.0000 </r>
       <r>    8.5352    0.0000 </r>
       <r>    8.8858    0.0000 </r>
       <r>   11.9816    0.0000 </r>
      </set>
      <set comment="kpoint 10">
       <r>   -5.6413    1.0000 </r>
       <r>    1.6110    1.0000 </r>
       <r>    4.3325    1.0000 </r>
       <r>    4.5047    1.0000 </r>
       <r>    7.2057    0.0000 </r>
       <r>    8.4011    0.0000 </r>
       <r>    8.8502    0.0000 </r>
       <r>   11.0887    0.0000 </r>
      </set>
      <set comment="kpoint 11">
       <r>   -6.0293    1.0000 </r>
       <r>    3.0859    1.0000 </r>
       <r>    4.6263    1.0000 </r>
       <r>    4.8154    1.0000 </r>
       <r>    7.5178    0.0000 </r>
       <r>    8.0424    0.0000 </r>
       <r>    8.5165    0.0000 </r>
       <r>    9.8782    0.0000 </r>
      </set>
      <set comment="kpoint 12">
       <r>   -6.2567    1.0000 </r>
       <r>    4.4952    1.0000 </r>
       <r>    4.9447    1.0000 </r>
       <r>    5.0319    1.0000 </r>
       <r>    7.6440    0.0000 </r>
       <r>    7.8740    0.0000 </r>
       <r>    8.0559    0.0000 </r>
       <r>    8.5165    0.0000 </r>
      </set>
      <set comment="kpoint 13">
       <r>   -6.1421    1.0000 </r>
       <r>    3.9339    1.0000 </r>
       <r>    4.6219    1.0000 </r>
       <r>    4.7036    1.0000 </r>
       <r>    7.4209    0.0000 </r>
       <r>    8.2704    0.0000 </r>
       <r>    8.5153    0.0000 </r>
       <r>    9.0608    0.0000 </r>
      </set>
      <set comment="kpoint 14">
       <r>   -5.9152    1.0000 </r>
       <r>    2.9242    1.0000 </r>
       <r>    4.0660    1.0000 </r>
       <r>    4.5637    1.0000 </r>
       <r>    7.4301    0.0000 </r>
       <r>    8.3896    0.0000 </r>
       <r>    8.9923    0.0000 </r>
       <r>    9.8548    0.0000 </r>
      </set>
      <set comment="kpoint 15">
       <r>   -5.5279    1.0000 </r>
       <r>    1.5751    1.0000 </r>
       <r>    3.6925    1.0000 </r>
       <r>    4.2877    1.0000 </r>
       <r>    7.5702    0.0000 </r>
       <r>    8.3922    0.0000 </r>
       <r>    9.3725    0.0000 </r>
       <r>   10.2336    0.0000 </r>
      </set>
      <set comment="kpoint 16">
       <r>   -5.0054    1.0000 </r>
       <r>    0.2677    1.0000 </r>
       <r>    3.4338    1.0000 </r>
       <r>    4.0037    1.0000 </r>
       <r>    7.4612    0.0000 </r>
       <r>    8.4879    0.0000 </r>
       <r>    9.4010    0.0000 </r>
       <r>   10.8160    0.0000 </r>
      </set>
      <set comment="kpoint 17">
       <r>   -4.4233    1.0000 </r>
       <r>   -0.8270    1.0000 </r>
       <r>    3.2533    1.0000 </r>
       <r>    3.8256    1.0000 </r>
       <r>    7.3273    0.0000 </r>
       <r>    8.4587    0.0000 </r>
       <r>    9.2539    0.0000 </r>
       <r>   11.8841    0.0000 </r>
      </set>
      <set comment="kpoint 18">
       <r>   -4.0395    1.0000 </r>
       <r>   -1.4191    1.0000 </r>
       <r>    3.1337    1.0000 </r>
       <r>    3.8031    1.0000 </r>
       <r>    7.2754    0.0000 </r>
       <r>    8.4392    0.0000 </r>
       <r>    9.1261    0.0000 </r>
       <r>   12.9886    0.0000 </r>
      </set>
      <set comment="kpoint 19">
       <r>   -4.2524    1.0000 </r>
       <r>   -1.1005    1.0000 </r>
       <r>    3.0920    1.0000 </r>
       <r>    3.9286    1.0000 </r>
       <r>    7.3252    0.0000 </r>
       <r>    8.4879    0.0000 </r>
       <r>    9.1009    0.0000 </r>
       <r>   12.6808    0.0000 </r>
      </set>
      <set comment="kpoint 20">
       <r>   -4.8129    1.0000 </r>
       <r>   -0.1259    1.0000 </r>
       <r>    3.1577    1.0000 </r>
       <r>    4.1680    1.0000 </r>
       <r>    7.4719    0.0000 </r>
       <r>    8.5495    0.0000 </r>
       <r>    9.1640    0.0000 </r>
       <r>   11.5619    0.0000 </r>
      </set>
      <set comment="kpoint 21">
       <r>   -5.3681    1.0000 </r>
       <r>    1.1244    1.0000 </r>
       <r>    3.3569    1.0000 </r>
       <r>    4.4760    1.0000 </r>
       <r>    7.6909    0.0000 </r>
       <r>    8.4448    0.0000 </r>
       <r>    9.1628    0.0000 </r>
       <r>   10.7334    0.0000 </r>
      </set>
      <set comment="kpoint 22">
       <r>   -5.8041    1.0000 </r>
       <r>    2.4466    1.0000 </r>
       <r>    3.7347    1.0000 </r>
       <r>    4.7755    1.0000 </r>
       <r>    7.8613    0.0000 </r>
       <r>    8.1350    0.0000 </r>
       <r>    8.8253    0.0000 </r>
       <r>   10.2770    0.0000 </r>
      </set>
      <set comment="kpoint 23">
       <r>   -6.0856    1.0000 </r>
       <r>    3.4968    1.0000 </r>
       <r>    4.4341    1.0000 </r>
       <r>    4.9234    1.0000 </r>
       <r>    7.6746    0.0000 </r>
       <r>    7.9861    0.0000 </r>
       <r>    8.4349    0.0000 </r>
       <r>    9.5484    0.0000 </r>
      </set>
      <set comment="kpoint 24">
       <r>   -5.7437    1.0000 </r>
       <r>    2.6382    1.0000 </r>
       <r>    3.9081    1.0000 </r>
       <r>    3.9141    1.0000 </r>
       <r>    6.8575    0.0000 </r>
       <r>    9.0130    0.0000 </r>
       <r>    9.6974    0.0000 </r>
       <r>    9.6979    0.0000 </r>
      </set>
      <set comment="kpoint 25">
       <r>   -5.4088    1.0000 </r>
       <r>    1.7193    1.0000 </r>
       <r>    3.3550    1.0000 </r>
       <r>    3.7388    1.0000 </r>
       <r>    6.8899    0.0000 </r>
       <r>    8.7597    0.0000 </r>
       <r>    9.8819    0.0000 </r>
       <r>   10.2793    0.0000 </r>
      </set>
      <set comment="kpoint 26">
       <r>   -4.9277    1.0000 </r>
       <r>    0.5855    1.0000 </r>
       <r>    2.9096    1.0000 </r>
       <r>    3.4923    1.0000 </r>
       <r>    7.1382    0.0000 </r>
       <r>    8.9803    0.0000 </r>
       <r>    9.6881    0.0000 </r>
       <r>   10.4957    0.0000 </r>
      </set>
      <set comment="kpoint 27">
       <r>   -4.3499    1.0000 </r>
       <r>   -0.4957    1.0000 </r>
       <r>    2.5264    1.0000 </r>
       <r>    3.3642    1.0000 </r>
       <r>    7.2042    0.0000 </r>
       <r>    9.3826    0.0000 </r>
       <r>    9.9798    0.0000 </r>
       <r>   10.3973    0.0000 </r>
      </set>
      <set comment="kpoint 28">
       <r>   -3.8483    1.0000 </r>
       <r>   -1.2607    1.0000 </r>
       <r>    2.2309    1.0000 </r>
       <r>    3.3973    1.0000 </r>
       <r>    7.2663    0.0000 </r>
       <r>    9.2017    0.0000 </r>
       <r>   10.2014    0.0000 </r>
       <r>   11.3437    0.0000 </r>
      </set>
      <set comment="kpoint 29">
       <r>   -3.8588    1.0000 </r>
       <r>   -1.2427    1.0000 </r>
       <r>    2.0641    1.0000 </r>
       <r>    3.5743    1.0000 </r>
       <r>    7.4342    0.0000 </r>
       <r>    9.0869    0.0000 </r>
       <r>   10.0683    0.0000 </r>
       <r>   12.6468    0.0000 </r>
      </set>
      <set comment="kpoint 30">
       <r>   -4.3670    1.0000 </r>
       <r>   -0.4655    1.0000 </r>
       <r>    2.0674    1.0000 </r>
       <r>    3.8651    1.0000 </r>
       <r>    7.7042    0.0000 </r>
       <r>    9.0231    0.0000 </r>
       <r>    9.9735    0.0000 </r>
       <r>   11.3348    0.0000 </r>
      </set>
      <set comment="kpoint 31">
       <r>   -4.9421    1.0000 </r>
       <r>    0.5619    1.0000 </r>
       <r>    2.3202    1.0000 </r>
       <r>    4.2195    1.0000 </r>
       <r>    8.0072    0.0000 </r>
       <r>    8.7985    0.0000 </r>
       <r>    9.7981    0.0000 </r>
       <r>   10.4371    0.0000 </r>
      </set>
      <set comment="kpoint 32">
       <r>   -5.4190    1.0000 </r>
       <r>    1.4570    1.0000 </r>
       <r>    3.0029    1.0000 </r>
       <r>    4.5392    1.0000 </r>
       <r>    8.0637    0.0000 </r>
       <r>    8.3571    0.0000 </r>
       <r>    9.2717    0.0000 </r>
       <r>   10.3639    0.0000 </r>
      </set>
      <set comment="kpoint 33">
       <r>   -5.7497    1.0000 </r>
       <r>    2.0777    1.0000 </r>
       <r>    4.0645    1.0000 </r>
       <r>    4.6575    1.0000 </r>
       <r>    7.5344    0.0000 </r>
       <r>    8.2306    0.0000 </r>
       <r>    8.8899    0.0000 </r>
       <r>   10.5781    0.0000 </r>
      </set>
      <set comment="kpoint 34">
       <r>   -5.1258    1.0000 </r>
       <r>    1.2546    1.0000 </r>
       <r>    3.2365    1.0000 </r>
       <r>    3.2868    1.0000 </r>
       <r>    6.3522    0.0000 </r>
       <r>    8.0857    0.0000 </r>
       <r>   10.9544    0.0000 </r>
       <r>   11.0372    0.0000 </r>
      </set>
      <set comment="kpoint 35">
       <r>   -4.6905    1.0000 </r>
       <r>    0.4484    1.0000 </r>
       <r>    2.7742    1.0000 </r>
       <r>    3.0704    1.0000 </r>
       <r>    6.4637    0.0000 </r>
       <r>    7.7936    0.0000 </r>
       <r>   11.0875    0.0000 </r>
       <r>   11.6863    0.0000 </r>
      </set>
      <set comment="kpoint 36">
       <r>   -4.1351    1.0000 </r>
       <r>   -0.4361    1.0000 </r>
       <r>    2.1785    1.0000 </r>
       <r>    2.9485    1.0000 </r>
       <r>    6.7028    0.0000 </r>
       <r>    8.2886    0.0000 </r>
       <r>   10.8745    0.0000 </r>
       <r>   11.7777    0.0000 </r>
      </set>
      <set comment="kpoint 37">
       <r>   -3.5691    1.0000 </r>
       <r>   -1.2018    1.0000 </r>
       <r>    1.6616    1.0000 </r>
       <r>    2.9847    1.0000 </r>
       <r>    6.8145    0.0000 </r>
       <r>    9.4919    0.0000 </r>
       <r>   10.6242    0.0000 </r>
       <r>   11.6146    0.0000 </r>
      </set>
      <set comment="kpoint 38">
       <r>   -3.3848    1.0000 </r>
       <r>   -1.4206    1.0000 </r>
       <r>    1.3457    1.0000 </r>
       <r>    3.1666    1.0000 </r>
       <r>    7.0139    0.0000 </r>
       <r>   10.3615    0.0000 </r>
       <r>   11.0649    0.0000 </r>
       <r>   11.4165    0.0000 </r>
      </set>
      <set comment="kpoint 39">
       <r>   -3.8164    1.0000 </r>
       <r>   -0.8898    1.0000 </r>
       <r>    1.3202    1.0000 </r>
       <r>    3.4703    1.0000 </r>
       <r>    7.3394    0.0000 </r>
       <r>   10.1196    0.0000 </r>
       <r>   11.0856    0.0000 </r>
       <r>   11.3792    0.0000 </r>
      </set>
      <set comment="kpoint 40">
       <r>   -4.3949    1.0000 </r>
       <r>   -0.2236    1.0000 </r>
       <r>    1.7419    1.0000 </r>
       <r>    3.8491    1.0000 </r>
       <r>    7.7230    0.0000 </r>
       <r>    9.3989    0.0000 </r>
       <r>   10.4076    0.0000 </r>
       <r>   10.7792    0.0000 </r>
      </set>
      <set comment="kpoint 41">
       <r>   -4.8984    1.0000 </r>
       <r>    0.2680    1.0000 </r>
       <r>    2.6687    1.0000 </r>
       <r>    4.2037    1.0000 </r>
       <r>    7.8285    0.0000 </r>
       <r>    8.6507    0.0000 </r>
       <r>    9.4799    0.0000 </r>
       <r>   10.9200    0.0000 </r>
      </set>
      <set comment="kpoint 42">
       <r>   -5.2672    1.0000 </r>
       <r>    0.6896    1.0000 </r>
       <r>    3.8031    1.0000 </r>
       <r>    4.3540    1.0000 </r>
       <r>    7.2659    0.0000 </r>
       <r>    8.4782    0.0000 </r>
       <r>    9.0322    0.0000 </r>
       <r>   11.3051    0.0000 </r>
      </set>
      <set comment="kpoint 43">
       <r>   -4.3005    1.0000 </r>
       <r>   -0.1354    1.0000 </r>
       <r>    2.7514    1.0000 </r>
       <r>    2.8341    1.0000 </r>
       <r>    6.0316    0.0000 </r>
       <r>    7.1016    0.0000 </r>
       <r>   12.4039    0.0000 </r>
       <r>   12.4500    0.0000 </r>
      </set>
      <set comment="kpoint 44">
       <r>   -3.7775    1.0000 </r>
       <r>   -0.8475    1.0000 </r>
       <r>    2.3796    1.0000 </r>
       <r>    2.6477    1.0000 </r>
       <r>    6.2364    0.0000 </r>
       <r>    6.9999    0.0000 </r>
       <r>   12.4527    0.0000 </r>
       <r>   13.1564    0.0000 </r>
      </set>
      <set comment="kpoint 45">
       <r>   -3.1875    1.0000 </r>
       <r>   -1.5160    1.0000 </r>
       <r>    1.7224    1.0000 </r>
       <r>    2.6621    1.0000 </r>
       <r>    6.4313    0.0000 </r>
       <r>    7.8556    0.0000 </r>
       <r>   12.2147    0.0000 </r>
       <r>   13.1595    0.0000 </r>
      </set>
      <set comment="kpoint 46">
       <r>   -2.8746    1.0000 </r>
       <r>   -1.8173    1.0000 </r>
       <r>    1.2181    1.0000 </r>
       <r>    2.8262    1.0000 </r>
       <r>    6.6250    0.0000 </r>
       <r>    9.2826    0.0000 </r>
       <r>   11.9040    0.0000 </r>
       <r>   12.6609    0.0000 </r>
      </set>
      <set comment="kpoint 47">
       <r>   -3.2757    1.0000 </r>
       <r>   -1.4268    1.0000 </r>
       <r>    1.1208    1.0000 </r>
       <r>    3.1203    1.0000 </r>
       <r>    6.9556    0.0000 </r>
       <r>   10.8012    0.0000 </r>
       <r>   11.1383    0.0000 </r>
       <r>   11.8363    0.0000 </r>
      </set>
      <set comment="kpoint 48">
       <r>   -3.8272    1.0000 </r>
       <r>   -1.0456    1.0000 </r>
       <r>    1.6053    1.0000 </r>
       <r>    3.5054    1.0000 </r>
       <r>    7.3776    0.0000 </r>
       <r>    9.6236    0.0000 </r>
       <r>   10.6284    0.0000 </r>
       <r>   11.9363    0.0000 </r>
      </set>
      <set comment="kpoint 49">
       <r>   -4.3161    1.0000 </r>
       <r>   -0.7925    1.0000 </r>
       <r>    2.5568    1.0000 </r>
       <r>    3.8937    1.0000 </r>
       <r>    7.6018    0.0000 </r>
       <r>    8.6582    0.0000 </r>
       <r>    9.5034    0.0000 </r>
       <r>   12.0185    0.0000 </r>
      </set>
      <set comment="kpoint 50">
       <r>   -4.6899    1.0000 </r>
       <r>   -0.5172    1.0000 </r>
       <r>    3.6463    1.0000 </r>
       <r>    4.1056    1.0000 </r>
       <r>    7.0593    0.0000 </r>
       <r>    8.5065    0.0000 </r>
       <r>    8.9269    0.0000 </r>
       <r>   12.2528    0.0000 </r>
      </set>
      <set comment="kpoint 51">
       <r>   -3.2868    1.0000 </r>
       <r>   -1.4763    1.0000 </r>
       <r>    2.4780    1.0000 </r>
       <r>    2.5765    1.0000 </r>
       <r>    5.9556    0.0000 </r>
       <r>    6.4145    0.0000 </r>
       <r>   13.8860    0.0000 </r>
       <r>   13.8866    0.0000 </r>
      </set>
      <set comment="kpoint 52">
       <r>   -2.6975    1.0000 </r>
       <r>   -2.1011    1.0000 </r>
       <r>    2.2050    1.0000 </r>
       <r>    2.4696    1.0000 </r>
       <r>    6.2103    0.0000 </r>
       <r>    6.5768    0.0000 </r>
       <r>   13.8466    0.0000 </r>
       <r>   14.3120    0.0000 </r>
      </set>
      <set comment="kpoint 53">
       <r>   -2.6985    1.0000 </r>
       <r>   -2.0338    1.0000 </r>
       <r>    1.6295    1.0000 </r>
       <r>    2.6056    1.0000 </r>
       <r>    6.3747    0.0000 </r>
       <r>    7.7694    0.0000 </r>
       <r>   12.8852    0.0000 </r>
       <r>   13.5290    0.0000 </r>
      </set>
      <set comment="kpoint 54">
       <r>   -3.1772    1.0000 </r>
       <r>   -1.5444    1.0000 </r>
       <r>    1.3707    1.0000 </r>
       <r>    2.8789    1.0000 </r>
       <r>    6.6893    0.0000 </r>
       <r>    9.3521    0.0000 </r>
       <r>   11.2750    0.0000 </r>
       <r>   12.2735    0.0000 </r>
      </set>
      <set comment="kpoint 55">
       <r>   -3.5862    1.0000 </r>
       <r>   -1.3737    1.0000 </r>
       <r>    1.7388    1.0000 </r>
       <r>    3.2589    1.0000 </r>
       <r>    7.1241    0.0000 </r>
       <r>    9.7724    0.0000 </r>
       <r>   10.7896    0.0000 </r>
       <r>   11.1724    0.0000 </r>
      </set>
      <set comment="kpoint 56">
       <r>   -3.9264    1.0000 </r>
       <r>   -1.3838    1.0000 </r>
       <r>    2.5985    1.0000 </r>
       <r>    3.6740    1.0000 </r>
       <r>    7.4438    0.0000 </r>
       <r>    8.6447    0.0000 </r>
       <r>    9.5529    0.0000 </r>
       <r>   12.9584    0.0000 </r>
      </set>
      <set comment="kpoint 57">
       <r>   -4.1921    1.0000 </r>
       <r>   -1.3357    1.0000 </r>
       <r>    3.5801    1.0000 </r>
       <r>    3.9632    1.0000 </r>
       <r>    6.9505    0.0000 </r>
       <r>    8.4765    0.0000 </r>
       <r>    8.8082    0.0000 </r>
       <r>   12.9593    0.0000 </r>
      </set>
      <set comment="kpoint 58">
       <r>   -2.7177    1.0000 </r>
       <r>   -2.1121    1.0000 </r>
       <r>    2.4231    1.0000 </r>
       <r>    2.5245    1.0000 </r>
       <r>    6.0110    0.0000 </r>
       <r>    6.2044    0.0000 </r>
       <r>   14.4992    0.0000 </r>
       <r>   14.5315    0.0000 </r>
      </set>
      <set comment="kpoint 59">
       <r>   -3.2559    1.0000 </r>
       <r>   -1.4842    1.0000 </r>
       <r>    2.2635    1.0000 </r>
       <r>    2.5287    1.0000 </r>
       <r>    6.2045    0.0000 </r>
       <r>    6.7328    0.0000 </r>
       <r>   13.1566    0.0000 </r>
       <r>   13.8741    0.0000 </r>
      </set>
      <set comment="kpoint 60">
       <r>   -3.6768    1.0000 </r>
       <r>   -0.9718    1.0000 </r>
       <r>    1.9071    1.0000 </r>
       <r>    2.7757    1.0000 </r>
       <r>    6.5424    0.0000 </r>
       <r>    8.0288    0.0000 </r>
       <r>   11.5360    0.0000 </r>
       <r>   12.4700    0.0000 </r>
      </set>
      <set comment="kpoint 61">
       <r>   -3.9692    1.0000 </r>
       <r>   -0.8512    1.0000 </r>
       <r>    2.0612    1.0000 </r>
       <r>    3.1451    1.0000 </r>
       <r>    6.9922    0.0000 </r>
       <r>    9.7035    0.0000 </r>
       <r>    9.9904    0.0000 </r>
       <r>   10.9740    0.0000 </r>
      </set>
      <set comment="kpoint 62">
       <r>   -4.1366    1.0000 </r>
       <r>   -1.0769    1.0000 </r>
       <r>    2.7586    1.0000 </r>
       <r>    3.5838    1.0000 </r>
       <r>    7.3826    0.0000 </r>
       <r>    8.7139    0.0000 </r>
       <r>    9.6824    0.0000 </r>
       <r>   11.5813    0.0000 </r>
      </set>
      <set comment="kpoint 63">
       <r>   -3.8157    1.0000 </r>
       <r>   -0.8153    1.0000 </r>
       <r>    2.5877    1.0000 </r>
       <r>    2.6800    1.0000 </r>
       <r>    5.9607    0.0000 </r>
       <r>    6.7167    0.0000 </r>
       <r>   13.1477    0.0000 </r>
       <r>   13.1722    0.0000 </r>
      </set>
      <set comment="kpoint 64">
       <r>   -4.2570    1.0000 </r>
       <r>   -0.2004    1.0000 </r>
       <r>    2.5510    1.0000 </r>
       <r>    2.8278    1.0000 </r>
       <r>    6.3226    0.0000 </r>
       <r>    7.3573    0.0000 </r>
       <r>   11.7611    0.0000 </r>
       <r>   12.4173    0.0000 </r>
      </set>
      <set comment="kpoint 65">
       <r>   -4.5537    1.0000 </r>
       <r>    0.0827    1.0000 </r>
       <r>    2.5222    1.0000 </r>
       <r>    3.1849    1.0000 </r>
       <r>    6.9054    0.0000 </r>
       <r>    8.6274    0.0000 </r>
       <r>   10.2382    0.0000 </r>
       <r>   11.1160    0.0000 </r>
      </set>
      <set comment="kpoint 66">
       <r>   -4.6979    1.0000 </r>
       <r>   -0.1257    1.0000 </r>
       <r>    3.0023    1.0000 </r>
       <r>    3.6508    1.0000 </r>
       <r>    7.4039    0.0000 </r>
       <r>    8.8369    0.0000 </r>
       <r>    9.8398    0.0000 </r>
       <r>   10.3828    0.0000 </r>
      </set>
      <set comment="kpoint 67">
       <r>   -4.7381    1.0000 </r>
       <r>    0.5568    1.0000 </r>
       <r>    2.9682    1.0000 </r>
       <r>    3.0372    1.0000 </r>
       <r>    6.1642    0.0000 </r>
       <r>    7.5632    0.0000 </r>
       <r>   11.6699    0.0000 </r>
       <r>   11.7367    0.0000 </r>
      </set>
      <set comment="kpoint 68">
       <r>   -5.0752    1.0000 </r>
       <r>    1.0905    1.0000 </r>
       <r>    3.0441    1.0000 </r>
       <r>    3.3756    1.0000 </r>
       <r>    6.6554    0.0000 </r>
       <r>    8.2873    0.0000 </r>
       <r>   10.4424    0.0000 </r>
       <r>   10.9717    0.0000 </r>
      </set>
      <set comment="kpoint 69">
       <r>   -5.2533    1.0000 </r>
       <r>    1.0798    1.0000 </r>
       <r>    3.3063    1.0000 </r>
       <r>    3.8709    1.0000 </r>
       <r>    7.3799    0.0000 </r>
       <r>    8.8346    0.0000 </r>
       <r>    9.7249    0.0000 </r>
       <r>    9.9353    0.0000 </r>
      </set>
      <set comment="kpoint 70">
       <r>   -5.4616    1.0000 </r>
       <r>    1.9511    1.0000 </r>
       <r>    3.5535    1.0000 </r>
       <r>    3.5792    1.0000 </r>
       <r>    6.5874    0.0000 </r>
       <r>    8.6250    0.0000 </r>
       <r>   10.2719    0.0000 </r>
       <r>   10.3554    0.0000 </r>
      </set>
      <set comment="kpoint 71">
       <r>   -5.6892    1.0000 </r>
       <r>    2.3310    1.0000 </r>
       <r>    3.6993    1.0000 </r>
       <r>    4.1458    1.0000 </r>
       <r>    7.1548    0.0000 </r>
       <r>    8.8195    0.0000 </r>
       <r>    9.6146    0.0000 </r>
       <r>    9.7321    0.0000 </r>
      </set>
      <set comment="kpoint 72">
       <r>   -5.9709    1.0000 </r>
       <r>    3.3049    1.0000 </r>
       <r>    4.2625    1.0000 </r>
       <r>    4.3069    1.0000 </r>
       <r>    7.1446    0.0000 </r>
       <r>    8.7748    0.0000 </r>
       <r>    9.0770    0.0000 </r>
       <r>    9.4535    0.0000 </r>
      </set>
      <set comment="kpoint 73">
       <r>   -6.1427    1.0000 </r>
       <r>    3.6041    1.0000 </r>
       <r>    4.9186    1.0000 </r>
       <r>    4.9186    1.0000 </r>
       <r>    7.4843    0.0000 </r>
       <r>    8.1244    0.0000 </r>
       <r>    8.1244    0.0000 </r>
       <r>    9.3666    0.0000 </r>
      </set>
      <set comment="kpoint 74">
       <r>   -5.9727    1.0000 </r>
       <r>    2.9801    1.0000 </r>
       <r>    4.1043    1.0000 </r>
       <r>    4.9809    1.0000 </r>
       <r>    7.8189    0.0000 </r>
       <r>    8.1177    0.0000 </r>
       <r>    8.3502    0.0000 </r>
       <r>   10.0582    0.0000 </r>
      </set>
      <set comment="kpoint 75">
       <r>   -5.6383    1.0000 </r>
       <r>    1.9511    1.0000 </r>
       <r>    3.3655    1.0000 </r>
       <r>    4.7760    1.0000 </r>
       <r>    7.9422    0.0000 </r>
       <r>    8.4573    0.0000 </r>
       <r>    8.7118    0.0000 </r>
       <r>   10.5838    0.0000 </r>
      </set>
      <set comment="kpoint 76">
       <r>   -5.1574    1.0000 </r>
       <r>    0.6854    1.0000 </r>
       <r>    3.0080    1.0000 </r>
       <r>    4.4505    1.0000 </r>
       <r>    7.7007    0.0000 </r>
       <r>    8.8121    0.0000 </r>
       <r>    8.9797    0.0000 </r>
       <r>   11.2107    0.0000 </r>
      </set>
      <set comment="kpoint 77">
       <r>   -4.5806    1.0000 </r>
       <r>   -0.4825    1.0000 </r>
       <r>    2.8606    1.0000 </r>
       <r>    4.1283    1.0000 </r>
       <r>    7.4745    0.0000 </r>
       <r>    8.8568    0.0000 </r>
       <r>    8.9849    0.0000 </r>
       <r>   12.2726    0.0000 </r>
      </set>
      <set comment="kpoint 78">
       <r>   -4.0797    1.0000 </r>
       <r>   -1.2925    1.0000 </r>
       <r>    2.8679    1.0000 </r>
       <r>    3.8723    1.0000 </r>
       <r>    7.3235    0.0000 </r>
       <r>    8.6953    0.0000 </r>
       <r>    9.0987    0.0000 </r>
       <r>   13.1887    0.0000 </r>
      </set>
      <set comment="kpoint 79">
       <r>   -4.0767    1.0000 </r>
       <r>   -1.2979    1.0000 </r>
       <r>    3.0086    1.0000 </r>
       <r>    3.7146    1.0000 </r>
       <r>    7.2712    0.0000 </r>
       <r>    8.6291    0.0000 </r>
       <r>    9.2649    0.0000 </r>
       <r>   12.3547    0.0000 </r>
      </set>
      <set comment="kpoint 80">
       <r>   -4.5757    1.0000 </r>
       <r>   -0.4933    1.0000 </r>
       <r>    3.2646    1.0000 </r>
       <r>    3.6725    1.0000 </r>
       <r>    7.3173    0.0000 </r>
       <r>    8.6571    0.0000 </r>
       <r>    9.4817    0.0000 </r>
       <r>   11.0935    0.0000 </r>
      </set>
      <set comment="kpoint 81">
       <r>   -5.1532    1.0000 </r>
       <r>    0.6819    1.0000 </r>
       <r>    3.6109    1.0000 </r>
       <r>    3.7539    1.0000 </r>
       <r>    7.3995    0.0000 </r>
       <r>    8.6743    0.0000 </r>
       <r>    9.6399    0.0000 </r>
       <r>   10.1872    0.0000 </r>
      </set>
      <set comment="kpoint 82">
       <r>   -5.6353    1.0000 </r>
       <r>    2.0082    1.0000 </r>
       <r>    3.9565    1.0000 </r>
       <r>    3.9963    1.0000 </r>
       <r>    7.3216    0.0000 </r>
       <r>    8.6263    0.0000 </r>
       <r>    9.5293    0.0000 </r>
       <r>    9.8901    0.0000 </r>
      </set>
      <set comment="kpoint 83">
       <r>   -5.8599    1.0000 </r>
       <r>    2.5500    1.0000 </r>
       <r>    4.2922    1.0000 </r>
       <r>    4.4606    1.0000 </r>
       <r>    7.5348    0.0000 </r>
       <r>    8.1743    0.0000 </r>
       <r>    8.9985    0.0000 </r>
       <r>   10.1396    0.0000 </r>
      </set>
      <set comment="kpoint 84">
       <r>   -5.5807    1.0000 </r>
       <r>    1.9085    1.0000 </r>
       <r>    3.3693    1.0000 </r>
       <r>    4.3996    1.0000 </r>
       <r>    7.6501    0.0000 </r>
       <r>    8.4738    0.0000 </r>
       <r>    9.4636    0.0000 </r>
       <r>    9.9690    0.0000 </r>
      </set>
      <set comment="kpoint 85">
       <r>   -5.1476    1.0000 </r>
       <r>    0.9683    1.0000 </r>
       <r>    2.6697    1.0000 </r>
       <r>    4.1444    1.0000 </r>
       <r>    8.0288    0.0000 </r>
       <r>    8.4813    0.0000 </r>
       <r>    9.8215    0.0000 </r>
       <r>   10.0245    0.0000 </r>
      </set>
      <set comment="kpoint 86">
       <r>   -4.5944    1.0000 </r>
       <r>   -0.1264    1.0000 </r>
       <r>    2.3510    1.0000 </r>
       <r>    3.8153    1.0000 </r>
       <r>    8.0336    0.0000 </r>
       <r>    8.4828    0.0000 </r>
       <r>   10.0971    0.0000 </r>
       <r>   10.5582    0.0000 </r>
      </set>
      <set comment="kpoint 87">
       <r>   -4.0308    1.0000 </r>
       <r>   -1.0497    1.0000 </r>
       <r>    2.2496    1.0000 </r>
       <r>    3.5494    1.0000 </r>
       <r>    7.8623    0.0000 </r>
       <r>    8.4455    0.0000 </r>
       <r>   10.1696    0.0000 </r>
       <r>   11.7160    0.0000 </r>
      </set>
      <set comment="kpoint 88">
       <r>   -3.8118    1.0000 </r>
       <r>   -1.3647    1.0000 </r>
       <r>    2.2842    1.0000 </r>
       <r>    3.4198    1.0000 </r>
       <r>    7.7128    0.0000 </r>
       <r>    8.5138    0.0000 </r>
       <r>   10.2005    0.0000 </r>
       <r>   12.2375    0.0000 </r>
      </set>
      <set comment="kpoint 89">
       <r>   -4.1998    1.0000 </r>
       <r>   -0.7929    1.0000 </r>
       <r>    2.4153    1.0000 </r>
       <r>    3.4646    1.0000 </r>
       <r>    7.6417    0.0000 </r>
       <r>    8.6990    0.0000 </r>
       <r>   10.2567    0.0000 </r>
       <r>   10.8397    0.0000 </r>
      </set>
      <set comment="kpoint 90">
       <r>   -4.7828    1.0000 </r>
       <r>    0.2312    1.0000 </r>
       <r>    2.6434    1.0000 </r>
       <r>    3.6731    1.0000 </r>
       <r>    7.6066    0.0000 </r>
       <r>    8.9013    0.0000 </r>
       <r>    9.7158    0.0000 </r>
       <r>   10.3780    0.0000 </r>
      </set>
      <set comment="kpoint 91">
       <r>   -5.3037    1.0000 </r>
       <r>    1.3659    1.0000 </r>
       <r>    3.0300    1.0000 </r>
       <r>    3.9613    1.0000 </r>
       <r>    7.4027    0.0000 </r>
       <r>    8.8348    0.0000 </r>
       <r>    9.5601    0.0000 </r>
       <r>   10.1595    0.0000 </r>
      </set>
      <set comment="kpoint 92">
       <r>   -5.3567    1.0000 </r>
       <r>    1.4587    1.0000 </r>
       <r>    3.5165    1.0000 </r>
       <r>    3.6414    1.0000 </r>
       <r>    7.0629    0.0000 </r>
       <r>    8.8898    0.0000 </r>
       <r>    9.7295    0.0000 </r>
       <r>   10.0882    0.0000 </r>
      </set>
      <set comment="kpoint 93">
       <r>   -4.9749    1.0000 </r>
       <r>    0.8147    1.0000 </r>
       <r>    2.7284    1.0000 </r>
       <r>    3.5269    1.0000 </r>
       <r>    7.1749    0.0000 </r>
       <r>    8.6618    0.0000 </r>
       <r>    9.7450    0.0000 </r>
       <r>   10.8816    0.0000 </r>
      </set>
      <set comment="kpoint 94">
       <r>   -4.4578    1.0000 </r>
       <r>   -0.0076    1.0000 </r>
       <r>    2.1365    1.0000 </r>
       <r>    3.2285    1.0000 </r>
       <r>    7.6453    0.0000 </r>
       <r>    8.8208    0.0000 </r>
       <r>    9.4431    0.0000 </r>
       <r>   11.5437    0.0000 </r>
      </set>
      <set comment="kpoint 95">
       <r>   -3.8738    1.0000 </r>
       <r>   -0.8655    1.0000 </r>
       <r>    1.7988    1.0000 </r>
       <r>    2.9753    1.0000 </r>
       <r>    7.8481    0.0000 </r>
       <r>    9.0969    0.0000 </r>
       <r>    9.8179    0.0000 </r>
       <r>   11.6974    0.0000 </r>
      </set>
      <set comment="kpoint 96">
       <r>   -3.4775    1.0000 </r>
       <r>   -1.3868    1.0000 </r>
       <r>    1.6299    1.0000 </r>
       <r>    2.9057    1.0000 </r>
       <r>    8.0099    0.0000 </r>
       <r>    8.8143    0.0000 </r>
       <r>   11.2499    0.0000 </r>
       <r>   11.6673    0.0000 </r>
      </set>
      <set comment="kpoint 97">
       <r>   -3.7096    1.0000 </r>
       <r>   -1.0857    1.0000 </r>
       <r>    1.6123    1.0000 </r>
       <r>    3.0428    1.0000 </r>
       <r>    8.2694    0.0000 </r>
       <r>    8.6274    0.0000 </r>
       <r>   10.6851    0.0000 </r>
       <r>   11.6492    0.0000 </r>
      </set>
      <set comment="kpoint 98">
       <r>   -4.2781    1.0000 </r>
       <r>   -0.2975    1.0000 </r>
       <r>    1.8162    1.0000 </r>
       <r>    3.3386    1.0000 </r>
       <r>    8.3978    0.0000 </r>
       <r>    8.6329    0.0000 </r>
       <r>    9.5538    0.0000 </r>
       <r>   11.4425    0.0000 </r>
      </set>
      <set comment="kpoint 99">
       <r>   -4.8263    1.0000 </r>
       <r>    0.4821    1.0000 </r>
       <r>    2.3783    1.0000 </r>
       <r>    3.6855    1.0000 </r>
       <r>    7.8293    0.0000 </r>
       <r>    8.8630    0.0000 </r>
       <r>    9.3615    0.0000 </r>
       <r>   10.7602    0.0000 </r>
      </set>
      <set comment="kpoint 100">
       <r>   -4.6445    1.0000 </r>
       <r>    0.3148    1.0000 </r>
       <r>    2.6833    1.0000 </r>
       <r>    3.1163    1.0000 </r>
       <r>    6.5962    0.0000 </r>
       <r>    8.0990    0.0000 </r>
       <r>   10.9132    0.0000 </r>
       <r>   11.2647    0.0000 </r>
      </set>
      <set comment="kpoint 101">
       <r>   -4.1712    1.0000 </r>
       <r>   -0.3273    1.0000 </r>
       <r>    2.2630    1.0000 </r>
       <r>    2.8068    1.0000 </r>
       <r>    6.8344    0.0000 </r>
       <r>    7.8287    0.0000 </r>
       <r>   10.8855    0.0000 </r>
       <r>   12.3864    0.0000 </r>
      </set>
      <set comment="kpoint 102">
       <r>   -3.5961    1.0000 </r>
       <r>   -1.0195    1.0000 </r>
       <r>    1.8184    1.0000 </r>
       <r>    2.4775    1.0000 </r>
       <r>    7.3892    0.0000 </r>
       <r>    8.1749    0.0000 </r>
       <r>   10.5604    0.0000 </r>
       <r>   13.1219    0.0000 </r>
      </set>
      <set comment="kpoint 103">
       <r>   -3.0807    1.0000 </r>
       <r>   -1.5826    1.0000 </r>
       <r>    1.4016    1.0000 </r>
       <r>    2.4286    1.0000 </r>
       <r>    7.5923    0.0000 </r>
       <r>    9.4290    0.0000 </r>
       <r>   10.2653    0.0000 </r>
       <r>   12.3498    0.0000 </r>
      </set>
      <set comment="kpoint 104">
       <r>   -3.1559    1.0000 </r>
       <r>   -1.4960    1.0000 </r>
       <r>    1.2081    1.0000 </r>
       <r>    2.6170    1.0000 </r>
       <r>    7.8600    0.0000 </r>
       <r>    9.9035    0.0000 </r>
       <r>   10.7522    0.0000 </r>
       <r>   11.1701    0.0000 </r>
      </set>
      <set comment="kpoint 105">
       <r>   -3.6981    1.0000 </r>
       <r>   -0.9607    1.0000 </r>
       <r>    1.4032    1.0000 </r>
       <r>    2.9675    1.0000 </r>
       <r>    8.2380    0.0000 </r>
       <r>    9.1076    0.0000 </r>
       <r>   10.0730    0.0000 </r>
       <r>   12.2139    0.0000 </r>
      </set>
      <set comment="kpoint 106">
       <r>   -4.2504    1.0000 </r>
       <r>   -0.5017    1.0000 </r>
       <r>    2.0601    1.0000 </r>
       <r>    3.3810    1.0000 </r>
       <r>    8.0136    0.0000 </r>
       <r>    8.6645    0.0000 </r>
       <r>   10.0776    0.0000 </r>
       <r>   10.9518    0.0000 </r>
      </set>
      <set comment="kpoint 107">
       <r>   -3.7430    1.0000 </r>
       <r>   -0.8892    1.0000 </r>
       <r>    2.1363    1.0000 </r>
       <r>    2.7678    1.0000 </r>
       <r>    6.2801    0.0000 </r>
       <r>    7.4101    0.0000 </r>
       <r>   12.3954    0.0000 </r>
       <r>   12.5210    0.0000 </r>
      </set>
      <set comment="kpoint 108">
       <r>   -3.1967    1.0000 </r>
       <r>   -1.5040    1.0000 </r>
       <r>    2.0007    1.0000 </r>
       <r>    2.3860    1.0000 </r>
       <r>    6.6787    0.0000 </r>
       <r>    7.2789    0.0000 </r>
       <r>   12.1984    0.0000 </r>
       <r>   13.8053    0.0000 </r>
      </set>
      <set comment="kpoint 109">
       <r>   -2.6166    1.0000 </r>
       <r>   -2.0611    1.0000 </r>
       <r>    1.7153    1.0000 </r>
       <r>    2.0985    1.0000 </r>
       <r>    7.2926    0.0000 </r>
       <r>    7.8698    0.0000 </r>
       <r>   11.8742    0.0000 </r>
       <r>   12.5925    0.0000 </r>
      </set>
      <set comment="kpoint 110">
       <r>   -2.7590    1.0000 </r>
       <r>   -1.8799    1.0000 </r>
       <r>    1.3068    1.0000 </r>
       <r>    2.3197    1.0000 </r>
       <r>    7.5379    0.0000 </r>
       <r>    9.3658    0.0000 </r>
       <r>   10.8950    0.0000 </r>
       <r>   11.6408    0.0000 </r>
      </set>
      <set comment="kpoint 111">
       <r>   -3.2703    1.0000 </r>
       <r>   -1.4651    1.0000 </r>
       <r>    1.3657    1.0000 </r>
       <r>    2.7118    1.0000 </r>
       <r>    7.9124    0.0000 </r>
       <r>    9.3485    0.0000 </r>
       <r>   11.1153    0.0000 </r>
       <r>   11.5177    0.0000 </r>
      </set>
      <set comment="kpoint 112">
       <r>   -3.7425    1.0000 </r>
       <r>   -1.2489    1.0000 </r>
       <r>    1.9376    1.0000 </r>
       <r>    3.1957    1.0000 </r>
       <r>    8.0910    0.0000 </r>
       <r>    8.4105    0.0000 </r>
       <r>   10.8856    0.0000 </r>
       <r>   11.4815    0.0000 </r>
      </set>
      <set comment="kpoint 113">
       <r>   -2.6957    1.0000 </r>
       <r>   -2.0788    1.0000 </r>
       <r>    1.9042    1.0000 </r>
       <r>    2.6156    1.0000 </r>
       <r>    6.1443    0.0000 </r>
       <r>    7.1023    0.0000 </r>
       <r>   13.7294    0.0000 </r>
       <r>   13.8902    0.0000 </r>
      </set>
      <set comment="kpoint 114">
       <r>   -2.6612    1.0000 </r>
       <r>   -2.0822    1.0000 </r>
       <r>    1.9483    1.0000 </r>
       <r>    2.3010    1.0000 </r>
       <r>    6.6589    0.0000 </r>
       <r>    7.1558    0.0000 </r>
       <r>   12.8923    0.0000 </r>
       <r>   13.5852    0.0000 </r>
      </set>
      <set comment="kpoint 115">
       <r>   -3.1147    1.0000 </r>
       <r>   -1.5422    1.0000 </r>
       <r>    1.7437    1.0000 </r>
       <r>    2.2319    1.0000 </r>
       <r>    7.3228    0.0000 </r>
       <r>    7.9739    0.0000 </r>
       <r>   11.1974    0.0000 </r>
       <r>   13.2870    0.0000 </r>
      </set>
      <set comment="kpoint 116">
       <r>   -3.4762    1.0000 </r>
       <r>   -1.2263    1.0000 </r>
       <r>    1.5737    1.0000 </r>
       <r>    2.6490    1.0000 </r>
       <r>    7.6985    0.0000 </r>
       <r>    9.4957    0.0000 </r>
       <r>    9.7431    0.0000 </r>
       <r>   12.4528    0.0000 </r>
      </set>
      <set comment="kpoint 117">
       <r>   -3.2316    1.0000 </r>
       <r>   -1.4944    1.0000 </r>
       <r>    1.9813    1.0000 </r>
       <r>    2.6665    1.0000 </r>
       <r>    6.1894    0.0000 </r>
       <r>    7.2057    0.0000 </r>
       <r>   13.1555    0.0000 </r>
       <r>   13.1661    0.0000 </r>
      </set>
      <set comment="kpoint 118">
       <r>   -3.7030    1.0000 </r>
       <r>   -0.9148    1.0000 </r>
       <r>    2.1057    1.0000 </r>
       <r>    2.5554    1.0000 </r>
       <r>    6.7337    0.0000 </r>
       <r>    7.5081    0.0000 </r>
       <r>   11.5266    0.0000 </r>
       <r>   13.1449    0.0000 </r>
      </set>
      <set comment="kpoint 119">
       <r>   -4.0461    1.0000 </r>
       <r>   -0.5071    1.0000 </r>
       <r>    1.9489    1.0000 </r>
       <r>    2.8163    1.0000 </r>
       <r>    7.4966    0.0000 </r>
       <r>    8.4639    0.0000 </r>
       <r>    9.9699    0.0000 </r>
       <r>   12.3406    0.0000 </r>
      </set>
      <set comment="kpoint 120">
       <r>   -4.2157    1.0000 </r>
       <r>   -0.2825    1.0000 </r>
       <r>    2.3704    1.0000 </r>
       <r>    2.9184    1.0000 </r>
       <r>    6.4163    0.0000 </r>
       <r>    7.7112    0.0000 </r>
       <r>   11.6444    0.0000 </r>
       <r>   11.8830    0.0000 </r>
      </set>
      <set comment="kpoint 121">
       <r>   -4.5964    1.0000 </r>
       <r>    0.2506    1.0000 </r>
       <r>    2.4715    1.0000 </r>
       <r>    3.1346    1.0000 </r>
       <r>    6.9827    0.0000 </r>
       <r>    8.2270    0.0000 </r>
       <r>   10.2811    0.0000 </r>
       <r>   11.6271    0.0000 </r>
      </set>
      <set comment="kpoint 122">
       <r>   -5.0258    1.0000 </r>
       <r>    0.8956    1.0000 </r>
[...]
       <r>   -1.5267    1.0000 </r>
       <r>    1.3303    1.0000 </r>
       <r>    2.8100    1.0000 </r>
       <r>    7.2125    0.0000 </r>
       <r>   10.0977    0.0000 </r>
       <r>   10.4240    0.0000 </r>
       <r>   12.2162    0.0000 </r>
      </set>
      <set comment="kpoint 172">
       <r>   -3.0658    1.0000 </r>
       <r>   -1.6349    1.0000 </r>
       <r>    1.1172    1.0000 </r>
       <r>    3.0522    1.0000 </r>
       <r>    6.6450    0.0000 </r>
       <r>   10.0930    0.0000 </r>
       <r>   11.8191    0.0000 </r>
       <r>   12.0840    0.0000 </r>
      </set>
      <set comment="kpoint 173">
       <r>   -4.7461    1.0000 </r>
       <r>   -0.5372    1.0000 </r>
       <r>    4.1566    1.0000 </r>
       <r>    4.1566    1.0000 </r>
       <r>    6.6294    0.0000 </r>
       <r>    8.6422    0.0000 </r>
       <r>    8.6422    0.0000 </r>
       <r>   12.9136    0.0000 </r>
      </set>
      <set comment="kpoint 174">
       <r>   -4.4810    1.0000 </r>
       <r>   -0.8419    1.0000 </r>
       <r>    3.3973    1.0000 </r>
       <r>    4.1205    1.0000 </r>
       <r>    7.1026    0.0000 </r>
       <r>    8.6735    0.0000 </r>
       <r>    8.7516    0.0000 </r>
       <r>   12.8274    0.0000 </r>
      </set>
      <set comment="kpoint 175">
       <r>   -4.0893    1.0000 </r>
       <r>   -1.0516    1.0000 </r>
       <r>    2.3062    1.0000 </r>
       <r>    3.8126    1.0000 </r>
       <r>    7.4244    0.0000 </r>
       <r>    9.1428    0.0000 </r>
       <r>    9.4523    0.0000 </r>
       <r>   12.8125    0.0000 </r>
      </set>
      <set comment="kpoint 176">
       <r>   -3.5993    1.0000 </r>
       <r>   -1.2590    1.0000 </r>
       <r>    1.4421    1.0000 </r>
       <r>    3.4127    1.0000 </r>
       <r>    7.0602    0.0000 </r>
       <r>   10.4506    0.0000 </r>
       <r>   10.5488    0.0000 </r>
       <r>   11.9205    0.0000 </r>
      </set>
      <set comment="kpoint 177">
       <r>   -4.3076    1.0000 </r>
       <r>   -1.1231    1.0000 </r>
       <r>    3.5652    1.0000 </r>
       <r>    3.8596    1.0000 </r>
       <r>    7.0658    0.0000 </r>
       <r>    8.4503    0.0000 </r>
       <r>    8.9665    0.0000 </r>
       <r>   12.5686    0.0000 </r>
      </set>
      <set comment="kpoint 178">
       <r>   -4.0216    1.0000 </r>
       <r>   -1.2791    1.0000 </r>
       <r>    2.7184    1.0000 </r>
       <r>    3.6605    1.0000 </r>
       <r>    7.6031    0.0000 </r>
       <r>    8.3639    0.0000 </r>
       <r>    9.6043    0.0000 </r>
       <r>   12.4420    0.0000 </r>
      </set>
      <set comment="kpoint 179">
       <r>   -3.6470    1.0000 </r>
       <r>   -1.3549    1.0000 </r>
       <r>    1.8376    1.0000 </r>
       <r>    3.2412    1.0000 </r>
       <r>    7.6447    0.0000 </r>
       <r>    8.9394    0.0000 </r>
       <r>   10.8460    0.0000 </r>
       <r>   12.0665    0.0000 </r>
      </set>
      <set comment="kpoint 180">
       <r>   -3.8676    1.0000 </r>
       <r>   -1.3757    1.0000 </r>
       <r>    2.4294    1.0000 </r>
       <r>    3.5867    1.0000 </r>
       <r>    7.2543    0.0000 </r>
       <r>    9.1128    0.0000 </r>
       <r>    9.6407    0.0000 </r>
       <r>   12.1681    0.0000 </r>
      </set>
      <set comment="kpoint 181">
       <r>   -4.2494    1.0000 </r>
       <r>   -1.3600    1.0000 </r>
       <r>    4.0603    1.0000 </r>
       <r>    4.0603    1.0000 </r>
       <r>    6.5158    0.0000 </r>
       <r>    8.5660    0.0000 </r>
       <r>    8.5661    0.0000 </r>
       <r>   12.8464    0.0000 </r>
      </set>
      <set comment="kpoint 182">
       <r>   -4.0972    1.0000 </r>
       <r>   -1.4395    1.0000 </r>
       <r>    3.4248    1.0000 </r>
       <r>    3.9396    1.0000 </r>
       <r>    7.0298    0.0000 </r>
       <r>    8.5148    0.0000 </r>
       <r>    8.8210    0.0000 </r>
       <r>   13.0703    0.0000 </r>
      </set>
     </set>
    </set>
   </array>
  </eigenvalues>
  <separator name="orbital magnetization" >
   <v name="MAGDIPOLOUT">      0.00000000      0.00000000      0.00000000</v>
  </separator>
  <dos>
   <i name="efermi">      5.40929697 </i>
   <total>
    <array>
     <dimension dim="1">gridpoints</dimension>
     <dimension dim="2">spin</dimension>
     <field>energy</field>
     <field>total</field>
     <field>integrated</field>
     <set>
      <set comment="spin 1">
       <r>    -7.3564     0.0000     0.0000 </r>
       <r>    -7.2799     0.0000     0.0000 </r>
       <r>    -7.2035     0.0000     0.0000 </r>
       <r>    -7.1271     0.0000     0.0000 </r>
       <r>    -7.0506     0.0000     0.0000 </r>
       <r>    -6.9742     0.0000     0.0000 </r>
       <r>    -6.8978     0.0000     0.0000 </r>
       <r>    -6.8213     0.0000     0.0000 </r>
       <r>    -6.7449     0.0000     0.0000 </r>
       <r>    -6.6685     0.0000     0.0000 </r>
       <r>    -6.5920     0.0000     0.0000 </r>
       <r>    -6.5156     0.0000     0.0000 </r>
       <r>    -6.4392     0.0000     0.0000 </r>
       <r>    -6.3627     0.0027     0.0002 </r>
       <r>    -6.2863     0.0400     0.0033 </r>
       <r>    -6.2099     0.1084     0.0116 </r>
       <r>    -6.1334     0.1468     0.0228 </r>
       <r>    -6.0570     0.1991     0.0380 </r>
       <r>    -5.9806     0.1831     0.0520 </r>
       <r>    -5.9041     0.2840     0.0737 </r>
       <r>    -5.8277     0.2260     0.0910 </r>
       <r>    -5.7513     0.2914     0.1132 </r>
       <r>    -5.6748     0.3106     0.1370 </r>
       <r>    -5.5984     0.3539     0.1640 </r>
       <r>    -5.5220     0.3224     0.1887 </r>
       <r>    -5.4455     0.3062     0.2121 </r>
       <r>    -5.3691     0.4921     0.2497 </r>
       <r>    -5.2927     0.3848     0.2791 </r>
       <r>    -5.2162     0.3827     0.3083 </r>
       <r>    -5.1398     0.3968     0.3387 </r>
       <r>    -5.0634     0.5586     0.3814 </r>
       <r>    -4.9869     0.4298     0.4142 </r>
       <r>    -4.9105     0.5580     0.4569 </r>
       <r>    -4.8341     0.4831     0.4938 </r>
       <r>    -4.7576     0.4737     0.5300 </r>
       <r>    -4.6812     0.5630     0.5730 </r>
       <r>    -4.6048     0.6969     0.6263 </r>
       <r>    -4.5283     0.6711     0.6776 </r>
       <r>    -4.4519     0.5084     0.7165 </r>
       <r>    -4.3754     0.6657     0.7673 </r>
       <r>    -4.2990     0.6985     0.8207 </r>
       <r>    -4.2226     0.8870     0.8885 </r>
       <r>    -4.1461     0.8147     0.9508 </r>
       <r>    -4.0697     0.9773     1.0255 </r>
       <r>    -3.9933     1.1067     1.1101 </r>
       <r>    -3.9168     0.5050     1.1487 </r>
       <r>    -3.8404     0.9683     1.2227 </r>
       <r>    -3.7640     0.8981     1.2913 </r>
       <r>    -3.6875     0.7871     1.3515 </r>
       <r>    -3.6111     0.7327     1.4075 </r>
       <r>    -3.5347     0.9228     1.4780 </r>
       <r>    -3.4582     0.7820     1.5378 </r>
       <r>    -3.3818     0.3897     1.5676 </r>
       <r>    -3.3054     0.4200     1.5997 </r>
       <r>    -3.2289     0.7643     1.6581 </r>
       <r>    -3.1525     0.8899     1.7261 </r>
       <r>    -3.0761     0.6445     1.7754 </r>
       <r>    -2.9996     0.5166     1.8149 </r>
       <r>    -2.9232     0.2452     1.8336 </r>
       <r>    -2.8468     0.2828     1.8552 </r>
       <r>    -2.7703     0.2988     1.8781 </r>
       <r>    -2.6939     0.6172     1.9253 </r>
       <r>    -2.6175     0.5224     1.9652 </r>
       <r>    -2.5410     0.3496     1.9919 </r>
       <r>    -2.4646     0.1044     1.9999 </r>
       <r>    -2.3882     0.0016     2.0000 </r>
       <r>    -2.3117     0.0000     2.0000 </r>
       <r>    -2.2353     0.0000     2.0000 </r>
       <r>    -2.1589     0.0222     2.0017 </r>
       <r>    -2.0824     0.4158     2.0335 </r>
       <r>    -2.0060     0.7415     2.0902 </r>
       <r>    -1.9296     0.3199     2.1146 </r>
       <r>    -1.8531     0.2178     2.1313 </r>
       <r>    -1.7767     0.2712     2.1520 </r>
       <r>    -1.7003     0.1950     2.1669 </r>
       <r>    -1.6238     0.4344     2.2001 </r>
       <r>    -1.5474     0.8589     2.2657 </r>
       <r>    -1.4710     1.3552     2.3693 </r>
       <r>    -1.3945     1.1895     2.4602 </r>
       <r>    -1.3181     1.4547     2.5714 </r>
       <r>    -1.2417     1.2440     2.6665 </r>
       <r>    -1.1652     0.8640     2.7326 </r>
       <r>    -1.0888     0.8650     2.7987 </r>
       <r>    -1.0124     1.0721     2.8806 </r>
       <r>    -0.9359     0.5134     2.9199 </r>
       <r>    -0.8595     0.7640     2.9782 </r>
       <r>    -0.7831     1.0585     3.0592 </r>
       <r>    -0.7066     0.4714     3.0952 </r>
       <r>    -0.6302     0.2411     3.1136 </r>
       <r>    -0.5537     0.3890     3.1434 </r>
       <r>    -0.4773     0.8625     3.2093 </r>
       <r>    -0.4009     0.5567     3.2518 </r>
       <r>    -0.3244     0.1849     3.2660 </r>
       <r>    -0.2480     0.3575     3.2933 </r>
       <r>    -0.1716     0.5884     3.3383 </r>
       <r>    -0.0951     0.7482     3.3954 </r>
       <r>    -0.0187     0.2243     3.4126 </r>
       <r>     0.0577     0.1558     3.4245 </r>
       <r>     0.1342     0.2480     3.4434 </r>
       <r>     0.2106     0.2807     3.4649 </r>
       <r>     0.2870     0.7091     3.5191 </r>
       <r>     0.3635     0.2570     3.5388 </r>
       <r>     0.4399     0.1027     3.5466 </r>
       <r>     0.5163     0.2674     3.5670 </r>
       <r>     0.5928     0.3347     3.5926 </r>
       <r>     0.6692     0.3304     3.6179 </r>
       <r>     0.7456     0.3486     3.6445 </r>
       <r>     0.8221     0.1247     3.6541 </r>
       <r>     0.8985     0.1254     3.6636 </r>
       <r>     0.9749     0.1613     3.6760 </r>
       <r>     1.0514     0.2156     3.6924 </r>
       <r>     1.1278     0.6266     3.7403 </r>
       <r>     1.2042     0.7427     3.7971 </r>
       <r>     1.2807     0.6266     3.8450 </r>
       <r>     1.3571     1.2622     3.9415 </r>
       <r>     1.4335     1.4075     4.0491 </r>
       <r>     1.5100     1.0920     4.1325 </r>
       <r>     1.5864     1.1739     4.2223 </r>
       <r>     1.6628     1.2453     4.3174 </r>
       <r>     1.7393     1.1228     4.4033 </r>
       <r>     1.8157     1.0704     4.4851 </r>
       <r>     1.8921     0.8997     4.5538 </r>
       <r>     1.9686     1.1321     4.6404 </r>
       <r>     2.0450     1.1796     4.7305 </r>
       <r>     2.1214     1.3877     4.8366 </r>
       <r>     2.1979     1.0090     4.9137 </r>
       <r>     2.2743     1.0574     4.9945 </r>
       <r>     2.3507     1.3971     5.1013 </r>
       <r>     2.4272     1.2768     5.1989 </r>
       <r>     2.5036     1.4446     5.3093 </r>
       <r>     2.5800     1.6530     5.4357 </r>
       <r>     2.6565     1.7058     5.5660 </r>
       <r>     2.7329     1.6351     5.6910 </r>
       <r>     2.8093     1.4914     5.8050 </r>
       <r>     2.8858     1.3326     5.9069 </r>
       <r>     2.9622     1.4284     6.0161 </r>
       <r>     3.0386     1.7141     6.1471 </r>
       <r>     3.1151     1.5928     6.2688 </r>
       <r>     3.1915     1.4704     6.3812 </r>
       <r>     3.2680     1.1608     6.4699 </r>
       <r>     3.3444     1.2137     6.5627 </r>
       <r>     3.4208     1.6047     6.6854 </r>
       <r>     3.4973     1.4983     6.7999 </r>
       <r>     3.5737     1.3020     6.8994 </r>
       <r>     3.6501     1.1166     6.9847 </r>
       <r>     3.7266     1.3534     7.0882 </r>
       <r>     3.8030     1.1448     7.1757 </r>
       <r>     3.8794     1.4887     7.2895 </r>
       <r>     3.9559     1.1858     7.3801 </r>
       <r>     4.0323     0.9480     7.4526 </r>
       <r>     4.1087     1.1050     7.5370 </r>
       <r>     4.1852     1.1949     7.6284 </r>
       <r>     4.2616     0.5998     7.6742 </r>
       <r>     4.3380     0.5537     7.7165 </r>
       <r>     4.4145     0.5474     7.7584 </r>
       <r>     4.4909     0.6353     7.8069 </r>
       <r>     4.5673     0.5426     7.8484 </r>
       <r>     4.6438     0.3855     7.8779 </r>
       <r>     4.7202     0.3257     7.9028 </r>
       <r>     4.7966     0.3383     7.9286 </r>
       <r>     4.8731     0.2363     7.9467 </r>
       <r>     4.9495     0.2807     7.9681 </r>
       <r>     5.0259     0.2049     7.9838 </r>
       <r>     5.1024     0.1105     7.9922 </r>
       <r>     5.1788     0.0863     7.9988 </r>
       <r>     5.2552     0.0150     8.0000 </r>
       <r>     5.3317     0.0001     8.0000 </r>
       <r>     5.4081     0.0000     8.0000 </r>
       <r>     5.4845     0.0000     8.0000 </r>
       <r>     5.5610     0.0000     8.0000 </r>
       <r>     5.6374     0.0000     8.0000 </r>
       <r>     5.7138     0.0000     8.0000 </r>
       <r>     5.7903     0.0000     8.0000 </r>
       <r>     5.8667     0.0009     8.0001 </r>
       <r>     5.9431     0.0632     8.0049 </r>
       <r>     6.0196     0.1976     8.0200 </r>
       <r>     6.0960     0.1089     8.0283 </r>
       <r>     6.1724     0.2289     8.0458 </r>
       <r>     6.2489     0.5689     8.0893 </r>
       <r>     6.3253     0.3384     8.1152 </r>
       <r>     6.4017     0.4829     8.1521 </r>
       <r>     6.4782     0.4789     8.1887 </r>
       <r>     6.5546     0.3541     8.2157 </r>
       <r>     6.6310     0.6282     8.2638 </r>
       <r>     6.7075     1.0867     8.3468 </r>
       <r>     6.7839     0.8178     8.4093 </r>
       <r>     6.8603     0.6991     8.4628 </r>
       <r>     6.9368     0.8828     8.5302 </r>
       <r>     7.0132     1.1101     8.6151 </r>
       <r>     7.0897     1.0399     8.6946 </r>
       <r>     7.1661     1.2763     8.7921 </r>
       <r>     7.2425     1.3969     8.8989 </r>
       <r>     7.3190     1.5041     9.0139 </r>
       <r>     7.3954     1.9041     9.1594 </r>
       <r>     7.4718     1.8901     9.3039 </r>
       <r>     7.5483     1.4422     9.4141 </r>
       <r>     7.6247     1.3461     9.5170 </r>
       <r>     7.7011     1.5982     9.6391 </r>
       <r>     7.7776     1.2308     9.7332 </r>
       <r>     7.8540     1.3100     9.8333 </r>
       <r>     7.9304     1.3209     9.9343 </r>
       <r>     8.0069     1.0153    10.0119 </r>
       <r>     8.0833     1.4741    10.1246 </r>
       <r>     8.1597     0.9171    10.1947 </r>
       <r>     8.2362     0.8318    10.2583 </r>
       <r>     8.3126     1.0995    10.3423 </r>
       <r>     8.3890     1.1563    10.4307 </r>
       <r>     8.4655     2.2301    10.6011 </r>
       <r>     8.5419     2.7788    10.8135 </r>
       <r>     8.6183     1.6951    10.9431 </r>
       <r>     8.6948     2.2948    11.1185 </r>
       <r>     8.7712     1.6537    11.2449 </r>
       <r>     8.8476     2.1557    11.4097 </r>
       <r>     8.9241     1.6807    11.5381 </r>
       <r>     9.0005     1.4109    11.6460 </r>
       <r>     9.0769     1.3026    11.7455 </r>
       <r>     9.1534     1.3371    11.8477 </r>
       <r>     9.2298     1.3015    11.9472 </r>
       <r>     9.3062     1.3192    12.0480 </r>
       <r>     9.3827     1.0566    12.1288 </r>
       <r>     9.4591     1.3982    12.2357 </r>
       <r>     9.5355     1.5001    12.3503 </r>
       <r>     9.6120     1.0079    12.4274 </r>
       <r>     9.6884     1.3597    12.5313 </r>
       <r>     9.7648     1.8282    12.6710 </r>
       <r>     9.8413     1.3311    12.7728 </r>
       <r>     9.9177     1.1247    12.8587 </r>
       <r>     9.9941     1.3441    12.9615 </r>
       <r>    10.0706     1.2648    13.0581 </r>
       <r>    10.1470     1.3615    13.1622 </r>
       <r>    10.2234     1.2093    13.2546 </r>
       <r>    10.2999     1.4267    13.3637 </r>
       <r>    10.3763     1.3927    13.4701 </r>
       <r>    10.4527     1.4160    13.5784 </r>
       <r>    10.5292     0.7955    13.6392 </r>
       <r>    10.6056     1.2005    13.7309 </r>
       <r>    10.6820     1.0129    13.8084 </r>
       <r>    10.7585     1.0250    13.8867 </r>
       <r>    10.8349     1.1024    13.9710 </r>
       <r>    10.9114     1.3803    14.0765 </r>
       <r>    10.9878     1.3868    14.1825 </r>
       <r>    11.0642     0.8531    14.2477 </r>
       <r>    11.1407     1.2441    14.3428 </r>
       <r>    11.2171     0.9525    14.4156 </r>
       <r>    11.2935     0.7342    14.4717 </r>
       <r>    11.3700     1.0389    14.5511 </r>
       <r>    11.4464     0.8726    14.6178 </r>
       <r>    11.5228     0.7625    14.6761 </r>
       <r>    11.5993     1.1331    14.7627 </r>
       <r>    11.6757     1.2397    14.8574 </r>
       <r>    11.7521     1.0708    14.9393 </r>
       <r>    11.8286     0.7759    14.9986 </r>
       <r>    11.9050     0.9305    15.0697 </r>
       <r>    11.9814     0.6843    15.1220 </r>
       <r>    12.0579     0.4040    15.1529 </r>
       <r>    12.1343     0.5147    15.1922 </r>
       <r>    12.2107     0.6745    15.2438 </r>
       <r>    12.2872     1.0945    15.3274 </r>
       <r>    12.3636     0.7629    15.3858 </r>
       <r>    12.4400     0.8620    15.4516 </r>
       <r>    12.5165     0.7544    15.5093 </r>
       <r>    12.5929     0.3290    15.5344 </r>
       <r>    12.6693     0.5682    15.5779 </r>
       <r>    12.7458     0.3148    15.6019 </r>
       <r>    12.8222     0.2472    15.6208 </r>
       <r>    12.8986     0.4336    15.6540 </r>
       <r>    12.9751     0.6337    15.7024 </r>
       <r>    13.0515     0.5003    15.7407 </r>
       <r>    13.1279     0.5407    15.7820 </r>
       <r>    13.2044     0.9049    15.8511 </r>
       <r>    13.2808     0.2080    15.8670 </r>
       <r>    13.3572     0.1000    15.8747 </r>
       <r>    13.4337     0.0049    15.8750 </r>
       <r>    13.5101     0.0564    15.8794 </r>
       <r>    13.5865     0.2089    15.8953 </r>
       <r>    13.6630     0.0977    15.9028 </r>
       <r>    13.7394     0.0613    15.9075 </r>
       <r>    13.8158     0.1907    15.9221 </r>
       <r>    13.8923     0.4602    15.9572 </r>
       <r>    13.9687     0.1924    15.9719 </r>
       <r>    14.0451     0.0037    15.9722 </r>
       <r>    14.1216     0.0000    15.9722 </r>
       <r>    14.1980     0.0001    15.9722 </r>
       <r>    14.2744     0.0261    15.9742 </r>
       <r>    14.3509     0.1309    15.9842 </r>
       <r>    14.4273     0.0266    15.9863 </r>
       <r>    14.5037     0.0677    15.9914 </r>
       <r>    14.5802     0.1033    15.9993 </r>
       <r>    14.6566     0.0087    16.0000 </r>
       <r>    14.7331     0.0000    16.0000 </r>
       <r>    14.8095     0.0000    16.0000 </r>
       <r>    14.8859     0.0000    16.0000 </r>
       <r>    14.9624     0.0000    16.0000 </r>
       <r>    15.0388     0.0000    16.0000 </r>
       <r>    15.1152     0.0000    16.0000 </r>
       <r>    15.1917     0.0000    16.0000 </r>
       <r>    15.2681     0.0000    16.0000 </r>
       <r>    15.3445     0.0000    16.0000 </r>
       <r>    15.4210     0.0000    16.0000 </r>
       <r>    15.4974     0.0000    16.0000 </r>
       <r>    15.5738     0.0000    16.0000 </r>
      </set>
     </set>
    </array>
   </total>
  </dos>
 </calculation>
 <structure name="finalpos" >
  <crystal>
   <varray name="basis" >
    <v>       3.39835539       0.00000000       1.96204112 </v>
    <v>       1.13278513       3.20400146       1.96204112 </v>
    <v>       0.00000000       0.00000000       3.92408225 </v>
   </varray>
   <i name="volume">     42.72672454 </i>
   <varray name="rec_basis" >
    <v>       0.29425998      -0.10403657       0.00000000 </v>
    <v>       0.00000000       0.31210972       0.00000000 </v>
    <v>      -0.14712999      -0.10403657       0.25483666 </v>
   </varray>
  </crystal>
  <varray name="positions" >
   <v>       0.87500000       0.87500000       0.87500000 </v>
   <v>       0.12500000       0.12500000       0.12500000 </v>
  </varray>
 </structure>
</modeling>
