unknown system                          
           1
     3.398355    0.000000    1.962041
     1.132785    3.204001    1.962041
     0.000000    0.000000    3.924082
   Si
     2
Direct configuration=     1
   0.87500000  0.87500000  0.87500000
   0.12500000  0.12500000  0.12500000
