unknown system                          
   1.00000000000000     
     2.798541   -0.000000    0.000000
     0.000000    2.798541    0.000000
    -0.000000    0.000000    2.798541
   Fe
     2
Direct
  0.000000  0.000000  0.000000
  0.500000  0.500000  0.500000
 
   36   36   36
  199.01      194.04      179.83      158.32      132.27      104.68      78.327      55.336      37.012      23.780    
  15.285      10.572      8.3640      7.2834      6.5149      5.9941      5.6745      5.5121      5.4600      5.5121    
  5.6745      5.9941      6.5149      7.2834      8.3640      10.572      15.285      23.780      37.012      55.336    
  78.327      104.68      132.27      158.32      179.83      194.04      194.04      189.21      175.41      154.49    
  129.12      102.24      76.523      54.077      36.191      23.289      15.027      10.462      8.3282      7.2671    
  6.5048      5.9906      5.6746      5.5148      5.4631      5.5148      5.6746      5.9906      6.5048      7.2671    
  8.3282      10.462      15.027      23.289      36.191      54.077      76.523      102.24      129.12      154.49    
  175.41      189.21      179.83      175.41      162.73      143.48      120.08      95.181      71.310      50.441    
  33.822      21.880      14.294      10.153      8.2277      7.2176      6.4751      5.9799      5.6751      5.5220    
  5.4718      5.5220      5.6751      5.9799      6.4751      7.2176      8.2277      10.153      14.294      21.880    
  33.822      50.441      71.310      95.181      120.08      143.48      162.73      175.41      158.32      154.49    
  143.48      126.72      106.23      84.340      63.273      44.831      30.183      19.739      13.202      9.7074    
  8.0774      7.1335      6.4272      5.9618      5.6760      5.5328      5.4858      5.5328      5.6760      5.9618    
  6.4272      7.1335      8.0774      9.7074      13.202      19.739      30.183      44.831      63.273      84.340    
  106.23      126.72      143.48      154.49      132.27      129.12      120.08      106.23      89.220      70.956    
  53.324      37.901      25.725      17.167      11.931      9.2095      7.8911      7.0143      6.3641      5.9363    
  5.6773      5.5451      5.5038      5.5451      5.6773      5.9363      6.3641      7.0143      7.8911      9.2095    
  11.931      17.167      25.725      37.901      53.324      70.956      89.220      106.23      120.08      129.12    
  104.68      102.24      95.181      84.340      70.956      56.534      42.602      30.477      21.024      14.530    
  10.686      8.7344      7.6694      6.8656      6.2882      5.9049      5.6777      5.5580      5.5233      5.5580    
  5.6777      5.9049      6.2882      6.8656      7.6694      8.7344      10.686      14.530      21.024      30.477    
  42.602      56.534      70.956      84.340      95.181      102.24      78.327      76.523      71.310      63.273    
  53.324      42.602      32.295      23.434      16.675      12.189      9.6381      8.3074      7.4076      6.7002    
  6.2019      5.8712      5.6749      5.5708      5.5405      5.5708      5.6749      5.8712      6.2019      6.7002    
  7.4076      8.3074      9.6381      12.189      16.675      23.434      32.295      42.602      53.324      63.273    
  71.310      76.523      55.336      54.077      50.441      44.831      37.901      30.477      23.434      17.510    
  13.155      10.388      8.8510      7.8941      7.1190      6.5297      6.1102      5.8366      5.6684      5.5819    
  5.5536      5.5819      5.6684      5.8366      6.1102      6.5297      7.1190      7.8941      8.8510      10.388    
  13.155      17.510      23.434      30.477      37.901      44.831      50.441      54.077      37.012      36.191    
  33.822      30.183      25.725      21.024      16.675      13.155      10.685      9.1786      8.2347      7.4646    
  6.8345      6.3591      6.0229      5.7989      5.6608      5.5865      5.5635      5.5865      5.6608      5.7989    
  6.0229      6.3591      6.8345      7.4646      8.2347      9.1786      10.685      13.155      16.675      21.024    
  25.725      30.183      33.822      36.191      23.780      23.289      21.880      19.739      17.167      14.530    
  12.189      10.388      9.1786      8.3581      7.6603      7.0531      6.5681      6.2015      5.9397      5.7615    
  5.6487      5.5865      5.5669      5.5865      5.6487      5.7615      5.9397      6.2015      6.5681      7.0531    
  7.6603      8.3581      9.1786      10.388      12.189      14.530      17.167      19.739      21.880      23.289    
  15.285      15.027      14.294      13.202      11.931      10.686      9.6381      8.8510      8.2347      7.6603    
  7.1328      6.6881      6.3319      6.0614      5.8635      5.7248      5.6328      5.5807      5.5635      5.5807    
  5.6328      5.7248      5.8635      6.0614      6.3319      6.6881      7.1328      7.6603      8.2347      8.8510    
  9.6381      10.686      11.931      13.202      14.294      15.027      10.572      10.462      10.153      9.7074    
  9.2095      8.7344      8.3074      7.8941      7.4646      7.0531      6.6881      6.3798      6.1326      5.9403    
  5.7943      5.6863      5.6120      5.5680      5.5536      5.5680      5.6120      5.6863      5.7943      5.9403    
  6.1326      6.3798      6.6881      7.0531      7.4646      7.8941      8.3074      8.7344      9.2095      9.7074    
  10.153      10.462      8.3640      8.3282      8.2277      8.0774      7.8911      7.6694      7.4076      7.1190    
  6.8345      6.5681      6.3319      6.1326      5.9690      5.8362      5.7298      5.6480      5.5889      5.5528    
  5.5405      5.5528      5.5889      5.6480      5.7298      5.8362      5.9690      6.1326      6.3319      6.5681    
  6.8345      7.1190      7.4076      7.6694      7.8911      8.0774      8.2277      8.3282      7.2834      7.2671    
  7.2176      7.1335      7.0143      6.8656      6.7002      6.5297      6.3591      6.2015      6.0614      5.9403    
  5.8362      5.7467      5.6721      5.6106      5.5636      5.5335      5.5233      5.5335      5.5636      5.6106    
  5.6721      5.7467      5.8362      5.9403      6.0614      6.2015      6.3591      6.5297      6.7002      6.8656    
  7.0143      7.1335      7.2176      7.2671      6.5149      6.5048      6.4751      6.4272      6.3641      6.2882    
  6.2019      6.1102      6.0229      5.9397      5.8635      5.7943      5.7298      5.6721      5.6195      5.5732    
  5.5361      5.5122      5.5038      5.5122      5.5361      5.5732      5.6195      5.6721      5.7298      5.7943    
  5.8635      5.9397      6.0229      6.1102      6.2019      6.2882      6.3641      6.4272      6.4751      6.5048    
  5.9941      5.9906      5.9799      5.9618      5.9363      5.9049      5.8712      5.8366      5.7989      5.7615    
  5.7248      5.6863      5.6480      5.6106      5.5732      5.5385      5.5104      5.4921      5.4858      5.4921    
  5.5104      5.5385      5.5732      5.6106      5.6480      5.6863      5.7248      5.7615      5.7989      5.8366    
  5.8712      5.9049      5.9363      5.9618      5.9799      5.9906      5.6745      5.6746      5.6751      5.6760    
  5.6773      5.6777      5.6749      5.6684      5.6608      5.6487      5.6328      5.6120      5.5889      5.5636    
  5.5361      5.5104      5.4897      5.4765      5.4718      5.4765      5.4897      5.5104      5.5361      5.5636    
  5.5889      5.6120      5.6328      5.6487      5.6608      5.6684      5.6749      5.6777      5.6773      5.6760    
  5.6751      5.6746      5.5121      5.5148      5.5220      5.5328      5.5451      5.5580      5.5708      5.5819    
  5.5865      5.5865      5.5807      5.5680      5.5528      5.5335      5.5122      5.4921      5.4765      5.4664    
  5.4631      5.4664      5.4765      5.4921      5.5122      5.5335      5.5528      5.5680      5.5807      5.5865    
  5.5865      5.5819      5.5708      5.5580      5.5451      5.5328      5.5220      5.5148      5.4600      5.4631    
  5.4718      5.4858      5.5038      5.5233      5.5405      5.5536      5.5635      5.5669      5.5635      5.5536    
  5.5405      5.5233      5.5038      5.4858      5.4718      5.4631      5.4600      5.4631      5.4718      5.4858    
  5.5038      5.5233      5.5405      5.5536      5.5635      5.5669      5.5635      5.5536      5.5405      5.5233    
  5.5038      5.4858      5.4718      5.4631      5.5121      5.5148      5.5220      5.5328      5.5451      5.5580    
  5.5708      5.5819      5.5865      5.5865      5.5807      5.5680      5.5528      5.5335      5.5122      5.4921    
  5.4765      5.4664      5.4631      5.4664      5.4765      5.4921      5.5122      5.5335      5.5528      5.5680    
  5.5807      5.5865      5.5865      5.5819      5.5708      5.5580      5.5451      5.5328      5.5220      5.5148    
  5.6745      5.6746      5.6751      5.6760      5.6773      5.6777      5.6749      5.6684      5.6608      5.6487    
  5.6328      5.6120      5.5889      5.5636      5.5361      5.5104      5.4897      5.4765      5.4718      5.4765    
  5.4897      5.5104      5.5361      5.5636      5.5889      5.6120      5.6328      5.6487      5.6608      5.6684    
  5.6749      5.6777      5.6773      5.6760      5.6751      5.6746      5.9941      5.9906      5.9799      5.9618    
  5.9363      5.9049      5.8712      5.8366      5.7989      5.7615      5.7248      5.6863      5.6480      5.6106    
  5.5732      5.5385      5.5104      5.4921      5.4858      5.4921      5.5104      5.5385      5.5732      5.6106    
  5.6480      5.6863      5.7248      5.7615      5.7989      5.8366      5.8712      5.9049      5.9363      5.9618    
  5.9799      5.9906      6.5149      6.5048      6.4751      6.4272      6.3641      6.2882      6.2019      6.1102    
  6.0229      5.9397      5.8635      5.7943      5.7298      5.6721      5.6195      5.5732      5.5361      5.5122    
  5.5038      5.5122      5.5361      5.5732      5.6195      5.6721      5.7298      5.7943      5.8635      5.9397    
  6.0229      6.1102      6.2019      6.2882      6.3641      6.4272      6.4751      6.5048      7.2834      7.2671    
  7.2176      7.1335      7.0143      6.8656      6.7002      6.5297      6.3591      6.2015      6.0614      5.9403    
  5.8362      5.7467      5.6721      5.6106      5.5636      5.5335      5.5233      5.5335      5.5636      5.6106    
  5.6721      5.7467      5.8362      5.9403      6.0614      6.2015      6.3591      6.5297      6.7002      6.8656    
  7.0143      7.1335      7.2176      7.2671      8.3640      8.3282      8.2277      8.0774      7.8911      7.6694    
  7.4076      7.1190      6.8345      6.5681      6.3319      6.1326      5.9690      5.8362      5.7298      5.6480    
  5.5889      5.5528      5.5405      5.5528      5.5889      5.6480      5.7298      5.8362      5.9690      6.1326    
  6.3319      6.5681      6.8345      7.1190      7.4076      7.6694      7.8911      8.0774      8.2277      8.3282    
  10.572      10.462      10.153      9.7074      9.2095      8.7344      8.3074      7.8941      7.4646      7.0531    
  6.6881      6.3798      6.1326      5.9403      5.7943      5.6863      5.6120      5.5680      5.5536      5.5680    
  5.6120      5.6863      5.7943      5.9403      6.1326      6.3798      6.6881      7.0531      7.4646      7.8941    
  8.3074      8.7344      9.2095      9.7074      10.153      10.462      15.285      15.027      14.294      13.202    
  11.931      10.686      9.6381      8.8510      8.2347      7.6603      7.1328      6.6881      6.3319      6.0614    
  5.8635      5.7248      5.6328      5.5807      5.5635      5.5807      5.6328      5.7248      5.8635      6.0614    
  6.3319      6.6881      7.1328      7.6603      8.2347      8.8510      9.6381      10.686      11.931      13.202    
  14.294      15.027      23.780      23.289      21.880      19.739      17.167      14.530      12.189      10.388    
  9.1786      8.3581      7.6603      7.0531      6.5681      6.2015      5.9397      5.7615      5.6487      5.5865    
  5.5669      5.5865      5.6487      5.7615      5.9397      6.2015      6.5681      7.0531      7.6603      8.3581    
  9.1786      10.388      12.189      14.530      17.167      19.739      21.880      23.289      37.012      36.191    
  33.822      30.183      25.725      21.024      16.675      13.155      10.685      9.1786      8.2347      7.4646    
  6.8345      6.3591      6.0229      5.7989      5.6608      5.5865      5.5635      5.5865      5.6608      5.7989    
  6.0229      6.3591      6.8345      7.4646      8.2347      9.1786      10.685      13.155      16.675      21.024    
  25.725      30.183      33.822      36.191      55.336      54.077      50.441      44.831      37.901      30.477    
  23.434      17.510      13.155      10.388      8.8510      7.8941      7.1190      6.5297      6.1102      5.8366    
  5.6684      5.5819      5.5536      5.5819      5.6684      5.8366      6.1102      6.5297      7.1190      7.8941    
  8.8510      10.388      13.155      17.510      23.434      30.477      37.901      44.831      50.441      54.077    
  78.327      76.523      71.310      63.273      53.324      42.602      32.295      23.434      16.675      12.189    
  9.6381      8.3074      7.4076      6.7002      6.2019      5.8712      5.6749      5.5708      5.5405      5.5708    
  5.6749      5.8712      6.2019      6.7002      7.4076      8.3074      9.6381      12.189      16.675      23.434    
  32.295      42.602      53.324      63.273      71.310      76.523      104.68      102.24      95.181      84.340    
  70.956      56.534      42.602      30.477      21.024      14.530      10.686      8.7344      7.6694      6.8656    
  6.2882      5.9049      5.6777      5.5580      5.5233      5.5580      5.6777      5.9049      6.2882      6.8656    
  7.6694      8.7344      10.686      14.530      21.024      30.477      42.602      56.534      70.956      84.340    
  95.181      102.24      132.27      129.12      120.08      106.23      89.220      70.956      53.324      37.901    
  25.725      17.167      11.931      9.2095      7.8911      7.0143      6.3641      5.9363      5.6773      5.5451    
  5.5038      5.5451      5.6773      5.9363      6.3641      7.0143      7.8911      9.2095      11.931      17.167    
  25.725      37.901      53.324      70.956      89.220      106.23      120.08      129.12      158.32      154.49    
  143.48      126.72      106.23      84.340      63.273      44.831      30.183      19.739      13.202      9.7074    
  8.0774      7.1335      6.4272      5.9618      5.6760      5.5328      5.4858      5.5328      5.6760      5.9618    
  6.4272      7.1335      8.0774      9.7074      13.202      19.739      30.183      44.831      63.273      84.340    
  106.23      126.72      143.48      154.49      179.83      175.41      162.73      143.48      120.08      95.181    
  71.310      50.441      33.822      21.880      14.294      10.153      8.2277      7.2176      6.4751      5.9799    
  5.6751      5.5220      5.4718      5.5220      5.6751      5.9799      6.4751      7.2176      8.2277      10.153    
  14.294      21.880      33.822      50.441      71.310      95.181      120.08      143.48      162.73      175.41    
  194.04      189.21      175.41      154.49      129.12      102.24      76.523      54.077      36.191      23.289    
  15.027      10.462      8.3282      7.2671      6.5048      5.9906      5.6746      5.5148      5.4631      5.5148    
  5.6746      5.9906      6.5048      7.2671      8.3282      10.462      15.027      23.289      36.191      54.077    
  76.523      102.24      129.12      154.49      175.41      189.21      194.04      189.21      175.41      154.49    
  129.12      102.24      76.523      54.077      36.191      23.289      15.027      10.462      8.3282      7.2671    
  6.5048      5.9906      5.6746      5.5148      5.4631      5.5148      5.6746      5.9906      6.5048      7.2671    
  8.3282      10.462      15.027      23.289      36.191      54.077      76.523      102.24      129.12      154.49    
  175.41      189.21      189.21      184.52      171.10      150.75      126.06      99.848      74.759      52.846    
  35.389      22.810      14.778      10.356      8.2944      7.2513      6.4954      5.9876      5.6752      5.5177    
  5.4664      5.5177      5.6752      5.9876      6.4954      7.2513      8.2944      10.356      14.778      22.810    
  35.389      52.846      74.759      99.848      126.06      150.75      171.10      184.52      175.41      171.10    
  158.77      140.04      117.24      92.961      69.663      49.290      33.073      21.437      14.067      10.060    
  8.1988      7.2033      6.4674      5.9783      5.6771      5.5261      5.4765      5.5261      5.6771      5.9783    
  6.4674      7.2033      8.1988      10.060      14.067      21.437      33.073      49.290      69.663      92.961    
  117.24      140.04      158.77      171.10      154.49      150.75      140.04      123.71      103.73      82.373    
  61.807      43.806      29.520      19.353      13.011      9.6343      8.0550      7.1213      6.4224      5.9622    
  5.6801      5.5383      5.4921      5.5383      5.6801      5.9622      6.4224      7.1213      8.0550      9.6343    
  13.011      19.353      29.520      43.806      61.807      82.373      103.73      123.71      140.04      150.75    
  129.12      126.06      117.24      103.73      87.131      69.300      52.086      37.039      25.173      16.855    
  11.785      9.1588      7.8748      7.0052      6.3625      5.9392      5.6837      5.5527      5.5122      5.5527    
  5.6837      5.9392      6.3625      7.0052      7.8748      9.1588      11.785      16.855      25.173      37.039    
  52.086      69.300      87.131      103.73      117.24      126.06      102.24      99.848      92.961      82.373    
  69.300      55.216      41.618      29.797      20.600      14.302      10.587      8.7040      7.6574      6.8607    
  6.2901      5.9109      5.6864      5.5677      5.5335      5.5677      5.6864      5.9109      6.2901      6.8607    
  7.6574      8.7040      10.587      14.302      20.600      29.797      41.618      55.216      69.300      82.373    
  92.961      99.848      76.523      74.759      69.663      61.807      52.086      41.618      31.567      22.940    
  16.380      12.041      9.5829      8.2905      7.3995      6.7000      6.2070      5.8803      5.6859      5.5830    
  5.5528      5.5830      5.6859      5.8803      6.2070      6.7000      7.3995      8.2905      9.5829      12.041    
  16.380      22.940      31.567      41.618      52.086      61.807      69.663      74.759      54.077      52.846    
  49.290      43.806      37.039      29.797      22.940      17.190      12.976      10.309      8.8255      7.8837    
  7.1161      6.5338      6.1192      5.8486      5.6820      5.5962      5.5680      5.5962      5.6820      5.8486    
  6.1192      6.5338      7.1161      7.8837      8.8255      10.309      12.976      17.190      22.940      29.797    
  37.039      43.806      49.290      52.846      36.191      35.389      33.073      29.520      25.173      20.600    
  16.380      12.976      10.596      9.1460      8.2221      7.4595      6.8373      6.3675      6.0353      5.8136    
  5.6771      5.6034      5.5807      5.6034      5.6771      5.8136      6.0353      6.3675      6.8373      7.4595    
  8.2221      9.1460      10.596      12.976      16.380      20.600      25.173      29.520      33.073      35.389    
  23.289      22.810      21.437      19.353      16.855      14.302      12.041      10.309      9.1460      8.3446    
  7.6541      7.0548      6.5759      6.2142      5.9559      5.7798      5.6679      5.6061      5.5865      5.6061    
  5.6679      5.7798      5.9559      6.2142      6.5759      7.0548      7.6541      8.3446      9.1460      10.309    
  12.041      14.302      16.855      19.353      21.437      22.810      15.027      14.778      14.067      13.011    
  11.785      10.587      9.5829      8.8255      8.2221      7.6541      7.1340      6.6955      6.3448      6.0786    
  5.8829      5.7456      5.6548      5.6034      5.5865      5.6034      5.6548      5.7456      5.8829      6.0786    
  6.3448      6.6955      7.1340      7.6541      8.2221      8.8255      9.5829      10.587      11.785      13.011    
  14.067      14.778      10.462      10.356      10.060      9.6343      9.1588      8.7040      8.2905      7.8837    
  7.4595      7.0548      6.6955      6.3928      6.1501      5.9604      5.8172      5.7120      5.6394      5.5962    
  5.5819      5.5962      5.6394      5.7120      5.8172      5.9604      6.1501      6.3928      6.6955      7.0548    
  7.4595      7.8837      8.2905      8.7040      9.1588      9.6343      10.060      10.356      8.3282      8.2944    
  8.1988      8.0550      7.8748      7.6574      7.3995      7.1161      6.8373      6.5759      6.3448      6.1501    
  5.9894      5.8607      5.7580      5.6778      5.6190      5.5830      5.5708      5.5830      5.6190      5.6778    
  5.7580      5.8607      5.9894      6.1501      6.3448      6.5759      6.8373      7.1161      7.3995      7.6574    
  7.8748      8.0550      8.1988      8.2944      7.2671      7.2513      7.2033      7.1213      7.0052      6.8607    
  6.7000      6.5338      6.3675      6.2142      6.0786      5.9604      5.8607      5.7757      5.7024      5.6419    
  5.5964      5.5677      5.5580      5.5677      5.5964      5.6419      5.7024      5.7757      5.8607      5.9604    
  6.0786      6.2142      6.3675      6.5338      6.7000      6.8607      7.0052      7.1213      7.2033      7.2513    
  6.5048      6.4954      6.4674      6.4224      6.3625      6.2901      6.2070      6.1192      6.0353      5.9559    
  5.8829      5.8172      5.7580      5.7024      5.6517      5.6083      5.5745      5.5527      5.5451      5.5527    
  5.5745      5.6083      5.6517      5.7024      5.7580      5.8172      5.8829      5.9559      6.0353      6.1192    
  6.2070      6.2901      6.3625      6.4224      6.4674      6.4954      5.9906      5.9876      5.9783      5.9622    
  5.9392      5.9109      5.8803      5.8486      5.8136      5.7798      5.7456      5.7120      5.6778      5.6419    
  5.6083      5.5785      5.5544      5.5383      5.5328      5.5383      5.5544      5.5785      5.6083      5.6419    
  5.6778      5.7120      5.7456      5.7798      5.8136      5.8486      5.8803      5.9109      5.9392      5.9622    
  5.9783      5.9876      5.6746      5.6752      5.6771      5.6801      5.6837      5.6864      5.6859      5.6820    
  5.6771      5.6679      5.6548      5.6394      5.6190      5.5964      5.5745      5.5544      5.5374      5.5261    
  5.5220      5.5261      5.5374      5.5544      5.5745      5.5964      5.6190      5.6394      5.6548      5.6679    
  5.6771      5.6820      5.6859      5.6864      5.6837      5.6801      5.6771      5.6752      5.5148      5.5177    
  5.5261      5.5383      5.5527      5.5677      5.5830      5.5962      5.6034      5.6061      5.6034      5.5962    
  5.5830      5.5677      5.5527      5.5383      5.5261      5.5177      5.5148      5.5177      5.5261      5.5383    
  5.5527      5.5677      5.5830      5.5962      5.6034      5.6061      5.6034      5.5962      5.5830      5.5677    
  5.5527      5.5383      5.5261      5.5177      5.4631      5.4664      5.4765      5.4921      5.5122      5.5335    
  5.5528      5.5680      5.5807      5.5865      5.5865      5.5819      5.5708      5.5580      5.5451      5.5328    
  5.5220      5.5148      5.5121      5.5148      5.5220      5.5328      5.5451      5.5580      5.5708      5.5819    
  5.5865      5.5865      5.5807      5.5680      5.5528      5.5335      5.5122      5.4921      5.4765      5.4664    
  5.5148      5.5177      5.5261      5.5383      5.5527      5.5677      5.5830      5.5962      5.6034      5.6061    
  5.6034      5.5962      5.5830      5.5677      5.5527      5.5383      5.5261      5.5177      5.5148      5.5177    
  5.5261      5.5383      5.5527      5.5677      5.5830      5.5962      5.6034      5.6061      5.6034      5.5962    
  5.5830      5.5677      5.5527      5.5383      5.5261      5.5177      5.6746      5.6752      5.6771      5.6801    
  5.6837      5.6864      5.6859      5.6820      5.6771      5.6679      5.6548      5.6394      5.6190      5.5964    
  5.5745      5.5544      5.5374      5.5261      5.5220      5.5261      5.5374      5.5544      5.5745      5.5964    
  5.6190      5.6394      5.6548      5.6679      5.6771      5.6820      5.6859      5.6864      5.6837      5.6801    
  5.6771      5.6752      5.9906      5.9876      5.9783      5.9622      5.9392      5.9109      5.8803      5.8486    
  5.8136      5.7798      5.7456      5.7120      5.6778      5.6419      5.6083      5.5785      5.5544      5.5383    
  5.5328      5.5383      5.5544      5.5785      5.6083      5.6419      5.6778      5.7120      5.7456      5.7798    
  5.8136      5.8486      5.8803      5.9109      5.9392      5.9622      5.9783      5.9876      6.5048      6.4954    
  6.4674      6.4224      6.3625      6.2901      6.2070      6.1192      6.0353      5.9559      5.8829      5.8172    
  5.7580      5.7024      5.6517      5.6083      5.5745      5.5527      5.5451      5.5527      5.5745      5.6083    
  5.6517      5.7024      5.7580      5.8172      5.8829      5.9559      6.0353      6.1192      6.2070      6.2901    
  6.3625      6.4224      6.4674      6.4954      7.2671      7.2513      7.2033      7.1213      7.0052      6.8607    
  6.7000      6.5338      6.3675      6.2142      6.0786      5.9604      5.8607      5.7757      5.7024      5.6419    
  5.5964      5.5677      5.5580      5.5677      5.5964      5.6419      5.7024      5.7757      5.8607      5.9604    
  6.0786      6.2142      6.3675      6.5338      6.7000      6.8607      7.0052      7.1213      7.2033      7.2513    
  8.3282      8.2944      8.1988      8.0550      7.8748      7.6574      7.3995      7.1161      6.8373      6.5759    
  6.3448      6.1501      5.9894      5.8607      5.7580      5.6778      5.6190      5.5830      5.5708      5.5830    
  5.6190      5.6778      5.7580      5.8607      5.9894      6.1501      6.3448      6.5759      6.8373      7.1161    
  7.3995      7.6574      7.8748      8.0550      8.1988      8.2944      10.462      10.356      10.060      9.6343    
  9.1588      8.7040      8.2905      7.8837      7.4595      7.0548      6.6955      6.3928      6.1501      5.9604    
  5.8172      5.7120      5.6394      5.5962      5.5819      5.5962      5.6394      5.7120      5.8172      5.9604    
  6.1501      6.3928      6.6955      7.0548      7.4595      7.8837      8.2905      8.7040      9.1588      9.6343    
  10.060      10.356      15.027      14.778      14.067      13.011      11.785      10.587      9.5829      8.8255    
  8.2221      7.6541      7.1340      6.6955      6.3448      6.0786      5.8829      5.7456      5.6548      5.6034    
  5.5865      5.6034      5.6548      5.7456      5.8829      6.0786      6.3448      6.6955      7.1340      7.6541    
  8.2221      8.8255      9.5829      10.587      11.785      13.011      14.067      14.778      23.289      22.810    
  21.437      19.353      16.855      14.302      12.041      10.309      9.1460      8.3446      7.6541      7.0548    
  6.5759      6.2142      5.9559      5.7798      5.6679      5.6061      5.5865      5.6061      5.6679      5.7798    
  5.9559      6.2142      6.5759      7.0548      7.6541      8.3446      9.1460      10.309      12.041      14.302    
  16.855      19.353      21.437      22.810      36.191      35.389      33.073      29.520      25.173      20.600    
  16.380      12.976      10.596      9.1460      8.2221      7.4595      6.8373      6.3675      6.0353      5.8136    
  5.6771      5.6034      5.5807      5.6034      5.6771      5.8136      6.0353      6.3675      6.8373      7.4595    
  8.2221      9.1460      10.596      12.976      16.380      20.600      25.173      29.520      33.073      35.389    
  54.077      52.846      49.290      43.806      37.039      29.797      22.940      17.190      12.976      10.309    
  8.8255      7.8837      7.1161      6.5338      6.1192      5.8486      5.6820      5.5962      5.5680      5.5962    
  5.6820      5.8486      6.1192      6.5338      7.1161      7.8837      8.8255      10.309      12.976      17.190    
  22.940      29.797      37.039      43.806      49.290      52.846      76.523      74.759      69.663      61.807    
  52.086      41.618      31.567      22.940      16.380      12.041      9.5829      8.2905      7.3995      6.7000    
  6.2070      5.8803      5.6859      5.5830      5.5528      5.5830      5.6859      5.8803      6.2070      6.7000    
  7.3995      8.2905      9.5829      12.041      16.380      22.940      31.567      41.618      52.086      61.807    
  69.663      74.759      102.24      99.848      92.961      82.373      69.300      55.216      41.618      29.797    
  20.600      14.302      10.587      8.7040      7.6574      6.8607      6.2901      5.9109      5.6864      5.5677    
  5.5335      5.5677      5.6864      5.9109      6.2901      6.8607      7.6574      8.7040      10.587      14.302    
  20.600      29.797      41.618      55.216      69.300      82.373      92.961      99.848      129.12      126.06    