unknown system                          
   1.00000000000000     
     2.828082   -0.000000    0.000000
     0.000000    2.828082    0.000000
    -0.000000    0.000000    2.828082
   Fe
     2
Direct
  0.000000  0.000000  0.000000
  0.500000  0.500000  0.500000
 
   36   36   36
 0.19155736228E+03 0.18688908970E+03 0.17353011109E+03 0.15326472059E+03 0.12863550031E+03
 0.10243822720E+03 0.77259683762E+02 0.55120004758E+02 0.37286481969E+02 0.24223905678E+02
 0.15674898832E+02 0.10807714359E+02 0.84680764780E+01 0.73670055295E+01 0.66170279053E+01
 0.60962254360E+01 0.57765644639E+01 0.56106976210E+01 0.55591965915E+01 0.56106976210E+01
 0.57765644639E+01 0.60962254360E+01 0.66170279053E+01 0.73670055295E+01 0.84680764780E+01
 0.10807714359E+02 0.15674898832E+02 0.24223905678E+02 0.37286481969E+02 0.55120004758E+02
 0.77259683762E+02 0.10243822720E+03 0.12863550031E+03 0.15326472059E+03 0.17353011109E+03
 0.18688908970E+03 0.18688908970E+03 0.18235092874E+03 0.16935974362E+03 0.14963751504E+03
 0.12564558293E+03 0.10009874000E+03 0.75521354447E+02 0.53895568373E+02 0.36478512176E+02
 0.23733039686E+02 0.15410655929E+02 0.10690586729E+02 0.84292304860E+01 0.73517241599E+01
 0.66073802285E+01 0.60931364280E+01 0.57769794898E+01 0.56137470366E+01 0.55625253500E+01
 0.56137470366E+01 0.57769794898E+01 0.60931364280E+01 0.66073802285E+01 0.73517241599E+01
 0.84292304860E+01 0.10690586729E+02 0.15410655929E+02 0.23733039686E+02 0.36478512176E+02
 0.53895568373E+02 0.75521354447E+02 0.10009874000E+03 0.12564558293E+03 0.14963751504E+03
 0.16935974362E+03 0.18235092874E+03 0.17353011109E+03 0.16935974362E+03 0.15740802700E+03
 0.13922430979E+03 0.11704104079E+03 0.93347600057E+02 0.70494273387E+02 0.50356301416E+02
 0.34144115773E+02 0.22321028357E+02 0.14658055805E+02 0.10361219850E+02 0.83209383552E+01
 0.73054215643E+01 0.65789265095E+01 0.60835739512E+01 0.57781300317E+01 0.56221061693E+01
 0.55721326364E+01 0.56221061693E+01 0.57781300317E+01 0.60835739512E+01 0.65789265095E+01
 0.73054215643E+01 0.83209383552E+01 0.10361219850E+02 0.14658055805E+02 0.22321028357E+02
 0.34144115773E+02 0.50356301416E+02 0.70494273387E+02 0.93347600057E+02 0.11704104079E+03
 0.13922430979E+03 0.15740802700E+03 0.16935974362E+03 0.15326472059E+03 0.14963751504E+03
 0.13922430979E+03 0.12332802177E+03 0.10385275253E+03 0.82959508084E+02 0.62736029415E+02
 0.44888508823E+02 0.30552374411E+02 0.20170400296E+02 0.13531936533E+02 0.98834382175E+01
 0.81621264891E+01 0.72272586334E+01 0.65322670179E+01 0.60673753225E+01 0.57797536787E+01
 0.56347768201E+01 0.55871570578E+01 0.56347768201E+01 0.57797536787E+01 0.60673753225E+01
 0.65322670179E+01 0.72272586334E+01 0.81621264891E+01 0.98834382175E+01 0.13531936533E+02
 0.20170400296E+02 0.30552374411E+02 0.44888508823E+02 0.62736029415E+02 0.82959508084E+02
 0.10385275253E+03 0.12332802177E+03 0.13922430979E+03 0.14963751504E+03 0.12863550031E+03
 0.12564558293E+03 0.11704104079E+03 0.10385275253E+03 0.87612339041E+02 0.70106689848E+02
 0.53109834375E+02 0.38116283840E+02 0.26136196341E+02 0.17571243176E+02 0.12210607405E+02
 0.93460381587E+01 0.79721925049E+01 0.71150695190E+01 0.64704811488E+01 0.60437376499E+01
 0.57818086881E+01 0.56491124088E+01 0.56063447451E+01 0.56491124088E+01 0.57818086881E+01
 0.60437376499E+01 0.64704811488E+01 0.71150695190E+01 0.79721925049E+01 0.93460381587E+01
 0.12210607405E+02 0.17571243176E+02 0.26136196341E+02 0.38116283840E+02 0.53109834375E+02
 0.70106689848E+02 0.87612339041E+02 0.10385275253E+03 0.11704104079E+03 0.12564558293E+03
 0.10243822720E+03 0.10009874000E+03 0.93347600057E+02 0.82959508084E+02 0.70106689848E+02
 0.56204196929E+02 0.42692735208E+02 0.30824228467E+02 0.21448082216E+02 0.14884389624E+02
 0.10900409679E+02 0.88348131350E+01 0.77563075073E+01 0.69719186285E+01 0.63963128943E+01
 0.60135335314E+01 0.57834478887E+01 0.56635266971E+01 0.56275313424E+01 0.56635266971E+01
 0.57834478887E+01 0.60135335314E+01 0.63963128943E+01 0.69719186285E+01 0.77563075073E+01
 0.88348131350E+01 0.10900409679E+02 0.14884389624E+02 0.21448082216E+02 0.30824228467E+02
 0.42692735208E+02 0.56204196929E+02 0.70106689848E+02 0.82959508084E+02 0.93347600057E+02
 0.10009874000E+03 0.77259683762E+02 0.75521354447E+02 0.70494273387E+02 0.62736029415E+02
 0.53109834375E+02 0.42692735208E+02 0.32609351963E+02 0.23850001088E+02 0.17064786466E+02
 0.12465408546E+02 0.97831825284E+01 0.83897796565E+01 0.75067244769E+01 0.68088786925E+01
 0.63121947240E+01 0.59795847640E+01 0.57822695016E+01 0.56769161530E+01 0.56468188325E+01
 0.56769161530E+01 0.57822695016E+01 0.59795847640E+01 0.63121947240E+01 0.68088786925E+01
 0.75067244769E+01 0.83897796565E+01 0.97831825284E+01 0.12465408546E+02 0.17064786466E+02
 0.23850001088E+02 0.32609351963E+02 0.42692735208E+02 0.53109834375E+02 0.62736029415E+02
 0.70494273387E+02 0.75521354447E+02 0.55120004758E+02 0.53895568373E+02 0.50356301416E+02
 0.44888508823E+02 0.38116283840E+02 0.30824228467E+02 0.23850001088E+02 0.17910281521E+02
 0.13462490058E+02 0.10572577636E+02 0.89439501687E+01 0.79837527855E+01 0.72265185947E+01
 0.66401115082E+01 0.62209135699E+01 0.59450446766E+01 0.57764126175E+01 0.56889802952E+01
 0.56611010286E+01 0.56889802952E+01 0.57764126175E+01 0.59450446766E+01 0.62209135699E+01
 0.66401115082E+01 0.72265185947E+01 0.79837527855E+01 0.89439501687E+01 0.10572577636E+02
 0.13462490058E+02 0.17910281521E+02 0.23850001088E+02 0.30824228467E+02 0.38116283840E+02
 0.44888508823E+02 0.50356301416E+02 0.53895568373E+02 0.37286481969E+02 0.36478512176E+02
 0.34144115773E+02 0.30552374411E+02 0.26136196341E+02 0.21448082216E+02 0.17064786466E+02
 0.13462490058E+02 0.10883793112E+02 0.92833371519E+01 0.83192759357E+01 0.75689916905E+01
 0.69447493894E+01 0.64708744811E+01 0.61323699144E+01 0.59074934604E+01 0.57682635763E+01
 0.56944920404E+01 0.56710986938E+01 0.56944920404E+01 0.57682635763E+01 0.59074934604E+01
 0.61323699144E+01 0.64708744811E+01 0.69447493894E+01 0.75689916905E+01 0.83192759357E+01
 0.92833371519E+01 0.10883793112E+02 0.13462490058E+02 0.17064786466E+02 0.21448082216E+02
 0.26136196341E+02 0.30552374411E+02 0.34144115773E+02 0.36478512176E+02 0.24223905678E+02
 0.23733039686E+02 0.22321028357E+02 0.20170400296E+02 0.17571243176E+02 0.14884389624E+02
 0.12465408546E+02 0.10572577636E+02 0.92833371519E+01 0.84415355016E+01 0.77620720789E+01
 0.71631540927E+01 0.66801631104E+01 0.63117511134E+01 0.60484883374E+01 0.58690922970E+01
 0.57565512624E+01 0.56944093503E+01 0.56751953443E+01 0.56944093503E+01 0.57565512624E+01
 0.58690922970E+01 0.60484883374E+01 0.63117511134E+01 0.66801631104E+01 0.71631540927E+01
 0.77620720789E+01 0.84415355016E+01 0.92833371519E+01 0.10572577636E+02 0.12465408546E+02
 0.14884389624E+02 0.17571243176E+02 0.20170400296E+02 0.22321028357E+02 0.23733039686E+02
 0.15674898832E+02 0.15410655929E+02 0.14658055805E+02 0.13531936533E+02 0.12210607405E+02
 0.10900409679E+02 0.97831825284E+01 0.89439501687E+01 0.83192759357E+01 0.77620720789E+01
 0.72427481728E+01 0.68002153202E+01 0.64426522242E+01 0.61703820420E+01 0.59708738162E+01
 0.58315807594E+01 0.57397040780E+01 0.56880949877E+01 0.56710986938E+01 0.56880949877E+01
 0.57397040780E+01 0.58315807594E+01 0.59708738162E+01 0.61703820420E+01 0.64426522242E+01
 0.68002153202E+01 0.72427481728E+01 0.77620720789E+01 0.83192759357E+01 0.89439501687E+01
 0.97831825284E+01 0.10900409679E+02 0.12210607405E+02 0.13531936533E+02 0.14658055805E+02
 0.15410655929E+02 0.10807714359E+02 0.10690586729E+02 0.10361219850E+02 0.98834382175E+01
 0.93460381587E+01 0.88348131350E+01 0.83897796565E+01 0.79837527855E+01 0.75689916905E+01
 0.71631540927E+01 0.68002153202E+01 0.64907825594E+01 0.62417305291E+01 0.60473843237E+01
 0.59001047287E+01 0.57920560512E+01 0.57184589758E+01 0.56752000535E+01 0.56611010286E+01
 0.56752000535E+01 0.57184589758E+01 0.57920560512E+01 0.59001047287E+01 0.60473843237E+01
 0.62417305291E+01 0.64907825594E+01 0.68002153202E+01 0.71631540927E+01 0.75689916905E+01
 0.79837527855E+01 0.83897796565E+01 0.88348131350E+01 0.93460381587E+01 0.98834382175E+01
 0.10361219850E+02 0.10690586729E+02 0.84680764780E+01 0.84292304860E+01 0.83209383552E+01
 0.81621264891E+01 0.79721925049E+01 0.77563075073E+01 0.75067244769E+01 0.72265185947E+01
 0.69447493894E+01 0.66801631104E+01 0.64426522242E+01 0.62417305291E+01 0.60759073601E+01
 0.59414924037E+01 0.58349261511E+01 0.57535281327E+01 0.56947795169E+01 0.56590114766E+01
 0.56468188325E+01 0.56590114766E+01 0.56947795169E+01 0.57535281327E+01 0.58349261511E+01
 0.59414924037E+01 0.60759073601E+01 0.62417305291E+01 0.64426522242E+01 0.66801631104E+01
 0.69447493894E+01 0.72265185947E+01 0.75067244769E+01 0.77563075073E+01 0.79721925049E+01
 0.81621264891E+01 0.83209383552E+01 0.84292304860E+01 0.73670055295E+01 0.73517241599E+01
 0.73054215643E+01 0.72272586334E+01 0.71150695190E+01 0.69719186285E+01 0.68088786925E+01
 0.66401115082E+01 0.64708744811E+01 0.63117511134E+01 0.61703820420E+01 0.60473843237E+01
 0.59414924037E+01 0.58516085234E+01 0.57767417017E+01 0.57148661061E+01 0.56677262810E+01
 0.56377195512E+01 0.56275313424E+01 0.56377195512E+01 0.56677262810E+01 0.57148661061E+01
 0.57767417017E+01 0.58516085234E+01 0.59414924037E+01 0.60473843237E+01 0.61703820420E+01
 0.63117511134E+01 0.64708744811E+01 0.66401115082E+01 0.68088786925E+01 0.69719186285E+01
 0.71150695190E+01 0.72272586334E+01 0.73054215643E+01 0.73517241599E+01 0.66170279053E+01
 0.66073802285E+01 0.65789265095E+01 0.65322670179E+01 0.64704811488E+01 0.63963128943E+01
 0.63121947240E+01 0.62209135699E+01 0.61323699144E+01 0.60484883374E+01 0.59708738162E+01
 0.59001047287E+01 0.58349261511E+01 0.57767417017E+01 0.57231891199E+01 0.56761944075E+01
 0.56387344205E+01 0.56147748151E+01 0.56063447451E+01 0.56147748151E+01 0.56387344205E+01
 0.56761944075E+01 0.57231891199E+01 0.57767417017E+01 0.58349261511E+01 0.59001047287E+01
 0.59708738162E+01 0.60484883374E+01 0.61323699144E+01 0.62209135699E+01 0.63121947240E+01
 0.63963128943E+01 0.64704811488E+01 0.65322670179E+01 0.65789265095E+01 0.66073802285E+01
 0.60962254360E+01 0.60931364280E+01 0.60835739512E+01 0.60673753225E+01 0.60437376499E+01
 0.60135335314E+01 0.59795847640E+01 0.59450446766E+01 0.59074934604E+01 0.58690922970E+01
 0.58315807594E+01 0.57920560512E+01 0.57535281327E+01 0.57148661061E+01 0.56761944075E+01
 0.56405622359E+01 0.56120495661E+01 0.55935094214E+01 0.55871570578E+01 0.55935094214E+01
 0.56120495661E+01 0.56405622359E+01 0.56761944075E+01 0.57148661061E+01 0.57535281327E+01
 0.57920560512E+01 0.58315807594E+01 0.58690922970E+01 0.59074934604E+01 0.59450446766E+01
 0.59795847640E+01 0.60135335314E+01 0.60437376499E+01 0.60673753225E+01 0.60835739512E+01
 0.60931364280E+01 0.57765644639E+01 0.57769794898E+01 0.57781300317E+01 0.57797536787E+01
 0.57818086881E+01 0.57834478887E+01 0.57822695016E+01 0.57764126175E+01 0.57682635763E+01
 0.57565512624E+01 0.57397040780E+01 0.57184589758E+01 0.56947795169E+01 0.56677262810E+01
 0.56387344205E+01 0.56120495661E+01 0.55906582619E+01 0.55769316079E+01 0.55721326364E+01
 0.55769316079E+01 0.55906582619E+01 0.56120495661E+01 0.56387344205E+01 0.56677262810E+01
 0.56947795169E+01 0.57184589758E+01 0.57397040780E+01 0.57565512624E+01 0.57682635763E+01
 0.57764126175E+01 0.57822695016E+01 0.57834478887E+01 0.57818086881E+01 0.57797536787E+01
 0.57781300317E+01 0.57769794898E+01 0.56106976210E+01 0.56137470366E+01 0.56221061693E+01
 0.56347768201E+01 0.56491124088E+01 0.56635266971E+01 0.56769161530E+01 0.56889802952E+01
 0.56944920404E+01 0.56944093503E+01 0.56880949877E+01 0.56752000535E+01 0.56590114766E+01
 0.56377195512E+01 0.56147748151E+01 0.55935094214E+01 0.55769316079E+01 0.55661403267E+01
 0.55625253500E+01 0.55661403267E+01 0.55769316079E+01 0.55935094214E+01 0.56147748151E+01
 0.56377195512E+01 0.56590114766E+01 0.56752000535E+01 0.56880949877E+01 0.56944093503E+01
 0.56944920404E+01 0.56889802952E+01 0.56769161530E+01 0.56635266971E+01 0.56491124088E+01
 0.56347768201E+01 0.56221061693E+01 0.56137470366E+01 0.55591965915E+01 0.55625253500E+01
 0.55721326364E+01 0.55871570578E+01 0.56063447451E+01 0.56275313424E+01 0.56468188325E+01
 0.56611010286E+01 0.56710986938E+01 0.56751953443E+01 0.56710986938E+01 0.56611010286E+01
 0.56468188325E+01 0.56275313424E+01 0.56063447451E+01 0.55871570578E+01 0.55721326364E+01
 0.55625253500E+01 0.55591965915E+01 0.55625253500E+01 0.55721326364E+01 0.55871570578E+01
 0.56063447451E+01 0.56275313424E+01 0.56468188325E+01 0.56611010286E+01 0.56710986938E+01
 0.56751953443E+01 0.56710986938E+01 0.56611010286E+01 0.56468188325E+01 0.56275313424E+01
 0.56063447451E+01 0.55871570578E+01 0.55721326364E+01 0.55625253500E+01 0.56106976210E+01
 0.56137470366E+01 0.56221061693E+01 0.56347768201E+01 0.56491124088E+01 0.56635266971E+01
 0.56769161530E+01 0.56889802952E+01 0.56944920404E+01 0.56944093503E+01 0.56880949877E+01
 0.56752000535E+01 0.56590114766E+01 0.56377195512E+01 0.56147748151E+01 0.55935094214E+01
 0.55769316079E+01 0.55661403267E+01 0.55625253500E+01 0.55661403267E+01 0.55769316079E+01
 0.55935094214E+01 0.56147748151E+01 0.56377195512E+01 0.56590114766E+01 0.56752000535E+01
 0.56880949877E+01 0.56944093503E+01 0.56944920404E+01 0.56889802952E+01 0.56769161530E+01
 0.56635266971E+01 0.56491124088E+01 0.56347768201E+01 0.56221061693E+01 0.56137470366E+01
 0.57765644639E+01 0.57769794898E+01 0.57781300317E+01 0.57797536787E+01 0.57818086881E+01
 0.57834478887E+01 0.57822695016E+01 0.57764126175E+01 0.57682635763E+01 0.57565512624E+01
 0.57397040780E+01 0.57184589758E+01 0.56947795169E+01 0.56677262810E+01 0.56387344205E+01
 0.56120495661E+01 0.55906582619E+01 0.55769316079E+01 0.55721326364E+01 0.55769316079E+01
 0.55906582619E+01 0.56120495661E+01 0.56387344205E+01 0.56677262810E+01 0.56947795169E+01
 0.57184589758E+01 0.57397040780E+01 0.57565512624E+01 0.57682635763E+01 0.57764126175E+01
 0.57822695016E+01 0.57834478887E+01 0.57818086881E+01 0.57797536787E+01 0.57781300317E+01
 0.57769794898E+01 0.60962254360E+01 0.60931364280E+01 0.60835739512E+01 0.60673753225E+01
 0.60437376499E+01 0.60135335314E+01 0.59795847640E+01 0.59450446766E+01 0.59074934604E+01
 0.58690922970E+01 0.58315807594E+01 0.57920560512E+01 0.57535281327E+01 0.57148661061E+01
 0.56761944075E+01 0.56405622359E+01 0.56120495661E+01 0.55935094214E+01 0.55871570578E+01
 0.55935094214E+01 0.56120495661E+01 0.56405622359E+01 0.56761944075E+01 0.57148661061E+01
 0.57535281327E+01 0.57920560512E+01 0.58315807594E+01 0.58690922970E+01 0.59074934604E+01
 0.59450446766E+01 0.59795847640E+01 0.60135335314E+01 0.60437376499E+01 0.60673753225E+01
 0.60835739512E+01 0.60931364280E+01 0.66170279053E+01 0.66073802285E+01 0.65789265095E+01
 0.65322670179E+01 0.64704811488E+01 0.63963128943E+01 0.63121947240E+01 0.62209135699E+01
 0.61323699144E+01 0.60484883374E+01 0.59708738162E+01 0.59001047287E+01 0.58349261511E+01
 0.57767417017E+01 0.57231891199E+01 0.56761944075E+01 0.56387344205E+01 0.56147748151E+01
 0.56063447451E+01 0.56147748151E+01 0.56387344205E+01 0.56761944075E+01 0.57231891199E+01
 0.57767417017E+01 0.58349261511E+01 0.59001047287E+01 0.59708738162E+01 0.60484883374E+01
 0.61323699144E+01 0.62209135699E+01 0.63121947240E+01 0.63963128943E+01 0.64704811488E+01
 0.65322670179E+01 0.65789265095E+01 0.66073802285E+01 0.73670055295E+01 0.73517241599E+01
 0.73054215643E+01 0.72272586334E+01 0.71150695190E+01 0.69719186285E+01 0.68088786925E+01
 0.66401115082E+01 0.64708744811E+01 0.63117511134E+01 0.61703820420E+01 0.60473843237E+01
 0.59414924037E+01 0.58516085234E+01 0.57767417017E+01 0.57148661061E+01 0.56677262810E+01
 0.56377195512E+01 0.56275313424E+01 0.56377195512E+01 0.56677262810E+01 0.57148661061E+01
 0.57767417017E+01 0.58516085234E+01 0.59414924037E+01 0.60473843237E+01 0.61703820420E+01
 0.63117511134E+01 0.64708744811E+01 0.66401115082E+01 0.68088786925E+01 0.69719186285E+01
 0.71150695190E+01 0.72272586334E+01 0.73054215643E+01 0.73517241599E+01 0.84680764780E+01
 0.84292304860E+01 0.83209383552E+01 0.81621264891E+01 0.79721925049E+01 0.77563075073E+01
 0.75067244769E+01 0.72265185947E+01 0.69447493894E+01 0.66801631104E+01 0.64426522242E+01
 0.62417305291E+01 0.60759073601E+01 0.59414924037E+01 0.58349261511E+01 0.57535281327E+01
 0.56947795169E+01 0.56590114766E+01 0.56468188325E+01 0.56590114766E+01 0.56947795169E+01
 0.57535281327E+01 0.58349261511E+01 0.59414924037E+01 0.60759073601E+01 0.62417305291E+01
 0.64426522242E+01 0.66801631104E+01 0.69447493894E+01 0.72265185947E+01 0.75067244769E+01
 0.77563075073E+01 0.79721925049E+01 0.81621264891E+01 0.83209383552E+01 0.84292304860E+01
 0.10807714359E+02 0.10690586729E+02 0.10361219850E+02 0.98834382175E+01 0.93460381587E+01
 0.88348131350E+01 0.83897796565E+01 0.79837527855E+01 0.75689916905E+01 0.71631540927E+01
 0.68002153202E+01 0.64907825594E+01 0.62417305291E+01 0.60473843237E+01 0.59001047287E+01
 0.57920560512E+01 0.57184589758E+01 0.56752000535E+01 0.56611010286E+01 0.56752000535E+01
 0.57184589758E+01 0.57920560512E+01 0.59001047287E+01 0.60473843237E+01 0.62417305291E+01
 0.64907825594E+01 0.68002153202E+01 0.71631540927E+01 0.75689916905E+01 0.79837527855E+01
 0.83897796565E+01 0.88348131350E+01 0.93460381587E+01 0.98834382175E+01 0.10361219850E+02
 0.10690586729E+02 0.15674898832E+02 0.15410655929E+02 0.14658055805E+02 0.13531936533E+02
 0.12210607405E+02 0.10900409679E+02 0.97831825284E+01 0.89439501687E+01 0.83192759357E+01
 0.77620720789E+01 0.72427481728E+01 0.68002153202E+01 0.64426522242E+01 0.61703820420E+01
 0.59708738162E+01 0.58315807594E+01 0.57397040780E+01 0.56880949877E+01 0.56710986938E+01
 0.56880949877E+01 0.57397040780E+01 0.58315807594E+01 0.59708738162E+01 0.61703820420E+01
 0.64426522242E+01 0.68002153202E+01 0.72427481728E+01 0.77620720789E+01 0.83192759357E+01
 0.89439501687E+01 0.97831825284E+01 0.10900409679E+02 0.12210607405E+02 0.13531936533E+02
 0.14658055805E+02 0.15410655929E+02 0.24223905678E+02 0.23733039686E+02 0.22321028357E+02
 0.20170400296E+02 0.17571243176E+02 0.14884389624E+02 0.12465408546E+02 0.10572577636E+02
 0.92833371519E+01 0.84415355016E+01 0.77620720789E+01 0.71631540927E+01 0.66801631104E+01
 0.63117511134E+01 0.60484883374E+01 0.58690922970E+01 0.57565512624E+01 0.56944093503E+01
 0.56751953443E+01 0.56944093503E+01 0.57565512624E+01 0.58690922970E+01 0.60484883374E+01
 0.63117511134E+01 0.66801631104E+01 0.71631540927E+01 0.77620720789E+01 0.84415355016E+01
 0.92833371519E+01 0.10572577636E+02 0.12465408546E+02 0.14884389624E+02 0.17571243176E+02
 0.20170400296E+02 0.22321028357E+02 0.23733039686E+02 0.37286481969E+02 0.36478512176E+02
 0.34144115773E+02 0.30552374411E+02 0.26136196341E+02 0.21448082216E+02 0.17064786466E+02
 0.13462490058E+02 0.10883793112E+02 0.92833371519E+01 0.83192759357E+01 0.75689916905E+01
 0.69447493894E+01 0.64708744811E+01 0.61323699144E+01 0.59074934604E+01 0.57682635763E+01
 0.56944920404E+01 0.56710986938E+01 0.56944920404E+01 0.57682635763E+01 0.59074934604E+01
 0.61323699144E+01 0.64708744811E+01 0.69447493894E+01 0.75689916905E+01 0.83192759357E+01
 0.92833371519E+01 0.10883793112E+02 0.13462490058E+02 0.17064786466E+02 0.21448082216E+02
 0.26136196341E+02 0.30552374411E+02 0.34144115773E+02 0.36478512176E+02 0.55120004758E+02
 0.53895568373E+02 0.50356301416E+02 0.44888508823E+02 0.38116283840E+02 0.30824228467E+02
 0.23850001088E+02 0.17910281521E+02 0.13462490058E+02 0.10572577636E+02 0.89439501687E+01
 0.79837527855E+01 0.72265185947E+01 0.66401115082E+01 0.62209135699E+01 0.59450446766E+01
 0.57764126175E+01 0.56889802952E+01 0.56611010286E+01 0.56889802952E+01 0.57764126175E+01
 0.59450446766E+01 0.62209135699E+01 0.66401115082E+01 0.72265185947E+01 0.79837527855E+01
 0.89439501687E+01 0.10572577636E+02 0.13462490058E+02 0.17910281521E+02 0.23850001088E+02
 0.30824228467E+02 0.38116283840E+02 0.44888508823E+02 0.50356301416E+02 0.53895568373E+02
 0.77259683762E+02 0.75521354447E+02 0.70494273387E+02 0.62736029415E+02 0.53109834375E+02
 0.42692735208E+02 0.32609351963E+02 0.23850001088E+02 0.17064786466E+02 0.12465408546E+02
 0.97831825284E+01 0.83897796565E+01 0.75067244769E+01 0.68088786925E+01 0.63121947240E+01
 0.59795847640E+01 0.57822695016E+01 0.56769161530E+01 0.56468188325E+01 0.56769161530E+01
 0.57822695016E+01 0.59795847640E+01 0.63121947240E+01 0.68088786925E+01 0.75067244769E+01
 0.83897796565E+01 0.97831825284E+01 0.12465408546E+02 0.17064786466E+02 0.23850001088E+02
 0.32609351963E+02 0.42692735208E+02 0.53109834375E+02 0.62736029415E+02 0.70494273387E+02
 0.75521354447E+02 0.10243822720E+03 0.10009874000E+03 0.93347600057E+02 0.82959508084E+02
 0.70106689848E+02 0.56204196929E+02 0.42692735208E+02 0.30824228467E+02 0.21448082216E+02
 0.14884389624E+02 0.10900409679E+02 0.88348131350E+01 0.77563075073E+01 0.69719186285E+01
 0.63963128943E+01 0.60135335314E+01 0.57834478887E+01 0.56635266971E+01 0.56275313424E+01
 0.56635266971E+01 0.57834478887E+01 0.60135335314E+01 0.63963128943E+01 0.69719186285E+01
 0.77563075073E+01 0.88348131350E+01 0.10900409679E+02 0.14884389624E+02 0.21448082216E+02
 0.30824228467E+02 0.42692735208E+02 0.56204196929E+02 0.70106689848E+02 0.82959508084E+02
 0.93347600057E+02 0.10009874000E+03 0.12863550031E+03 0.12564558293E+03 0.11704104079E+03
 0.10385275253E+03 0.87612339041E+02 0.70106689848E+02 0.53109834375E+02 0.38116283840E+02
 0.26136196341E+02 0.17571243176E+02 0.12210607405E+02 0.93460381587E+01 0.79721925049E+01
 0.71150695190E+01 0.64704811488E+01 0.60437376499E+01 0.57818086881E+01 0.56491124088E+01
 0.56063447451E+01 0.56491124088E+01 0.57818086881E+01 0.60437376499E+01 0.64704811488E+01
 0.71150695190E+01 0.79721925049E+01 0.93460381587E+01 0.12210607405E+02 0.17571243176E+02
 0.26136196341E+02 0.38116283840E+02 0.53109834375E+02 0.70106689848E+02 0.87612339041E+02
 0.10385275253E+03 0.11704104079E+03 0.12564558293E+03 0.15326472059E+03 0.14963751504E+03
 0.13922430979E+03 0.12332802177E+03 0.10385275253E+03 0.82959508084E+02 0.62736029415E+02
 0.44888508823E+02 0.30552374411E+02 0.20170400296E+02 0.13531936533E+02 0.98834382175E+01
 0.81621264891E+01 0.72272586334E+01 0.65322670179E+01 0.60673753225E+01 0.57797536787E+01
 0.56347768201E+01 0.55871570578E+01 0.56347768201E+01 0.57797536787E+01 0.60673753225E+01
 0.65322670179E+01 0.72272586334E+01 0.81621264891E+01 0.98834382175E+01 0.13531936533E+02
 0.20170400296E+02 0.30552374411E+02 0.44888508823E+02 0.62736029415E+02 0.82959508084E+02
 0.10385275253E+03 0.12332802177E+03 0.13922430979E+03 0.14963751504E+03 0.17353011109E+03
 0.16935974362E+03 0.15740802700E+03 0.13922430979E+03 0.11704104079E+03 0.93347600057E+02
 0.70494273387E+02 0.50356301416E+02 0.34144115773E+02 0.22321028357E+02 0.14658055805E+02
 0.10361219850E+02 0.83209383552E+01 0.73054215643E+01 0.65789265095E+01 0.60835739512E+01
 0.57781300317E+01 0.56221061693E+01 0.55721326364E+01 0.56221061693E+01 0.57781300317E+01
 0.60835739512E+01 0.65789265095E+01 0.73054215643E+01 0.83209383552E+01 0.10361219850E+02
 0.14658055805E+02 0.22321028357E+02 0.34144115773E+02 0.50356301416E+02 0.70494273387E+02
 0.93347600057E+02 0.11704104079E+03 0.13922430979E+03 0.15740802700E+03 0.16935974362E+03
 0.18688908970E+03 0.18235092874E+03 0.16935974362E+03 0.14963751504E+03 0.12564558293E+03
 0.10009874000E+03 0.75521354447E+02 0.53895568373E+02 0.36478512176E+02 0.23733039686E+02
 0.15410655929E+02 0.10690586729E+02 0.84292304860E+01 0.73517241599E+01 0.66073802285E+01
 0.60931364280E+01 0.57769794898E+01 0.56137470366E+01 0.55625253500E+01 0.56137470366E+01
 0.57769794898E+01 0.60931364280E+01 0.66073802285E+01 0.73517241599E+01 0.84292304860E+01
 0.10690586729E+02 0.15410655929E+02 0.23733039686E+02 0.36478512176E+02 0.53895568373E+02
 0.75521354447E+02 0.10009874000E+03 0.12564558293E+03 0.14963751504E+03 0.16935974362E+03
 0.18235092874E+03 0.18688908970E+03 0.18235092874E+03 0.16935974362E+03 0.14963751504E+03
 0.12564558293E+03 0.10009874000E+03 0.75521354447E+02 0.53895568373E+02 0.36478512176E+02
 0.23733039686E+02 0.15410655929E+02 0.10690586729E+02 0.84292304860E+01 0.73517241599E+01
 0.66073802285E+01 0.60931364280E+01 0.57769794898E+01 0.56137470366E+01 0.55625253500E+01
 0.56137470366E+01 0.57769794898E+01 0.60931364280E+01 0.66073802285E+01 0.73517241599E+01
 0.84292304860E+01 0.10690586729E+02 0.15410655929E+02 0.23733039686E+02 0.36478512176E+02
 0.53895568373E+02 0.75521354447E+02 0.10009874000E+03 0.12564558293E+03 0.14963751504E+03
 0.16935974362E+03 0.18235092874E+03 0.18235092874E+03 0.17793831094E+03 0.16530217393E+03
 0.14610493178E+03 0.12272996132E+03 0.97813998383E+02 0.73821277379E+02 0.52697366343E+02
 0.35688360880E+02 0.23253995891E+02 0.15154179736E+02 0.10578109441E+02 0.83923921017E+01
 0.73370024308E+01 0.65983793624E+01 0.60905105301E+01 0.57777730113E+01 0.56170619216E+01
 0.55661403267E+01 0.56170619216E+01 0.57777730113E+01 0.60905105301E+01 0.65983793624E+01
 0.73370024308E+01 0.83923921017E+01 0.10578109441E+02 0.15154179736E+02 0.23253995891E+02
 0.35688360880E+02 0.52697366343E+02 0.73821277379E+02 0.97813998383E+02 0.12272996132E+03
 0.14610493178E+03 0.16530217393E+03 0.17793831094E+03 0.16935974362E+03 0.16530217393E+03
 0.15366978751E+03 0.13596001458E+03 0.11433650613E+03 0.91219769632E+02 0.68905254445E+02
 0.49234712600E+02 0.33406150507E+02 0.21876900135E+02 0.14424352543E+02 0.10261991520E+02
 0.82898783961E+01 0.72922693143E+01 0.65715161096E+01 0.60822868357E+01 0.57802595434E+01
 0.56265369291E+01 0.55769316079E+01 0.56265369291E+01 0.57802595434E+01 0.60822868357E+01
 0.65715161096E+01 0.72922693143E+01 0.82898783961E+01 0.10261991520E+02 0.14424352543E+02
 0.21876900135E+02 0.33406150507E+02 0.49234712600E+02 0.68905254445E+02 0.91219769632E+02
 0.11433650613E+03 0.13596001458E+03 0.15366978751E+03 0.16530217393E+03 0.14963751504E+03
 0.14610493178E+03 0.13596001458E+03 0.12046460995E+03 0.10146672455E+03 0.81071003586E+02
 0.61318741297E+02 0.43887957471E+02 0.29897500676E+02 0.19781971369E+02 0.13333986425E+02
 0.98042873003E+01 0.81386252150E+01 0.72162601006E+01 0.65275922466E+01 0.60680159665E+01
 0.57837589473E+01 0.56405607985E+01 0.55935094214E+01 0.56405607985E+01 0.57837589473E+01
 0.60680159665E+01 0.65275922466E+01 0.72162601006E+01 0.81386252150E+01 0.98042873003E+01
 0.13333986425E+02 0.19781971369E+02 0.29897500676E+02 0.43887957471E+02 0.61318741297E+02
 0.81071003586E+02 0.10146672455E+03 0.12046460995E+03 0.13596001458E+03 0.14610493178E+03
 0.12564558293E+03 0.12272996132E+03 0.11433650613E+03 0.10146672455E+03 0.85610205246E+02
 0.68511863998E+02 0.51908692996E+02 0.37271008555E+02 0.25588514399E+02 0.17255061496E+02
 0.12057477188E+02 0.92904442571E+01 0.79560590010E+01 0.71067313631E+01 0.64690127283E+01
 0.60467512143E+01 0.57882174700E+01 0.56567686692E+01 0.56147748151E+01 0.56567686692E+01
 0.57882174700E+01 0.60467512143E+01 0.64690127283E+01 0.71067313631E+01 0.79560590010E+01
 0.92904442571E+01 0.12057477188E+02 0.17255061496E+02 0.25588514399E+02 0.37271008555E+02
 0.51908692996E+02 0.68511863998E+02 0.85610205246E+02 0.10146672455E+03 0.11433650613E+03
 0.12272996132E+03 0.10009874000E+03 0.97813998383E+02 0.91219769632E+02 0.81071003586E+02
 0.68511863998E+02 0.54927569675E+02 0.41732241088E+02 0.30154145233E+02 0.21022532891E+02
 0.14649544223E+02 0.10795363139E+02 0.88016305013E+01 0.77453685290E+01 0.69672570784E+01
 0.63982623730E+01 0.60193447908E+01 0.57920307466E+01 0.56731217077E+01 0.56377195512E+01
 0.56731217077E+01 0.57920307466E+01 0.60193447908E+01 0.63982623730E+01 0.69672570784E+01
 0.77453685290E+01 0.88016305013E+01 0.10795363139E+02 0.14649544223E+02 0.21022532891E+02
 0.30154145233E+02 0.41732241088E+02 0.54927569675E+02 0.68511863998E+02 0.81071003586E+02
 0.91219769632E+02 0.97813998383E+02 0.75521354447E+02 0.73821277379E+02 0.68905254445E+02
 0.61318741297E+02 0.51908692996E+02 0.41732241088E+02 0.31892902215E+02 0.23358112347E+02
 0.16764712002E+02 0.12310803223E+02 0.97226138882E+01 0.83725595466E+01 0.74995490784E+01
 0.68086395699E+01 0.63172278793E+01 0.59884610039E+01 0.57931419590E+01 0.56889587911E+01
 0.56590114766E+01 0.56889587911E+01 0.57931419590E+01 0.59884610039E+01 0.63172278793E+01
 0.68086395699E+01 0.74995490784E+01 0.83725595466E+01 0.97226138882E+01 0.12310803223E+02
 0.16764712002E+02 0.23358112347E+02 0.31892902215E+02 0.41732241088E+02 0.51908692996E+02
 0.61318741297E+02 0.68905254445E+02 0.73821277379E+02 0.53895568373E+02 0.52697366343E+02
 0.49234712600E+02 0.43887957471E+02 0.37271008555E+02 0.30154145233E+02 0.23358112347E+02
 0.17585131769E+02 0.13276766346E+02 0.10487025813E+02 0.89162354291E+01 0.79743823153E+01
 0.72238160010E+01 0.66442068002E+01 0.62295914281E+01 0.59567545958E+01 0.57895663540E+01
 0.57029587854E+01 0.56752000535E+01 0.57029587854E+01 0.57895663540E+01 0.59567545958E+01
 0.62295914281E+01 0.66442068002E+01 0.72238160010E+01 0.79743823153E+01 0.89162354291E+01
 0.10487025813E+02 0.13276766346E+02 0.17585131769E+02 0.23358112347E+02 0.30154145233E+02
 0.37271008555E+02 0.43887957471E+02 0.49234712600E+02 0.52697366343E+02 0.36478512176E+02
 0.35688360880E+02 0.33406150507E+02 0.29897500676E+02 0.25588514399E+02 0.21022532891E+02
 0.16764712002E+02 0.13276766346E+02 0.10788246137E+02 0.92473621255E+01 0.83075031299E+01
 0.75644624045E+01 0.69475543979E+01 0.64790103588E+01 0.61444725107E+01 0.59220392317E+01
 0.57844049702E+01 0.57112143683E+01 0.56880949877E+01 0.57112143683E+01 0.57844049702E+01
 0.59220392317E+01 0.61444725107E+01 0.64790103588E+01 0.69475543979E+01 0.75644624045E+01
 0.83075031299E+01 0.92473621255E+01 0.10788246137E+02 0.13276766346E+02 0.16764712002E+02
 0.21022532891E+02 0.25588514399E+02 0.29897500676E+02 0.33406150507E+02 0.35688360880E+02
 0.23733039686E+02 0.23253995891E+02 0.21876900135E+02 0.19781971369E+02 0.17255061496E+02
 0.14649544223E+02 0.12310803223E+02 0.10487025813E+02 0.92473621255E+01 0.84286159508E+01