   2   2   1   0
  0.1173411E+02  0.2863036E-09  0.2863036E-09  0.2863036E-09  0.5000000E-15
  1.000000000000000E-004
  CAR 
 unknown system                          
     47.33698070     -4.96770932  301      5.87120254      1.00000000
     -4.968  0.0000E+00  0.0000E+00  0.0000E+00  0.0000E+00
     -4.793  0.0000E+00  0.0000E+00  0.0000E+00  0.0000E+00
     -4.619  0.0000E+00  0.0000E+00  0.0000E+00  0.0000E+00
     -4.445  0.0000E+00  0.0000E+00  0.0000E+00  0.0000E+00
     -4.270 -0.3348E-35  0.0000E+00 -0.5838E-36  0.0000E+00
     -4.096 -0.3445E-29 -0.6291E-35 -0.6006E-30 -0.1097E-35
     -3.922 -0.7865E-24 -0.6058E-29 -0.1371E-24 -0.1056E-29
     -3.747 -0.3923E-19 -0.1295E-23 -0.6840E-20 -0.2258E-24
     -3.573 -0.4431E-15 -0.6067E-19 -0.7726E-16 -0.1058E-19
     -3.399 -0.1134E-11 -0.6394E-15 -0.1978E-12 -0.1115E-15
     -3.224 -0.6527E-09 -0.1533E-11 -0.1140E-09 -0.2674E-12
     -3.050 -0.8278E-07 -0.8263E-09 -0.1455E-07 -0.1443E-09
     -2.876 -0.2136E-05 -0.9801E-07 -0.3869E-06 -0.1723E-07
     -2.701 -0.5717E-05 -0.2347E-05 -0.1384E-05 -0.4265E-06
     -2.527  0.6176E-04 -0.5157E-05  0.9384E-05 -0.1326E-05
     -2.352  0.2390E-03  0.6752E-04  0.5106E-04  0.1045E-04
     -2.178  0.3867E-03  0.2447E-03  0.1185E-03  0.5311E-04
     -2.004  0.4843E-03  0.3877E-03  0.2029E-03  0.1207E-03
     -1.829  0.5832E-03  0.4808E-03  0.3046E-03  0.2045E-03
     -1.655  0.6544E-03  0.5767E-03  0.4187E-03  0.3051E-03
     -1.481  0.7447E-03  0.6429E-03  0.5485E-03  0.4172E-03
     -1.306  0.8387E-03  0.7244E-03  0.6948E-03  0.5435E-03
     -1.132  0.8731E-03  0.8174E-03  0.8470E-03  0.6860E-03
     -0.958  0.1031E-02  0.8356E-03  0.1027E-02  0.8316E-03
     -0.783  0.1072E-02  0.9713E-03  0.1214E-02  0.1001E-02
     -0.609  0.1134E-02  0.1039E-02  0.1411E-02  0.1182E-02
     -0.435  0.1366E-02  0.1007E-02  0.1650E-02  0.1358E-02
     -0.260  0.1347E-02  0.1269E-02  0.1884E-02  0.1579E-02
     -0.086  0.1518E-02  0.1221E-02  0.2149E-02  0.1792E-02
      0.088  0.1793E-02  0.1279E-02  0.2462E-02  0.2015E-02
      0.263  0.1823E-02  0.1485E-02  0.2779E-02  0.2274E-02
      0.437  0.2163E-02  0.1572E-02  0.3157E-02  0.2548E-02
      0.611  0.2568E-02  0.1529E-02  0.3604E-02  0.2815E-02
      0.786  0.3017E-02  0.1788E-02  0.4130E-02  0.3126E-02
      0.960  0.5707E-02  0.1996E-02  0.5125E-02  0.3474E-02
      1.135  0.9552E-02  0.1940E-02  0.6791E-02  0.3813E-02
      1.309  0.1181E-01  0.2227E-02  0.8850E-02  0.4201E-02
      1.483  0.1402E-01  0.2567E-02  0.1130E-01  0.4648E-02
      1.658  0.1804E-01  0.2714E-02  0.1444E-01  0.5121E-02
      1.832  0.1787E-01  0.3037E-02  0.1756E-01  0.5651E-02
      2.006  0.1297E-01  0.3860E-02  0.1982E-01  0.6324E-02
      2.181  0.9611E-02  0.4970E-02  0.2149E-01  0.7190E-02
      2.355  0.9033E-02  0.6619E-02  0.2307E-01  0.8344E-02
      2.529  0.2272E-01  0.7173E-02  0.2703E-01  0.9595E-02
      2.704  0.2959E-01  0.7064E-02  0.3219E-01  0.1083E-01
      2.878  0.2209E-01  0.7803E-02  0.3604E-01  0.1219E-01
      3.052  0.2019E-01  0.9887E-02  0.3956E-01  0.1391E-01
      3.227  0.2478E-01  0.1250E-01  0.4388E-01  0.1609E-01
      3.401  0.2912E-01  0.1258E-01  0.4896E-01  0.1828E-01
      3.575  0.2239E-01  0.9733E-02  0.5286E-01  0.1998E-01
      3.750  0.1206E-01  0.6538E-02  0.5496E-01  0.2112E-01
      3.924  0.8374E-02  0.6647E-02  0.5642E-01  0.2228E-01
      4.098  0.8661E-02  0.1654E-01  0.5793E-01  0.2516E-01
      4.273  0.1023E-01  0.2562E-01  0.5972E-01  0.2963E-01
      4.447  0.1632E-01  0.2521E-01  0.6256E-01  0.3402E-01
      4.621  0.2742E-01  0.2315E-01  0.6734E-01  0.3806E-01
      4.796  0.3981E-01  0.2229E-01  0.7428E-01  0.4195E-01
      4.970  0.5051E-01  0.2394E-01  0.8309E-01  0.4612E-01
      5.145  0.3850E-01  0.2387E-01  0.8980E-01  0.5028E-01
      5.319  0.2035E-01  0.1937E-01  0.9335E-01  0.5366E-01
      5.493  0.1572E-01  0.1330E-01  0.9609E-01  0.5598E-01
      5.668  0.1480E-01  0.7004E-02  0.9867E-01  0.5720E-01
      5.842  0.1533E-01  0.4925E-02  0.1013E+00  0.5806E-01
      6.016  0.1426E-01  0.5004E-02  0.1038E+00  0.5893E-01
      6.191  0.9122E-02  0.5380E-02  0.1054E+00  0.5987E-01
      6.365  0.4218E-02  0.6406E-02  0.1062E+00  0.6099E-01
      6.539  0.2914E-02  0.9080E-02  0.1067E+00  0.6257E-01
      6.714  0.2788E-02  0.1288E-01  0.1072E+00  0.6481E-01
      6.888  0.3139E-02  0.1563E-01  0.1077E+00  0.6754E-01
      7.062  0.2738E-02  0.1899E-01  0.1082E+00  0.7085E-01
      7.237  0.2867E-02  0.2465E-01  0.1087E+00  0.7515E-01
      7.411  0.2984E-02  0.2652E-01  0.1092E+00  0.7977E-01
      7.585  0.3065E-02  0.2577E-01  0.1097E+00  0.8427E-01
      7.760  0.2454E-02  0.4168E-01  0.1102E+00  0.9153E-01
      7.934  0.2750E-02  0.4312E-01  0.1106E+00  0.9905E-01
      8.108  0.2837E-02  0.2146E-01  0.1111E+00  0.1028E+00
      8.283  0.2615E-02  0.1300E-01  0.1116E+00  0.1051E+00
      8.457  0.2841E-02  0.7575E-02  0.1121E+00  0.1064E+00
      8.632  0.2448E-02  0.4975E-02  0.1125E+00  0.1072E+00
      8.806  0.2008E-02  0.3896E-02  0.1129E+00  0.1079E+00
      8.980  0.3080E-02  0.4366E-02  0.1134E+00  0.1087E+00
      9.155  0.2359E-02  0.3735E-02  0.1138E+00  0.1093E+00
      9.329  0.1934E-02  0.3556E-02  0.1141E+00  0.1100E+00
      9.503  0.2431E-02  0.3626E-02  0.1146E+00  0.1106E+00
      9.678  0.2324E-02  0.3479E-02  0.1150E+00  0.1112E+00
      9.852  0.1975E-02  0.3307E-02  0.1153E+00  0.1118E+00
     10.026  0.2043E-02  0.2995E-02  0.1157E+00  0.1123E+00
     10.201  0.2202E-02  0.3006E-02  0.1161E+00  0.1128E+00
     10.375  0.1602E-02  0.3211E-02  0.1163E+00  0.1134E+00
     10.549  0.1703E-02  0.2740E-02  0.1166E+00  0.1139E+00
     10.724  0.1993E-02  0.2448E-02  0.1170E+00  0.1143E+00
     10.898  0.1854E-02  0.2817E-02  0.1173E+00  0.1148E+00
     11.072  0.1394E-02  0.2576E-02  0.1175E+00  0.1152E+00
     11.247  0.1346E-02  0.2070E-02  0.1178E+00  0.1156E+00
     11.421  0.1427E-02  0.2567E-02  0.1180E+00  0.1160E+00
     11.595  0.1235E-02  0.2111E-02  0.1182E+00  0.1164E+00
     11.770  0.1181E-02  0.1752E-02  0.1185E+00  0.1167E+00
     11.944  0.1543E-02  0.2282E-02  0.1187E+00  0.1171E+00
     12.118  0.1079E-02  0.1868E-02  0.1189E+00  0.1174E+00
     12.293  0.6028E-03  0.1442E-02  0.1190E+00  0.1177E+00
     12.467  0.5475E-03  0.1627E-02  0.1191E+00  0.1180E+00
     12.642  0.7411E-03  0.1636E-02  0.1192E+00  0.1183E+00
     12.816  0.9691E-03  0.1364E-02  0.1194E+00  0.1185E+00
     12.990  0.7010E-03  0.1321E-02  0.1195E+00  0.1187E+00
     13.165  0.3909E-03  0.1103E-02  0.1196E+00  0.1189E+00
     13.339  0.1599E-02  0.8361E-03  0.1199E+00  0.1191E+00
     13.513  0.4060E-02  0.9272E-03  0.1206E+00  0.1192E+00
     13.688  0.4993E-02  0.9422E-03  0.1215E+00  0.1194E+00
     13.862  0.5416E-02  0.8105E-03  0.1224E+00  0.1195E+00
     14.036  0.4564E-02  0.3979E-03  0.1232E+00  0.1196E+00
     14.211  0.3423E-02  0.3729E-03  0.1238E+00  0.1197E+00
     14.385  0.3671E-02  0.5163E-03  0.1244E+00  0.1197E+00
     14.559  0.4062E-02  0.1275E-02  0.1251E+00  0.1200E+00
     14.734  0.3037E-02  0.4862E-02  0.1257E+00  0.1208E+00
     14.908  0.3004E-02  0.7033E-02  0.1262E+00  0.1220E+00
     15.082  0.3314E-02  0.5273E-02  0.1268E+00  0.1230E+00
     15.257  0.3030E-02  0.4949E-02  0.1273E+00  0.1238E+00
     15.431  0.3122E-02  0.4429E-02  0.1278E+00  0.1246E+00
     15.605  0.3388E-02  0.4040E-02  0.1284E+00  0.1253E+00
     15.780  0.3364E-02  0.3785E-02  0.1290E+00  0.1260E+00
     15.954  0.4424E-02  0.3254E-02  0.1298E+00  0.1265E+00
     16.129  0.4141E-02  0.3329E-02  0.1305E+00  0.1271E+00
     16.303  0.3542E-02  0.3838E-02  0.1311E+00  0.1278E+00
     16.477  0.3786E-02  0.4216E-02  0.1318E+00  0.1285E+00
     16.652  0.3794E-02  0.4064E-02  0.1325E+00  0.1292E+00
     16.826  0.3757E-02  0.4077E-02  0.1331E+00  0.1299E+00
     17.000  0.3997E-02  0.4299E-02  0.1338E+00  0.1307E+00
     17.175  0.3629E-02  0.4308E-02  0.1344E+00  0.1314E+00
     17.349  0.3768E-02  0.3901E-02  0.1351E+00  0.1321E+00
     17.523  0.3363E-02  0.3833E-02  0.1357E+00  0.1328E+00
     17.698  0.3871E-02  0.3730E-02  0.1364E+00  0.1334E+00
     17.872  0.3897E-02  0.4365E-02  0.1370E+00  0.1342E+00
     18.046  0.3497E-02  0.3870E-02  0.1376E+00  0.1349E+00
     18.221  0.3416E-02  0.3749E-02  0.1382E+00  0.1355E+00
     18.395  0.4009E-02  0.3806E-02  0.1389E+00  0.1362E+00
     18.569  0.3427E-02  0.3922E-02  0.1395E+00  0.1369E+00
     18.744  0.3305E-02  0.3684E-02  0.1401E+00  0.1375E+00
     18.918  0.3626E-02  0.3751E-02  0.1407E+00  0.1382E+00
     19.092  0.3631E-02  0.4089E-02  0.1414E+00  0.1389E+00
     19.267  0.3937E-02  0.3852E-02  0.1421E+00  0.1396E+00
     19.441  0.3261E-02  0.3193E-02  0.1426E+00  0.1401E+00
     19.615  0.3162E-02  0.3582E-02  0.1432E+00  0.1407E+00
     19.790  0.3116E-02  0.3907E-02  0.1437E+00  0.1414E+00
     19.964  0.3796E-02  0.4150E-02  0.1444E+00  0.1421E+00
     20.139  0.4091E-02  0.3713E-02  0.1451E+00  0.1428E+00
     20.313  0.3294E-02  0.2916E-02  0.1457E+00  0.1433E+00
     20.487  0.2924E-02  0.3232E-02  0.1462E+00  0.1439E+00
     20.662  0.2843E-02  0.4085E-02  0.1467E+00  0.1446E+00
     20.836  0.3380E-02  0.4203E-02  0.1473E+00  0.1453E+00
     21.010  0.4178E-02  0.3390E-02  0.1480E+00  0.1459E+00
     21.185  0.3531E-02  0.3256E-02  0.1486E+00  0.1465E+00
     21.359  0.3136E-02  0.2518E-02  0.1492E+00  0.1469E+00
     21.533  0.2579E-02  0.3993E-02  0.1496E+00  0.1476E+00
     21.708  0.2920E-02  0.4405E-02  0.1501E+00  0.1484E+00
     21.882  0.3919E-02  0.3381E-02  0.1508E+00  0.1490E+00
     22.056  0.4565E-02  0.3056E-02  0.1516E+00  0.1495E+00
     22.231  0.3892E-02  0.2825E-02  0.1523E+00  0.1500E+00
     22.405  0.3345E-02  0.3055E-02  0.1529E+00  0.1505E+00
     22.579  0.3576E-02  0.4232E-02  0.1535E+00  0.1512E+00
     22.754  0.3618E-02  0.4209E-02  0.1541E+00  0.1520E+00
     22.928  0.4455E-02  0.3373E-02  0.1549E+00  0.1526E+00
     23.102  0.5285E-02  0.3622E-02  0.1558E+00  0.1532E+00
     23.277  0.4823E-02  0.3525E-02  0.1567E+00  0.1538E+00
     23.451  0.4085E-02  0.4516E-02  0.1574E+00  0.1546E+00
     23.626  0.3934E-02  0.5494E-02  0.1581E+00  0.1556E+00
     23.800  0.4684E-02  0.4747E-02  0.1589E+00  0.1564E+00
     23.974  0.5249E-02  0.5166E-02  0.1598E+00  0.1573E+00
     24.149  0.5991E-02  0.4827E-02  0.1608E+00  0.1581E+00
     24.323  0.5264E-02  0.5310E-02  0.1617E+00  0.1591E+00
     24.497  0.4871E-02  0.5919E-02  0.1626E+00  0.1601E+00
     24.672  0.4248E-02  0.5442E-02  0.1633E+00  0.1610E+00
     24.846  0.3972E-02  0.5240E-02  0.1640E+00  0.1620E+00
     25.020  0.5356E-02  0.4847E-02  0.1650E+00  0.1628E+00
     25.195  0.6274E-02  0.4460E-02  0.1661E+00  0.1636E+00
     25.369  0.4689E-02  0.4775E-02  0.1669E+00  0.1644E+00
     25.543  0.4556E-02  0.5154E-02  0.1677E+00  0.1653E+00
     25.718  0.4845E-02  0.5445E-02  0.1685E+00  0.1663E+00
     25.892  0.4953E-02  0.5034E-02  0.1694E+00  0.1671E+00
     26.066  0.6491E-02  0.5152E-02  0.1705E+00  0.1680E+00
     26.241  0.6008E-02  0.5470E-02  0.1716E+00  0.1690E+00
     26.415  0.4682E-02  0.5756E-02  0.1724E+00  0.1700E+00
     26.589  0.3321E-02  0.5334E-02  0.1730E+00  0.1709E+00
     26.764  0.4570E-02  0.5601E-02  0.1738E+00  0.1719E+00
     26.938  0.5519E-02  0.4243E-02  0.1747E+00  0.1726E+00
     27.113  0.4702E-02  0.4171E-02  0.1755E+00  0.1734E+00
     27.287  0.3719E-02  0.5946E-02  0.1762E+00  0.1744E+00
     27.461  0.3719E-02  0.4867E-02  0.1768E+00  0.1752E+00
     27.636  0.4218E-02  0.3502E-02  0.1776E+00  0.1759E+00
     27.810  0.3791E-02  0.3223E-02  0.1782E+00  0.1764E+00
     27.984  0.3441E-02  0.4201E-02  0.1788E+00  0.1772E+00
     28.159  0.3669E-02  0.4977E-02  0.1795E+00  0.1780E+00
     28.333  0.3171E-02  0.3402E-02  0.1800E+00  0.1786E+00
     28.507  0.3377E-02  0.3357E-02  0.1806E+00  0.1792E+00
     28.682  0.3445E-02  0.3485E-02  0.1812E+00  0.1798E+00
     28.856  0.2740E-02  0.2692E-02  0.1817E+00  0.1803E+00
     29.030  0.2610E-02  0.3605E-02  0.1821E+00  0.1809E+00
     29.205  0.2071E-02  0.3452E-02  0.1825E+00  0.1815E+00
     29.379  0.2665E-02  0.2835E-02  0.1830E+00  0.1820E+00
     29.553  0.3759E-02  0.2493E-02  0.1836E+00  0.1824E+00
     29.728  0.3349E-02  0.2422E-02  0.1842E+00  0.1829E+00
     29.902  0.2803E-02  0.3087E-02  0.1847E+00  0.1834E+00
     30.076  0.3540E-02  0.3530E-02  0.1853E+00  0.1840E+00
     30.251  0.4140E-02  0.3229E-02  0.1860E+00  0.1846E+00
     30.425  0.3713E-02  0.4213E-02  0.1867E+00  0.1853E+00
     30.599  0.4138E-02  0.4203E-02  0.1874E+00  0.1860E+00
     30.774  0.7862E-02  0.4033E-02  0.1888E+00  0.1867E+00
     30.948  0.8501E-02  0.4494E-02  0.1903E+00  0.1875E+00
     31.123  0.5568E-02  0.7186E-02  0.1912E+00  0.1888E+00
     31.297  0.4216E-02  0.7935E-02  0.1920E+00  0.1902E+00
     31.471  0.4567E-02  0.5745E-02  0.1928E+00  0.1912E+00
     31.646  0.3942E-02  0.4349E-02  0.1934E+00  0.1919E+00
     31.820  0.3858E-02  0.4109E-02  0.1941E+00  0.1926E+00
     31.994  0.4080E-02  0.4813E-02  0.1948E+00  0.1935E+00
     32.169  0.2464E-02  0.4580E-02  0.1953E+00  0.1943E+00
     32.343  0.1916E-02  0.3486E-02  0.1956E+00  0.1949E+00
     32.517  0.2189E-02  0.3060E-02  0.1960E+00  0.1954E+00
     32.692  0.1573E-02  0.2284E-02  0.1962E+00  0.1958E+00
     32.866  0.1488E-02  0.1409E-02  0.1965E+00  0.1961E+00
     33.040  0.1493E-02  0.1970E-02  0.1968E+00  0.1964E+00
     33.215  0.1459E-02  0.2000E-02  0.1970E+00  0.1968E+00
     33.389  0.8693E-03  0.1727E-02  0.1972E+00  0.1971E+00
     33.563  0.6075E-03  0.7020E-03  0.1973E+00  0.1972E+00
     33.738  0.7629E-03  0.6772E-03  0.1974E+00  0.1973E+00
     33.912  0.5846E-03  0.7787E-03  0.1975E+00  0.1974E+00
     34.086  0.7107E-03  0.6619E-03  0.1976E+00  0.1975E+00
     34.261  0.7634E-03  0.9101E-03  0.1978E+00  0.1977E+00
     34.435  0.8428E-03  0.7168E-03  0.1979E+00  0.1978E+00
     34.610  0.1094E-02  0.1179E-02  0.1981E+00  0.1980E+00
     34.784  0.5275E-03  0.8171E-03  0.1982E+00  0.1982E+00
     34.958  0.3694E-03  0.3174E-03  0.1983E+00  0.1982E+00
     35.133  0.4834E-03  0.4750E-03  0.1984E+00  0.1983E+00
     35.307  0.2692E-03  0.3681E-03  0.1984E+00  0.1984E+00
     35.481  0.4934E-03  0.4290E-03  0.1985E+00  0.1985E+00
     35.656  0.6689E-03  0.6875E-03  0.1986E+00  0.1986E+00
     35.830  0.3430E-03  0.4141E-03  0.1987E+00  0.1986E+00
     36.004  0.7798E-03  0.7444E-03  0.1988E+00  0.1988E+00
     36.179  0.8540E-03  0.8481E-03  0.1989E+00  0.1989E+00
     36.353  0.2076E-03  0.2799E-03  0.1990E+00  0.1990E+00
     36.527  0.1462E-03  0.1538E-03  0.1990E+00  0.1990E+00
     36.702  0.2977E-03  0.2553E-03  0.1991E+00  0.1990E+00
     36.876  0.1888E-03  0.2508E-03  0.1991E+00  0.1991E+00
     37.050  0.3334E-03  0.2909E-03  0.1991E+00  0.1991E+00
     37.225  0.4848E-03  0.4775E-03  0.1992E+00  0.1992E+00
     37.399  0.2026E-03  0.2927E-03  0.1993E+00  0.1993E+00
     37.573  0.3686E-03  0.4347E-03  0.1993E+00  0.1994E+00
     37.748  0.6509E-03  0.5922E-03  0.1994E+00  0.1995E+00
     37.922  0.2206E-03  0.1803E-03  0.1995E+00  0.1995E+00
     38.096  0.1264E-04  0.3212E-04  0.1995E+00  0.1995E+00
     38.271  0.2168E-03  0.2400E-03  0.1995E+00  0.1995E+00
     38.445  0.1447E-03  0.1035E-03  0.1996E+00  0.1996E+00
     38.620  0.6315E-04  0.7548E-04  0.1996E+00  0.1996E+00
     38.794  0.2733E-03  0.2901E-03  0.1996E+00  0.1996E+00
     38.968  0.1784E-03  0.2243E-03  0.1996E+00  0.1997E+00
     39.143  0.2075E-03  0.2610E-03  0.1997E+00  0.1997E+00
     39.317  0.3361E-03  0.3165E-03  0.1997E+00  0.1998E+00
     39.491  0.2224E-03  0.1576E-03  0.1998E+00  0.1998E+00
     39.666  0.1162E-03  0.7933E-04  0.1998E+00  0.1998E+00
     39.840  0.5055E-04  0.4096E-04  0.1998E+00  0.1998E+00
     40.014  0.1040E-04  0.3849E-04  0.1998E+00  0.1998E+00
     40.189  0.7469E-04  0.8226E-04  0.1998E+00  0.1998E+00
     40.363  0.5244E-04  0.9684E-04  0.1998E+00  0.1998E+00
     40.537  0.1368E-03  0.1293E-03  0.1999E+00  0.1999E+00
     40.712  0.1095E-03  0.3594E-04  0.1999E+00  0.1999E+00
     40.886  0.2098E-04  0.1243E-03  0.1999E+00  0.1999E+00
     41.060  0.1905E-03  0.2460E-03  0.1999E+00  0.1999E+00
     41.235  0.1961E-03  0.8467E-04  0.1999E+00  0.1999E+00
     41.409  0.5332E-04  0.6027E-05  0.1999E+00  0.1999E+00
     41.583 -0.2022E-05 -0.2936E-05  0.1999E+00  0.1999E+00
     41.758 -0.2412E-05 -0.1589E-05  0.1999E+00  0.1999E+00
     41.932 -0.2666E-05 -0.8329E-08  0.1999E+00  0.1999E+00
     42.107  0.2154E-04  0.3905E-04  0.2000E+00  0.2000E+00
     42.281  0.5381E-04  0.4741E-04  0.2000E+00  0.2000E+00
     42.455  0.2304E-04  0.6743E-04  0.2000E+00  0.2000E+00
     42.630  0.7679E-04  0.6294E-04  0.2000E+00  0.2000E+00
     42.804  0.4611E-04  0.7091E-06  0.2000E+00  0.2000E+00
     42.978 -0.1221E-05  0.2654E-04  0.2000E+00  0.2000E+00
     43.153  0.3356E-04  0.3630E-04  0.2000E+00  0.2000E+00
     43.327  0.3050E-04  0.2356E-05  0.2000E+00  0.2000E+00
     43.501 -0.2652E-07 -0.1275E-05  0.2000E+00  0.2000E+00
     43.676 -0.9132E-06 -0.6728E-07  0.2000E+00  0.2000E+00
     43.850 -0.3436E-07 -0.5642E-09  0.2000E+00  0.2000E+00
     44.024 -0.2185E-09 -0.3399E-10  0.2000E+00  0.2000E+00
     44.199 -0.5875E-11 -0.5344E-08  0.2000E+00  0.2000E+00
     44.373 -0.1457E-08 -0.1467E-06  0.2000E+00  0.2000E+00
     44.547 -0.6903E-07 -0.3352E-07  0.2000E+00  0.2000E+00
     44.722 -0.3092E-06  0.4983E-05  0.2000E+00  0.2000E+00
     44.896  0.3031E-05  0.5888E-05  0.2000E+00  0.2000E+00
     45.070  0.7030E-05  0.2982E-06  0.2000E+00  0.2000E+00
     45.245  0.1423E-05 -0.2000E-06  0.2000E+00  0.2000E+00
     45.419 -0.3021E-06 -0.9850E-08  0.2000E+00  0.2000E+00
     45.593 -0.2891E-07 -0.7816E-10  0.2000E+00  0.2000E+00
     45.768 -0.3760E-09 -0.1215E-12  0.2000E+00  0.2000E+00
     45.942 -0.9290E-12 -0.3897E-16  0.2000E+00  0.2000E+00
     46.117 -0.4691E-15 -0.2392E-20  0.2000E+00  0.2000E+00
     46.291 -0.4784E-19  0.0000E+00  0.2000E+00  0.2000E+00
     46.465  0.0000E+00  0.0000E+00  0.2000E+00  0.2000E+00
     46.640  0.0000E+00  0.0000E+00  0.2000E+00  0.2000E+00
     46.814  0.0000E+00  0.0000E+00  0.2000E+00  0.2000E+00
     46.988  0.0000E+00  0.0000E+00  0.2000E+00  0.2000E+00
     47.163  0.0000E+00  0.0000E+00  0.2000E+00  0.2000E+00
     47.337  0.0000E+00  0.0000E+00  0.2000E+00  0.2000E+00
     47.33698070     -4.96770932  301      5.87120254      1.00000000
     -4.968  0.0000E+00  0.0000E+00  0.0000E+00  0.0000E+00  0.0000E+00  0.0000E+00  0.0000E+00  0.0000E+00  0.0000E+00  0.0000E+00  0.0000E+00  0.0000E+00  0.0000E+00  0.0000E+00  0.0000E+00  0.0000E+00  0.0000E+00  0.0000E+00
     -4.793  0.0000E+00  0.0000E+00  0.0000E+00  0.0000E+00  0.0000E+00  0.0000E+00  0.0000E+00  0.0000E+00  0.0000E+00  0.0000E+00  0.0000E+00  0.0000E+00  0.0000E+00  0.0000E+00  0.0000E+00  0.0000E+00  0.0000E+00  0.0000E+00
     -4.619  0.0000E+00  0.0000E+00  0.0000E+00  0.0000E+00  0.0000E+00  0.0000E+00  0.0000E+00  0.0000E+00  0.0000E+00  0.0000E+00  0.0000E+00  0.0000E+00  0.0000E+00  0.0000E+00  0.0000E+00  0.0000E+00  0.0000E+00  0.0000E+00
     -4.445  0.0000E+00  0.0000E+00  0.0000E+00  0.0000E+00  0.0000E+00  0.0000E+00  0.0000E+00  0.0000E+00  0.0000E+00  0.0000E+00  0.0000E+00  0.0000E+00  0.0000E+00  0.0000E+00  0.0000E+00  0.0000E+00  0.0000E+00  0.0000E+00
     -4.270 -0.1230E-33  0.0000E+00 -0.2541E-37  0.0000E+00 -0.2541E-37  0.0000E+00 -0.2541E-37  0.0000E+00 -0.1516E-40  0.0000E+00 -0.1516E-40  0.0000E+00 -0.1245E-39  0.0000E+00 -0.1516E-40  0.0000E+00 -0.1245E-39  0.0000E+00
     -4.096 -0.1265E-27 -0.2311E-33 -0.3729E-31 -0.4800E-37 -0.3729E-31 -0.4800E-37 -0.3729E-31 -0.4800E-37 -0.3308E-34 -0.2060E-40 -0.3308E-34 -0.2060E-40 -0.1789E-33 -0.1659E-39 -0.3308E-34 -0.2060E-40 -0.1789E-33 -0.1659E-39
     -3.922 -0.2888E-22 -0.2225E-27 -0.1200E-25 -0.6601E-31 -0.1200E-25 -0.6601E-31 -0.1200E-25 -0.6601E-31 -0.1507E-28 -0.4219E-34 -0.1507E-28 -0.4219E-34 -0.5601E-28 -0.2232E-33 -0.1507E-28 -0.4219E-34 -0.5601E-28 -0.2232E-33
     -3.747 -0.1440E-17 -0.4754E-22 -0.8525E-21 -0.1992E-25 -0.8525E-21 -0.1992E-25 -0.8525E-21 -0.1992E-25 -0.1497E-23 -0.1804E-28 -0.1497E-23 -0.1804E-28 -0.3832E-23 -0.6548E-28 -0.1497E-23 -0.1804E-28 -0.3832E-23 -0.6548E-28
     -3.573 -0.1625E-13 -0.2226E-17 -0.1293E-16 -0.1326E-20 -0.1293E-16 -0.1326E-20 -0.1293E-16 -0.1326E-20 -0.3138E-19 -0.1682E-23 -0.3138E-19 -0.1682E-23 -0.5544E-19 -0.4197E-23 -0.3138E-19 -0.1682E-23 -0.5544E-19 -0.4197E-23
     -3.399 -0.4157E-10 -0.2345E-13 -0.4465E-13 -0.1885E-16 -0.4465E-13 -0.1885E-16 -0.4465E-13 -0.1885E-16 -0.1470E-15 -0.3308E-19 -0.1470E-15 -0.3308E-19 -0.1825E-15 -0.5686E-19 -0.1470E-15 -0.3308E-19 -0.1825E-15 -0.5686E-19
     -3.224 -0.2390E-07 -0.5618E-10 -0.3430E-10 -0.6102E-13 -0.3430E-10 -0.6102E-13 -0.3430E-10 -0.6102E-13 -0.1513E-12 -0.1455E-15 -0.1513E-12 -0.1455E-15 -0.1384E-12 -0.1753E-15 -0.1513E-12 -0.1455E-15 -0.1384E-12 -0.1753E-15
     -3.050 -0.3026E-05 -0.3024E-07 -0.5899E-08 -0.4394E-10 -0.5899E-08 -0.4394E-10 -0.5899E-08 -0.4394E-10 -0.3500E-10 -0.1404E-12 -0.3500E-10 -0.1404E-12 -0.2665E-10 -0.1245E-12 -0.3500E-10 -0.1404E-12 -0.2665E-10 -0.1245E-12
     -2.876 -0.7784E-04 -0.3581E-05 -0.2287E-06 -0.7084E-08 -0.2287E-06 -0.7084E-08 -0.2287E-06 -0.7084E-08 -0.1938E-08 -0.3047E-10 -0.1938E-08 -0.3047E-10 -0.1468E-08 -0.2253E-10 -0.1938E-08 -0.3047E-10 -0.1468E-08 -0.2253E-10
     -2.701 -0.2048E-03 -0.8551E-04 -0.1783E-05 -0.2572E-06 -0.1783E-05 -0.2572E-06 -0.1783E-05 -0.2572E-06 -0.2730E-07 -0.1583E-08 -0.2730E-07 -0.1583E-08 -0.2131E-07 -0.1168E-08 -0.2730E-07 -0.1583E-08 -0.2131E-07 -0.1168E-08
     -2.527  0.2260E-02 -0.1840E-03  0.3550E-05 -0.1842E-05  0.3550E-05 -0.1842E-05  0.3550E-05 -0.1842E-05 -0.5891E-07 -0.2078E-07 -0.5891E-07 -0.2078E-07 -0.4202E-07 -0.1577E-07 -0.5891E-07 -0.2078E-07 -0.4202E-07 -0.1577E-07
     -2.352  0.8642E-02  0.2469E-02  0.4905E-04  0.4432E-05  0.4905E-04  0.4432E-05  0.4905E-04  0.4432E-05  0.5471E-06 -0.3646E-07  0.5471E-06 -0.3646E-07  0.3876E-06 -0.2452E-07  0.5471E-06 -0.3646E-07  0.3876E-06 -0.2452E-07
     -2.178  0.1376E-01  0.8838E-02  0.1505E-03  0.5186E-04  0.1505E-03  0.5186E-04  0.1505E-03  0.5186E-04  0.3384E-05  0.4357E-06  0.3384E-05  0.4357E-06  0.2747E-05  0.3024E-06  0.3384E-05  0.4357E-06  0.2747E-05  0.3024E-06
     -2.004  0.1694E-01  0.1378E-01  0.2818E-03  0.1542E-03  0.2818E-03  0.1542E-03  0.2818E-03  0.1542E-03  0.1020E-04  0.2499E-05  0.1020E-04  0.2499E-05  0.7399E-05  0.1969E-05  0.1020E-04  0.2499E-05  0.7399E-05  0.1969E-05
     -1.829  0.1999E-01  0.1680E-01  0.4633E-03  0.2839E-03  0.4633E-03  0.2839E-03  0.4633E-03  0.2839E-03  0.2276E-04  0.7258E-05  0.2276E-04  0.7258E-05  0.1935E-04  0.5073E-05  0.2276E-04  0.7258E-05  0.1935E-04  0.5073E-05
     -1.655  0.2204E-01  0.1976E-01  0.6333E-03  0.4637E-03  0.6333E-03  0.4637E-03  0.6333E-03  0.4637E-03  0.4305E-04  0.1574E-04  0.4305E-04  0.1574E-04  0.3077E-04  0.1298E-04  0.4305E-04  0.1574E-04  0.3077E-04  0.1298E-04
     -1.481  0.2450E-01  0.2165E-01  0.8823E-03  0.6280E-03  0.8823E-03  0.6280E-03  0.8823E-03  0.6280E-03  0.7317E-04  0.2904E-04  0.7317E-04  0.2904E-04  0.6290E-04  0.1987E-04  0.7317E-04  0.2904E-04  0.6290E-04  0.1987E-04
     -1.306  0.2706E-01  0.2386E-01  0.1129E-02  0.8670E-03  0.1129E-02  0.8670E-03  0.1129E-02  0.8670E-03  0.1176E-03  0.4811E-04  0.1176E-03  0.4811E-04  0.9327E-04  0.3943E-04  0.1176E-03  0.4811E-04  0.9327E-04  0.3943E-04
     -1.132  0.2748E-01  0.2645E-01  0.1343E-02  0.1111E-02  0.1343E-02  0.1111E-02  0.1343E-02  0.1111E-02  0.1777E-03  0.7483E-04  0.1777E-03  0.7483E-04  0.1335E-03  0.5814E-04  0.1777E-03  0.7483E-04  0.1335E-03  0.5814E-04
     -0.958  0.3162E-01  0.2643E-01  0.1774E-02  0.1299E-02  0.1774E-02  0.1299E-02  0.1774E-02  0.1299E-02  0.2586E-03  0.1117E-03  0.2586E-03  0.1117E-03  0.2412E-03  0.7662E-04  0.2586E-03  0.1117E-03  0.2412E-03  0.7662E-04
     -0.783  0.3214E-01  0.3003E-01  0.1992E-02  0.1694E-02  0.1992E-02  0.1694E-02  0.1992E-02  0.1694E-02  0.3797E-03  0.1522E-03  0.3797E-03  0.1522E-03  0.2803E-03  0.1384E-03  0.3797E-03  0.1522E-03  0.2803E-03  0.1384E-03
     -0.609  0.3287E-01  0.3147E-01  0.2322E-02  0.1966E-02  0.2322E-02  0.1966E-02  0.2322E-02  0.1966E-02  0.5153E-03  0.2263E-03  0.5153E-03  0.2263E-03  0.4299E-03  0.1618E-03  0.5153E-03  0.2263E-03  0.4299E-03  0.1618E-03
     -0.435  0.3849E-01  0.2971E-01  0.2983E-02  0.2097E-02  0.2983E-02  0.2097E-02  0.2983E-02  0.2097E-02  0.7304E-03  0.2799E-03  0.7304E-03  0.2799E-03  0.6829E-03  0.2055E-03  0.7304E-03  0.2799E-03  0.6829E-03  0.2055E-03
     -0.260  0.3664E-01  0.3651E-01  0.3092E-02  0.2853E-02  0.3092E-02  0.2853E-02  0.3092E-02  0.2853E-02  0.1016E-02  0.3997E-03  0.1016E-02  0.3997E-03  0.7590E-03  0.3603E-03  0.1016E-02  0.3997E-03  0.7590E-03  0.3603E-03
     -0.086  0.3960E-01  0.3431E-01  0.3698E-02  0.2910E-02  0.3698E-02  0.2910E-02  0.3698E-02  0.2910E-02  0.1350E-02  0.5001E-03  0.1350E-02  0.5001E-03  0.1191E-02  0.3754E-03  0.1350E-02  0.5001E-03  0.1191E-02  0.3754E-03
      0.088  0.4484E-01  0.3484E-01  0.4538E-02  0.3242E-02  0.4538E-02  0.3242E-02  0.4538E-02  0.3242E-02  0.1931E-02  0.6713E-03  0.1931E-02  0.6713E-03  0.1789E-02  0.4760E-03  0.1931E-02  0.6713E-03  0.1789E-02  0.4760E-03
      0.263  0.4334E-01  0.3925E-01  0.4670E-02  0.4009E-02  0.4670E-02  0.4009E-02  0.4670E-02  0.4009E-02  0.2653E-02  0.8178E-03  0.2653E-02  0.8178E-03  0.2081E-02  0.7552E-03  0.2653E-02  0.8178E-03  0.2081E-02  0.7552E-03
      0.437  0.4818E-01  0.4032E-01  0.5671E-02  0.4399E-02  0.5671E-02  0.4399E-02  0.5671E-02  0.4399E-02  0.3714E-02  0.1118E-02  0.3714E-02  0.1118E-02  0.3370E-02  0.8964E-03  0.3714E-02  0.1118E-02  0.3370E-02  0.8964E-03
      0.611  0.5385E-01  0.3795E-01  0.6759E-02  0.4443E-02  0.6759E-02  0.4443E-02  0.6759E-02  0.4443E-02  0.5294E-02  0.1353E-02  0.5294E-02  0.1353E-02  0.4710E-02  0.9411E-03  0.5294E-02  0.1353E-02  0.4710E-02  0.9411E-03
      0.786  0.5675E-01  0.4252E-01  0.7306E-02  0.5427E-02  0.7306E-02  0.5427E-02  0.7306E-02  0.5427E-02  0.8976E-02  0.1739E-02  0.8976E-02  0.1739E-02  0.6652E-02  0.1530E-02  0.8976E-02  0.1739E-02  0.6652E-02  0.1530E-02
      0.960  0.7861E-01  0.4587E-01  0.9529E-02  0.6225E-02  0.9529E-02  0.6225E-02  0.9529E-02  0.6225E-02  0.2622E-01  0.2245E-02  0.2622E-01  0.2245E-02  0.2441E-01  0.1930E-02  0.2622E-01  0.2245E-02  0.2441E-01  0.1930E-02
      1.135  0.9430E-01  0.4259E-01  0.1092E-01  0.6066E-02  0.1092E-01  0.6066E-02  0.1092E-01  0.6066E-02  0.4903E-01  0.2849E-02  0.4903E-01  0.2849E-02  0.6494E-01  0.2063E-02  0.4903E-01  0.2849E-02  0.6494E-01  0.2063E-02
      1.309  0.8968E-01  0.4645E-01  0.1261E-01  0.7140E-02  0.1261E-01  0.7140E-02  0.1261E-01  0.7140E-02  0.5556E-01  0.3641E-02  0.5556E-01  0.3641E-02  0.1054E+00  0.2949E-02  0.5556E-01  0.3641E-02  0.1054E+00  0.2949E-02
      1.483  0.8274E-01  0.5073E-01  0.1534E-01  0.8269E-02  0.1534E-01  0.8269E-02  0.1534E-01  0.8269E-02  0.5960E-01  0.4739E-02  0.5960E-01  0.4739E-02  0.1482E+00  0.4210E-02  0.5960E-01  0.4739E-02  0.1482E+00  0.4210E-02
      1.658  0.7810E-01  0.5055E-01  0.2061E-01  0.8499E-02  0.2061E-01  0.8499E-02  0.2061E-01  0.8499E-02  0.6704E-01  0.6377E-02  0.6704E-01  0.6377E-02  0.2205E+00  0.4767E-02  0.6704E-01  0.6377E-02  0.2205E+00  0.4767E-02
      1.832  0.6193E-01  0.5221E-01  0.2072E-01  0.9197E-02  0.2072E-01  0.9197E-02  0.2072E-01  0.9197E-02  0.6962E-01  0.8413E-02  0.6962E-01  0.8413E-02  0.2232E+00  0.6653E-02  0.6962E-01  0.8413E-02  0.2232E+00  0.6653E-02
      2.006  0.3612E-01  0.6075E-01  0.1363E-01  0.1110E-01  0.1363E-01  0.1110E-01  0.1363E-01  0.1110E-01  0.7123E-01  0.1245E-01  0.7123E-01  0.1245E-01  0.1415E+00  0.1033E-01  0.7123E-01  0.1245E-01  0.1415E+00  0.1033E-01
      2.181  0.1910E-01  0.6716E-01  0.9334E-02  0.1128E-01  0.9334E-02  0.1128E-01  0.9334E-02  0.1128E-01  0.6116E-01  0.2213E-01  0.6116E-01  0.2213E-01  0.9941E-01  0.1662E-01  0.6116E-01  0.2213E-01  0.9941E-01  0.1662E-01
      2.355  0.7304E-02  0.7707E-01  0.9057E-02  0.1235E-01  0.9057E-02  0.1235E-01  0.9057E-02  0.1235E-01  0.6264E-01  0.3486E-01  0.6264E-01  0.3486E-01  0.9271E-01  0.2667E-01  0.6264E-01  0.3486E-01  0.9271E-01  0.2667E-01
      2.529  0.2833E-02  0.7534E-01  0.1855E-01  0.1345E-01  0.1855E-01  0.1345E-01  0.1855E-01  0.1345E-01  0.2424E+00  0.3927E-01  0.2424E+00  0.3927E-01  0.1321E+00  0.3155E-01  0.2424E+00  0.3927E-01  0.1321E+00  0.3155E-01
      2.704  0.4069E-02  0.6686E-01  0.2116E-01  0.1353E-01  0.2116E-01  0.1353E-01  0.2116E-01  0.1353E-01  0.3328E+00  0.4028E-01  0.3328E+00  0.4028E-01  0.1544E+00  0.3271E-01  0.3328E+00  0.4028E-01  0.1544E+00  0.3271E-01
      2.878  0.6794E-02  0.6065E-01  0.1567E-01  0.1465E-01  0.1567E-01  0.1465E-01  0.1567E-01  0.1465E-01  0.2453E+00  0.4177E-01  0.2453E+00  0.4177E-01  0.1189E+00  0.4816E-01  0.2453E+00  0.4177E-01  0.1189E+00  0.4816E-01
      3.052  0.1015E-01  0.5435E-01  0.2004E-01  0.1665E-01  0.2004E-01  0.1665E-01  0.2004E-01  0.1665E-01  0.2231E+00  0.4377E-01  0.2231E+00  0.4377E-01  0.9833E-01  0.9023E-01  0.2231E+00  0.4377E-01  0.9833E-01  0.9023E-01
      3.227  0.1548E-01  0.4807E-01  0.3030E-01  0.1991E-01  0.3030E-01  0.1991E-01  0.3030E-01  0.1991E-01  0.2700E+00  0.4710E-01  0.2700E+00  0.4710E-01  0.1151E+00  0.1397E+00  0.2700E+00  0.4710E-01  0.1151E+00  0.1397E+00
      3.401  0.1962E-01  0.3685E-01  0.3419E-01  0.1837E-01  0.3419E-01  0.1837E-01  0.3419E-01  0.1837E-01  0.3190E+00  0.5072E-01  0.3190E+00  0.5072E-01  0.1364E+00  0.1461E+00  0.3190E+00  0.5072E-01  0.1364E+00  0.1461E+00
      3.575  0.1545E-01  0.2262E-01  0.2528E-01  0.1304E-01  0.2528E-01  0.1304E-01  0.2528E-01  0.1304E-01  0.2543E+00  0.5042E-01  0.2543E+00  0.5042E-01  0.9493E-01  0.1036E+00  0.2543E+00  0.5042E-01  0.9493E-01  0.1036E+00
      3.750  0.9904E-02  0.1038E-01  0.1735E-01  0.8847E-02  0.1735E-01  0.8847E-02  0.1735E-01  0.8847E-02  0.1307E+00  0.3307E-01  0.1307E+00  0.3307E-01  0.5229E-01  0.7354E-01  0.1307E+00  0.3307E-01  0.5229E-01  0.7354E-01