    2    2  100    2
  0.1173411E+02  0.2863035E-09  0.2863035E-09  0.2863035E-09  0.5000000E-15
  1.000000000000000E-004
  CAR 
 unknown system                          
     16    364     20
 
  0.0000000E+00  0.0000000E+00  0.0000000E+00  0.9391435E-04
    1       -2.590223     -2.423450   1.000000   1.000000
    2        0.999183      2.815553   1.000000   1.000000
    3        0.999183      2.815694   1.000000   1.000000
    4        3.564762      5.460391   1.000000   1.006687
    5        3.564763      5.460525   1.000000   1.006702
    6        3.564763      5.460535   1.000000   1.006703
    7        4.780896      7.528782   1.000000  -0.000000
    8        4.780897      7.528946   1.000000  -0.000000
    9        6.000381      8.169399   0.060453  -0.000000
   10        6.000383      8.169523   0.060450  -0.000000
   11        6.000383      8.169535   0.060450  -0.000000
   12       15.836845     16.105768   0.000000   0.000000
   13       15.836846     16.105768   0.000000   0.000000
   14       15.836846     16.105771   0.000000   0.000000
   15       21.566265     22.625527   0.000000   0.000000
   16       21.566266     22.625540   0.000000   0.000000
   17       26.732733     27.834776   0.000000   0.000000
   18       30.936155     30.685994   0.000000   0.000000
   19       30.936155     30.685994   0.000000   0.000000
   20       30.936155     30.685994   0.000000   0.000000
 
  0.4545455E-01  0.1540744E-32  0.0000000E+00  0.5634861E-03
    1       -2.547064     -2.380118   1.000000   1.000000
    2        1.017786      2.831684   1.000000   1.000000
    3        1.018718      2.837720   1.000000   1.000000
    4        3.564325      5.458338   1.000000   1.006459
    5        3.564326      5.458482   1.000000   1.006474
    6        3.576617      5.473575   1.000000   1.008305
    7        4.761558      7.503610   1.000000  -0.000000
    8        4.788555      7.538611   1.000000  -0.000000
    9        5.963598      8.120671   0.151495  -0.000000
   10        5.963600      8.120806   0.151490  -0.000000
   11        5.987724      8.155316   0.087944  -0.000000
   12       15.506732     15.836134   0.000000   0.000000
   13       15.919190     16.200471   0.000000   0.000000
   14       15.919190     16.200472   0.000000   0.000000
   15       21.578976     22.634281   0.000000   0.000000
   16       21.823338     22.829987   0.000000   0.000000
   17       26.869312     27.964817   0.000000   0.000000
   18       30.618626     30.412425   0.000000   0.000000
   19       30.901677     30.669232   0.000000   0.000000
   20       30.901677     30.669232   0.000000   0.000000
 
  0.9090909E-01  0.3081488E-32  0.0000000E+00  0.5634861E-03
    1       -2.418292     -2.250708   1.000000   1.000000
    2        1.072851      2.876513   1.000000   1.000000
    3        1.075261      2.903124   1.000000   1.000000
    4        3.563642      5.452962   1.000000   1.005889
    5        3.563643      5.453106   1.000000   1.005903
    6        3.611973      5.512507   1.000000   1.014684
    7        4.703901      7.428513   1.000000  -0.000000
    8        4.811285      7.567132   1.000000  -0.000000
    9        5.856971      7.981364   0.560049  -0.000000
   10        5.856973      7.981498   0.560042  -0.000000
   11        5.949279      8.112134   0.195886  -0.000000
   12       14.681691     15.139655   0.000000   0.000000
   13       16.161421     16.476358   0.000000   0.000000
   14       16.161422     16.476360   0.000000   0.000000
   15       21.616189     22.660150   0.000000   0.000000
   16       22.399924     23.306614   0.000000   0.000000
   17       27.308421     28.380917   0.000000   0.000000
   18       29.872768     29.751991   0.000000   0.000000
   19       30.771235     30.598421   0.000000   0.000000
   20       30.771235     30.598422   0.000000   0.000000
 
  0.1363636E+00 -0.3081488E-32  0.0000000E+00  0.5634861E-03
    1       -2.206343     -2.037238   1.000000   1.000000
    2        1.163620      2.942669   1.000000   1.000000
    3        1.164014      3.011128   1.000000   1.000000
    4        3.564298      5.446293   1.000000   1.005237
    5        3.564299      5.446435   1.000000   1.005251
    6        3.670216      5.576680   1.000000   1.028854
    7        4.608923      7.304920   1.000000  -0.000000
    8        4.848473      7.612937   1.000000  -0.000000
    9        5.692819      7.771712   1.009972  -0.000000
   10        5.692821      7.771845   1.009971  -0.000000
   11        5.886169      8.041275   0.436869  -0.000000
   12       13.617119     14.215348   0.000000   0.000000
   13       16.550849     16.912851   0.000000   0.000000
   14       16.550850     16.912854   0.000000   0.000000
   15       21.679442     22.704469   0.000000   0.000000
   16       22.991699     23.815554   0.000000   0.000000
   17       28.105907     28.942137   0.000000   0.000000
   18       28.976819     29.133628   0.000000   0.000000
   19       30.474143     30.415152   0.000000   0.000000
   20       30.474143     30.415155   0.000000   0.000000
 
  0.1818182E+00  0.6162976E-32  0.0000000E+00  0.5634861E-03
    1       -1.915525     -1.743258   1.000000   1.000000
    2        1.276592      3.016831   1.000000   1.000000
    3        1.288569      3.160194   1.000000   1.000000
    4        3.569291      5.442035   1.000000   1.004853
    5        3.569292      5.442177   1.000000   1.004865
    6        3.750305      5.664955   1.000000   1.028072
    7        4.478426      7.135555   1.000000  -0.000000
    8        4.899221      7.516285   1.000000  -0.000000
    9        5.487326      7.516417   1.010282  -0.000000
   10        5.487328      7.673228   1.010283  -0.000000
   11        5.799792      7.944352   0.781869  -0.000000
   12       12.466226     13.207423   0.000000   0.000000
   13       17.070244     17.484246   0.000000   0.000000
   14       17.070244     17.484250   0.000000   0.000000
   15       21.770428     22.768943   0.000000   0.000000
   16       23.452075     24.218852   0.000000   0.000000
   17       28.067012     28.114331   0.000000   0.000000
   18       29.265528     30.046089   0.000000   0.000000
   19       29.944716     30.046093   0.000000   0.000000
   20       29.944717     30.232409   0.000000   0.000000
 
  0.2272727E+00  0.6162976E-32  0.0000000E+00  0.5634861E-03
    1       -1.552397     -1.373863   1.000000   1.000000
    2        1.400893      3.079544   1.000000   1.000000
    3        1.445561      3.348143   1.000000   1.000000
    4        3.581490      5.443896   1.000000   1.005018
    5        3.581491      5.444037   1.000000   1.005031
    6        3.850805      5.775813   1.000000   0.857175
    7        4.314772      6.923691   1.000000  -0.000000
    8        4.963301      7.238122   1.000000  -0.000000
    9        5.257273      7.238253   1.000063  -0.000000
   10        5.257275      7.744921   1.000063  -0.000000
   11        5.692084      7.823589   1.010627  -0.000000
   12       11.306681     12.202434  -0.000000   0.000000
   13       17.701320     18.165863   0.000000   0.000000
   14       17.701320     18.165867   0.000000   0.000000
   15       21.891516     22.855978   0.000000   0.000000
   16       23.786436     24.506763   0.000000   0.000000
   17       27.197783     27.325853   0.000000   0.000000
   18       29.185906     29.452743   0.000000   0.000000
   19       29.185907     29.452749   0.000000   0.000000
   20       30.718571     31.622689   0.000000   0.000000
 
  0.2727273E+00  0.6162976E-32  0.0000000E+00  0.5634861E-03
    1       -1.126619     -0.936211   1.000000   1.000000
    2        1.520554      3.104887   1.000000   1.000000
    3        1.631839      3.572079   1.000000   1.000000
    4        3.604729      5.456589   1.000000   1.006269
    5        3.604730      5.456729   1.000000   1.006284
    6        3.969902      5.907303   1.000000   0.349971
    7        4.121013      6.673740   1.000000  -0.000000
    8        5.017569      6.955717   1.000000  -0.000000
    9        5.017570      6.955847   1.000000  -0.000000
   10        5.042177      7.681702   1.000000  -0.000000
   11        5.565455      7.825149   1.026354  -0.000000
   12       10.182530     11.256786  -0.000000  -0.000000
   13       18.426905     18.936779   0.000000   0.000000
   14       18.426905     18.936783   0.000000   0.000000
   15       22.045631     22.968642   0.000000   0.000000
   16       24.053664     24.727123   0.000000   0.000000
   17       26.391588     26.600984   0.000000   0.000000
   18       28.264798     28.664387   0.000000   0.000000
   19       28.264799     28.664393   0.000000   0.000000
   20       30.058525     30.483498   0.000000   0.000000
 
  0.3181818E+00  0.1232595E-31  0.0000000E+00  0.5634861E-03
    1       -0.652078     -0.439918   1.000000   1.000000
    2        1.615045      3.062219   1.000000   1.000000
    3        1.844058      3.828539   1.000000   1.000000
    4        3.643112      5.485370   1.000000   1.009983
    5        3.643113      5.485509   1.000000   1.010004
    6        3.901537      6.057063   1.000000  -0.016150
    7        4.105401      6.392014   1.000000  -0.000718
    8        4.780873      6.683442   1.000000  -0.000000
    9        4.780874      6.683573   1.000000  -0.000000
   10        5.140912      7.522001   1.000002  -0.000000
   11        5.422724      7.912389   1.003384  -0.000000
   12        9.125065     10.412761  -0.000000  -0.000000
   13       19.232231     19.780203   0.000000   0.000000
   14       19.232231     19.780207   0.000000   0.000000
   15       22.236593     23.110826   0.000000   0.000000
   16       24.309006     24.933058   0.000000   0.000000
   17       25.658576     25.950145   0.000000   0.000000
   18       27.252314     27.744434   0.000000   0.000000
   19       27.252315     27.744440   0.000000   0.000000
   20       29.026703     29.443788   0.000000   0.000000
 
  0.3636364E+00  0.1232595E-31  0.0000000E+00  0.5634861E-03
    1       -0.148891      0.101992   1.000000   1.000000
    2        1.658466      2.920488   1.000000   1.000000
    3        2.078231      4.113182   1.000000   1.000000
    4        3.660734      5.534680   1.000000   1.019311
    5        3.700193      5.534818   1.000000   1.019342
    6        3.700194      6.084656   1.000000  -0.030773
    7        4.254774      6.222355   1.000000  -0.016188
    8        4.556538      6.431053   1.000000  -0.000274
    9        4.556539      6.431184   1.000000  -0.000274
   10        5.267019      7.348039   1.000083  -0.000000
   11        5.270493      8.008079   1.000092  -0.000000
   12        8.162017      9.703103  -0.000000  -0.000000
   13       20.104796     20.682846   0.000000   0.000000
   14       20.104797     20.682849   0.000000   0.000000
   15       22.468564     23.287013   0.000000   0.000000
   16       24.593439     25.167285   0.000000   0.000000
   17       25.000767     25.375024   0.000000   0.000000
   18       26.196928     26.749251   0.000000   0.000000
   19       26.196929     26.749256   0.000000   0.000000
   20       28.083415     28.496471   0.000000   0.000000
 
  0.4090909E+00  0.0000000E+00  0.0000000E+00  0.5634861E-03
    1        0.354290      0.671796   1.000000   1.000000
    2        1.621058      2.658338   1.000000   1.000000
    3        2.329823      4.420980   1.000000   1.000000
    4        3.403811      5.608712   1.000000   1.034409
    5        3.779246      5.608848   1.000000   1.034424
    6        3.779247      5.758820   1.000000   0.902191
    7        4.350965      6.204588   1.000000  -0.020010
    8        4.350966      6.204719   1.000000  -0.019981
    9        4.415186      6.400095   1.000000  -0.000593
   10        5.101648      7.163487   1.000000  -0.000000
   11        5.451098      8.119067   1.005701  -0.000000
   12        7.321196      9.146128  -0.000000  -0.000000
   13       21.033568     21.633317   0.000000   0.000000
   14       21.033569     21.633319   0.000000   0.000000
   15       22.746276     23.502358   0.000000   0.000000
   16       24.417087     24.873578   0.000000   0.000000
   17       24.936631     25.462810   0.000000   0.000000
   18       25.128676     25.717907   0.000000   0.000000
   19       25.128677     25.717911   0.000000   0.000000
   20       27.240737     27.656858   0.000000   0.000000
 
  0.4545455E+00  0.1232595E-31  0.0000000E+00  0.5634861E-03
    1        0.819524      1.245557   1.000000   1.000000
    2        1.474653      2.274903   1.000000   1.000000
    3        2.593793      4.746178   1.000000   1.000000
    4        3.136862      5.422606   1.000000   1.003377
    5        3.882926      5.711087   1.000000   0.990195
    6        3.882927      5.711222   1.000000   0.990023
    7        4.168721      6.008113   1.000000   0.045636
    8        4.168723      6.008246   1.000000   0.045394
    9        4.583610      6.587076   1.000000  -0.000003
   10        4.930195      6.972416   1.000000  -0.000000
   11        5.713569      8.259845   0.986959  -0.000000
   12        6.627958      8.738455  -0.000001  -0.000000
   13       22.009258     22.621976   0.000000   0.000000
   14       22.009258     22.621976   0.000000   0.000000
   15       23.074845     23.762585   0.000000   0.000000
   16       23.906004     24.442524   0.000000   0.000000
   17       24.066736     24.675839   0.000000   0.000000
   18       24.066737     24.675842   0.000000   0.000000
   19       25.360433     25.844877   0.000000   0.000000
   20       26.505830     26.934305   0.000000   0.000000
 
  0.5000000E+00  0.0000000E+00  0.0000000E+00  0.2817431E-03
    1        1.204206      1.792188   1.000000   1.000000
    2        1.204206      1.792188   1.000000   1.000000
    3        2.864769      5.082424   1.000000   1.000000
    4        2.864769      5.082424   1.000000   1.000000
    5        4.012660      5.843862   1.000000   0.614499
    6        4.012660      5.843862   1.000000   0.614499
    7        4.012662      5.843996   1.000000   0.613950
    8        4.012662      5.843996   1.000000   0.613950
    9        4.756492      6.779174   1.000000  -0.000000
   10        4.756492      6.779174   1.000000  -0.000000
   11        6.095413      8.455014  -0.033558  -0.000000
   12        6.095413      8.455014  -0.033558  -0.000000
   13       23.023635     23.639814   0.000000   0.000000
   14       23.023635     23.639814   0.000000   0.000000
   15       23.023636     23.639816   0.000000   0.000000
   16       23.023636     23.639816   0.000000   0.000000
   17       23.459723     24.073885   0.000000   0.000000
   18       23.459723     24.073885   0.000000   0.000000
   19       25.880326     26.331658   0.000000   0.000000
   20       25.880326     26.331658   0.000000   0.000000
 
  0.4545455E-01  0.4545455E-01  0.0000000E+00  0.1126972E-02
    1       -2.504016     -2.336876   1.000000   1.000000
    2        1.036303      2.850887   1.000000   1.000000
    3        1.037854      2.855975   1.000000   1.000000
    4        3.541033      5.431954   1.000000   1.004032
    5        3.563367      5.455763   1.000000   1.006180
    6        3.611275      5.511077   1.000000   1.014407
    7        4.756646      7.496796   1.000000  -0.000000
    8        4.782764      7.530987   1.000000  -0.000000
    9        5.896534      8.038755   0.393760  -0.000000
   10        5.926416      8.071539   0.275952  -0.000000
   11        6.006075      8.175868   0.049398  -0.000000
   12       15.512960     15.864037   0.000000   0.000000
   13       15.660394     15.992651   0.000000   0.000000
   14       16.000288     16.293079   0.000000   0.000000
   15       21.712070     22.739124   0.000000   0.000000
   16       21.968902     22.946853   0.000000   0.000000
   17       27.000335     28.090202   0.000000   0.000000
   18       30.343449     30.189763   0.000000   0.000000
   19       30.815101     30.591663   0.000000   0.000000
   20       30.873934     30.656714   0.000000   0.000000
 
  0.9090909E-01  0.4545455E-01  0.0000000E+00  0.2253944E-02
    1       -2.375729     -2.207882   1.000000   1.000000
    2        1.090612      2.897321   1.000000   1.000000
    3        1.094762      2.919385   1.000000   1.000000
    4        3.521454      5.406724   1.000000   1.002467
    5        3.561049      5.448754   1.000000   1.005471
    6        3.665362      5.569779   1.000000   1.027333
    7        4.706554      7.430923   1.000000  -0.000000
    8        4.800803      7.553410   1.000000  -0.000000
    9        5.768688      7.878213   0.876925  -0.000000
   10        5.819966      7.932686   0.709111  -0.000000
   11        5.992354      8.159568   0.077418  -0.000000
   12       14.740011     15.211428   0.000000   0.000000
   13       15.838493     16.212146   0.000000   0.000000
   14       16.239109     16.563453   0.000000   0.000000
   15       21.796729     22.803359   0.000000   0.000000
   16       22.525427     23.410187   0.000000   0.000000
   17       27.423625     28.492873   0.000000   0.000000
   18       29.609619     29.545639   0.000000   0.000000
   19       30.643870     30.475458   0.000000   0.000000
   20       30.762704     30.598334   0.000000   0.000000
 
  0.1363636E+00  0.4545455E-01  0.0000000E+00  0.2253944E-02
    1       -2.164583     -1.995091   1.000000   1.000000
    2        1.179078      2.963977   1.000000   1.000000
    3        1.184969      3.025899   1.000000   1.000000
    4        3.509486      5.387287   1.000000   1.001646
    5        3.559157      5.439598   1.000000   1.004643
    6        3.735895      5.646471   1.000000   1.033658
    7        4.616210      7.312263   1.000000  -0.000000
    8        4.838083      7.599316   1.000000  -0.000000
    9        5.594706      7.661187   1.032393  -0.000000
   10        5.656234      7.724187   1.031252  -0.000000
   11        5.944017      8.103677   0.213368  -0.000000
   12       13.674810     14.284432   0.000000   0.000000
   13       16.210759     16.632927   0.000000   0.000000
   14       16.623583     16.992358   0.000000   0.000000
   15       21.874900     22.860004   0.000000   0.000000
   16       23.141170     23.942585   0.000000   0.000000
   17       28.198306     28.727343   0.000000   0.000000
   18       28.703190     29.225783   0.000000   0.000000
   19       30.311390     30.252446   0.000000   0.000000
   20       30.491079     30.433154   0.000000   0.000000
 
  0.1818182E+00  0.4545455E-01  0.0000000E+00  0.2253944E-02
    1       -1.875019     -1.702119   1.000000   1.000000
    2        1.293993      3.038632   1.000000   1.000000
    3        1.306338      3.172955   1.000000   1.000000
    4        3.506015      5.374882   1.000000   1.001257
    5        3.559786      5.431240   1.000000   1.003979
    6        3.824021      5.742673   1.000000   0.938235
    7        4.491873      7.148674   1.000000  -0.000000
    8        4.889644      7.405445   1.000000  -0.000000
    9        5.386018      7.471527   1.001602  -0.000000
   10        5.451948      7.660849   1.005786  -0.000000
   11        5.866905      8.015702   0.518182  -0.000000
   12       12.522044     13.272590   0.000000   0.000000
   13       16.707573     17.183179   0.000000   0.000000
   14       17.137248     17.555539   0.000000   0.000000
   15       21.979800     22.936180   0.000000   0.000000
   16       23.631529     24.375321   0.000000   0.000000
   17       27.769797     27.879432   0.000000   0.000000
   18       29.335906     29.839440   0.000000   0.000000
   19       29.751198     30.081095   0.000000   0.000000
   20       29.981225     30.304379   0.000000   0.000000
 
  0.2272727E+00  0.4545455E-01  0.0000000E+00  0.2253944E-02
    1       -1.513652     -1.334094   1.000000   1.000000
    2        1.419016      3.101333   1.000000   1.000000
    3        1.460528      3.358165   1.000000   1.000000
    4        3.512431      5.371355   1.000000   1.001162
    5        3.565487      5.427924   1.000000   1.003738
    6        3.929674      5.858472   1.000000   0.553747
    7        4.337809      6.944822   1.000000  -0.000000
    8        4.954436      7.130008   1.000000  -0.000000
    9        5.156232      7.198453   1.000003  -0.000000
   10        5.224248      7.733851   1.000024  -0.000000
   11        5.765094      7.900442   0.886411  -0.000000
   12       11.360379     12.263016   0.000000   0.000000
   13       17.307587     17.835331   0.000000   0.000000
   14       17.762424     18.229242   0.000000   0.000000
   15       22.118164     23.037931   0.000000   0.000000
   16       23.993824     24.691896   0.000000   0.000000
   17       26.864215     27.059888   0.000000   0.000000
   18       28.987041     29.215338   0.000000   0.000000
   19       29.229261     29.496324   0.000000   0.000000
   20       30.771866     31.678001   0.000000   0.000000
 
  0.2727273E+00  0.4545455E-01  0.0000000E+00  0.2253944E-02
    1       -1.090293     -0.898233   1.000000   1.000000
    2        1.538876      3.126530   1.000000   1.000000
    3        1.644002      3.578472   1.000000   1.000000
    4        3.531531      5.380325   1.000000   1.001416
    5        3.575970      5.432889   1.000000   1.004103
    6        4.052052      5.993022   1.000000   0.075945
    7        4.161020      6.706346   1.000000  -0.000000
    8        4.918544      6.851531   1.000000  -0.000000
    9        4.988949      6.925000   1.000000  -0.000000
   10        5.033869      7.762239   1.000000  -0.000000
   11        5.642440      7.815317   1.034334  -0.000000
   12       10.233660     11.311433  -0.000000  -0.000000
   13       17.991320     18.566028   0.000000   0.000000
   14       18.482408     18.993071   0.000000   0.000000
   15       22.295298     23.170391   0.000000   0.000000
   16       24.288428     24.941184   0.000000   0.000000
   17       26.004096     26.288649   0.000000   0.000000
   18       28.100693     28.431340   0.000000   0.000000
   19       28.307276     28.708497   0.000000   0.000000
   20       30.626954     31.047481   0.000000   0.000000
 
  0.3181818E+00  0.4545455E-01  0.0000000E+00  0.2253944E-02
    1       -0.619012     -0.404224   1.000000   1.000000
    2        1.632382      3.082594   1.000000   1.000000
    3        1.852926      3.830049   1.000000   1.000000
    4        3.566747      5.406306   1.000000   1.002446
    5        3.580625      5.447933   1.000000   1.005392
    6        3.980209      6.144718   1.000000  -0.032889
    7        4.189626      6.442481   1.000000  -0.000204
    8        4.684567      6.583340   1.000000  -0.000003
    9        4.759062      6.665968   1.000000  -0.000000
   10        5.133203      7.605129   1.000001  -0.000000
   11        5.502538      7.903726   1.012822  -0.000000
   12        9.172538     10.459282  -0.000000  -0.000000
   13       18.740704     19.355089   0.000000   0.000000
   14       19.282708     19.830482   0.000000   0.000000
   15       22.517377     23.339824   0.000000   0.000000
   16       24.572316     25.178045   0.000000   0.000000
   17       25.190660     25.567125   0.000000   0.000000
   18       27.173543     27.569155   0.000000   0.000000
   19       27.291955     27.785702   0.000000   0.000000
   20       29.599240     30.026882   0.000000   0.000000
 
  0.3636364E+00  0.4545455E-01  0.0000000E+00  0.2253944E-02
    1       -0.120043      0.134848   1.000000   1.000000
    2        1.674180      2.939478   1.000000   1.000000
    3        2.083089      4.108102   1.000000   1.000000
    4        3.523948      5.453313   1.000000   1.005925
    5        3.621218      5.467130   1.000000   1.007481
    6        3.858099      6.169260   1.000000  -0.028082
    7        4.340159      6.311028   1.000000  -0.003989
    8        4.462948      6.334511   1.000000  -0.002526
    9        4.544824      6.431399   1.000000  -0.000272
   10        5.264022      7.433147   1.000076  -0.000000
   11        5.348967      8.000662   1.000695  -0.000000
   12        8.204091      9.739017  -0.000000  -0.000000
   13       19.538733     20.184091   0.000000   0.000000
   14       20.150789     20.728052   0.000000   0.000000
   15       22.792391     23.554651   0.000000   0.000000
   16       24.410330     24.880057   0.000000   0.000000
   17       24.889261     25.448183   0.000000   0.000000
   18       26.234265     26.701967   0.000000   0.000000
   19       26.265766     26.787550   0.000000   0.000000
   20       28.637520     29.068456   0.000000   0.000000
 
  0.4090909E+00  0.4545455E-01  0.0000000E+00  0.2253944E-02
    1        0.378060      0.701281   1.000000   1.000000
    2        1.634885      2.676694   1.000000   1.000000
    3        2.329692      4.406548   1.000000   1.000000
    4        3.345828      5.453243   1.000000   1.005917
    5        3.697968      5.525293   1.000000   1.017279
    6        3.862307      5.935272   1.000000   0.243706
    7        4.260214      6.111473   1.000000  -0.035371
    8        4.353271      6.226564   1.000000  -0.015339
    9        4.501118      6.489261   1.000000  -0.000056
   10        5.185210      7.250134   1.000007  -0.000000
   11        5.447740      8.113518   1.005374  -0.000000
   12        7.355428      9.169909  -0.000000  -0.000000
   13       20.368182     21.034336   0.000000   0.000000
   14       21.075958     21.674640   0.000000   0.000000
   15       23.131042     23.826762   0.000000   0.000000
   16       23.641640     24.198501   0.000000   0.000000
   17       25.165012     25.754388   0.000000   0.000000
   18       25.270188     25.786254   0.000000   0.000000
   19       25.424117     25.891323   0.000000   0.000000
   20       27.759602     28.193454   0.000000   0.000000
 
  0.4545455E+00  0.4545455E-01  0.0000000E+00  0.2253944E-02
    1        0.838031      1.271298   1.000000   1.000000
    2        1.487582      2.294308   1.000000   1.000000
    3        2.587110      4.717121   1.000000   1.000000
    4        3.106845      5.301759   1.000000   1.000214
    5        3.799295      5.625362   1.000000   1.035455
    6        3.938055      5.854434   1.000000   0.570679
    7        4.080732      5.918057   1.000000   0.307645
    8        4.187811      6.054275   1.000000  -0.013968
    9        4.669427      6.675938   1.000000  -0.000000
   10        5.014897      7.060162   1.000000  -0.000000
   11        5.716346      8.257461   0.983172  -0.000000
   12        6.651824      8.750709  -0.000000  -0.000000
   13       21.210779     21.884678   0.000000   0.000000
   14       22.048916     22.660507   0.000000   0.000000
   15       22.858652     23.483265   0.000000   0.000000
   16       23.546901     24.172928   0.000000   0.000000
   17       24.102834     24.711595   0.000000   0.000000
   18       24.682637     25.187661   0.000000   0.000000
   19       25.737083     26.217998   0.000000   0.000000
   20       26.979212     27.419993   0.000000   0.000000
 
  0.5000000E+00  0.4545455E-01  0.0000000E+00  0.1126972E-02
    1        1.218657      1.814308   1.000000   1.000000
    2        1.218657      1.814308   1.000000   1.000000
    3        2.849037      5.026612   1.000000   1.000000
    4        2.849037      5.026612   1.000000   1.000000
    5        3.926741      5.755916   1.000000   0.909158
    6        3.926741      5.755916   1.000000   0.909158
    7        4.049121      5.921413   1.000000   0.294784
    8        4.049121      5.921413   1.000000   0.294784
    9        4.841694      6.867339   1.000000  -0.000000
   10        4.841694      6.867339   1.000000  -0.000000
   11        6.107906      8.458376  -0.035181  -0.000000
   12        6.107906      8.458376  -0.035181  -0.000000
   13       22.046675     22.709478   0.000000   0.000000
   14       22.046675     22.709478   0.000000   0.000000
   15       23.060663     23.676059   0.000000   0.000000
   16       23.060663     23.676059   0.000000   0.000000
   17       24.058605     24.617877   0.000000   0.000000
   18       24.058605     24.617877   0.000000   0.000000
   19       26.304609     26.760319   0.000000   0.000000
   20       26.304609     26.760319   0.000000   0.000000
 
  0.9090909E-01  0.9090909E-01  0.0000000E+00  0.1126972E-02
    1       -2.248853     -2.080075   1.000000   1.000000
    2        1.141702      2.955870   1.000000   1.000000
    3        1.153389      2.968978   1.000000   1.000000
    4        3.472244      5.349250   1.000000   1.000699
    5        3.554040      5.436950   1.000000   1.004423
    6        3.748568      5.660453   1.000000   1.029843
    7        4.695069      7.412379   1.000000  -0.000000
    8        4.788640      7.537638   1.000000  -0.000000
    9        5.607259      7.682624   1.034240  -0.000000
   10        5.713771      7.795171   0.986688  -0.000000
   11        6.021990      8.193600   0.022693  -0.000000
   12       14.722058     15.241014   0.000000   0.000000
   13       15.234117     15.718993   0.000000   0.000000
   14       16.468383     16.818801   0.000000   0.000000
   15       22.040160     22.999296   0.000000   0.000000
   16       22.996120     23.809268   0.000000   0.000000
   17       27.798696     28.854689   0.000000   0.000000
   18       28.897762     28.941451   0.000000   0.000000
   19       30.391601     30.251729   0.000000   0.000000
   20       30.709214     30.577569   0.000000   0.000000
 
  0.1363636E+00  0.9090909E-01  0.0000000E+00  0.2253944E-02
    1       -2.040265     -1.869400   1.000000   1.000000
    2        1.224402      3.027377   1.000000   1.000000
    3        1.246959      3.067876   1.000000   1.000000
    4        3.432825      5.300315   1.000000   1.000206
    5        3.544660      5.420267   1.000000   1.003227
    6        3.845649      5.766112   1.000000   0.883757