   2   2   0   0
  0.2016476E+02  0.3849278E-09  0.3849279E-09  0.3849278E-09  0.5000000E-15
  1.000000000000000E-004
  CAR 
 unknown system                          
     16.45407612     -7.25799819  301      5.86391793      1.00000000
     -7.258  0.0000E+00  0.0000E+00
     -7.179  0.0000E+00  0.0000E+00
     -7.100  0.0000E+00  0.0000E+00
     -7.021  0.0000E+00  0.0000E+00
     -6.942  0.0000E+00  0.0000E+00
     -6.863  0.0000E+00  0.0000E+00
     -6.784  0.0000E+00  0.0000E+00
     -6.705  0.0000E+00  0.0000E+00
     -6.626  0.0000E+00  0.0000E+00
     -6.547  0.0000E+00  0.0000E+00
     -6.468  0.4095E-19  0.3237E-20
     -6.389  0.3482E-12  0.2752E-13
     -6.310  0.2368E-07  0.1872E-08
     -6.230  0.1642E-04  0.1300E-05
     -6.151  0.3426E-03  0.2838E-04
     -6.072  0.9736E-03  0.1053E-03
     -5.993  0.1474E-02  0.2218E-03
     -5.914  0.1654E-02  0.3526E-03
     -5.835  0.2154E-02  0.5229E-03
     -5.756  0.2149E-02  0.6927E-03
     -5.677  0.2585E-02  0.8970E-03
     -5.598  0.2800E-02  0.1118E-02
     -5.519  0.2550E-02  0.1320E-02
     -5.440  0.3628E-02  0.1607E-02
     -5.361  0.3137E-02  0.1855E-02
     -5.282  0.3079E-02  0.2098E-02
     -5.203  0.4196E-02  0.2430E-02
     -5.124  0.3716E-02  0.2723E-02
     -5.045  0.4002E-02  0.3040E-02
     -4.966  0.3889E-02  0.3347E-02
     -4.887  0.4581E-02  0.3709E-02
     -4.808  0.5184E-02  0.4119E-02
     -4.729  0.4064E-02  0.4440E-02
     -4.650  0.4641E-02  0.4807E-02
     -4.571  0.5592E-02  0.5249E-02
     -4.492  0.5671E-02  0.5697E-02
     -4.413  0.5008E-02  0.6093E-02
     -4.334  0.6351E-02  0.6595E-02
     -4.254  0.5001E-02  0.6990E-02
     -4.175  0.6807E-02  0.7528E-02
     -4.096  0.7380E-02  0.8112E-02
     -4.017  0.7444E-02  0.8700E-02
     -3.938  0.6396E-02  0.9206E-02
     -3.859  0.9400E-02  0.9949E-02
     -3.780  0.8976E-02  0.1066E-01
     -3.701  0.8428E-02  0.1132E-01
     -3.622  0.9599E-02  0.1208E-01
     -3.543  0.7308E-02  0.1266E-01
     -3.464  0.6974E-02  0.1321E-01
     -3.385  0.7969E-02  0.1384E-01
     -3.306  0.7130E-02  0.1441E-01
     -3.227  0.6601E-02  0.1493E-01
     -3.148  0.8405E-02  0.1559E-01
     -3.069  0.6411E-02  0.1610E-01
     -2.990  0.4597E-02  0.1646E-01
     -2.911  0.3783E-02  0.1676E-01
     -2.832  0.7071E-02  0.1732E-01
     -2.753  0.7416E-02  0.1791E-01
     -2.674  0.5004E-02  0.1830E-01
     -2.595  0.3490E-02  0.1858E-01
     -2.516  0.2416E-02  0.1877E-01
     -2.437  0.2640E-02  0.1898E-01
     -2.358  0.5547E-02  0.1941E-01
     -2.278  0.4168E-02  0.1974E-01
     -2.199  0.2426E-02  0.1994E-01
     -2.120  0.7972E-03  0.2000E-01
     -2.041  0.1192E-04  0.2000E-01
     -1.962  0.6498E-06  0.2000E-01
     -1.883  0.2758E-03  0.2002E-01
     -1.804  0.3498E-02  0.2030E-01
     -1.725  0.5498E-02  0.2073E-01
     -1.646  0.2634E-02  0.2094E-01
     -1.567  0.1950E-02  0.2110E-01
     -1.488  0.2336E-02  0.2128E-01
     -1.409  0.2215E-02  0.2145E-01
     -1.330  0.6821E-02  0.2199E-01
     -1.251  0.1157E-01  0.2291E-01
     -1.172  0.7331E-02  0.2349E-01
     -1.093  0.1284E-01  0.2450E-01
     -1.014  0.1470E-01  0.2566E-01
     -0.935  0.1156E-01  0.2658E-01
     -0.856  0.1013E-01  0.2738E-01
     -0.777  0.9299E-02  0.2811E-01
     -0.698  0.8398E-02  0.2878E-01
     -0.619  0.8649E-02  0.2946E-01
     -0.540  0.4578E-02  0.2982E-01
     -0.461  0.4054E-02  0.3014E-01
     -0.381  0.8247E-02  0.3080E-01
     -0.302  0.5721E-02  0.3125E-01
     -0.223  0.2951E-02  0.3148E-01
     -0.144  0.5975E-02  0.3195E-01
     -0.065  0.7864E-02  0.3257E-01
      0.014  0.3003E-02  0.3281E-01
      0.093  0.1901E-02  0.3296E-01
      0.172  0.3488E-02  0.3324E-01
      0.251  0.7275E-02  0.3381E-01
      0.330  0.2757E-02  0.3403E-01
      0.409  0.2089E-02  0.3420E-01
      0.488  0.3461E-02  0.3447E-01
      0.567  0.4964E-02  0.3486E-01
      0.646  0.3992E-02  0.3518E-01
      0.725  0.1153E-02  0.3527E-01
      0.804  0.1601E-02  0.3540E-01
      0.883  0.2904E-02  0.3563E-01
      0.962  0.5175E-02  0.3603E-01
      1.041  0.1973E-02  0.3619E-01
      1.120  0.1543E-02  0.3631E-01
      1.199  0.2060E-02  0.3647E-01
      1.278  0.2038E-02  0.3664E-01
      1.357  0.5579E-02  0.3708E-01
      1.436  0.5641E-02  0.3752E-01
      1.515  0.6782E-02  0.3806E-01
      1.595  0.1228E-01  0.3903E-01
      1.674  0.1199E-01  0.3998E-01
      1.753  0.1238E-01  0.4096E-01
      1.832  0.1210E-01  0.4191E-01
      1.911  0.1078E-01  0.4276E-01
      1.990  0.8272E-02  0.4342E-01
      2.069  0.1086E-01  0.4428E-01
      2.148  0.1128E-01  0.4517E-01
      2.227  0.1070E-01  0.4601E-01
      2.306  0.1121E-01  0.4690E-01
      2.385  0.1006E-01  0.4769E-01
      2.464  0.9788E-02  0.4847E-01
      2.543  0.1241E-01  0.4945E-01
      2.622  0.1374E-01  0.5053E-01
      2.701  0.1170E-01  0.5146E-01
      2.780  0.1179E-01  0.5239E-01
      2.859  0.1549E-01  0.5361E-01
      2.938  0.1502E-01  0.5480E-01
      3.017  0.1644E-01  0.5610E-01
      3.096  0.1610E-01  0.5737E-01
      3.175  0.1372E-01  0.5846E-01
      3.254  0.1267E-01  0.5946E-01
      3.333  0.1563E-01  0.6070E-01
      3.412  0.1466E-01  0.6185E-01
      3.491  0.1424E-01  0.6298E-01
      3.571  0.1414E-01  0.6410E-01
      3.650  0.1132E-01  0.6499E-01
      3.729  0.1364E-01  0.6607E-01
      3.808  0.1472E-01  0.6723E-01
      3.887  0.1164E-01  0.6815E-01
      3.966  0.1339E-01  0.6921E-01
      4.045  0.1169E-01  0.7014E-01
      4.124  0.1252E-01  0.7113E-01
      4.203  0.1067E-01  0.7197E-01
      4.282  0.1381E-01  0.7306E-01
      4.361  0.1155E-01  0.7397E-01
      4.440  0.1051E-01  0.7481E-01
      4.519  0.9170E-02  0.7553E-01
      4.598  0.9100E-02  0.7625E-01
      4.677  0.6828E-02  0.7679E-01
      4.756  0.6008E-02  0.7726E-01
      4.835  0.6142E-02  0.7775E-01
      4.914  0.5367E-02  0.7817E-01
      4.993  0.3502E-02  0.7845E-01
      5.072  0.3791E-02  0.7875E-01
      5.151  0.4565E-02  0.7911E-01
      5.230  0.2777E-02  0.7933E-01
      5.309  0.2223E-02  0.7951E-01
      5.388  0.2270E-02  0.7969E-01
      5.467  0.2066E-02  0.7985E-01
      5.547  0.1159E-02  0.7994E-01
      5.626  0.6706E-03  0.7999E-01
      5.705  0.8728E-04  0.8000E-01
      5.784  0.3823E-06  0.8000E-01
      5.863  0.1899E-10  0.8000E-01
      5.942  0.7596E-17  0.8000E-01
      6.021  0.2058E-17  0.8000E-01
      6.100  0.9263E-11  0.8000E-01
      6.179  0.3434E-06  0.8000E-01
      6.258  0.1329E-03  0.8001E-01
      6.337  0.1205E-02  0.8011E-01
      6.416  0.1089E-02  0.8019E-01
      6.495  0.2234E-02  0.8037E-01
      6.574  0.4314E-02  0.8071E-01
      6.653  0.3036E-02  0.8095E-01
      6.732  0.3716E-02  0.8124E-01
      6.811  0.3635E-02  0.8153E-01
      6.890  0.5649E-02  0.8198E-01
      6.969  0.6796E-02  0.8251E-01
      7.048  0.5183E-02  0.8292E-01
      7.127  0.5277E-02  0.8334E-01
      7.206  0.7568E-02  0.8394E-01
      7.285  0.8209E-02  0.8459E-01
      7.364  0.7383E-02  0.8517E-01
      7.443  0.1095E-01  0.8604E-01
      7.523  0.1002E-01  0.8683E-01
      7.602  0.1222E-01  0.8779E-01
      7.681  0.1117E-01  0.8868E-01
      7.760  0.1159E-01  0.8959E-01
      7.839  0.1590E-01  0.9085E-01
      7.918  0.1960E-01  0.9240E-01
      7.997  0.1509E-01  0.9359E-01
      8.076  0.1407E-01  0.9470E-01
      8.155  0.1619E-01  0.9598E-01
      8.234  0.1460E-01  0.9714E-01
      8.313  0.1202E-01  0.9809E-01
      8.392  0.1058E-01  0.9893E-01
      8.471  0.1133E-01  0.9982E-01
      8.550  0.1249E-01  0.1008E+00
      8.629  0.1206E-01  0.1018E+00
      8.708  0.8646E-02  0.1024E+00
      8.787  0.1185E-01  0.1034E+00
      8.866  0.1538E-01  0.1046E+00
      8.945  0.2154E-01  0.1063E+00
      9.024  0.2535E-01  0.1083E+00
      9.103  0.1846E-01  0.1098E+00
      9.182  0.1444E-01  0.1109E+00
      9.261  0.1922E-01  0.1124E+00
      9.340  0.1852E-01  0.1139E+00
      9.419  0.1639E-01  0.1152E+00
      9.499  0.1568E-01  0.1164E+00
      9.578  0.1307E-01  0.1175E+00
      9.657  0.1236E-01  0.1184E+00
      9.736  0.1230E-01  0.1194E+00
      9.815  0.1262E-01  0.1204E+00
      9.894  0.1450E-01  0.1215E+00
      9.973  0.1253E-01  0.1225E+00
     10.052  0.1405E-01  0.1236E+00
     10.131  0.1010E-01  0.1244E+00
     10.210  0.8737E-02  0.1251E+00
     10.289  0.1633E-01  0.1264E+00
     10.368  0.1581E-01  0.1277E+00
     10.447  0.1289E-01  0.1287E+00
     10.526  0.1344E-01  0.1298E+00
     10.605  0.1222E-01  0.1307E+00
     10.684  0.9626E-02  0.1315E+00
     10.763  0.1126E-01  0.1324E+00
     10.842  0.1413E-01  0.1335E+00
     10.921  0.1184E-01  0.1344E+00
     11.000  0.1218E-01  0.1354E+00
     11.079  0.1356E-01  0.1365E+00
     11.158  0.9942E-02  0.1372E+00
     11.237  0.8956E-02  0.1380E+00
     11.316  0.1175E-01  0.1389E+00
     11.396  0.1128E-01  0.1398E+00
     11.475  0.9905E-02  0.1406E+00
     11.554  0.1209E-01  0.1415E+00
     11.633  0.1475E-01  0.1427E+00
     11.712  0.8803E-02  0.1434E+00
     11.791  0.8218E-02  0.1440E+00
     11.870  0.7821E-02  0.1446E+00
     11.949  0.9161E-02  0.1454E+00
     12.028  0.7094E-02  0.1459E+00
     12.107  0.7912E-02  0.1466E+00
     12.186  0.1537E-01  0.1478E+00
     12.265  0.1286E-01  0.1488E+00
     12.344  0.8039E-02  0.1494E+00
     12.423  0.6575E-02  0.1499E+00
     12.502  0.6322E-02  0.1504E+00
     12.581  0.7347E-02  0.1510E+00
     12.660  0.6213E-02  0.1515E+00
     12.739  0.5781E-02  0.1520E+00
     12.818  0.9634E-02  0.1527E+00
     12.897  0.8468E-02  0.1534E+00
     12.976  0.7449E-02  0.1540E+00
     13.055  0.5487E-02  0.1544E+00
     13.134  0.3901E-02  0.1547E+00
     13.213  0.2963E-02  0.1550E+00
     13.292  0.3844E-02  0.1553E+00
     13.372  0.6373E-02  0.1558E+00
     13.451  0.8557E-02  0.1565E+00
     13.530  0.7900E-02  0.1571E+00
     13.609  0.6056E-02  0.1576E+00
     13.688  0.2137E-02  0.1577E+00
     13.767  0.3447E-02  0.1580E+00
     13.846  0.1506E-02  0.1581E+00
     13.925  0.4681E-03  0.1582E+00
     14.004  0.1939E-02  0.1583E+00
     14.083  0.1807E-02  0.1584E+00
     14.162  0.5432E-02  0.1589E+00
     14.241  0.2933E-02  0.1591E+00
     14.320  0.8835E-03  0.1592E+00
     14.399  0.4327E-03  0.1592E+00
     14.478  0.6750E-04  0.1592E+00
     14.557  0.1017E-02  0.1593E+00
     14.636  0.1191E-02  0.1594E+00
     14.715  0.9331E-03  0.1595E+00
     14.794  0.2603E-02  0.1597E+00
     14.873  0.1677E-02  0.1598E+00
     14.952  0.2605E-03  0.1598E+00
     15.031  0.4419E-05  0.1598E+00
     15.110  0.7229E-05  0.1598E+00
     15.189  0.4384E-03  0.1599E+00
     15.268  0.6502E-03  0.1599E+00
     15.348  0.4666E-03  0.1599E+00
     15.427  0.6047E-03  0.1600E+00
     15.506  0.4592E-04  0.1600E+00
     15.585  0.7077E-07  0.1600E+00
     15.664  0.1045E-11  0.1600E+00
     15.743  0.1229E-18  0.1600E+00
     15.822  0.0000E+00  0.1600E+00
     15.901  0.0000E+00  0.1600E+00
     15.980  0.0000E+00  0.1600E+00
     16.059  0.0000E+00  0.1600E+00
     16.138  0.0000E+00  0.1600E+00
     16.217  0.0000E+00  0.1600E+00
     16.296  0.0000E+00  0.1600E+00
     16.375  0.0000E+00  0.1600E+00
     16.454  0.0000E+00  0.1600E+00
