    2    2  100    1
  0.2016476E+02  0.3849278E-09  0.3849279E-09  0.3849278E-09  0.5000000E-15
  1.000000000000000E-004
  CAR 
 unknown system                          
      8    280      8
 
  0.3571429E-01  0.3571429E-01  0.3571429E-01  0.7288630E-03
    1       -6.180177   1.000000
    2        5.430333   1.000000
    3        5.595488   1.000000
    4        5.595491   1.000000
    5        8.218169   0.000000
    6        8.222401   0.000000
    7        8.222408   0.000000
    8        8.892204   0.000000
 
  0.1071429E+00  0.3571429E-01  0.3571429E-01  0.2186589E-02
    1       -6.092589   1.000000
    2        4.722197   1.000000
    3        5.280908   1.000000
    4        5.557105   1.000000
    5        8.276968   0.000000
    6        8.309107   0.000000
    7        8.462587   0.000000
    8        9.552889   0.000000
 
  0.1785714E+00  0.3571429E-01  0.3571429E-01  0.2186589E-02
    1       -5.875637   1.000000
    2        3.469714   1.000000
    3        4.974421   1.000000
    4        5.348234   1.000000
    5        8.064777   0.000000
    6        8.624915   0.000000
    7        8.880673   0.000000
    8       10.712887   0.000000
 
  0.2500000E+00  0.3571429E-01  0.3571429E-01  0.2186589E-02
    1       -5.535516   1.000000
    2        2.160573   1.000000
    3        4.699396   1.000000
    4        5.081427   1.000000
    5        7.789470   0.000000
    6        8.937898   0.000000
    7        9.195965   0.000000
    8       11.835915   0.000000
 
  0.3214286E+00  0.3571429E-01  0.3571429E-01  0.2186589E-02
    1       -5.086779   1.000000
    2        0.924484   1.000000
    3        4.487146   1.000000
    4        4.829327   1.000000
    5        7.541448   0.000000
    6        9.069346   0.000000
    7        9.259187   0.000000
    8       12.748489   0.000000
 
  0.3928571E+00  0.3571429E-01  0.3571429E-01  0.2186589E-02
    1       -4.566058   1.000000
    2       -0.162696   1.000000
    3        4.351120   1.000000
    4        4.624993   1.000000
    5        7.356003   0.000000
    6        9.052416   0.000000
    7        9.151127   0.000000
    8       13.372139   0.000000
 
  0.4642857E+00  0.3571429E-01  0.3571429E-01  0.2186589E-02
    1       -4.080633   1.000000
    2       -0.976430   1.000000
    3        4.294607   1.000000
    4        4.482784   1.000000
    5        7.247474   0.000000
    6        9.017299   0.000000
    7        9.019204   0.000000
    8       13.418607   0.000000
 
 -0.4642857E+00  0.3571429E-01  0.3571429E-01  0.2186589E-02
    1       -3.909367   1.000000
    2       -1.230286   1.000000
    3        4.316132   1.000000
    4        4.410177   1.000000
    5        7.220910   0.000000
    6        8.945136   0.000000
    7        9.040948   0.000000
    8       13.390528   0.000000
 
 -0.3928571E+00  0.3571429E-01  0.3571429E-01  0.2186589E-02
    1       -4.225511   1.000000
    2       -0.749271   1.000000
    3        4.412001   1.000000
    4        4.412022   1.000000
    5        7.277177   0.000000
    6        8.948774   0.000000
    7        9.138315   0.000000
    8       13.393210   0.000000
 
 -0.3214286E+00  0.3571429E-01  0.3571429E-01  0.2186589E-02
    1       -4.743379   1.000000
    2        0.177400   1.000000
    3        4.491381   1.000000
    4        4.577040   1.000000
    5        7.413826   0.000000
    6        8.995798   0.000000
    7        9.271513   0.000000
    8       12.943046   0.000000
 
 -0.2500000E+00  0.3571429E-01  0.3571429E-01  0.2186589E-02
    1       -5.246827   1.000000
    2        1.323629   1.000000
    3        4.648288   1.000000
    4        4.802654   1.000000
    5        7.622684   0.000000
    6        8.983497   0.000000
    7        9.337737   0.000000
    8       12.189175   0.000000
 
 -0.1785714E+00  0.3571429E-01  0.3571429E-01  0.2186589E-02
    1       -5.661854   1.000000
    2        2.593574   1.000000
    3        4.876038   1.000000
    4        5.070541   1.000000
    5        7.882326   0.000000
    6        8.784239   0.000000
    7        9.197333   0.000000
    8       11.422594   0.000000
 
 -0.1071429E+00  0.3571429E-01  0.3571429E-01  0.2186589E-02
    1       -5.962021   1.000000
    2        3.909136   1.000000
    3        5.153186   1.000000
    4        5.336517   1.000000
    5        8.127320   0.000000
    6        8.460847   0.000000
    7        8.840123   0.000000
    8       10.291311   0.000000
 
 -0.3571429E-01  0.3571429E-01  0.3571429E-01  0.2186589E-02
    1       -6.136317   1.000000
    2        5.099560   1.000000
    3        5.427326   1.000000
    4        5.505778   1.000000
    5        8.120449   0.000000
    6        8.373242   0.000000
    7        8.443959   0.000000
    8        9.199846   0.000000
 
  0.1071429E+00  0.1071429E+00  0.3571429E-01  0.2186589E-02
    1       -6.048714   1.000000
    2        4.650727   1.000000
    3        5.154799   1.000000
    4        5.242436   1.000000
    5        7.937003   0.000000
    6        8.701870   0.000000
    7        8.821862   0.000000
    8        9.635796   0.000000
 
  0.1785714E+00  0.1071429E+00  0.3571429E-01  0.4373178E-02
    1       -5.874661   1.000000
    2        3.777561   1.000000
    3        4.686313   1.000000
    4        5.130609   1.000000
    5        7.927977   0.000000
    6        8.854338   0.000000
    7        9.229080   0.000000
    8       10.359396   0.000000
 
  0.2500000E+00  0.1071429E+00  0.3571429E-01  0.4373178E-02
    1       -5.574937   1.000000
    2        2.559205   1.000000
    3        4.350836   1.000000
    4        4.904236   1.000000
    5        8.080924   0.000000
    6        8.809956   0.000000
    7        9.628034   0.000000
    8       10.834517   0.000000
 
  0.3214286E+00  0.1071429E+00  0.3571429E-01  0.4373178E-02
    1       -5.160416   1.000000
    2        1.330833   1.000000
    3        4.101143   1.000000
    4        4.631523   1.000000
    5        8.025688   0.000000
    6        8.903169   0.000000
    7        9.769613   0.000000
    8       11.183468   0.000000
 
  0.3928571E+00  0.1071429E+00  0.3571429E-01  0.4373178E-02
    1       -4.657284   1.000000
    2        0.205569   1.000000
    3        3.921397   1.000000
    4        4.400103   1.000000
    5        7.877133   0.000000
    6        8.916948   0.000000
    7        9.682197   0.000000
    8       11.911315   0.000000
 
  0.4642857E+00  0.1071429E+00  0.3571429E-01  0.4373178E-02
    1       -4.138879   1.000000
    2       -0.711173   1.000000
    3        3.792438   1.000000
    4        4.264208   1.000000
    5        7.763950   0.000000
    6        8.873189   0.000000
    7        9.526794   0.000000
    8       12.892568   0.000000
 
 -0.4642857E+00  0.1071429E+00  0.3571429E-01  0.4373178E-02
    1       -3.821611   1.000000
    2       -1.189251   1.000000
    3        3.702277   1.000000
    4        4.250173   1.000000
    5        7.720743   0.000000
    6        8.863843   0.000000
    7        9.415454   0.000000
    8       13.604883   0.000000
 
 -0.3928571E+00  0.1071429E+00  0.3571429E-01  0.4373178E-02
    1       -3.994326   1.000000
    2       -0.935300   1.000000
    3        3.664496   1.000000
    4        4.348929   1.000000
    5        7.754848   0.000000
    6        8.911277   0.000000
    7        9.397872   0.000000
    8       13.475886   0.000000
 
 -0.3214286E+00  0.1071429E+00  0.3571429E-01  0.4373178E-02
    1       -4.480901   1.000000
    2       -0.127908   1.000000
    3        3.700499   1.000000
    4        4.536594   1.000000
    5        7.864152   0.000000
    6        8.983184   0.000000
    7        9.471672   0.000000
    8       12.607232   0.000000
 
 -0.2500000E+00  0.1071429E+00  0.3571429E-01  0.4373178E-02
    1       -5.001389   1.000000
    2        0.941842   1.000000
    3        3.825544   1.000000
    4        4.787626   1.000000
    5        8.038359   0.000000
    6        8.990351   0.000000
    7        9.557381   0.000000
    8       11.756313   0.000000
 
 -0.1785714E+00  0.1071429E+00  0.3571429E-01  0.4373178E-02
    1       -5.449420   1.000000
    2        2.139049   1.000000
    3        4.051789   1.000000
    4        5.067440   1.000000
    5        8.243829   0.000000
    6        8.816350   0.000000
    7        9.469305   0.000000
    8       11.229610   0.000000
 
 -0.1071429E+00  0.1071429E+00  0.3571429E-01  0.4373178E-02
    1       -5.788837   1.000000
    2        3.344528   1.000000
    3        4.408493   1.000000
    4        5.313391   1.000000
    5        8.300590   0.000000
    6        8.632074   0.000000
    7        9.092468   0.000000
    8       10.773696   0.000000
 
 -0.3571429E-01  0.1071429E+00  0.3571429E-01  0.4373178E-02
    1       -6.005285   1.000000
    2        4.267390   1.000000
    3        5.007134   1.000000
    4        5.422554   1.000000
    5        8.147661   0.000000
    6        8.506185   0.000000
    7        8.766014   0.000000
    8       10.011699   0.000000
 
  0.1785714E+00  0.1785714E+00  0.3571429E-01  0.2186589E-02
    1       -5.743479   1.000000
    2        3.568786   1.000000
    3        4.515056   1.000000
    4        4.545954   1.000000
    5        7.446375   0.000000
    6        9.606236   0.000000
    7        9.823782   0.000000
    8       10.075228   0.000000
 
  0.2500000E+00  0.1785714E+00  0.3571429E-01  0.4373178E-02
    1       -5.485233   1.000000
    2        2.732703   1.000000
    3        4.034171   1.000000
    4        4.395920   1.000000
    5        7.430086   0.000000
    6        9.529468   0.000000
    7       10.192249   0.000000
    8       10.325759   0.000000
 
  0.3214286E+00  0.1785714E+00  0.3571429E-01  0.4373178E-02
    1       -5.107886   1.000000
    2        1.653255   1.000000
    3        3.671799   1.000000
    4        4.156445   1.000000
    5        7.655887   0.000000
    6        9.530007   0.000000
    7       10.081976   0.000000
    8       10.614082   0.000000
 
  0.3928571E+00  0.1785714E+00  0.3571429E-01  0.4373178E-02
    1       -4.630260   1.000000
    2        0.568151   1.000000
    3        3.362470   1.000000
    4        3.953684   1.000000
    5        7.757284   0.000000
    6        9.678196   0.000000
    7       10.276134   0.000000
    8       10.610203   0.000000
 
  0.4642857E+00  0.1785714E+00  0.3571429E-01  0.4373178E-02
    1       -4.102335   1.000000
    2       -0.390006   1.000000
    3        3.086935   1.000000
    4        3.868840   1.000000
    5        7.763299   0.000000
    6        9.529223   0.000000
    7       10.433553   0.000000
    8       11.244042   0.000000
 
 -0.4642857E+00  0.1785714E+00  0.3571429E-01  0.4373178E-02
    1       -3.678544   1.000000
    2       -1.032976   1.000000
    3        2.867875   1.000000
    4        3.907513   1.000000
    5        7.807756   0.000000
    6        9.391893   0.000000
    7       10.271678   0.000000
    8       12.463223   0.000000
 
 -0.3928571E+00  0.1785714E+00  0.3571429E-01  0.4373178E-02
    1       -3.683978   1.000000
    2       -1.023296   1.000000
    3        2.732271   1.000000
    4        4.053833   1.000000
    5        7.935651   0.000000
    6        9.317709   0.000000
    7       10.163844   0.000000
    8       13.579714   0.000000
 
 -0.3214286E+00  0.1785714E+00  0.3571429E-01  0.4373178E-02
    1       -4.112183   1.000000
    2       -0.369883   1.000000
    3        2.702503   1.000000
    4        4.288068   1.000000
    5        8.142384   0.000000
    6        9.300683   0.000000
    7       10.115683   0.000000
    8       12.418703   0.000000
 
 -0.2500000E+00  0.1785714E+00  0.3571429E-01  0.4373178E-02
    1       -4.639391   1.000000
    2        0.580363   1.000000
    3        2.805716   1.000000
    4        4.583230   1.000000
    5        8.396295   0.000000
    6        9.259228   0.000000
    7       10.073143   0.000000
    8       11.460569   0.000000
 
 -0.1785714E+00  0.1785714E+00  0.3571429E-01  0.4373178E-02
    1       -5.115041   1.000000
    2        1.599713   1.000000
    3        3.105695   1.000000
    4        4.894173   1.000000
    5        8.639690   0.000000
    6        9.000100   0.000000
    7        9.878585   0.000000
    8       10.951356   0.000000
 
 -0.1071429E+00  0.1785714E+00  0.3571429E-01  0.4373178E-02
    1       -5.490256   1.000000
    2        2.442996   1.000000
    3        3.752636   1.000000
    4        5.139283   1.000000
    5        8.539667   0.000000
    6        8.748774   0.000000
    7        9.456045   0.000000
    8       10.978388   0.000000
 
 -0.3571429E-01  0.1785714E+00  0.3571429E-01  0.4373178E-02
    1       -5.746440   1.000000
    2        3.014638   1.000000
    3        4.676940   1.000000
    4        5.206400   1.000000
    5        8.126630   0.000000
    6        8.622912   0.000000
    7        9.195467   0.000000
    8       11.010948   0.000000
 
  0.2500000E+00  0.2500000E+00  0.3571429E-01  0.2186589E-02
    1       -5.268198   1.000000
    2        2.369422   1.000000
    3        3.894031   1.000000
    4        3.914150   1.000000
    5        6.951853   0.000000
    6        9.056616   0.000000
    7       10.918161   0.000000
    8       10.980697   0.000000
 
  0.3214286E+00  0.2500000E+00  0.3571429E-01  0.4373178E-02
    1       -4.929570   1.000000
    2        1.616001   1.000000
    3        3.458642   1.000000
    4        3.729411   1.000000
    5        6.982696   0.000000
    6        8.699524   0.000000
    7       11.123739   0.000000
    8       11.537256   0.000000
 
  0.3928571E+00  0.2500000E+00  0.3571429E-01  0.4373178E-02
    1       -4.482795   1.000000
    2        0.723273   1.000000
    3        2.988899   1.000000
    4        3.548344   1.000000
    5        7.220818   0.000000
    6        8.850871   0.000000
    7       10.990023   0.000000
    8       11.710793   0.000000
 
  0.4642857E+00  0.2500000E+00  0.3571429E-01  0.4373178E-02
    1       -3.961902   1.000000
    2       -0.160805   1.000000
    3        2.537639   1.000000
    4        3.478390   1.000000
    5        7.320656   0.000000
    6        9.628457   0.000000
    7       10.778612   0.000000
    8       11.610931   0.000000
 
 -0.4642857E+00  0.2500000E+00  0.3571429E-01  0.4373178E-02
    1       -3.471790   1.000000
    2       -0.869509   1.000000
    3        2.174220   1.000000
    4        3.527219   1.000000
    5        7.401512   0.000000
    6       10.493863   0.000000
    7       10.865081   0.000000
    8       11.441960   0.000000
 
 -0.3928571E+00  0.2500000E+00  0.3571429E-01  0.4373178E-02
    1       -3.311995   1.000000
    2       -1.074845   1.000000
    3        1.935304   1.000000
    4        3.684528   1.000000
    5        7.567030   0.000000
    6       10.369937   0.000000
    7       11.272148   0.000000
    8       12.197636   0.000000
 
 -0.3214286E+00  0.2500000E+00  0.3571429E-01  0.4373178E-02
    1       -3.655630   1.000000
    2       -0.608130   1.000000
    3        1.854318   1.000000
    4        3.934873   1.000000
    5        7.832008   0.000000
    6       10.235518   0.000000
    7       11.141491   0.000000
    8       12.347083   0.000000
 
 -0.2500000E+00  0.2500000E+00  0.3571429E-01  0.4373178E-02
    1       -4.177186   1.000000
    2        0.144903   1.000000
    3        1.999714   1.000000
    4        4.252610   1.000000
    5        8.167163   0.000000
    6       10.000270   0.000000
    7       10.938923   0.000000
    8       11.374397   0.000000
 
 -0.1785714E+00  0.2500000E+00  0.3571429E-01  0.4373178E-02
    1       -4.672313   1.000000
    2        0.830826   1.000000
    3        2.510407   1.000000
    4        4.590200   1.000000
    5        8.475911   0.000000
    6        9.448631   0.000000
    7       10.371999   0.000000
    8       11.061256   0.000000
 
 -0.1071429E+00  0.2500000E+00  0.3571429E-01  0.4373178E-02
    1       -5.076962   1.000000
    2        1.321008   1.000000
    3        3.409622   1.000000
    4        4.858696   1.000000
    5        8.393967   0.000000
    6        9.008413   0.000000
    7        9.725431   0.000000
    8       11.269552   0.000000
 
 -0.3571429E-01  0.2500000E+00  0.3571429E-01  0.4373178E-02
    1       -5.368058   1.000000
    2        1.737369   1.000000
    3        4.415532   1.000000
    4        4.934850   1.000000
    5        7.895454   0.000000
    6        8.885300   0.000000
    7        9.432121   0.000000
    8       11.656526   0.000000
 
  0.3214286E+00  0.3214286E+00  0.3571429E-01  0.2186589E-02
    1       -4.629190   1.000000
    2        1.131589   1.000000
    3        3.373888   1.000000
    4        3.425650   1.000000
    5        6.563602   0.000000
    6        8.057822   0.000000
    7       12.165735   0.000000
    8       12.210564   0.000000
 
  0.3928571E+00  0.3214286E+00  0.3571429E-01  0.4373178E-02
    1       -4.216091   1.000000
    2        0.452016   1.000000
    3        3.007399   1.000000
    4        3.235503   1.000000
    5        6.664744   0.000000
    6        7.815200   0.000000
    7       12.309202   0.000000
    8       12.815901   0.000000
 
  0.4642857E+00  0.3214286E+00  0.3571429E-01  0.4373178E-02
    1       -3.713301   1.000000
    2       -0.266739   1.000000
    3        2.435107   1.000000
    4        3.154460   1.000000
    5        6.886195   0.000000
    6        8.217869   0.000000
    7       12.149368   0.000000
    8       12.920872   0.000000
 
 -0.4642857E+00  0.3214286E+00  0.3571429E-01  0.4373178E-02
    1       -3.189730   1.000000
    2       -0.917237   1.000000
    3        1.891746   1.000000
    4        3.192228   1.000000
    5        6.994667   0.000000
    6        9.227382   0.000000
    7       11.919860   0.000000
    8       12.788954   0.000000
 
 -0.3928571E+00  0.3214286E+00  0.3571429E-01  0.4373178E-02
    1       -2.894412   1.000000
    2       -1.243861   1.000000
    3        1.509938   1.000000
    4        3.340503   1.000000
    5        7.162478   0.000000
    6       10.511550   0.000000
    7       11.707608   0.000000
    8       12.601621   0.000000
 
 -0.3214286E+00  0.3214286E+00  0.3571429E-01  0.4373178E-02
    1       -3.150578   1.000000
    2       -0.954586   1.000000
    3        1.375659   1.000000
    4        3.587201   1.000000
    5        7.437098   0.000000
    6       11.309041   0.000000
    7       11.988405   0.000000
    8       12.309846   0.000000
 
 -0.2500000E+00  0.3214286E+00  0.3571429E-01  0.4373178E-02
    1       -3.655541   1.000000
    2       -0.452122   1.000000
    3        1.607253   1.000000
    4        3.909988   1.000000
    5        7.800420   0.000000
    6       10.637376   0.000000
    7       11.569917   0.000000
    8       11.856718   0.000000
 
 -0.1785714E+00  0.3214286E+00  0.3571429E-01  0.4373178E-02
    1       -4.154624   1.000000
    2       -0.068232   1.000000
    3        2.276350   1.000000
    4        4.265098   1.000000
    5        8.168108   0.000000
    6        9.678190   0.000000
    7       10.552433   0.000000
    8       11.834014   0.000000
 
 -0.1071429E+00  0.3214286E+00  0.3571429E-01  0.4373178E-02
    1       -4.574732   1.000000
    2        0.231462   1.000000
    3        3.237512   1.000000
    4        4.566842   1.000000
    5        8.189460   0.000000
    6        9.077041   0.000000
    7        9.743996   0.000000
    8       12.005646   0.000000
 
 -0.3571429E-01  0.3214286E+00  0.3571429E-01  0.4373178E-02
    1       -4.889524   1.000000
    2        0.550261   1.000000
    3        4.230317   1.000000
    4        4.682297   1.000000
    5        7.677145   0.000000
    6        8.973489   0.000000
    7        9.411827   0.000000
    8       12.331828   0.000000
 
  0.3928571E+00  0.3928571E+00  0.3571429E-01  0.2186589E-02
    1       -3.836058   1.000000
    2       -0.098801   1.000000
    3        3.006836   1.000000
    4        3.076950   1.000000
    5        6.337739   0.000000
    6        7.251961   0.000000
    7       13.471132   0.000000
    8       13.486410   0.000000
 
  0.4642857E+00  0.3928571E+00  0.3571429E-01  0.4373178E-02
    1       -3.357536   1.000000
    2       -0.715411   1.000000
    3        2.708266   1.000000
    4        2.926228   1.000000
    5        6.513898   0.000000
    6        7.168331   0.000000
    7       13.546593   0.000000
    8       14.133931   0.000000
 
 -0.4642857E+00  0.3928571E+00  0.3571429E-01  0.4373178E-02
    1       -2.823869   1.000000
    2       -1.294678   1.000000
    3        2.116572   1.000000
    4        2.942028   1.000000
    5        6.689647   0.000000
    6        7.862904   0.000000
    7       13.355611   0.000000
    8       14.181198   0.000000
 
 -0.3928571E+00  0.3928571E+00  0.3571429E-01  0.4373178E-02
    1       -2.454955   1.000000
    2       -1.637367   1.000000
    3        1.594706   1.000000
    4        3.071041   1.000000
    5        6.846612   0.000000
    6        9.058901   0.000000
    7       13.060520   0.000000
    8       13.764193   0.000000
 
 -0.3214286E+00  0.3928571E+00  0.3571429E-01  0.4373178E-02
    1       -2.727072   1.000000
    2       -1.354549   1.000000
    3        1.358322   1.000000
    4        3.303108   1.000000
    5        7.112659   0.000000
    6       10.468217   0.000000
    7       12.213936   0.000000
    8       13.001797   0.000000
 
 -0.2500000E+00  0.3928571E+00  0.3571429E-01  0.4373178E-02
    1       -3.203454   1.000000
    2       -1.012683   1.000000
    3        1.580349   1.000000
    4        3.619803   1.000000
    5        7.481588   0.000000
    6       10.880380   0.000000
    7       11.771740   0.000000
    8       12.167444   0.000000
 
 -0.1785714E+00  0.3928571E+00  0.3571429E-01  0.4373178E-02
    1       -3.661575   1.000000
    2       -0.825789   1.000000
    3        2.255958   1.000000
    4        3.983516   1.000000
    5        7.886081   0.000000
    6        9.761166   0.000000
    7       10.640234   0.000000
    8       12.958394   0.000000
 
 -0.1071429E+00  0.3928571E+00  0.3571429E-01  0.4373178E-02
    1       -4.055653   1.000000
    2       -0.673460   1.000000
    3        3.184901   1.000000
    4        4.317734   1.000000
    5        8.020172   0.000000
    6        9.021182   0.000000
    7        9.718193   0.000000
    8       13.029985   0.000000
 
 -0.3571429E-01  0.3928571E+00  0.3571429E-01  0.4373178E-02
    1       -4.362229   1.000000
    2       -0.461328   1.000000
    3        4.121536   1.000000
    4        4.487240   1.000000
    5        7.520140   0.000000
    6        8.944259   0.000000
    7        9.277218   0.000000
    8       13.158377   0.000000
 
  0.4642857E+00  0.4642857E+00  0.3571429E-01  0.2186589E-02
    1       -2.902747   1.000000
    2       -1.283861   1.000000
    3        2.800950   1.000000
    4        2.880245   1.000000
    5        6.305699   0.000000
    6        6.696937   0.000000
    7       14.778033   0.000000
    8       14.794140   0.000000
 
 -0.4642857E+00  0.4642857E+00  0.3571429E-01  0.4373178E-02
    1       -2.373071   1.000000
    2       -1.838128   1.000000
    3        2.577627   1.000000
    4        2.795182   1.000000
    5        6.519934   0.000000
    6        6.816189   0.000000
    7       14.793775   0.000000
    8       15.198143   0.000000
 
 -0.3928571E+00  0.4642857E+00  0.3571429E-01  0.4373178E-02
    1       -2.360468   1.000000
    2       -1.787818   1.000000
    3        2.052904   1.000000
    4        2.899854   1.000000
    5        6.649406   0.000000
    6        7.792212   0.000000
    7       13.949225   0.000000
    8       14.535156   0.000000
 
 -0.3214286E+00  0.4642857E+00  0.3571429E-01  0.4373178E-02
    1       -2.792069   1.000000
    2       -1.305299   1.000000
    3        1.694583   1.000000
    4        3.111382   1.000000
    5        6.896390   0.000000
    6        9.114728   0.000000
    7       12.504361   0.000000
    8       13.397095   0.000000
 
 -0.2500000E+00  0.4642857E+00  0.3571429E-01  0.4373178E-02
    1       -3.161858   1.000000
    2       -1.071988   1.000000
    3        1.792742   1.000000
    4        3.415180   1.000000
    5        7.260245   0.000000
    6       10.585540   0.000000
    7       11.174464   0.000000
    8       12.016111   0.000000
 
 -0.1785714E+00  0.4642857E+00  0.3571429E-01  0.4373178E-02
    1       -3.474327   1.000000
    2       -1.089270   1.000000
    3        2.380187   1.000000
    4        3.780609   1.000000
    5        7.683765   0.000000
    6        9.863359   0.000000
    7       10.749957   0.000000
    8       12.307222   0.000000
 
 -0.1071429E+00  0.4642857E+00  0.3571429E-01  0.4373178E-02
    1       -3.734935   1.000000
    2       -1.152594   1.000000
    3        3.230751   1.000000
    4        4.143178   1.000000
    5        7.910388   0.000000
    6        8.985720   0.000000
    7        9.749334   0.000000
    8       13.699771   0.000000
 
 -0.3571429E-01  0.4642857E+00  0.3571429E-01  0.4373178E-02
    1       -3.940930   1.000000
    2       -1.127801   1.000000
    3        4.076977   1.000000
    4        4.377229   1.000000
    5        7.439298   0.000000
    6        8.911220   0.000000
    7        9.171218   0.000000
    8       13.486729   0.000000
 
 -0.4642857E+00 -0.4642857E+00  0.3571429E-01  0.2186589E-02
    1       -2.389394   1.000000
    2       -1.848337   1.000000
    3        2.759624   1.000000
    4        2.840678   1.000000
    5        6.362271   0.000000
    6        6.522264   0.000000
    7       15.337103   0.000000
    8       15.376255   0.000000
 
 -0.3928571E+00 -0.4642857E+00  0.3571429E-01  0.4373178E-02
    1       -2.879400   1.000000
    2       -1.285329   1.000000
    3        2.621321   1.000000
    4        2.838764   1.000000
    5        6.503182   0.000000
    6        6.948465   0.000000
    7       14.178514   0.000000
    8       14.778358   0.000000
 
 -0.3214286E+00 -0.4642857E+00  0.3571429E-01  0.4373178E-02
    1       -3.281169   1.000000
    2       -0.780029   1.000000
    3        2.244132   1.000000
    4        3.026659   1.000000
    5        6.769187   0.000000
    6        8.004720   0.000000
    7       12.747434   0.000000
    8       13.554768   0.000000
 
 -0.2500000E+00 -0.4642857E+00  0.3571429E-01  0.4373178E-02
    1       -3.585275   1.000000
    2       -0.532846   1.000000
    3        2.178172   1.000000
    4        3.314067   1.000000
    5        7.137880   0.000000
    6        9.398038   0.000000
    7       11.343961   0.000000
    8       12.184186   0.000000
 
 -0.1785714E+00 -0.4642857E+00  0.3571429E-01  0.4373178E-02
    1       -3.791471   1.000000
    2       -0.642870   1.000000
    3        2.618159   1.000000
    4        3.677423   1.000000
    5        7.576417   0.000000
    6       10.021591   0.000000
    7       10.908870   0.000000
    8       11.003440   0.000000
 
 -0.1071429E+00 -0.4642857E+00  0.3571429E-01  0.4373178E-02
    1       -3.906189   1.000000
    2       -0.904536   1.000000
    3        3.356024   1.000000
    4        4.066746   1.000000
    5        7.873442   0.000000
    6        9.019631   0.000000
    7        9.860360   0.000000
    8       12.659299   0.000000
 
 -0.3928571E+00 -0.3928571E+00  0.3571429E-01  0.2186589E-02
    1       -3.385858   1.000000
    2       -0.699254   1.000000
    3        2.883469   1.000000
    4        2.959173   1.000000
    5        6.296215   0.000000
    6        6.942090   0.000000
    7       14.135365   0.000000
    8       14.135460   0.000000
 
 -0.3214286E+00 -0.3928571E+00  0.3571429E-01  0.4373178E-02
    1       -3.803959   1.000000
    2       -0.134318   1.000000
    3        2.837525   1.000000
    4        3.058149   1.000000
    5        6.567197   0.000000
    6        7.459060   0.000000
    7       12.922384   0.000000
    8       13.472379   0.000000
 
 -0.2500000E+00 -0.3928571E+00  0.3571429E-01  0.4373178E-02
    1       -4.114941   1.000000
    2        0.236075   1.000000
    3        2.686351   1.000000
    4        3.327162   1.000000
    5        7.037994   0.000000
    6        8.501309   0.000000
    7       11.563434   0.000000
    8       12.303235   0.000000
 
 -0.1785714E+00 -0.3928571E+00  0.3571429E-01  0.4373178E-02
    1       -4.311819   1.000000
    2        0.203324   1.000000
    3        2.944248   1.000000
    4        3.688993   1.000000
    5        7.532954   0.000000
    6        9.915701   0.000000
    7       10.227747   0.000000
    8       11.081431   0.000000
 
 -0.1071429E+00 -0.3928571E+00  0.3571429E-01  0.4373178E-02
    1       -4.393297   1.000000
    2       -0.107790   1.000000
    3        3.536858   1.000000
    4        4.109375   1.000000
    5        7.905410   0.000000
    6        9.113936   0.000000
    7       10.023871   0.000000
    8       11.547611   0.000000
 
 -0.3214286E+00 -0.3214286E+00  0.3571429E-01  0.2186589E-02
    1       -4.251120   1.000000
    2        0.513011   1.000000
    3        3.170615   1.000000
    4        3.232836   1.000000
    5        6.427978   0.000000
    6        7.624869   0.000000
    7       12.813136   0.000000
    8       12.843595   0.000000
 
 -0.2500000E+00 -0.3214286E+00  0.3571429E-01  0.4373178E-02
    1       -4.591896   1.000000
    2        1.037460   1.000000
    3        3.215495   1.000000
    4        3.459153   1.000000
    5        6.804440   0.000000
    6        8.232091   0.000000
    7       11.708373   0.000000
    8       12.169813   0.000000
 
 -0.1785714E+00 -0.3214286E+00  0.3571429E-01  0.4373178E-02
    1       -4.814407   1.000000
    2        1.194347   1.000000
    3        3.325020   1.000000
    4        3.823851   1.000000
    5        7.429444   0.000000
    6        9.247861   0.000000
    7       10.443519   0.000000
    8       11.147188   0.000000
 