 vasp.6.2.0 18Jan21 (build Aug 12 2022 13:00:08) complex                        
  
 executed on             LinuxIFC date 2024.11.03  21:56:55
 running on    4 total cores
 distrk:  each k-point on    4 cores,    1 groups
 distr:  one band on NCORE=   1 cores,    4 groups


--------------------------------------------------------------------------------------------------------


 INCAR:
   ISTART = 0            (Read existing wavefunction, if there)
   ISPIN = 1            (Non-Spin polarised DFT)
   LREAL = .FALSE.       (Projection operators: automatic)
   LWAVE = .FALSE.        (Write WAVECAR or not)
   LCHARG = .FALSE.        (Write CHGCAR or not)
   ADDGRID = .TRUE.        (Increase grid, helps GGA convergence)
   LASPH = .TRUE.        (Give more accurate total energies and band structure calculations)
   PREC = Accurate      (Accurate strictly avoids any aliasing or wrap around errors)
   ENCUT = 350          (Cut-off energy for plane wave basis set, in eV)
   ISMEAR = 0            (Gaussian smearing, metals:1)
   SIGMA = 0.05         (Smearing value in eV, metals:0.2)
   NELM = 90           (Max electronic SCF steps)
   NELMIN = 6            (Min electronic SCF steps)
   EDIFF = 1E-06        (SCF energy convergence, in eV)
   NSW = 100          (Max ionic steps)
   IBRION = 2            (Algorithm: 0-MD, 1-Quasi-New, 2-CG)
   ISIF = 3            (Stress/relaxation: 2-Ions, 3-Shape/Ions/V, 4-Shape/Ions)
   EDIFFG = -2E-03        (Ionic convergence, eV/AA)
   ISYM = 2              (Symmetry: 0\=none, 2\=GGA, 3\=hybrids)

 POTCAR:    PAW_PBE Si 05Jan2001                  
 POTCAR:    PAW_PBE Si 05Jan2001                  
   VRHFIN =Si: s2p2                                                                                 
   LEXCH  = PE                                                                                      
   EATOM  =   103.0669 eV,    7.5752 Ry                                                             
                                                                                                    
   TITEL  = PAW_PBE Si 05Jan2001                                                                    
   LULTRA =        F    use ultrasoft PP ?                                                          
   IUNSCR =        1    unscreen: 0-lin 1-nonlin 2-no                                               
   RPACOR =    1.500    partial core radius                                                         
   POMASS =   28.085; ZVAL   =    4.000    mass and valenz                                          
   RCORE  =    1.900    outmost cutoff radius                                                       
   RWIGS  =    2.480; RWIGS  =    1.312    wigner-seitz radius (au A)                               
   ENMAX  =  245.345; ENMIN  =  184.009 eV                                                          
   ICORE  =        2    local potential                                                             
   LCOR   =        T    correct aug charges                                                         
   LPAW   =        T    paw PP                                                                      
   EAUG   =  322.069                                                                                
   DEXC   =    0.000                                                                                
   RMAX   =    1.950    core radius for proj-oper                                                   
   RAUG   =    1.300    factor for augmentation sphere                                              
   RDEP   =    1.993    radius for radial grids                                                     
   RDEPT  =    1.837    core radius for aug-charge                                                  
                                                                                                    
   Atomic configuration                                                                             
    6 entries                                                                                       
     n  l   j            E        occ.                                                              
     1  0  0.50     -1785.8828   2.0000                                                             
     2  0  0.50      -139.4969   2.0000                                                             
     2  1  1.50       -95.5546   6.0000                                                             
     3  0  0.50       -10.8127   2.0000                                                             
     3  1  0.50        -4.0811   2.0000                                                             
     3  2  1.50        -4.0817   0.0000                                                             
   Description                                                                                      
     l       E           TYP  RCUT    TYP  RCUT                                                     
     0    -10.8127223     23  1.900                                                                 
     0     -7.6451159     23  1.900                                                                 
     1     -4.0811372     23  1.900                                                                 
     1      2.4879257     23  1.900                                                                 
     2     -4.0817478      7  1.900                                                                 
  local pseudopotential read in
  partial core-charges read in
  partial kinetic energy density read in
  atomic valenz-charges read in
  non local Contribution for L=           0  read in
    real space projection operators read in
  non local Contribution for L=           0  read in
    real space projection operators read in
  non local Contribution for L=           1  read in
    real space projection operators read in
  non local Contribution for L=           1  read in
    real space projection operators read in
    PAW grid and wavefunctions read in
 
   number of l-projection  operators is LMAX  =           4
   number of lm-projection operators is LMMAX =           8
 
  PAW_PBE Si 05Jan2001                  :
 energy of atom  1       EATOM= -103.0669
 kinetic energy error for atom=    0.0013 (will be added to EATOM!!)
 
 
 POSCAR: Si2
  positions in direct lattice
  No initial velocities read in
 exchange correlation table for  LEXCH =        8
   RHO(1)=    0.500       N(1)  =     2000
   RHO(2)=  100.500       N(2)  =     4000
 


--------------------------------------------------------------------------------------------------------


 ion  position               nearest neighbor table
   1  0.875  0.875  0.875-   2 2.36   2 2.36   2 2.36   2 2.36
   2  0.125  0.125  0.125-   1 2.36   1 2.36   1 2.36   1 2.36
 
  LATTYP: Found a face centered cubic cell.
 ALAT       =     5.4437031493
  
  Lattice vectors:
  
 A1 = (   3.3335730000,   0.0000000000,   1.9246390000)
 A2 = (   1.1111910000,   3.1429240000,   1.9246390000)
 A3 = (   0.0000000000,   0.0000000000,   3.8492780000)


Analysis of symmetry for initial positions (statically):
=====================================================================
 Subroutine PRICEL returns:
 Original cell was already a primitive cell.
 

 Routine SETGRP: Setting up the symmetry group for a 
 face centered cubic supercell.


 Subroutine GETGRP returns: Found 48 space group operations
 (whereof 12 operations were pure point group operations)
 out of a pool of 48 trial point group operations.


The static configuration has the point symmetry D_3d.
 The point group associated with its full space group is O_h .


Analysis of symmetry for dynamics (positions and initial velocities):
=====================================================================
 Subroutine PRICEL returns:
 Original cell was already a primitive cell.
 

 Routine SETGRP: Setting up the symmetry group for a 
 face centered cubic supercell.


 Subroutine GETGRP returns: Found 48 space group operations
 (whereof 12 operations were pure point group operations)
 out of a pool of 48 trial point group operations.


The dynamic configuration has the point symmetry D_3d.
 The point group associated with its full space group is O_h .


 Subroutine INISYM returns: Found 48 space group operations
 (whereof 12 operations are pure point group operations),
 and found     1 'primitive' translations


----------------------------------------------------------------------------------------

                                     Primitive cell                                     

  volume of cell :      40.3295

  direct lattice vectors                    reciprocal lattice vectors
     3.333573000  0.000000000  1.924639000     0.299978432 -0.106058350  0.000000000
     1.111191000  3.142924000  1.924639000     0.000000000  0.318175050  0.000000000
     0.000000000  0.000000000  3.849278000    -0.149989216 -0.106058350  0.259788979

  length of vectors
     3.849278403  3.849279412  3.849278000     0.318175161  0.318175050  0.318175190

  position of ions in fractional coordinates (direct lattice)
     0.875000000  0.875000000  0.875000000
     0.125000000  0.125000000  0.125000000

  ion indices of the primitive-cell ions
   primitive index   ion index
                 1           1
                 2           2

----------------------------------------------------------------------------------------

 
 
 KPOINTS: Automatic                               

Automatic generation of k-mesh.
 Grid dimensions read from file:
 generate k-points for:   14   14   14

 Generating k-lattice:

  Cartesian coordinates                     Fractional coordinates (reciprocal lattice)
     0.021427031 -0.007575596  0.000000000     0.071428571  0.000000000  0.000000000
     0.000000000  0.022726789  0.000000000     0.000000000  0.071428571  0.000000000
    -0.010713515 -0.007575596  0.018556356     0.000000000  0.000000000  0.071428571

  Length of vectors
     0.022726797  0.022726789  0.022726799

  Shift w.r.t. Gamma in fractional coordinates (k-lattice)
     0.500000000  0.500000000  0.500000000

 
 Subroutine IBZKPT returns following result:
 ===========================================
 
 Found    280 irreducible k-points:
 
 Following reciprocal coordinates:
            Coordinates               Weight
  0.035714  0.035714  0.035714      8.000000
  0.107143  0.035714  0.035714     24.000000
  0.178571  0.035714  0.035714     24.000000
  0.250000  0.035714  0.035714     24.000000
  0.321429  0.035714  0.035714     24.000000
  0.392857  0.035714  0.035714     24.000000
  0.464286  0.035714  0.035714     24.000000
 -0.464286  0.035714  0.035714     24.000000
 -0.392857  0.035714  0.035714     24.000000
 -0.321429  0.035714  0.035714     24.000000
 -0.250000  0.035714  0.035714     24.000000
 -0.178571  0.035714  0.035714     24.000000
 -0.107143  0.035714  0.035714     24.000000
 -0.035714  0.035714  0.035714     24.000000
  0.107143  0.107143  0.035714     24.000000
  0.178571  0.107143  0.035714     48.000000
  0.250000  0.107143  0.035714     48.000000
  0.321429  0.107143  0.035714     48.000000
  0.392857  0.107143  0.035714     48.000000
  0.464286  0.107143  0.035714     48.000000
 -0.464286  0.107143  0.035714     48.000000
 -0.392857  0.107143  0.035714     48.000000
 -0.321429  0.107143  0.035714     48.000000
 -0.250000  0.107143  0.035714     48.000000
 -0.178571  0.107143  0.035714     48.000000
 -0.107143  0.107143  0.035714     48.000000
 -0.035714  0.107143  0.035714     48.000000
  0.178571  0.178571  0.035714     24.000000
  0.250000  0.178571  0.035714     48.000000
  0.321429  0.178571  0.035714     48.000000
  0.392857  0.178571  0.035714     48.000000
  0.464286  0.178571  0.035714     48.000000
 -0.464286  0.178571  0.035714     48.000000
 -0.392857  0.178571  0.035714     48.000000
 -0.321429  0.178571  0.035714     48.000000
 -0.250000  0.178571  0.035714     48.000000
 -0.178571  0.178571  0.035714     48.000000
 -0.107143  0.178571  0.035714     48.000000
 -0.035714  0.178571  0.035714     48.000000
  0.250000  0.250000  0.035714     24.000000
  0.321429  0.250000  0.035714     48.000000
  0.392857  0.250000  0.035714     48.000000
  0.464286  0.250000  0.035714     48.000000
 -0.464286  0.250000  0.035714     48.000000
 -0.392857  0.250000  0.035714     48.000000
 -0.321429  0.250000  0.035714     48.000000
 -0.250000  0.250000  0.035714     48.000000
 -0.178571  0.250000  0.035714     48.000000
 -0.107143  0.250000  0.035714     48.000000
 -0.035714  0.250000  0.035714     48.000000
  0.321429  0.321429  0.035714     24.000000
  0.392857  0.321429  0.035714     48.000000
  0.464286  0.321429  0.035714     48.000000
 -0.464286  0.321429  0.035714     48.000000
 -0.392857  0.321429  0.035714     48.000000
 -0.321429  0.321429  0.035714     48.000000
 -0.250000  0.321429  0.035714     48.000000
 -0.178571  0.321429  0.035714     48.000000
 -0.107143  0.321429  0.035714     48.000000
 -0.035714  0.321429  0.035714     48.000000
  0.392857  0.392857  0.035714     24.000000
  0.464286  0.392857  0.035714     48.000000
 -0.464286  0.392857  0.035714     48.000000
 -0.392857  0.392857  0.035714     48.000000
 -0.321429  0.392857  0.035714     48.000000
 -0.250000  0.392857  0.035714     48.000000
 -0.178571  0.392857  0.035714     48.000000
 -0.107143  0.392857  0.035714     48.000000
 -0.035714  0.392857  0.035714     48.000000
  0.464286  0.464286  0.035714     24.000000
 -0.464286  0.464286  0.035714     48.000000
 -0.392857  0.464286  0.035714     48.000000
 -0.321429  0.464286  0.035714     48.000000
 -0.250000  0.464286  0.035714     48.000000
 -0.178571  0.464286  0.035714     48.000000
 -0.107143  0.464286  0.035714     48.000000
 -0.035714  0.464286  0.035714     48.000000
 -0.464286 -0.464286  0.035714     24.000000
 -0.392857 -0.464286  0.035714     48.000000
 -0.321429 -0.464286  0.035714     48.000000
 -0.250000 -0.464286  0.035714     48.000000
 -0.178571 -0.464286  0.035714     48.000000
 -0.107143 -0.464286  0.035714     48.000000
 -0.392857 -0.392857  0.035714     24.000000
 -0.321429 -0.392857  0.035714     48.000000
 -0.250000 -0.392857  0.035714     48.000000
 -0.178571 -0.392857  0.035714     48.000000
 -0.107143 -0.392857  0.035714     48.000000
 -0.321429 -0.321429  0.035714     24.000000
 -0.250000 -0.321429  0.035714     48.000000
 -0.178571 -0.321429  0.035714     48.000000
 -0.107143 -0.321429  0.035714     48.000000
 -0.250000 -0.250000  0.035714     24.000000
 -0.178571 -0.250000  0.035714     48.000000
 -0.107143 -0.250000  0.035714     48.000000
 -0.178571 -0.178571  0.035714     24.000000
 -0.107143 -0.178571  0.035714     48.000000
 -0.107143 -0.107143  0.035714     24.000000
  0.107143  0.107143  0.107143      8.000000
  0.178571  0.107143  0.107143     24.000000
  0.250000  0.107143  0.107143     24.000000
  0.321429  0.107143  0.107143     24.000000
  0.392857  0.107143  0.107143     24.000000
  0.464286  0.107143  0.107143     24.000000
 -0.464286  0.107143  0.107143     24.000000
 -0.392857  0.107143  0.107143     24.000000
 -0.321429  0.107143  0.107143     24.000000
 -0.250000  0.107143  0.107143     24.000000
 -0.178571  0.107143  0.107143     24.000000
 -0.107143  0.107143  0.107143     24.000000
  0.178571  0.178571  0.107143     24.000000
  0.250000  0.178571  0.107143     48.000000
  0.321429  0.178571  0.107143     48.000000
  0.392857  0.178571  0.107143     48.000000
  0.464286  0.178571  0.107143     48.000000
 -0.464286  0.178571  0.107143     48.000000
 -0.392857  0.178571  0.107143     48.000000
 -0.321429  0.178571  0.107143     48.000000
 -0.250000  0.178571  0.107143     48.000000
 -0.178571  0.178571  0.107143     48.000000
 -0.107143  0.178571  0.107143     48.000000
  0.250000  0.250000  0.107143     24.000000
  0.321429  0.250000  0.107143     48.000000
  0.392857  0.250000  0.107143     48.000000
  0.464286  0.250000  0.107143     48.000000
 -0.464286  0.250000  0.107143     48.000000
 -0.392857  0.250000  0.107143     48.000000
 -0.321429  0.250000  0.107143     48.000000
 -0.250000  0.250000  0.107143     48.000000
 -0.178571  0.250000  0.107143     48.000000
 -0.107143  0.250000  0.107143     48.000000
  0.321429  0.321429  0.107143     24.000000
  0.392857  0.321429  0.107143     48.000000
  0.464286  0.321429  0.107143     48.000000
 -0.464286  0.321429  0.107143     48.000000
 -0.392857  0.321429  0.107143     48.000000
 -0.321429  0.321429  0.107143     48.000000
 -0.250000  0.321429  0.107143     48.000000
 -0.178571  0.321429  0.107143     48.000000
 -0.107143  0.321429  0.107143     48.000000
  0.392857  0.392857  0.107143     24.000000
  0.464286  0.392857  0.107143     48.000000
 -0.464286  0.392857  0.107143     48.000000
 -0.392857  0.392857  0.107143     48.000000
 -0.321429  0.392857  0.107143     48.000000
 -0.250000  0.392857  0.107143     48.000000
 -0.178571  0.392857  0.107143     48.000000
 -0.107143  0.392857  0.107143     48.000000
  0.464286  0.464286  0.107143     24.000000
 -0.464286  0.464286  0.107143     48.000000
 -0.392857  0.464286  0.107143     48.000000
 -0.321429  0.464286  0.107143     48.000000
 -0.250000  0.464286  0.107143     48.000000
 -0.178571  0.464286  0.107143     48.000000
 -0.107143  0.464286  0.107143     48.000000
 -0.464286 -0.464286  0.107143     24.000000
 -0.392857 -0.464286  0.107143     48.000000
 -0.321429 -0.464286  0.107143     48.000000
 -0.250000 -0.464286  0.107143     48.000000
 -0.178571 -0.464286  0.107143     48.000000
 -0.392857 -0.392857  0.107143     24.000000
 -0.321429 -0.392857  0.107143     48.000000
 -0.250000 -0.392857  0.107143     48.000000
 -0.178571 -0.392857  0.107143     48.000000
 -0.321429 -0.321429  0.107143     24.000000
 -0.250000 -0.321429  0.107143     48.000000
 -0.178571 -0.321429  0.107143     48.000000
 -0.250000 -0.250000  0.107143     24.000000
 -0.178571 -0.250000  0.107143     48.000000
 -0.178571 -0.178571  0.107143     24.000000
  0.178571  0.178571  0.178571      8.000000
  0.250000  0.178571  0.178571     24.000000
  0.321429  0.178571  0.178571     24.000000
  0.392857  0.178571  0.178571     24.000000
  0.464286  0.178571  0.178571     24.000000
 -0.464286  0.178571  0.178571     24.000000
 -0.392857  0.178571  0.178571     24.000000
 -0.321429  0.178571  0.178571     24.000000
 -0.250000  0.178571  0.178571     24.000000
 -0.178571  0.178571  0.178571     24.000000
  0.250000  0.250000  0.178571     24.000000
  0.321429  0.250000  0.178571     48.000000
  0.392857  0.250000  0.178571     48.000000
  0.464286  0.250000  0.178571     48.000000
 -0.464286  0.250000  0.178571     48.000000
 -0.392857  0.250000  0.178571     48.000000
 -0.321429  0.250000  0.178571     48.000000
 -0.250000  0.250000  0.178571     48.000000
 -0.178571  0.250000  0.178571     48.000000
  0.321429  0.321429  0.178571     24.000000
  0.392857  0.321429  0.178571     48.000000
  0.464286  0.321429  0.178571     48.000000
 -0.464286  0.321429  0.178571     48.000000
 -0.392857  0.321429  0.178571     48.000000
 -0.321429  0.321429  0.178571     48.000000
 -0.250000  0.321429  0.178571     48.000000
 -0.178571  0.321429  0.178571     48.000000
  0.392857  0.392857  0.178571     24.000000
  0.464286  0.392857  0.178571     48.000000
 -0.464286  0.392857  0.178571     48.000000
 -0.392857  0.392857  0.178571     48.000000
 -0.321429  0.392857  0.178571     48.000000
 -0.250000  0.392857  0.178571     48.000000
 -0.178571  0.392857  0.178571     48.000000
  0.464286  0.464286  0.178571     24.000000
 -0.464286  0.464286  0.178571     48.000000
 -0.392857  0.464286  0.178571     48.000000
 -0.321429  0.464286  0.178571     48.000000
 -0.250000  0.464286  0.178571     48.000000
 -0.178571  0.464286  0.178571     48.000000
 -0.464286 -0.464286  0.178571     24.000000
 -0.392857 -0.464286  0.178571     48.000000
 -0.321429 -0.464286  0.178571     48.000000
 -0.250000 -0.464286  0.178571     48.000000
 -0.392857 -0.392857  0.178571     24.000000
 -0.321429 -0.392857  0.178571     48.000000
 -0.250000 -0.392857  0.178571     48.000000
 -0.321429 -0.321429  0.178571     24.000000
 -0.250000 -0.321429  0.178571     48.000000
 -0.250000 -0.250000  0.178571     24.000000
  0.250000  0.250000  0.250000      8.000000
  0.321429  0.250000  0.250000     24.000000
  0.392857  0.250000  0.250000     24.000000
  0.464286  0.250000  0.250000     24.000000
 -0.464286  0.250000  0.250000     24.000000
 -0.392857  0.250000  0.250000     24.000000
 -0.321429  0.250000  0.250000     24.000000
 -0.250000  0.250000  0.250000     24.000000
  0.321429  0.321429  0.250000     24.000000
  0.392857  0.321429  0.250000     48.000000
  0.464286  0.321429  0.250000     48.000000
 -0.464286  0.321429  0.250000     48.000000
 -0.392857  0.321429  0.250000     48.000000
 -0.321429  0.321429  0.250000     48.000000
 -0.250000  0.321429  0.250000     48.000000
  0.392857  0.392857  0.250000     24.000000
  0.464286  0.392857  0.250000     48.000000
 -0.464286  0.392857  0.250000     48.000000
 -0.392857  0.392857  0.250000     48.000000
 -0.321429  0.392857  0.250000     48.000000
 -0.250000  0.392857  0.250000     48.000000
  0.464286  0.464286  0.250000     24.000000
 -0.464286  0.464286  0.250000     48.000000
 -0.392857  0.464286  0.250000     48.000000
 -0.321429  0.464286  0.250000     48.000000
 -0.250000  0.464286  0.250000     48.000000
 -0.464286 -0.464286  0.250000     24.000000
 -0.392857 -0.464286  0.250000     48.000000
 -0.321429 -0.464286  0.250000     48.000000
 -0.392857 -0.392857  0.250000     24.000000
 -0.321429 -0.392857  0.250000     48.000000
 -0.321429 -0.321429  0.250000     24.000000
  0.321429  0.321429  0.321429      8.000000
  0.392857  0.321429  0.321429     24.000000
  0.464286  0.321429  0.321429     24.000000
 -0.464286  0.321429  0.321429     24.000000
 -0.392857  0.321429  0.321429     24.000000
 -0.321429  0.321429  0.321429     24.000000
  0.392857  0.392857  0.321429     24.000000
  0.464286  0.392857  0.321429     48.000000
 -0.464286  0.392857  0.321429     48.000000
 -0.392857  0.392857  0.321429     48.000000
 -0.321429  0.392857  0.321429     48.000000
  0.464286  0.464286  0.321429     24.000000
 -0.464286  0.464286  0.321429     48.000000
 -0.392857  0.464286  0.321429     48.000000
 -0.321429  0.464286  0.321429     48.000000
 -0.464286 -0.464286  0.321429     24.000000
 -0.392857 -0.464286  0.321429     48.000000
 -0.392857 -0.392857  0.321429     24.000000
  0.392857  0.392857  0.392857      8.000000
  0.464286  0.392857  0.392857     24.000000
 -0.464286  0.392857  0.392857     24.000000
 -0.392857  0.392857  0.392857     24.000000
  0.464286  0.464286  0.392857     24.000000
 -0.464286  0.464286  0.392857     48.000000
 -0.392857  0.464286  0.392857     48.000000
 -0.464286 -0.464286  0.392857     24.000000
  0.464286  0.464286  0.464286      8.000000
 -0.464286  0.464286  0.464286     24.000000
 
 Following cartesian coordinates:
            Coordinates               Weight
  0.005357  0.003788  0.009278      8.000000
  0.026784 -0.003788  0.009278     24.000000
  0.048211 -0.011363  0.009278     24.000000
  0.069638 -0.018939  0.009278     24.000000
  0.091065 -0.026515  0.009278     24.000000
  0.112492 -0.034090  0.009278     24.000000
  0.133919 -0.041666  0.009278     24.000000
 -0.144632  0.056817  0.009278     24.000000
 -0.123205  0.049241  0.009278     24.000000
 -0.101778  0.041666  0.009278     24.000000
 -0.080351  0.034090  0.009278     24.000000
 -0.058924  0.026515  0.009278     24.000000
 -0.037497  0.018939  0.009278     24.000000
 -0.016070  0.011363  0.009278     24.000000
  0.026784  0.018939  0.009278     24.000000
  0.048211  0.011363  0.009278     48.000000
  0.069638  0.003788  0.009278     48.000000
  0.091065 -0.003788  0.009278     48.000000
  0.112492 -0.011363  0.009278     48.000000
  0.133919 -0.018939  0.009278     48.000000
 -0.144632  0.079544  0.009278     48.000000
 -0.123205  0.071968  0.009278     48.000000
 -0.101778  0.064393  0.009278     48.000000
 -0.080351  0.056817  0.009278     48.000000
 -0.058924  0.049241  0.009278     48.000000
 -0.037497  0.041666  0.009278     48.000000
 -0.016070  0.034090  0.009278     48.000000
  0.048211  0.034090  0.009278     24.000000
  0.069638  0.026515  0.009278     48.000000
  0.091065  0.018939  0.009278     48.000000
  0.112492  0.011363  0.009278     48.000000
  0.133919  0.003788  0.009278     48.000000
 -0.144632  0.102271  0.009278     48.000000
 -0.123205  0.094695  0.009278     48.000000
 -0.101778  0.087119  0.009278     48.000000
 -0.080351  0.079544  0.009278     48.000000
 -0.058924  0.071968  0.009278     48.000000
 -0.037497  0.064393  0.009278     48.000000
 -0.016070  0.056817  0.009278     48.000000
  0.069638  0.049241  0.009278     24.000000
  0.091065  0.041666  0.009278     48.000000
  0.112492  0.034090  0.009278     48.000000
  0.133919  0.026515  0.009278     48.000000
 -0.144632  0.124997  0.009278     48.000000
 -0.123205  0.117422  0.009278     48.000000
 -0.101778  0.109846  0.009278     48.000000
 -0.080351  0.102271  0.009278     48.000000
 -0.058924  0.094695  0.009278     48.000000
 -0.037497  0.087119  0.009278     48.000000
 -0.016070  0.079544  0.009278     48.000000
  0.091065  0.064393  0.009278     24.000000
  0.112492  0.056817  0.009278     48.000000
  0.133919  0.049241  0.009278     48.000000
 -0.144632  0.147724  0.009278     48.000000
 -0.123205  0.140149  0.009278     48.000000
 -0.101778  0.132573  0.009278     48.000000
 -0.080351  0.124997  0.009278     48.000000
 -0.058924  0.117422  0.009278     48.000000
 -0.037497  0.109846  0.009278     48.000000
 -0.016070  0.102271  0.009278     48.000000
  0.112492  0.079544  0.009278     24.000000
  0.133919  0.071968  0.009278     48.000000
 -0.144632  0.170451  0.009278     48.000000
 -0.123205  0.162875  0.009278     48.000000
 -0.101778  0.155300  0.009278     48.000000
 -0.080351  0.147724  0.009278     48.000000
 -0.058924  0.140149  0.009278     48.000000
 -0.037497  0.132573  0.009278     48.000000
 -0.016070  0.124997  0.009278     48.000000
  0.133919  0.094695  0.009278     24.000000
 -0.144632  0.193178  0.009278     48.000000
 -0.123205  0.185602  0.009278     48.000000
 -0.101778  0.178027  0.009278     48.000000
 -0.080351  0.170451  0.009278     48.000000
 -0.058924  0.162875  0.009278     48.000000
 -0.037497  0.155300  0.009278     48.000000
 -0.016070  0.147724  0.009278     48.000000
 -0.144632 -0.102271  0.009278     24.000000
 -0.123205 -0.109846  0.009278     48.000000
 -0.101778 -0.117422  0.009278     48.000000
 -0.080351 -0.124997  0.009278     48.000000
 -0.058924 -0.132573  0.009278     48.000000
 -0.037497 -0.140149  0.009278     48.000000
 -0.123205 -0.087119  0.009278     24.000000
 -0.101778 -0.094695  0.009278     48.000000
 -0.080351 -0.102271  0.009278     48.000000
 -0.058924 -0.109846  0.009278     48.000000
 -0.037497 -0.117422  0.009278     48.000000
 -0.101778 -0.071968  0.009278     24.000000
 -0.080351 -0.079544  0.009278     48.000000
 -0.058924 -0.087119  0.009278     48.000000
 -0.037497 -0.094695  0.009278     48.000000
 -0.080351 -0.056817  0.009278     24.000000
 -0.058924 -0.064393  0.009278     48.000000
 -0.037497 -0.071968  0.009278     48.000000
 -0.058924 -0.041666  0.009278     24.000000
 -0.037497 -0.049241  0.009278     48.000000
 -0.037497 -0.026515  0.009278     24.000000
  0.016070  0.011363  0.027835      8.000000
  0.037497  0.003788  0.027835     24.000000
  0.058924 -0.003788  0.027835     24.000000
  0.080351 -0.011363  0.027835     24.000000
  0.101778 -0.018939  0.027835     24.000000
  0.123205 -0.026515  0.027835     24.000000
 -0.155346  0.071968  0.027835     24.000000
 -0.133919  0.064393  0.027835     24.000000
 -0.112492  0.056817  0.027835     24.000000
 -0.091065  0.049241  0.027835     24.000000
 -0.069638  0.041666  0.027835     24.000000
 -0.048211  0.034090  0.027835     24.000000
  0.037497  0.026515  0.027835     24.000000
  0.058924  0.018939  0.027835     48.000000
  0.080351  0.011363  0.027835     48.000000
  0.101778  0.003788  0.027835     48.000000
  0.123205 -0.003788  0.027835     48.000000
 -0.155346  0.094695  0.027835     48.000000
 -0.133919  0.087119  0.027835     48.000000
 -0.112492  0.079544  0.027835     48.000000
 -0.091065  0.071968  0.027835     48.000000
 -0.069638  0.064393  0.027835     48.000000
 -0.048211  0.056817  0.027835     48.000000
  0.058924  0.041666  0.027835     24.000000
  0.080351  0.034090  0.027835     48.000000
  0.101778  0.026515  0.027835     48.000000
  0.123205  0.018939  0.027835     48.000000
 -0.155346  0.117422  0.027835     48.000000
 -0.133919  0.109846  0.027835     48.000000
 -0.112492  0.102271  0.027835     48.000000
 -0.091065  0.094695  0.027835     48.000000
 -0.069638  0.087119  0.027835     48.000000
 -0.048211  0.079544  0.027835     48.000000
  0.080351  0.056817  0.027835     24.000000
  0.101778  0.049241  0.027835     48.000000
  0.123205  0.041666  0.027835     48.000000
 -0.155346  0.140149  0.027835     48.000000
 -0.133919  0.132573  0.027835     48.000000
 -0.112492  0.124997  0.027835     48.000000
 -0.091065  0.117422  0.027835     48.000000
 -0.069638  0.109846  0.027835     48.000000
 -0.048211  0.102271  0.027835     48.000000
  0.101778  0.071968  0.027835     24.000000
  0.123205  0.064393  0.027835     48.000000
 -0.155346  0.162875  0.027835     48.000000
 -0.133919  0.155300  0.027835     48.000000
 -0.112492  0.147724  0.027835     48.000000
 -0.091065  0.140149  0.027835     48.000000
 -0.069638  0.132573  0.027835     48.000000
 -0.048211  0.124997  0.027835     48.000000
  0.123205  0.087119  0.027835     24.000000
 -0.155346  0.185602  0.027835     48.000000
 -0.133919  0.178027  0.027835     48.000000
 -0.112492  0.170451  0.027835     48.000000
 -0.091065  0.162875  0.027835     48.000000
 -0.069638  0.155300  0.027835     48.000000
 -0.048211  0.147724  0.027835     48.000000
 -0.155346 -0.109846  0.027835     24.000000
 -0.133919 -0.117422  0.027835     48.000000
 -0.112492 -0.124997  0.027835     48.000000
 -0.091065 -0.132573  0.027835     48.000000
 -0.069638 -0.140149  0.027835     48.000000
 -0.133919 -0.094695  0.027835     24.000000
 -0.112492 -0.102271  0.027835     48.000000
 -0.091065 -0.109846  0.027835     48.000000
 -0.069638 -0.117422  0.027835     48.000000
 -0.112492 -0.079544  0.027835     24.000000
 -0.091065 -0.087119  0.027835     48.000000
 -0.069638 -0.094695  0.027835     48.000000
 -0.091065 -0.064393  0.027835     24.000000
 -0.069638 -0.071968  0.027835     48.000000
 -0.069638 -0.049241  0.027835     24.000000
  0.026784  0.018939  0.046391      8.000000
  0.048211  0.011363  0.046391     24.000000
  0.069638  0.003788  0.046391     24.000000
  0.091065 -0.003788  0.046391     24.000000
  0.112492 -0.011363  0.046391     24.000000
 -0.166059  0.087119  0.046391     24.000000
 -0.144632  0.079544  0.046391     24.000000
 -0.123205  0.071968  0.046391     24.000000
 -0.101778  0.064393  0.046391     24.000000
 -0.080351  0.056817  0.046391     24.000000
  0.048211  0.034090  0.046391     24.000000
  0.069638  0.026515  0.046391     48.000000
  0.091065  0.018939  0.046391     48.000000
  0.112492  0.011363  0.046391     48.000000
 -0.166059  0.109846  0.046391     48.000000
 -0.144632  0.102271  0.046391     48.000000
 -0.123205  0.094695  0.046391     48.000000
 -0.101778  0.087119  0.046391     48.000000
 -0.080351  0.079544  0.046391     48.000000
  0.069638  0.049241  0.046391     24.000000
  0.091065  0.041666  0.046391     48.000000
  0.112492  0.034090  0.046391     48.000000
 -0.166059  0.132573  0.046391     48.000000
 -0.144632  0.124997  0.046391     48.000000
 -0.123205  0.117422  0.046391     48.000000
 -0.101778  0.109846  0.046391     48.000000
 -0.080351  0.102271  0.046391     48.000000
  0.091065  0.064393  0.046391     24.000000
  0.112492  0.056817  0.046391     48.000000
 -0.166059  0.155300  0.046391     48.000000
 -0.144632  0.147724  0.046391     48.000000
 -0.123205  0.140149  0.046391     48.000000
 -0.101778  0.132573  0.046391     48.000000
 -0.080351  0.124997  0.046391     48.000000
  0.112492  0.079544  0.046391     24.000000
 -0.166059  0.178027  0.046391     48.000000
 -0.144632  0.170451  0.046391     48.000000
 -0.123205  0.162875  0.046391     48.000000
 -0.101778  0.155300  0.046391     48.000000
 -0.080351  0.147724  0.046391     48.000000
 -0.166059 -0.117422  0.046391     24.000000
 -0.144632 -0.124997  0.046391     48.000000
 -0.123205 -0.132573  0.046391     48.000000
 -0.101778 -0.140149  0.046391     48.000000
 -0.144632 -0.102271  0.046391     24.000000
 -0.123205 -0.109846  0.046391     48.000000
 -0.101778 -0.117422  0.046391     48.000000
 -0.123205 -0.087119  0.046391     24.000000
 -0.101778 -0.094695  0.046391     48.000000
 -0.101778 -0.071968  0.046391     24.000000
  0.037497  0.026515  0.064947      8.000000
  0.058924  0.018939  0.064947     24.000000
  0.080351  0.011363  0.064947     24.000000
  0.101778  0.003788  0.064947     24.000000
 -0.176773  0.102271  0.064947     24.000000
 -0.155346  0.094695  0.064947     24.000000
 -0.133919  0.087119  0.064947     24.000000
 -0.112492  0.079544  0.064947     24.000000
  0.058924  0.041666  0.064947     24.000000
  0.080351  0.034090  0.064947     48.000000
  0.101778  0.026515  0.064947     48.000000
 -0.176773  0.124997  0.064947     48.000000
 -0.155346  0.117422  0.064947     48.000000
 -0.133919  0.109846  0.064947     48.000000
 -0.112492  0.102271  0.064947     48.000000
  0.080351  0.056817  0.064947     24.000000
  0.101778  0.049241  0.064947     48.000000
 -0.176773  0.147724  0.064947     48.000000
 -0.155346  0.140149  0.064947     48.000000
 -0.133919  0.132573  0.064947     48.000000
 -0.112492  0.124997  0.064947     48.000000
  0.101778  0.071968  0.064947     24.000000
 -0.176773  0.170451  0.064947     48.000000
 -0.155346  0.162875  0.064947     48.000000
 -0.133919  0.155300  0.064947     48.000000
 -0.112492  0.147724  0.064947     48.000000
 -0.176773 -0.124997  0.064947     24.000000
 -0.155346 -0.132573  0.064947     48.000000
 -0.133919 -0.140149  0.064947     48.000000
 -0.155346 -0.109846  0.064947     24.000000
 -0.133919 -0.117422  0.064947     48.000000
 -0.133919 -0.094695  0.064947     24.000000
  0.048211  0.034090  0.083504      8.000000
  0.069638  0.026515  0.083504     24.000000
  0.091065  0.018939  0.083504     24.000000
 -0.187487  0.117422  0.083504     24.000000
 -0.166059  0.109846  0.083504     24.000000
 -0.144632  0.102271  0.083504     24.000000
  0.069638  0.049241  0.083504     24.000000
  0.091065  0.041666  0.083504     48.000000
 -0.187487  0.140149  0.083504     48.000000
 -0.166059  0.132573  0.083504     48.000000
 -0.144632  0.124997  0.083504     48.000000
  0.091065  0.064393  0.083504     24.000000
 -0.187487  0.162875  0.083504     48.000000
 -0.166059  0.155300  0.083504     48.000000
 -0.144632  0.147724  0.083504     48.000000
 -0.187487 -0.132573  0.083504     24.000000
 -0.166059 -0.140149  0.083504     48.000000
 -0.166059 -0.117422  0.083504     24.000000
  0.058924  0.041666  0.102060      8.000000
  0.080351  0.034090  0.102060     24.000000
 -0.198200  0.132573  0.102060     24.000000
 -0.176773  0.124997  0.102060     24.000000
  0.080351  0.056817  0.102060     24.000000
 -0.198200  0.155300  0.102060     48.000000
 -0.176773  0.147724  0.102060     48.000000
 -0.198200 -0.140149  0.102060     24.000000
  0.069638  0.049241  0.120616      8.000000
 -0.208914  0.147724  0.120616     24.000000
 


--------------------------------------------------------------------------------------------------------




 Dimension of arrays:
   k-points           NKPTS =    280   k-points in BZ     NKDIM =    280   number of bands    NBANDS=      8
   number of dos      NEDOS =    301   number of ions     NIONS =      2
   non local maximal  LDIM  =      4   non local SUM 2l+1 LMDIM =      8
   total plane-waves  NPLWV =  13824
   max r-space proj   IRMAX =      1   max aug-charges    IRDMAX=  91874
   dimension x,y,z NGX =    24 NGY =   24 NGZ =   24
   dimension x,y,z NGXF=    48 NGYF=   48 NGZF=   48
   support grid    NGXF=    96 NGYF=   96 NGZF=   96
   ions per type =               2
   NGX,Y,Z   is equivalent  to a cutoff of  10.37, 10.37, 10.37 a.u.
   NGXF,Y,Z  is equivalent  to a cutoff of  20.73, 20.73, 20.73 a.u.

 SYSTEM =  unknown system                          
 POSCAR =  Si2                                     

 Startparameter for this run:
   NWRITE =      2    write-flag & timer
   PREC   = accura    normal or accurate (medium, high low for compatibility)
   ISTART =      0    job   : 0-new  1-cont  2-samecut
   ICHARG =      2    charge: 1-file 2-atom 10-const
   ISPIN  =      1    spin polarized calculation?
   LNONCOLLINEAR =      F non collinear calculations
   LSORBIT =      F    spin-orbit coupling
   INIWAV =      1    electr: 0-lowe 1-rand  2-diag
   LASPH  =      T    aspherical Exc in radial PAW
   METAGGA=      F    non-selfconsistent MetaGGA calc.

 Electronic Relaxation 1
   ENCUT  =  350.0 eV  25.72 Ry    5.07 a.u.   5.87  5.87  5.87*2*pi/ulx,y,z
   ENINI  =  350.0     initial cutoff
   ENAUG  =  322.1 eV  augmentation charge cutoff
   NELM   =     90;   NELMIN=  6; NELMDL= -5     # of ELM steps 
   EDIFF  = 0.1E-05   stopping-criterion for ELM
   LREAL  =      F    real-space projection
   NLSPLINE    = F    spline interpolate recip. space projectors
   LCOMPAT=      F    compatible to vasp.4.4
   GGA_COMPAT  = T    GGA compatible to vasp.4.4-vasp.4.6
   LMAXPAW     = -100 max onsite density
   LMAXMIX     =    2 max onsite mixed and CHGCAR
   VOSKOWN=      0    Vosko Wilk Nusair interpolation
   ROPT   =    0.00000
 Ionic relaxation
   EDIFFG = -.2E-02   stopping-criterion for IOM
   NSW    =    100    number of steps for IOM
   NBLOCK =      1;   KBLOCK =    100    inner block; outer block 
   IBRION =      2    ionic relax: 0-MD 1-quasi-New 2-CG
   NFREE  =      1    steps in history (QN), initial steepest desc. (CG)
   ISIF   =      3    stress and relaxation
   IWAVPR =     11    prediction:  0-non 1-charg 2-wave 3-comb
   ISYM   =      2    0-nonsym 1-usesym 2-fastsym
   LCORR  =      T    Harris-Foulkes like correction to forces

   POTIM  = 0.5000    time-step for ionic-motion
   TEIN   =    0.0    initial temperature
   TEBEG  =    0.0;   TEEND  =   0.0 temperature during run
   SMASS  =  -3.00    Nose mass-parameter (am)
   estimated Nose-frequenzy (Omega)   =  0.10E-29 period in steps = 0.13E+47 mass=  -0.339E-27a.u.
   SCALEE = 1.0000    scale energy and forces
   NPACO  =    256;   APACO  = 16.0  distance and # of slots for P.C.
   PSTRESS=    0.0 pullay stress

  Mass of Ions in am
   POMASS =  28.09
  Ionic Valenz
   ZVAL   =   4.00
  Atomic Wigner-Seitz radii
   RWIGS  =  -1.00
  virtual crystal weights 
   VCA    =   1.00
   NELECT =       8.0000    total number of electrons
   NUPDOWN=      -1.0000    fix difference up-down

 DOS related values:
   EMIN   =  10.00;   EMAX   =-10.00  energy-range for DOS
   EFERMI =   0.00
   ISMEAR =     0;   SIGMA  =   0.05  broadening in eV -4-tet -1-fermi 0-gaus

 Electronic relaxation 2 (details)
   IALGO  =     38    algorithm
   LDIAG  =      T    sub-space diagonalisation (order eigenvalues)
   LSUBROT=      F    optimize rotation matrix (better conditioning)
   TURBO    =      0    0=normal 1=particle mesh
   IRESTART =      0    0=no restart 2=restart with 2 vectors
   NREBOOT  =      0    no. of reboots
   NMIN     =      0    reboot dimension
   EREF     =   0.00    reference energy to select bands
   IMIX   =      4    mixing-type and parameters
     AMIX     =   0.40;   BMIX     =  1.00
     AMIX_MAG =   1.60;   BMIX_MAG =  1.00
     AMIN     =   0.10
     WC   =   100.;   INIMIX=   1;  MIXPRE=   1;  MAXMIX= -45

 Intra band minimization:
   WEIMIN = 0.0010     energy-eigenvalue tresh-hold
   EBREAK =  0.31E-07  absolut break condition
   DEPER  =   0.30     relativ break condition  

   TIME   =   0.40     timestep for ELM

  volume/ion in A,a.u.               =      20.16       136.08
  Fermi-wavevector in a.u.,A,eV,Ry     =   0.954766  1.804247 12.402783  0.911579
  Thomas-Fermi vector in A             =   2.083543
 
 Write flags
   LWAVE        =      F    write WAVECAR
   LDOWNSAMPLE  =      F    k-point downsampling of WAVECAR
   LCHARG       =      F    write CHGCAR
   LVTOT        =      F    write LOCPOT, total local potential
   LVHAR        =      F    write LOCPOT, Hartree potential only
   LELF         =      F    write electronic localiz. function (ELF)
   LORBIT       =      0    0 simple, 1 ext, 2 COOP (PROOUT), +10 PAW based schemes


 Dipole corrections
   LMONO  =      F    monopole corrections only (constant potential shift)
   LDIPOL =      F    correct potential (dipole corrections)
   IDIPOL =      0    1-x, 2-y, 3-z, 4-all directions 
   EPSILON=  1.0000000 bulk dielectric constant

 Exchange correlation treatment:
   GGA     =    --    GGA type
   LEXCH   =     8    internal setting for exchange type
   VOSKOWN=      0    Vosko Wilk Nusair interpolation
   LHFCALC =     F    Hartree Fock is set to
   LHFONE  =     F    Hartree Fock one center treatment
   AEXX    =    0.0000 exact exchange contribution

 Linear response parameters
   LEPSILON=     F    determine dielectric tensor
   LRPA    =     F    only Hartree local field effects (RPA)
   LNABLA  =     F    use nabla operator in PAW spheres
   LVEL    =     F    velocity operator in full k-point grid
   LINTERFAST=   F  fast interpolation
   KINTER  =     0    interpolate to denser k-point grid
   CSHIFT  =0.1000    complex shift for real part using Kramers Kronig
   OMEGAMAX=  -1.0    maximum frequency
   DEG_THRESHOLD= 0.2000000E-02 threshold for treating states as degnerate
   RTIME   =   -0.100 relaxation time in fs
  (WPLASMAI=    0.000 imaginary part of plasma frequency in eV, 0.658/RTIME)
   DFIELD  = 0.0000000 0.0000000 0.0000000 field for delta impulse in time
 
 Orbital magnetization related:
   ORBITALMAG=     F  switch on orbital magnetization
   LCHIMAG   =     F  perturbation theory with respect to B field
   DQ        =  0.001000  dq finite difference perturbation B field
   LLRAUG    =     F  two centre corrections for induced B field



--------------------------------------------------------------------------------------------------------


 conjugate gradient relaxation of ions
 charge density and potential will be updated during run
 non-spin polarized calculation
 Variant of blocked Davidson
 Davidson routine will perform the subspace rotation
 perform sub-space diagonalisation
    after iterative eigenvector-optimisation
 modified Broyden-mixing scheme, WC =      100.0
 initial mixing is a Kerker type mixing with AMIX =  0.4000 and BMIX =      1.0000
 Hartree-type preconditioning will be used
 using additional bands            4
 reciprocal scheme for non local part
 use partial core corrections
 calculate Harris-corrections to forces 
   (improved forces if not selfconsistent)
 use gradient corrections 
 use of overlap-Matrix (Vanderbilt PP)
 Gauss-broadening in eV      SIGMA  =   0.05


--------------------------------------------------------------------------------------------------------


  energy-cutoff  :      350.00
  volume of cell :       40.33
      direct lattice vectors                 reciprocal lattice vectors
     3.333573000  0.000000000  1.924639000     0.299978432 -0.106058350  0.000000000
     1.111191000  3.142924000  1.924639000     0.000000000  0.318175050  0.000000000
     0.000000000  0.000000000  3.849278000    -0.149989216 -0.106058350  0.259788979

  length of vectors
     3.849278403  3.849279412  3.849278000     0.318175161  0.318175050  0.318175190


 
 k-points in units of 2pi/SCALE and weight: Automatic                               
   0.00535676  0.00378780  0.00927818       0.001
   0.02678379 -0.00378780  0.00927818       0.002
   0.04821082 -0.01136339  0.00927818       0.002
   0.06963785 -0.01893899  0.00927818       0.002
   0.09106488 -0.02651459  0.00927818       0.002
   0.11249191 -0.03409018  0.00927818       0.002
   0.13391894 -0.04166578  0.00927818       0.002
  -0.14463246  0.05681697  0.00927818       0.002
  -0.12320543  0.04924138  0.00927818       0.002
  -0.10177840  0.04166578  0.00927818       0.002
  -0.08035137  0.03409018  0.00927818       0.002
  -0.05892433  0.02651459  0.00927818       0.002
  -0.03749730  0.01893899  0.00927818       0.002
  -0.01607027  0.01136339  0.00927818       0.002
   0.02678379  0.01893899  0.00927818       0.002
   0.04821082  0.01136339  0.00927818       0.004
   0.06963785  0.00378780  0.00927818       0.004
   0.09106488 -0.00378780  0.00927818       0.004
   0.11249191 -0.01136339  0.00927818       0.004
   0.13391894 -0.01893899  0.00927818       0.004
  -0.14463246  0.07954376  0.00927818       0.004
  -0.12320543  0.07196817  0.00927818       0.004
  -0.10177840  0.06439257  0.00927818       0.004
  -0.08035137  0.05681697  0.00927818       0.004
  -0.05892433  0.04924138  0.00927818       0.004
  -0.03749730  0.04166578  0.00927818       0.004
  -0.01607027  0.03409018  0.00927818       0.004
   0.04821082  0.03409018  0.00927818       0.002
   0.06963785  0.02651459  0.00927818       0.004
   0.09106488  0.01893899  0.00927818       0.004
   0.11249191  0.01136339  0.00927818       0.004
   0.13391894  0.00378780  0.00927818       0.004
  -0.14463246  0.10227055  0.00927818       0.004
  -0.12320543  0.09469496  0.00927818       0.004
  -0.10177840  0.08711936  0.00927818       0.004
  -0.08035137  0.07954376  0.00927818       0.004
  -0.05892433  0.07196817  0.00927818       0.004
  -0.03749730  0.06439257  0.00927818       0.004
  -0.01607027  0.05681697  0.00927818       0.004
   0.06963785  0.04924138  0.00927818       0.002
   0.09106488  0.04166578  0.00927818       0.004
   0.11249191  0.03409018  0.00927818       0.004
   0.13391894  0.02651459  0.00927818       0.004
  -0.14463246  0.12499734  0.00927818       0.004
  -0.12320543  0.11742174  0.00927818       0.004
  -0.10177840  0.10984615  0.00927818       0.004
  -0.08035137  0.10227055  0.00927818       0.004
  -0.05892433  0.09469496  0.00927818       0.004
  -0.03749730  0.08711936  0.00927818       0.004
  -0.01607027  0.07954376  0.00927818       0.004
   0.09106488  0.06439257  0.00927818       0.002
   0.11249191  0.05681697  0.00927818       0.004
   0.13391894  0.04924138  0.00927818       0.004
  -0.14463246  0.14772413  0.00927818       0.004
  -0.12320543  0.14014853  0.00927818       0.004
  -0.10177840  0.13257294  0.00927818       0.004
  -0.08035137  0.12499734  0.00927818       0.004
  -0.05892433  0.11742174  0.00927818       0.004
  -0.03749730  0.10984615  0.00927818       0.004
  -0.01607027  0.10227055  0.00927818       0.004
   0.11249191  0.07954376  0.00927818       0.002
   0.13391894  0.07196817  0.00927818       0.004
  -0.14463246  0.17045092  0.00927818       0.004
  -0.12320543  0.16287532  0.00927818       0.004
  -0.10177840  0.15529973  0.00927818       0.004
  -0.08035137  0.14772413  0.00927818       0.004
  -0.05892433  0.14014853  0.00927818       0.004
  -0.03749730  0.13257294  0.00927818       0.004
  -0.01607027  0.12499734  0.00927818       0.004
   0.13391894  0.09469496  0.00927818       0.002
  -0.14463246  0.19317771  0.00927818       0.004
  -0.12320543  0.18560211  0.00927818       0.004
  -0.10177840  0.17802652  0.00927818       0.004
  -0.08035137  0.17045092  0.00927818       0.004
  -0.05892433  0.16287532  0.00927818       0.004
  -0.03749730  0.15529973  0.00927818       0.004
  -0.01607027  0.14772413  0.00927818       0.004
  -0.14463246 -0.10227055  0.00927818       0.002
  -0.12320543 -0.10984615  0.00927818       0.004
  -0.10177840 -0.11742174  0.00927818       0.004
  -0.08035137 -0.12499734  0.00927818       0.004
  -0.05892433 -0.13257294  0.00927818       0.004
  -0.03749730 -0.14014853  0.00927818       0.004
  -0.12320543 -0.08711936  0.00927818       0.002
  -0.10177840 -0.09469496  0.00927818       0.004
  -0.08035137 -0.10227055  0.00927818       0.004
  -0.05892433 -0.10984615  0.00927818       0.004
  -0.03749730 -0.11742174  0.00927818       0.004
  -0.10177840 -0.07196817  0.00927818       0.002
  -0.08035137 -0.07954376  0.00927818       0.004
  -0.05892433 -0.08711936  0.00927818       0.004
  -0.03749730 -0.09469496  0.00927818       0.004
  -0.08035137 -0.05681697  0.00927818       0.002
  -0.05892433 -0.06439257  0.00927818       0.004
  -0.03749730 -0.07196817  0.00927818       0.004
  -0.05892433 -0.04166578  0.00927818       0.002
  -0.03749730 -0.04924138  0.00927818       0.004
  -0.03749730 -0.02651459  0.00927818       0.002
   0.01607027  0.01136339  0.02783453       0.001
   0.03749730  0.00378780  0.02783453       0.002
   0.05892433 -0.00378780  0.02783453       0.002
   0.08035137 -0.01136339  0.02783453       0.002
   0.10177840 -0.01893899  0.02783453       0.002
   0.12320543 -0.02651459  0.02783453       0.002
  -0.15534597  0.07196817  0.02783453       0.002
  -0.13391894  0.06439257  0.02783453       0.002
  -0.11249191  0.05681697  0.02783453       0.002
  -0.09106488  0.04924138  0.02783453       0.002
  -0.06963785  0.04166578  0.02783453       0.002
  -0.04821082  0.03409018  0.02783453       0.002
   0.03749730  0.02651459  0.02783453       0.002
   0.05892433  0.01893899  0.02783453       0.004
   0.08035137  0.01136339  0.02783453       0.004
   0.10177840  0.00378780  0.02783453       0.004
   0.12320543 -0.00378780  0.02783453       0.004
  -0.15534597  0.09469496  0.02783453       0.004
  -0.13391894  0.08711936  0.02783453       0.004
  -0.11249191  0.07954376  0.02783453       0.004
  -0.09106488  0.07196817  0.02783453       0.004
  -0.06963785  0.06439257  0.02783453       0.004
  -0.04821082  0.05681697  0.02783453       0.004
   0.05892433  0.04166578  0.02783453       0.002
   0.08035137  0.03409018  0.02783453       0.004
   0.10177840  0.02651459  0.02783453       0.004
   0.12320543  0.01893899  0.02783453       0.004
  -0.15534597  0.11742174  0.02783453       0.004
  -0.13391894  0.10984615  0.02783453       0.004
  -0.11249191  0.10227055  0.02783453       0.004
  -0.09106488  0.09469496  0.02783453       0.004
  -0.06963785  0.08711936  0.02783453       0.004
  -0.04821082  0.07954376  0.02783453       0.004
   0.08035137  0.05681697  0.02783453       0.002
   0.10177840  0.04924138  0.02783453       0.004
   0.12320543  0.04166578  0.02783453       0.004
  -0.15534597  0.14014853  0.02783453       0.004
  -0.13391894  0.13257294  0.02783453       0.004
  -0.11249191  0.12499734  0.02783453       0.004
  -0.09106488  0.11742174  0.02783453       0.004
  -0.06963785  0.10984615  0.02783453       0.004
  -0.04821082  0.10227055  0.02783453       0.004
   0.10177840  0.07196817  0.02783453       0.002
   0.12320543  0.06439257  0.02783453       0.004
  -0.15534597  0.16287532  0.02783453       0.004
  -0.13391894  0.15529973  0.02783453       0.004
  -0.11249191  0.14772413  0.02783453       0.004
  -0.09106488  0.14014853  0.02783453       0.004
  -0.06963785  0.13257294  0.02783453       0.004
  -0.04821082  0.12499734  0.02783453       0.004
   0.12320543  0.08711936  0.02783453       0.002
  -0.15534597  0.18560211  0.02783453       0.004
  -0.13391894  0.17802652  0.02783453       0.004
  -0.11249191  0.17045092  0.02783453       0.004
  -0.09106488  0.16287532  0.02783453       0.004
  -0.06963785  0.15529973  0.02783453       0.004
  -0.04821082  0.14772413  0.02783453       0.004
  -0.15534597 -0.10984615  0.02783453       0.002
  -0.13391894 -0.11742174  0.02783453       0.004
  -0.11249191 -0.12499734  0.02783453       0.004
  -0.09106488 -0.13257294  0.02783453       0.004
  -0.06963785 -0.14014853  0.02783453       0.004
  -0.13391894 -0.09469496  0.02783453       0.002
  -0.11249191 -0.10227055  0.02783453       0.004
  -0.09106488 -0.10984615  0.02783453       0.004
  -0.06963785 -0.11742174  0.02783453       0.004
  -0.11249191 -0.07954376  0.02783453       0.002
  -0.09106488 -0.08711936  0.02783453       0.004
  -0.06963785 -0.09469496  0.02783453       0.004
  -0.09106488 -0.06439257  0.02783453       0.002
  -0.06963785 -0.07196817  0.02783453       0.004
  -0.06963785 -0.04924138  0.02783453       0.002
   0.02678379  0.01893899  0.04639089       0.001
   0.04821082  0.01136339  0.04639089       0.002
   0.06963785  0.00378780  0.04639089       0.002
   0.09106488 -0.00378780  0.04639089       0.002
   0.11249191 -0.01136339  0.04639089       0.002
  -0.16605949  0.08711936  0.04639089       0.002
  -0.14463246  0.07954376  0.04639089       0.002
  -0.12320543  0.07196817  0.04639089       0.002
  -0.10177840  0.06439257  0.04639089       0.002
  -0.08035137  0.05681697  0.04639089       0.002
   0.04821082  0.03409018  0.04639089       0.002
   0.06963785  0.02651459  0.04639089       0.004
   0.09106488  0.01893899  0.04639089       0.004
   0.11249191  0.01136339  0.04639089       0.004
  -0.16605949  0.10984615  0.04639089       0.004
  -0.14463246  0.10227055  0.04639089       0.004
  -0.12320543  0.09469496  0.04639089       0.004
  -0.10177840  0.08711936  0.04639089       0.004
  -0.08035137  0.07954376  0.04639089       0.004
   0.06963785  0.04924138  0.04639089       0.002
   0.09106488  0.04166578  0.04639089       0.004
   0.11249191  0.03409018  0.04639089       0.004
  -0.16605949  0.13257294  0.04639089       0.004
  -0.14463246  0.12499734  0.04639089       0.004
  -0.12320543  0.11742174  0.04639089       0.004
  -0.10177840  0.10984615  0.04639089       0.004
  -0.08035137  0.10227055  0.04639089       0.004
   0.09106488  0.06439257  0.04639089       0.002
   0.11249191  0.05681697  0.04639089       0.004
  -0.16605949  0.15529973  0.04639089       0.004
  -0.14463246  0.14772413  0.04639089       0.004
  -0.12320543  0.14014853  0.04639089       0.004
  -0.10177840  0.13257294  0.04639089       0.004
  -0.08035137  0.12499734  0.04639089       0.004
   0.11249191  0.07954376  0.04639089       0.002
  -0.16605949  0.17802652  0.04639089       0.004
  -0.14463246  0.17045092  0.04639089       0.004
  -0.12320543  0.16287532  0.04639089       0.004
  -0.10177840  0.15529973  0.04639089       0.004
  -0.08035137  0.14772413  0.04639089       0.004
  -0.16605949 -0.11742174  0.04639089       0.002
  -0.14463246 -0.12499734  0.04639089       0.004
  -0.12320543 -0.13257294  0.04639089       0.004
  -0.10177840 -0.14014853  0.04639089       0.004
  -0.14463246 -0.10227055  0.04639089       0.002
  -0.12320543 -0.10984615  0.04639089       0.004
  -0.10177840 -0.11742174  0.04639089       0.004
  -0.12320543 -0.08711936  0.04639089       0.002
  -0.10177840 -0.09469496  0.04639089       0.004
  -0.10177840 -0.07196817  0.04639089       0.002
   0.03749730  0.02651459  0.06494724       0.001
   0.05892433  0.01893899  0.06494724       0.002
   0.08035137  0.01136339  0.06494724       0.002
   0.10177840  0.00378780  0.06494724       0.002
  -0.17677300  0.10227055  0.06494724       0.002
  -0.15534597  0.09469496  0.06494724       0.002
  -0.13391894  0.08711936  0.06494724       0.002
  -0.11249191  0.07954376  0.06494724       0.002
   0.05892433  0.04166578  0.06494724       0.002
   0.08035137  0.03409018  0.06494724       0.004
   0.10177840  0.02651459  0.06494724       0.004
  -0.17677300  0.12499734  0.06494724       0.004
  -0.15534597  0.11742174  0.06494724       0.004
  -0.13391894  0.10984615  0.06494724       0.004
  -0.11249191  0.10227055  0.06494724       0.004
   0.08035137  0.05681697  0.06494724       0.002
   0.10177840  0.04924138  0.06494724       0.004
  -0.17677300  0.14772413  0.06494724       0.004
  -0.15534597  0.14014853  0.06494724       0.004
  -0.13391894  0.13257294  0.06494724       0.004
  -0.11249191  0.12499734  0.06494724       0.004
   0.10177840  0.07196817  0.06494724       0.002
  -0.17677300  0.17045092  0.06494724       0.004
  -0.15534597  0.16287532  0.06494724       0.004
  -0.13391894  0.15529973  0.06494724       0.004
  -0.11249191  0.14772413  0.06494724       0.004
  -0.17677300 -0.12499734  0.06494724       0.002
  -0.15534597 -0.13257294  0.06494724       0.004
  -0.13391894 -0.14014853  0.06494724       0.004
  -0.15534597 -0.10984615  0.06494724       0.002
  -0.13391894 -0.11742174  0.06494724       0.004
  -0.13391894 -0.09469496  0.06494724       0.002
   0.04821082  0.03409018  0.08350360       0.001
   0.06963785  0.02651459  0.08350360       0.002
   0.09106488  0.01893899  0.08350360       0.002
  -0.18748652  0.11742174  0.08350360       0.002
  -0.16605949  0.10984615  0.08350360       0.002
  -0.14463246  0.10227055  0.08350360       0.002
   0.06963785  0.04924138  0.08350360       0.002
   0.09106488  0.04166578  0.08350360       0.004
  -0.18748652  0.14014853  0.08350360       0.004
  -0.16605949  0.13257294  0.08350360       0.004
  -0.14463246  0.12499734  0.08350360       0.004
   0.09106488  0.06439257  0.08350360       0.002
  -0.18748652  0.16287532  0.08350360       0.004
  -0.16605949  0.15529973  0.08350360       0.004
  -0.14463246  0.14772413  0.08350360       0.004
  -0.18748652 -0.13257294  0.08350360       0.002
  -0.16605949 -0.14014853  0.08350360       0.004
  -0.16605949 -0.11742174  0.08350360       0.002
   0.05892433  0.04166578  0.10205996       0.001
   0.08035137  0.03409018  0.10205996       0.002
  -0.19820004  0.13257294  0.10205996       0.002
  -0.17677300  0.12499734  0.10205996       0.002
   0.08035137  0.05681697  0.10205996       0.002
  -0.19820004  0.15529973  0.10205996       0.004
  -0.17677300  0.14772413  0.10205996       0.004
  -0.19820004 -0.14014853  0.10205996       0.002
   0.06963785  0.04924138  0.12061631       0.001
  -0.20891355  0.14772413  0.12061631       0.002
 
 k-points in reciprocal lattice and weights: Automatic                               
   0.03571429  0.03571429  0.03571429       0.001
   0.10714286  0.03571429  0.03571429       0.002
   0.17857143  0.03571429  0.03571429       0.002
   0.25000000  0.03571429  0.03571429       0.002
   0.32142857  0.03571429  0.03571429       0.002
   0.39285714  0.03571429  0.03571429       0.002
   0.46428571  0.03571429  0.03571429       0.002
  -0.46428571  0.03571429  0.03571429       0.002
  -0.39285714  0.03571429  0.03571429       0.002
  -0.32142857  0.03571429  0.03571429       0.002
  -0.25000000  0.03571429  0.03571429       0.002
  -0.17857143  0.03571429  0.03571429       0.002
  -0.10714286  0.03571429  0.03571429       0.002
  -0.03571429  0.03571429  0.03571429       0.002
   0.10714286  0.10714286  0.03571429       0.002
   0.17857143  0.10714286  0.03571429       0.004
   0.25000000  0.10714286  0.03571429       0.004
   0.32142857  0.10714286  0.03571429       0.004
   0.39285714  0.10714286  0.03571429       0.004
   0.46428571  0.10714286  0.03571429       0.004
  -0.46428571  0.10714286  0.03571429       0.004
  -0.39285714  0.10714286  0.03571429       0.004
  -0.32142857  0.10714286  0.03571429       0.004
  -0.25000000  0.10714286  0.03571429       0.004
  -0.17857143  0.10714286  0.03571429       0.004
  -0.10714286  0.10714286  0.03571429       0.004
  -0.03571429  0.10714286  0.03571429       0.004
   0.17857143  0.17857143  0.03571429       0.002
   0.25000000  0.17857143  0.03571429       0.004
   0.32142857  0.17857143  0.03571429       0.004
   0.39285714  0.17857143  0.03571429       0.004
   0.46428571  0.17857143  0.03571429       0.004
  -0.46428571  0.17857143  0.03571429       0.004
  -0.39285714  0.17857143  0.03571429       0.004
  -0.32142857  0.17857143  0.03571429       0.004
  -0.25000000  0.17857143  0.03571429       0.004
  -0.17857143  0.17857143  0.03571429       0.004
  -0.10714286  0.17857143  0.03571429       0.004
  -0.03571429  0.17857143  0.03571429       0.004
   0.25000000  0.25000000  0.03571429       0.002
   0.32142857  0.25000000  0.03571429       0.004
   0.39285714  0.25000000  0.03571429       0.004
   0.46428571  0.25000000  0.03571429       0.004
  -0.46428571  0.25000000  0.03571429       0.004
  -0.39285714  0.25000000  0.03571429       0.004
  -0.32142857  0.25000000  0.03571429       0.004
  -0.25000000  0.25000000  0.03571429       0.004
  -0.17857143  0.25000000  0.03571429       0.004
  -0.10714286  0.25000000  0.03571429       0.004
  -0.03571429  0.25000000  0.03571429       0.004
   0.32142857  0.32142857  0.03571429       0.002
   0.39285714  0.32142857  0.03571429       0.004
   0.46428571  0.32142857  0.03571429       0.004
  -0.46428571  0.32142857  0.03571429       0.004
  -0.39285714  0.32142857  0.03571429       0.004
  -0.32142857  0.32142857  0.03571429       0.004
  -0.25000000  0.32142857  0.03571429       0.004
  -0.17857143  0.32142857  0.03571429       0.004
  -0.10714286  0.32142857  0.03571429       0.004
  -0.03571429  0.32142857  0.03571429       0.004
   0.39285714  0.39285714  0.03571429       0.002
   0.46428571  0.39285714  0.03571429       0.004
  -0.46428571  0.39285714  0.03571429       0.004
  -0.39285714  0.39285714  0.03571429       0.004
  -0.32142857  0.39285714  0.03571429       0.004
  -0.25000000  0.39285714  0.03571429       0.004
  -0.17857143  0.39285714  0.03571429       0.004
  -0.10714286  0.39285714  0.03571429       0.004
  -0.03571429  0.39285714  0.03571429       0.004
   0.46428571  0.46428571  0.03571429       0.002
  -0.46428571  0.46428571  0.03571429       0.004
  -0.39285714  0.46428571  0.03571429       0.004
  -0.32142857  0.46428571  0.03571429       0.004
  -0.25000000  0.46428571  0.03571429       0.004
  -0.17857143  0.46428571  0.03571429       0.004
  -0.10714286  0.46428571  0.03571429       0.004
  -0.03571429  0.46428571  0.03571429       0.004
  -0.46428571 -0.46428571  0.03571429       0.002
  -0.39285714 -0.46428571  0.03571429       0.004
  -0.32142857 -0.46428571  0.03571429       0.004
  -0.25000000 -0.46428571  0.03571429       0.004
  -0.17857143 -0.46428571  0.03571429       0.004
  -0.10714286 -0.46428571  0.03571429       0.004
  -0.39285714 -0.39285714  0.03571429       0.002
  -0.32142857 -0.39285714  0.03571429       0.004
  -0.25000000 -0.39285714  0.03571429       0.004
  -0.17857143 -0.39285714  0.03571429       0.004
  -0.10714286 -0.39285714  0.03571429       0.004
  -0.32142857 -0.32142857  0.03571429       0.002
  -0.25000000 -0.32142857  0.03571429       0.004
  -0.17857143 -0.32142857  0.03571429       0.004
  -0.10714286 -0.32142857  0.03571429       0.004
  -0.25000000 -0.25000000  0.03571429       0.002
  -0.17857143 -0.25000000  0.03571429       0.004
  -0.10714286 -0.25000000  0.03571429       0.004
  -0.17857143 -0.17857143  0.03571429       0.002
  -0.10714286 -0.17857143  0.03571429       0.004
  -0.10714286 -0.10714286  0.03571429       0.002
   0.10714286  0.10714286  0.10714286       0.001
   0.17857143  0.10714286  0.10714286       0.002
   0.25000000  0.10714286  0.10714286       0.002
   0.32142857  0.10714286  0.10714286       0.002
   0.39285714  0.10714286  0.10714286       0.002
   0.46428571  0.10714286  0.10714286       0.002
  -0.46428571  0.10714286  0.10714286       0.002
  -0.39285714  0.10714286  0.10714286       0.002
  -0.32142857  0.10714286  0.10714286       0.002
  -0.25000000  0.10714286  0.10714286       0.002
  -0.17857143  0.10714286  0.10714286       0.002
  -0.10714286  0.10714286  0.10714286       0.002
   0.17857143  0.17857143  0.10714286       0.002
   0.25000000  0.17857143  0.10714286       0.004
   0.32142857  0.17857143  0.10714286       0.004
   0.39285714  0.17857143  0.10714286       0.004
   0.46428571  0.17857143  0.10714286       0.004
  -0.46428571  0.17857143  0.10714286       0.004
  -0.39285714  0.17857143  0.10714286       0.004
  -0.32142857  0.17857143  0.10714286       0.004
  -0.25000000  0.17857143  0.10714286       0.004
  -0.17857143  0.17857143  0.10714286       0.004
  -0.10714286  0.17857143  0.10714286       0.004
   0.25000000  0.25000000  0.10714286       0.002
   0.32142857  0.25000000  0.10714286       0.004
   0.39285714  0.25000000  0.10714286       0.004
   0.46428571  0.25000000  0.10714286       0.004
  -0.46428571  0.25000000  0.10714286       0.004
  -0.39285714  0.25000000  0.10714286       0.004
  -0.32142857  0.25000000  0.10714286       0.004
  -0.25000000  0.25000000  0.10714286       0.004
  -0.17857143  0.25000000  0.10714286       0.004
  -0.10714286  0.25000000  0.10714286       0.004
   0.32142857  0.32142857  0.10714286       0.002
   0.39285714  0.32142857  0.10714286       0.004
   0.46428571  0.32142857  0.10714286       0.004
  -0.46428571  0.32142857  0.10714286       0.004
  -0.39285714  0.32142857  0.10714286       0.004
  -0.32142857  0.32142857  0.10714286       0.004
  -0.25000000  0.32142857  0.10714286       0.004
  -0.17857143  0.32142857  0.10714286       0.004
  -0.10714286  0.32142857  0.10714286       0.004
   0.39285714  0.39285714  0.10714286       0.002
   0.46428571  0.39285714  0.10714286       0.004
  -0.46428571  0.39285714  0.10714286       0.004
  -0.39285714  0.39285714  0.10714286       0.004
  -0.32142857  0.39285714  0.10714286       0.004
  -0.25000000  0.39285714  0.10714286       0.004
  -0.17857143  0.39285714  0.10714286       0.004
  -0.10714286  0.39285714  0.10714286       0.004
   0.46428571  0.46428571  0.10714286       0.002
  -0.46428571  0.46428571  0.10714286       0.004
  -0.39285714  0.46428571  0.10714286       0.004
  -0.32142857  0.46428571  0.10714286       0.004
  -0.25000000  0.46428571  0.10714286       0.004
  -0.17857143  0.46428571  0.10714286       0.004
  -0.10714286  0.46428571  0.10714286       0.004
  -0.46428571 -0.46428571  0.10714286       0.002
  -0.39285714 -0.46428571  0.10714286       0.004
  -0.32142857 -0.46428571  0.10714286       0.004
  -0.25000000 -0.46428571  0.10714286       0.004
  -0.17857143 -0.46428571  0.10714286       0.004
  -0.39285714 -0.39285714  0.10714286       0.002
  -0.32142857 -0.39285714  0.10714286       0.004
  -0.25000000 -0.39285714  0.10714286       0.004
  -0.17857143 -0.39285714  0.10714286       0.004
  -0.32142857 -0.32142857  0.10714286       0.002
  -0.25000000 -0.32142857  0.10714286       0.004
  -0.17857143 -0.32142857  0.10714286       0.004
  -0.25000000 -0.25000000  0.10714286       0.002
  -0.17857143 -0.25000000  0.10714286       0.004
  -0.17857143 -0.17857143  0.10714286       0.002
   0.17857143  0.17857143  0.17857143       0.001
   0.25000000  0.17857143  0.17857143       0.002
   0.32142857  0.17857143  0.17857143       0.002
   0.39285714  0.17857143  0.17857143       0.002
   0.46428571  0.17857143  0.17857143       0.002
  -0.46428571  0.17857143  0.17857143       0.002
  -0.39285714  0.17857143  0.17857143       0.002
  -0.32142857  0.17857143  0.17857143       0.002
  -0.25000000  0.17857143  0.17857143       0.002
  -0.17857143  0.17857143  0.17857143       0.002
   0.25000000  0.25000000  0.17857143       0.002
   0.32142857  0.25000000  0.17857143       0.004
   0.39285714  0.25000000  0.17857143       0.004
   0.46428571  0.25000000  0.17857143       0.004
  -0.46428571  0.25000000  0.17857143       0.004
  -0.39285714  0.25000000  0.17857143       0.004
  -0.32142857  0.25000000  0.17857143       0.004
  -0.25000000  0.25000000  0.17857143       0.004
  -0.17857143  0.25000000  0.17857143       0.004
   0.32142857  0.32142857  0.17857143       0.002
   0.39285714  0.32142857  0.17857143       0.004
   0.46428571  0.32142857  0.17857143       0.004
  -0.46428571  0.32142857  0.17857143       0.004
  -0.39285714  0.32142857  0.17857143       0.004
  -0.32142857  0.32142857  0.17857143       0.004
  -0.25000000  0.32142857  0.17857143       0.004
  -0.17857143  0.32142857  0.17857143       0.004
   0.39285714  0.39285714  0.17857143       0.002
   0.46428571  0.39285714  0.17857143       0.004
  -0.46428571  0.39285714  0.17857143       0.004
  -0.39285714  0.39285714  0.17857143       0.004
  -0.32142857  0.39285714  0.17857143       0.004
  -0.25000000  0.39285714  0.17857143       0.004
  -0.17857143  0.39285714  0.17857143       0.004
   0.46428571  0.46428571  0.17857143       0.002
  -0.46428571  0.46428571  0.17857143       0.004
  -0.39285714  0.46428571  0.17857143       0.004
  -0.32142857  0.46428571  0.17857143       0.004
  -0.25000000  0.46428571  0.17857143       0.004
  -0.17857143  0.46428571  0.17857143       0.004
  -0.46428571 -0.46428571  0.17857143       0.002
  -0.39285714 -0.46428571  0.17857143       0.004
  -0.32142857 -0.46428571  0.17857143       0.004
  -0.25000000 -0.46428571  0.17857143       0.004
  -0.39285714 -0.39285714  0.17857143       0.002
  -0.32142857 -0.39285714  0.17857143       0.004
  -0.25000000 -0.39285714  0.17857143       0.004
  -0.32142857 -0.32142857  0.17857143       0.002
  -0.25000000 -0.32142857  0.17857143       0.004
  -0.25000000 -0.25000000  0.17857143       0.002
   0.25000000  0.25000000  0.25000000       0.001
   0.32142857  0.25000000  0.25000000       0.002
   0.39285714  0.25000000  0.25000000       0.002
   0.46428571  0.25000000  0.25000000       0.002
  -0.46428571  0.25000000  0.25000000       0.002
  -0.39285714  0.25000000  0.25000000       0.002
  -0.32142857  0.25000000  0.25000000       0.002
  -0.25000000  0.25000000  0.25000000       0.002
   0.32142857  0.32142857  0.25000000       0.002
   0.39285714  0.32142857  0.25000000       0.004
   0.46428571  0.32142857  0.25000000       0.004
  -0.46428571  0.32142857  0.25000000       0.004
  -0.39285714  0.32142857  0.25000000       0.004
  -0.32142857  0.32142857  0.25000000       0.004
  -0.25000000  0.32142857  0.25000000       0.004
   0.39285714  0.39285714  0.25000000       0.002
   0.46428571  0.39285714  0.25000000       0.004
  -0.46428571  0.39285714  0.25000000       0.004
  -0.39285714  0.39285714  0.25000000       0.004
  -0.32142857  0.39285714  0.25000000       0.004
  -0.25000000  0.39285714  0.25000000       0.004
   0.46428571  0.46428571  0.25000000       0.002
  -0.46428571  0.46428571  0.25000000       0.004
  -0.39285714  0.46428571  0.25000000       0.004
  -0.32142857  0.46428571  0.25000000       0.004
  -0.25000000  0.46428571  0.25000000       0.004
  -0.46428571 -0.46428571  0.25000000       0.002
  -0.39285714 -0.46428571  0.25000000       0.004
  -0.32142857 -0.46428571  0.25000000       0.004
  -0.39285714 -0.39285714  0.25000000       0.002
  -0.32142857 -0.39285714  0.25000000       0.004
  -0.32142857 -0.32142857  0.25000000       0.002
   0.32142857  0.32142857  0.32142857       0.001
   0.39285714  0.32142857  0.32142857       0.002
   0.46428571  0.32142857  0.32142857       0.002
  -0.46428571  0.32142857  0.32142857       0.002
  -0.39285714  0.32142857  0.32142857       0.002
  -0.32142857  0.32142857  0.32142857       0.002
   0.39285714  0.39285714  0.32142857       0.002
   0.46428571  0.39285714  0.32142857       0.004
  -0.46428571  0.39285714  0.32142857       0.004
  -0.39285714  0.39285714  0.32142857       0.004
  -0.32142857  0.39285714  0.32142857       0.004
   0.46428571  0.46428571  0.32142857       0.002
  -0.46428571  0.46428571  0.32142857       0.004
  -0.39285714  0.46428571  0.32142857       0.004
  -0.32142857  0.46428571  0.32142857       0.004
  -0.46428571 -0.46428571  0.32142857       0.002
  -0.39285714 -0.46428571  0.32142857       0.004
  -0.39285714 -0.39285714  0.32142857       0.002
   0.39285714  0.39285714  0.39285714       0.001
   0.46428571  0.39285714  0.39285714       0.002
  -0.46428571  0.39285714  0.39285714       0.002
  -0.39285714  0.39285714  0.39285714       0.002
   0.46428571  0.46428571  0.39285714       0.002
  -0.46428571  0.46428571  0.39285714       0.004
  -0.39285714  0.46428571  0.39285714       0.004
  -0.46428571 -0.46428571  0.39285714       0.002
   0.46428571  0.46428571  0.46428571       0.001
  -0.46428571  0.46428571  0.46428571       0.002
 
 position of ions in fractional coordinates (direct lattice) 
   0.87500000  0.87500000  0.87500000
   0.12500000  0.12500000  0.12500000
 
 position of ions in cartesian coordinates  (Angst):
   3.88916850  2.75005850  6.73623650
   0.55559550  0.39286550  0.96231950
 


--------------------------------------------------------------------------------------------------------


 k-point   1 :   0.0357 0.0357 0.0357  plane waves:     606
 k-point   2 :   0.1071 0.0357 0.0357  plane waves:     591
 k-point   3 :   0.1786 0.0357 0.0357  plane waves:     588
 k-point   4 :   0.2500 0.0357 0.0357  plane waves:     591
 k-point   5 :   0.3214 0.0357 0.0357  plane waves:     600
 k-point   6 :   0.3929 0.0357 0.0357  plane waves:     601
 k-point   7 :   0.4643 0.0357 0.0357  plane waves:     599
 k-point   8 :  -0.4643 0.0357 0.0357  plane waves:     597
 k-point   9 :  -0.3929 0.0357 0.0357  plane waves:     599
 k-point  10 :  -0.3214 0.0357 0.0357  plane waves:     602
 k-point  11 :  -0.2500 0.0357 0.0357  plane waves:     600
 k-point  12 :  -0.1786 0.0357 0.0357  plane waves:     585
 k-point  13 :  -0.1071 0.0357 0.0357  plane waves:     584
 k-point  14 :  -0.0357 0.0357 0.0357  plane waves:     596
 k-point  15 :   0.1071 0.1071 0.0357  plane waves:     590
 k-point  16 :   0.1786 0.1071 0.0357  plane waves:     589
 k-point  17 :   0.2500 0.1071 0.0357  plane waves:     590
 k-point  18 :   0.3214 0.1071 0.0357  plane waves:     596
 k-point  19 :   0.3929 0.1071 0.0357  plane waves:     601
 k-point  20 :   0.4643 0.1071 0.0357  plane waves:     599
 k-point  21 :  -0.4643 0.1071 0.0357  plane waves:     597
 k-point  22 :  -0.3929 0.1071 0.0357  plane waves:     598
 k-point  23 :  -0.3214 0.1071 0.0357  plane waves:     602
 k-point  24 :  -0.2500 0.1071 0.0357  plane waves:     597
 k-point  25 :  -0.1786 0.1071 0.0357  plane waves:     594
 k-point  26 :  -0.1071 0.1071 0.0357  plane waves:     590
 k-point  27 :  -0.0357 0.1071 0.0357  plane waves:     587
 k-point  28 :   0.1786 0.1786 0.0357  plane waves:     590
 k-point  29 :   0.2500 0.1786 0.0357  plane waves:     588
 k-point  30 :   0.3214 0.1786 0.0357  plane waves:     598
 k-point  31 :   0.3929 0.1786 0.0357  plane waves:     603
 k-point  32 :   0.4643 0.1786 0.0357  plane waves:     600
 k-point  33 :  -0.4643 0.1786 0.0357  plane waves:     598
 k-point  34 :  -0.3929 0.1786 0.0357  plane waves:     597
 k-point  35 :  -0.3214 0.1786 0.0357  plane waves:     598
 k-point  36 :  -0.2500 0.1786 0.0357  plane waves:     603
 k-point  37 :  -0.1786 0.1786 0.0357  plane waves:     598
 k-point  38 :  -0.1071 0.1786 0.0357  plane waves:     595
 k-point  39 :  -0.0357 0.1786 0.0357  plane waves:     591
 k-point  40 :   0.2500 0.2500 0.0357  plane waves:     588
 k-point  41 :   0.3214 0.2500 0.0357  plane waves:     598
 k-point  42 :   0.3929 0.2500 0.0357  plane waves:     603
 k-point  43 :   0.4643 0.2500 0.0357  plane waves:     604
 k-point  44 :  -0.4643 0.2500 0.0357  plane waves:     601
 k-point  45 :  -0.3929 0.2500 0.0357  plane waves:     598
 k-point  46 :  -0.3214 0.2500 0.0357  plane waves:     597
 k-point  47 :  -0.2500 0.2500 0.0357  plane waves:     601
 k-point  48 :  -0.1786 0.2500 0.0357  plane waves:     600
 k-point  49 :  -0.1071 0.2500 0.0357  plane waves:     597
 k-point  50 :  -0.0357 0.2500 0.0357  plane waves:     593
 k-point  51 :   0.3214 0.3214 0.0357  plane waves:     599
 k-point  52 :   0.3929 0.3214 0.0357  plane waves:     599
 k-point  53 :   0.4643 0.3214 0.0357  plane waves:     598
 k-point  54 :  -0.4643 0.3214 0.0357  plane waves:     601
 k-point  55 :  -0.3929 0.3214 0.0357  plane waves:     599
 k-point  56 :  -0.3214 0.3214 0.0357  plane waves:     599
 k-point  57 :  -0.2500 0.3214 0.0357  plane waves:     601
 k-point  58 :  -0.1786 0.3214 0.0357  plane waves:     602
 k-point  59 :  -0.1071 0.3214 0.0357  plane waves:     598
 k-point  60 :  -0.0357 0.3214 0.0357  plane waves:     602
 k-point  61 :   0.3929 0.3929 0.0357  plane waves:     606
 k-point  62 :   0.4643 0.3929 0.0357  plane waves:     608
 k-point  63 :  -0.4643 0.3929 0.0357  plane waves:     606
 k-point  64 :  -0.3929 0.3929 0.0357  plane waves:     603
 k-point  65 :  -0.3214 0.3929 0.0357  plane waves:     603
 k-point  66 :  -0.2500 0.3929 0.0357  plane waves:     597
 k-point  67 :  -0.1786 0.3929 0.0357  plane waves:     597
 k-point  68 :  -0.1071 0.3929 0.0357  plane waves:     598
 k-point  69 :  -0.0357 0.3929 0.0357  plane waves:     600
 k-point  70 :   0.4643 0.4643 0.0357  plane waves:     610
 k-point  71 :  -0.4643 0.4643 0.0357  plane waves:     607
 k-point  72 :  -0.3929 0.4643 0.0357  plane waves:     607
 k-point  73 :  -0.3214 0.4643 0.0357  plane waves:     605
 k-point  74 :  -0.2500 0.4643 0.0357  plane waves:     603
 k-point  75 :  -0.1786 0.4643 0.0357  plane waves:     601
 k-point  76 :  -0.1071 0.4643 0.0357  plane waves:     596
 k-point  77 :  -0.0357 0.4643 0.0357  plane waves:     598
 k-point  78 :  -0.4643-0.4643 0.0357  plane waves:     604
 k-point  79 :  -0.3929-0.4643 0.0357  plane waves:     608
 k-point  80 :  -0.3214-0.4643 0.0357  plane waves:     601
 k-point  81 :  -0.2500-0.4643 0.0357  plane waves:     604
 k-point  82 :  -0.1786-0.4643 0.0357  plane waves:     600
 k-point  83 :  -0.1071-0.4643 0.0357  plane waves:     597
 k-point  84 :  -0.3929-0.3929 0.0357  plane waves:     609
 k-point  85 :  -0.3214-0.3929 0.0357  plane waves:     603
 k-point  86 :  -0.2500-0.3929 0.0357  plane waves:     603
 k-point  87 :  -0.1786-0.3929 0.0357  plane waves:     603
 k-point  88 :  -0.1071-0.3929 0.0357  plane waves:     596
 k-point  89 :  -0.3214-0.3214 0.0357  plane waves:     601
 k-point  90 :  -0.2500-0.3214 0.0357  plane waves:     600
 k-point  91 :  -0.1786-0.3214 0.0357  plane waves:     601
 k-point  92 :  -0.1071-0.3214 0.0357  plane waves:     599
 k-point  93 :  -0.2500-0.2500 0.0357  plane waves:     590
 k-point  94 :  -0.1786-0.2500 0.0357  plane waves:     592
 k-point  95 :  -0.1071-0.2500 0.0357  plane waves:     595
 k-point  96 :  -0.1786-0.1786 0.0357  plane waves:     586
 k-point  97 :  -0.1071-0.1786 0.0357  plane waves:     586
 k-point  98 :  -0.1071-0.1071 0.0357  plane waves:     591
 k-point  99 :   0.1071 0.1071 0.1071  plane waves:     585
 k-point 100 :   0.1786 0.1071 0.1071  plane waves:     591
 k-point 101 :   0.2500 0.1071 0.1071  plane waves:     590
 k-point 102 :   0.3214 0.1071 0.1071  plane waves:     596
 k-point 103 :   0.3929 0.1071 0.1071  plane waves:     600
 k-point 104 :   0.4643 0.1071 0.1071  plane waves:     600
 k-point 105 :  -0.4643 0.1071 0.1071  plane waves:     599
 k-point 106 :  -0.3929 0.1071 0.1071  plane waves:     598
 k-point 107 :  -0.3214 0.1071 0.1071  plane waves:     598
 k-point 108 :  -0.2500 0.1071 0.1071  plane waves:     601
 k-point 109 :  -0.1786 0.1071 0.1071  plane waves:     598
 k-point 110 :  -0.1071 0.1071 0.1071  plane waves:     588
 k-point 111 :   0.1786 0.1786 0.1071  plane waves:     589
 k-point 112 :   0.2500 0.1786 0.1071  plane waves:     592
 k-point 113 :   0.3214 0.1786 0.1071  plane waves:     598
 k-point 114 :   0.3929 0.1786 0.1071  plane waves:     601
 k-point 115 :   0.4643 0.1786 0.1071  plane waves:     597
 k-point 116 :  -0.4643 0.1786 0.1071  plane waves:     600
 k-point 117 :  -0.3929 0.1786 0.1071  plane waves:     597
 k-point 118 :  -0.3214 0.1786 0.1071  plane waves:     599
 k-point 119 :  -0.2500 0.1786 0.1071  plane waves:     601
 k-point 120 :  -0.1786 0.1786 0.1071  plane waves:     600
 k-point 121 :  -0.1071 0.1786 0.1071  plane waves:     590
 k-point 122 :   0.2500 0.2500 0.1071  plane waves:     592
 k-point 123 :   0.3214 0.2500 0.1071  plane waves:     596
 k-point 124 :   0.3929 0.2500 0.1071  plane waves:     601
 k-point 125 :   0.4643 0.2500 0.1071  plane waves:     600
[...]
      8      11.6755      0.00000

 k-point   246 :      -0.2500    0.4643    0.2500
  band No.  band energies     occupation 
      1      -2.2038      2.00000
      2      -1.7474      2.00000
      3       1.7184      2.00000
      4       2.0576      2.00000
      5       9.4453      0.00000
      6       9.9269      0.00000
      7      10.5442      0.00000
      8      11.0615      0.00000

 k-point   247 :      -0.4643   -0.4643    0.2500
  band No.  band energies     occupation 
      1      -3.1699      2.00000
      2      -1.0005      2.00000
      3       1.8098      2.00000
      4       3.3568      2.00000
      5       7.0182      0.00000
      6       9.9008      0.00000
      7      11.9343      0.00000
      8      11.9947      0.00000

 k-point   248 :      -0.3929   -0.4643    0.2500
  band No.  band energies     occupation 
      1      -2.7898      2.00000
      2      -1.2996      2.00000
      3       1.5853      2.00000
      4       3.0432      2.00000
      5       7.3156      0.00000
      6       9.8264      0.00000
      7      11.6380      0.00000
      8      13.3382      0.00000

 k-point   249 :      -0.3214   -0.4643    0.2500
  band No.  band energies     occupation 
      1      -2.4027      2.00000
      2      -1.5985      2.00000
      3       1.5739      2.00000
      4       2.4811      2.00000
      5       8.2358      0.00000
      6       9.8612      0.00000
      7      11.3074      0.00000
      8      11.9491      0.00000

 k-point   250 :      -0.3929   -0.3929    0.2500
  band No.  band energies     occupation 
      1      -2.5799      2.00000
      2      -1.5074      2.00000
      3       1.4355      2.00000
      4       3.2503      2.00000
      5       6.8647      0.00000
      6       9.7449      0.00000
      7      12.9283      0.00000
      8      13.2786      0.00000

 k-point   251 :      -0.3214   -0.3929    0.2500
  band No.  band energies     occupation 
      1      -2.5350      2.00000
      2      -1.5265      2.00000
      3       1.4709      2.00000
      4       2.9939      2.00000
      5       7.2678      0.00000
      6       9.7760      0.00000
      7      12.1912      0.00000
      8      12.9419      0.00000

 k-point   252 :      -0.3214   -0.3214    0.2500
  band No.  band energies     occupation 
      1      -2.8287      2.00000
      2      -1.2886      2.00000
      3       1.5631      2.00000
      4       3.2859      2.00000
      5       6.9164      0.00000
      6       9.7966      0.00000
      7      12.4982      0.00000
      8      12.6051      0.00000

 k-point   253 :       0.3214    0.3214    0.3214
  band No.  band energies     occupation 
      1      -4.9325      2.00000
      2       0.5364      2.00000
      3       4.6688      2.00000
      4       4.6688      2.00000
      5       7.3515      0.00000
      6       9.1397      0.00000
      7       9.1397      0.00000
      8      13.3393      0.00000

 k-point   254 :       0.3929    0.3214    0.3214
  band No.  band energies     occupation 
      1      -4.7010      2.00000
      2       0.1942      2.00000
      3       3.9810      2.00000
      4       4.7055      2.00000
      5       7.6954      0.00000
      6       9.1247      0.00000
      7       9.2387      0.00000
      8      12.9459      0.00000

 k-point   255 :       0.4643    0.3214    0.3214
  band No.  band energies     occupation 
      1      -4.3568      2.00000
      2      -0.0857      2.00000
      3       2.9670      2.00000
      4       4.5014      2.00000
      5       8.1123      0.00000
      6       9.4738      0.00000
      7       9.5793      0.00000
      8      12.6976      0.00000

 k-point   256 :      -0.4643    0.3214    0.3214
  band No.  band energies     occupation 
      1      -3.9151      2.00000
      2      -0.3510      2.00000
      3       2.0468      2.00000
      4       4.1664      2.00000
      5       7.9032      0.00000
      6      10.3798      0.00000
      7      10.4059      0.00000
      8      12.5583      0.00000

 k-point   257 :      -0.3929    0.3214    0.3214
  band No.  band energies     occupation 
      1      -3.4087      2.00000
      2      -0.7107      2.00000
      3       1.4596      2.00000
      4       3.8135      2.00000
      5       7.5114      0.00000
      6      11.3382      0.00000
      7      11.5692      0.00000
      8      12.5213      0.00000

 k-point   258 :      -0.3214    0.3214    0.3214
  band No.  band energies     occupation 
      1      -2.9354      2.00000
      2      -1.1632      2.00000
      3       1.3280      2.00000
      4       3.5088      2.00000
      5       7.1630      0.00000
      6      11.1806      0.00000
      7      12.1006      0.00000
      8      12.5041      0.00000

 k-point   259 :       0.3929    0.3929    0.3214
  band No.  band energies     occupation 
      1      -4.5227      2.00000
      2      -0.1461      2.00000
      3       4.2477      2.00000
      4       4.3086      2.00000
      5       7.6423      0.00000
      6       8.8933      0.00000
      7       9.4657      0.00000
      8      12.5490      0.00000

 k-point   260 :       0.4643    0.3929    0.3214
  band No.  band energies     occupation 
      1      -4.2340      2.00000
      2      -0.4119      2.00000
      3       3.3836      2.00000
      4       4.2610      2.00000
      5       8.0618      0.00000
      6       8.8699      0.00000
      7       9.8621      0.00000
      8      12.2721      0.00000

 k-point   261 :      -0.4643    0.3929    0.3214
  band No.  band energies     occupation 
      1      -3.8475      2.00000
      2      -0.6180      2.00000
      3       2.4479      2.00000
      4       3.9725      2.00000
      5       8.3093      0.00000
      6       9.0972      0.00000
      7      10.7589      0.00000
      8      12.1353      0.00000

 k-point   262 :      -0.3929    0.3929    0.3214
  band No.  band energies     occupation 
      1      -3.3846      2.00000
      2      -0.8385      2.00000
      3       1.7064      2.00000
      4       3.5995      2.00000
      5       7.9435      0.00000
      6      10.0915      0.00000
      7      11.8600      0.00000
      8      12.1497      0.00000

 k-point   263 :      -0.3214    0.3929    0.3214
  band No.  band energies     occupation 
      1      -2.8897      2.00000
      2      -1.1837      2.00000
      3       1.3631      2.00000
      4       3.2553      2.00000
      5       7.5616      0.00000
      6      11.0382      0.00000
      7      11.5692      0.00000
      8      12.2081      0.00000

 k-point   264 :       0.4643    0.4643    0.3214
  band No.  band energies     occupation 
      1      -4.0078      2.00000
      2      -0.6706      2.00000
      3       3.2777      2.00000
      4       3.9655      2.00000
      5       7.7513      0.00000
      6       9.3589      0.00000
      7      10.0312      0.00000
      8      11.9383      0.00000

 k-point   265 :      -0.4643    0.4643    0.3214
  band No.  band energies     occupation 
      1      -3.6909      2.00000
      2      -0.8522      2.00000
      3       2.6184      2.00000
      4       3.7224      2.00000
      5       7.9712      0.00000
      6       9.3443      0.00000
      7      10.8780      0.00000
      8      11.7618      0.00000

 k-point   266 :      -0.3929    0.4643    0.3214
  band No.  band energies     occupation 
      1      -3.3014      2.00000
      2      -0.9986      2.00000
      3       1.9679      2.00000
      4       3.2858      2.00000
      5       8.7579      0.00000
      6       8.9594      0.00000
      7      11.6898      0.00000
      8      12.1613      0.00000

 k-point   267 :      -0.3214    0.4643    0.3214
  band No.  band energies     occupation 
      1      -2.8616      2.00000
      2      -1.2172      2.00000
      3       1.5694      2.00000
      4       2.8352      2.00000
      5       8.5591      0.00000
      6       9.8704      0.00000
      7      11.4109      0.00000
      8      11.8704      0.00000

 k-point   268 :      -0.4643   -0.4643    0.3214
  band No.  band energies     occupation 
      1      -3.4609      2.00000
      2      -1.0093      2.00000
      3       2.2704      2.00000
      4       3.6984      2.00000
      5       7.4416      0.00000
      6      10.4733      0.00000
      7      10.8052      0.00000
      8      11.5539      0.00000

 k-point   269 :      -0.3929   -0.4643    0.3214
  band No.  band energies     occupation 
      1      -3.1780      2.00000
      2      -1.1052      2.00000
      3       1.8268      2.00000
      4       3.3904      2.00000
      5       7.6965      0.00000
      6      10.2575      0.00000
      7      11.4578      0.00000
      8      12.0654      0.00000

 k-point   270 :      -0.3929   -0.3929    0.3214
  band No.  band energies     occupation 
      1      -3.0356      2.00000
      2      -1.1490      2.00000
      3       1.5110      2.00000
      4       3.5410      2.00000
      5       7.2118      0.00000
      6      11.1893      0.00000
      7      11.7161      0.00000
      8      11.8989      0.00000

 k-point   271 :       0.3929    0.3929    0.3929
  band No.  band energies     occupation 
      1      -4.4053      2.00000
      2      -0.4810      2.00000
      3       4.5254      2.00000
      4       4.5254      2.00000
      5       7.1874      0.00000
      6       9.0553      0.00000
      7       9.0553      0.00000
      8      13.4420      0.00000

 k-point   272 :       0.4643    0.3929    0.3929
  band No.  band energies     occupation 
      1      -4.1828      2.00000
      2      -0.7281      2.00000
      3       3.9220      2.00000
      4       4.4988      2.00000
      5       7.5634      0.00000
      6       9.0654      0.00000
      7       9.1350      0.00000
      8      13.4950      0.00000

 k-point   273 :      -0.4643    0.3929    0.3929
  band No.  band energies     occupation 
      1      -3.8679      2.00000
      2      -0.8811      2.00000
      3       2.9649      2.00000
      4       4.2464      2.00000
      5       7.9169      0.00000
      6       9.3599      0.00000
      7       9.6891      0.00000
      8      13.6910      0.00000

 k-point   274 :      -0.3929    0.3929    0.3929
  band No.  band energies     occupation 
      1      -3.4780      2.00000
      2      -0.9809      2.00000
      3       2.0813      2.00000
      4       3.8922      2.00000
      5       7.6257      0.00000
      6      10.4147      0.00000
      7      10.5905      0.00000
      8      12.9432      0.00000

 k-point   275 :       0.4643    0.4643    0.3929
  band No.  band energies     occupation 
      1      -4.0368      2.00000
      2      -0.9563      2.00000
      3       4.0623      2.00000
      4       4.2919      2.00000
      5       7.5368      0.00000
      6       8.8799      0.00000
      7       9.2995      0.00000
      8      13.3438      0.00000

 k-point   276 :      -0.4643    0.4643    0.3929
  band No.  band energies     occupation 
      1      -3.8105      2.00000
      2      -1.0710      2.00000
      3       3.3319      2.00000
      4       4.1377      2.00000
      5       8.0004      0.00000
      6       8.7953      0.00000
      7       9.7888      0.00000
      8      13.3602      0.00000

 k-point   277 :      -0.3929    0.4643    0.3929
  band No.  band energies     occupation 
      1      -3.5198      2.00000
      2      -1.0898      2.00000
      3       2.4880      2.00000
      4       3.7879      2.00000
      5       8.0994      0.00000
      6       9.1829      0.00000
      7      10.8000      0.00000
      8      13.0831      0.00000

 k-point   278 :      -0.4643   -0.4643    0.3929
  band No.  band energies     occupation 
      1      -3.6904      2.00000
      2      -1.1390      2.00000
      3       3.0730      2.00000
      4       4.0629      2.00000
      5       7.7928      0.00000
      6       9.3176      0.00000
      7       9.8334      0.00000
      8      13.1594      0.00000

 k-point   279 :       0.4643    0.4643    0.4643
  band No.  band energies     occupation 
      1      -3.9847      2.00000
      2      -1.1494      2.00000
      3       4.4531      2.00000
      4       4.4531      2.00000
      5       7.1038      0.00000
      6       8.9850      0.00000
      7       8.9851      0.00000
      8      13.3431      0.00000

 k-point   280 :      -0.4643    0.4643    0.4643
  band No.  band energies     occupation 
      1      -3.8656      2.00000
      2      -1.2089      2.00000
      3       3.9511      2.00000
      4       4.3576      2.00000
      5       7.5097      0.00000
      6       8.9325      0.00000
      7       9.1822      0.00000
      8      13.5548      0.00000


--------------------------------------------------------------------------------------------------------


 soft charge-density along one line, spin component           1
         0         1         2         3         4         5         6         7         8         9
 total charge-density along one line
 
 pseudopotential strength for first ion, spin component:           1
 18.437  25.722   0.000  -0.000   0.000   0.000  -0.000   0.000
 25.722  35.892   0.000  -0.000   0.000   0.000  -0.000   0.000
  0.000   0.000   4.181  -0.000  -0.000   7.791  -0.000  -0.000
 -0.000  -0.000  -0.000   4.181  -0.000  -0.000   7.791  -0.000
  0.000   0.000  -0.000  -0.000   4.181  -0.000  -0.000   7.791
  0.000   0.000   7.791  -0.000  -0.000  14.528  -0.000  -0.000
 -0.000  -0.000  -0.000   7.791  -0.000  -0.000  14.528  -0.000
  0.000   0.000  -0.000  -0.000   7.791  -0.000  -0.000  14.528
 total augmentation occupancy for first ion, spin component:           1
  5.531  -2.065   0.000   0.000  -0.000  -0.000   0.000  -0.000
 -2.065   0.887   0.000   0.000  -0.000   0.000   0.000   0.000
  0.000  -0.000   2.942   0.000   0.000  -0.663   0.000  -0.000
  0.000   0.000   0.000   2.942   0.000  -0.000  -0.663  -0.000
  0.000  -0.000   0.000  -0.000   2.942  -0.000  -0.000  -0.663
  0.000   0.000  -0.663   0.000  -0.000   0.158   0.000   0.000
  0.000  -0.000  -0.000  -0.663  -0.000   0.000   0.158   0.000
 -0.000   0.000  -0.000  -0.000  -0.663   0.000   0.000   0.158


------------------------ aborting loop because EDIFF is reached ----------------------------------------


    CHARGE:  cpu time    0.1560: real time    0.1562
    FORLOC:  cpu time    0.0020: real time    0.0017
    FORNL :  cpu time    0.1750: real time    0.1768
    STRESS:  cpu time    1.8877: real time    1.8891
    FORCOR:  cpu time    0.0310: real time    0.0311
    FORHAR:  cpu time    0.0060: real time    0.0059
    MIXING:  cpu time    0.0010: real time    0.0012
    OFIELD:  cpu time    0.0000: real time    0.0002

  FORCE on cell =-STRESS in cart. coord.  units (eV):
  Direction    XX          YY          ZZ          XY          YZ          ZX
  --------------------------------------------------------------------------------------
  Alpha Z     3.29543     3.29543     3.29543
  Ewald     -75.66557   -75.66564   -75.66556     0.00001     0.00000     0.00000
  Hartree     5.05399     5.05398     5.05399     0.00000     0.00000     0.00000
  E(xc)     -25.25215   -25.25215   -25.25215    -0.00000    -0.00000    -0.00000
  Local     -29.52421   -29.52420   -29.52420    -0.00000     0.00001     0.00001
  n-local    75.15253    77.50471    79.80810    -1.05573    -1.41810     0.09621
  augment   -11.64880   -11.64880   -11.64882    -0.00000    -0.00001    -0.00001
  Kinetic    54.80192    56.27101    57.69107    -0.13133     0.51684    -1.13935
  Fock        0.00000     0.00000     0.00000     0.00000     0.00000     0.00000
  -------------------------------------------------------------------------------------
  Total       0.00179     0.00179     0.00179     0.00000     0.00000     0.00000
  in kB       0.07002     0.07002     0.07002     0.00000     0.00000     0.00000
  external pressure =        0.07 kB  Pullay stress =        0.00 kB


 VOLUME and BASIS-vectors are now :
 -----------------------------------------------------------------------------
  energy-cutoff  :      350.00
  volume of cell :       40.86
      direct lattice vectors                 reciprocal lattice vectors
     3.348134360 -0.000000000  1.933046001     0.298673796 -0.105597092 -0.000000000
     1.116044787  3.156652598  1.933046001     0.000000000  0.316791275 -0.000000000
     0.000000000  0.000000000  3.866092003    -0.149336898 -0.105597092  0.258659132

  length of vectors
     3.866092411  3.866093433  3.866092003     0.316791386  0.316791275  0.316791416


 FORCES acting on ions
    electron-ion (+dipol)            ewald-force                    non-local-force                 convergence-correction
 -----------------------------------------------------------------------------------------------
   0.525E-05 0.245E-04 0.591E-07   -.892E-05 -.418E-04 -.153E-14   -.225E-16 -.913E-17 0.347E-17   -.456E-07 -.320E-07 -.791E-07
   -.525E-05 -.245E-04 -.591E-07   0.892E-05 0.418E-04 0.168E-14   0.217E-16 0.220E-17 -.173E-16   0.456E-07 0.320E-07 0.791E-07
 -----------------------------------------------------------------------------------------------
   0.486E-13 -.562E-13 0.132E-12   -.192E-15 -.668E-16 0.149E-15   -.837E-18 -.694E-17 -.139E-16   -.615E-15 0.437E-15 0.252E-15
 
 
 POSITION                                       TOTAL-FORCE (eV/Angst)
 -----------------------------------------------------------------------------------
      3.90616      2.76207      6.76566        -0.000000     -0.000000     -0.000000
      0.55802      0.39458      0.96652         0.000000      0.000000      0.000000
 -----------------------------------------------------------------------------------
    total drift:                                0.000000     -0.000000      0.000000


--------------------------------------------------------------------------------------------------------



  FREE ENERGIE OF THE ION-ELECTRON SYSTEM (eV)
  ---------------------------------------------------
  free  energy   TOTEN  =       -10.84766999 eV

  energy  without entropy=      -10.84766999  energy(sigma->0) =      -10.84766999
 
 d Force = 0.0000000E+00[ 0.000E+00, 0.000E+00]  d Energy = 0.8993881E-03-0.899E-03
 d Force = 0.0000000E+00[ 0.000E+00, 0.000E+00]  d Ewald  = 0.6763428E+00-0.676E+00


--------------------------------------------------------------------------------------------------------


    POTLOK:  cpu time    0.2040: real time    0.2110


--------------------------------------------------------------------------------------------------------




--------------------------------------------------------------------------------------------------------


  
 reached required accuracy - stopping structural energy minimisation
     LOOP+:  cpu time   20.1679: real time   20.5579
    4ORBIT:  cpu time    0.0000: real time    0.0000

 total amount of memory used by VASP MPI-rank0    52721. kBytes
=======================================================================

   base      :      30000. kBytes
   nonl-proj :      10986. kBytes
   fftplans  :       4177. kBytes
   grid      :       1926. kBytes
   one-center:          6. kBytes
   wavefun   :       5626. kBytes
 
  
  
 General timing and accounting informations for this job:
 ========================================================
  
                  Total CPU time used (sec):       83.394
                            User time (sec):       82.335
                          System time (sec):        1.059
                         Elapsed time (sec):       85.754
  
                   Maximum memory used (kb):       79248.
                   Average memory used (kb):          N/A
  
                          Minor page faults:        16051
                          Major page faults:            1
                 Voluntary context switches:        42309
