 running on    4 total cores
 distrk:  each k-point on    4 cores,    1 groups
 distr:  one band on    1 cores,    4 groups
 vasp.6.2.0 18Jan21 (build Aug 12 2022 13:00:08) complex                        
  
 POSCAR found type information on POSCAR Si
 POSCAR found :  1 types and       2 ions
 scaLAPACK will be used
 LDA part: xc-table for Pade appr. of Perdew
 POSCAR, INCAR and KPOINTS ok, starting setup
 FFT: planning ...
 WAVECAR not read
 entering main loop
       N       E                     dE             d eps       ncg     rms          rms(c)
DAV:   1     0.164362211378E+01    0.16436E+01   -0.25922E+03  4496   0.581E+02
DAV:   2    -0.108732580582E+02   -0.12517E+02   -0.12078E+02  6896   0.664E+01
DAV:   3    -0.110208106912E+02   -0.14755E+00   -0.14755E+00  5632   0.913E+00
DAV:   4    -0.110214657230E+02   -0.65503E-03   -0.65503E-03  7248   0.634E-01
DAV:   5    -0.110214663589E+02   -0.63591E-06   -0.63591E-06  5920   0.143E-02    0.486E+00
DAV:   6    -0.108999611690E+02    0.12151E+00   -0.80031E-02  5400   0.147E+00    0.297E+00
DAV:   7    -0.108444178393E+02    0.55543E-01   -0.15204E-01  5800   0.216E+00    0.185E-01
DAV:   8    -0.108454744117E+02   -0.10566E-02   -0.38038E-03  5192   0.459E-01    0.741E-02
DAV:   9    -0.108456683908E+02   -0.19398E-03   -0.19101E-04  6664   0.107E-01    0.571E-02
DAV:  10    -0.108456931871E+02   -0.24796E-04   -0.28891E-05  5256   0.401E-02    0.911E-03
DAV:  11    -0.108456929235E+02    0.26355E-06   -0.61589E-07  6328   0.537E-03
   1 F= -.10845693E+02 E0= -.10845693E+02  d E =-.108457E+02
 curvature:   0.00 expect dE= 0.000E+00 dE for cont linesearch  0.000E+00
 trial: gam= 0.00000 g(F)=  0.121E-42 g(S)=  0.675E-02 ort = 0.000E+00 (trialstep = 0.100E+01)
 search vector abs. value=  0.675E-02
 bond charge predicted
       N       E                     dE             d eps       ncg     rms          rms(c)
DAV:   1    -0.108494736098E+02   -0.37804E-02   -0.10421E-01  5664   0.181E+00    0.302E-01
DAV:   2    -0.108477072514E+02    0.17664E-02   -0.14748E-03  6200   0.255E-01    0.183E-01
DAV:   3    -0.108467768382E+02    0.93041E-03   -0.19230E-03  5376   0.221E-01    0.605E-02
DAV:   4    -0.108467768027E+02    0.35498E-07   -0.19336E-05  6536   0.392E-02    0.540E-02
DAV:   5    -0.108467704354E+02    0.63673E-05   -0.50340E-06  5256   0.163E-02    0.128E-02
DAV:   6    -0.108467706041E+02   -0.16869E-06   -0.52572E-08  3016   0.216E-03
   2 F= -.10846771E+02 E0= -.10846771E+02  d E =-.107768E-02
 trial-energy change:   -0.001078  1 .order   -0.001173   -0.006755    0.004410
 step:   0.5927(harm=  0.6050)  dis= 0.00000  next Energy=   -10.847675 (dE=-0.198E-02)
 bond charge predicted
       N       E                     dE             d eps       ncg     rms          rms(c)
DAV:   1    -0.108481064449E+02   -0.13360E-02   -0.17509E-02  5632   0.747E-01    0.127E-01
DAV:   2    -0.108478149639E+02    0.29148E-03   -0.24414E-04  6280   0.103E-01    0.759E-02
DAV:   3    -0.108476676839E+02    0.14728E-03   -0.32045E-04  5368   0.905E-02    0.251E-02
DAV:   4    -0.108476682917E+02   -0.60787E-06   -0.32154E-06  6344   0.161E-02    0.225E-02
DAV:   5    -0.108476700586E+02   -0.17668E-05   -0.82317E-07  4864   0.669E-03    0.591E-03
DAV:   6    -0.108476699922E+02    0.66397E-07   -0.10426E-08  2432   0.946E-04
   3 F= -.10847670E+02 E0= -.10847670E+02  d E =-.197707E-02
 curvature:  -0.30 expect dE=-0.697E-07 dE for cont linesearch -0.697E-07
 trial: gam=-0.00581 g(F)=  0.184E-42 g(S)=  0.231E-06 ort = 0.395E-04 (trialstep = 0.919E+00)
 search vector abs. value=  0.108E-09
 reached required accuracy - stopping structural energy minimisation
