unknown system                          
   1.00000000000000     
    -1.415006    1.415006    1.415006
     1.415006   -1.415006    1.415006
     1.415006    1.415006   -1.415006
   Fe
     1
Direct
  0.000000  0.000000  0.000000
 
   36   36   36
  95.978      94.217      89.143      81.323      71.573      60.791      49.828      39.386      29.992      21.998    
  15.608      10.871      7.6978      5.8327      4.9021      4.4456      4.1406      3.9533      3.8913      3.9533    
  4.1406      4.4456      4.9021      5.8327      7.6978      10.871      15.608      21.998      29.992      39.386    
  49.828      60.791      71.573      81.323      89.143      94.217      94.217      93.634      89.678      82.798    
  73.734      63.360      52.543      42.030      32.399      24.053      17.241      12.061      8.4670      6.2596    
  5.0991      4.5495      4.2117      3.9855      3.8834      3.9040      4.0471      4.3129      4.6947      5.3949    
  6.8614      9.4991      13.609      19.336      26.681      35.492      45.473      56.161      66.922      76.958    
  85.385      91.357      89.143      89.678      86.928      81.212      73.159      63.577      53.312      43.127    
  33.628      25.262      18.308      12.910      9.0603      6.6110      5.2635      4.6198      4.2539      3.9972    
  3.8601      3.8404      3.9391      4.1573      4.4849      4.9970      6.0628      8.1107      11.476      16.363    
  22.822      30.760      39.939      49.970      60.293      70.191      78.834      85.385      81.323      82.798    
  81.212      76.752      69.918      61.423      52.055      42.556      33.543      25.480      18.676      13.302    
  9.3879      6.8264      5.3666      4.6503      4.2633      3.9858      3.8213      3.7655      3.8230      3.9896    
  4.2696      4.6599      5.3815      6.8518      9.4321      13.377      18.794      25.649      33.768      42.829    
  52.358      61.729      70.191      76.958      71.573      73.734      73.159      69.918      64.384      57.153    
  48.926      40.396      32.164      24.693      18.304      13.187      9.3980      6.8662      5.3833      4.6356    
  4.2376      3.9505      3.7662      3.6831      3.7026      3.8222      4.0480      4.3705      4.8539      5.8216    
  7.6544      10.640      14.946      20.599      27.487      35.361      43.830      52.358      60.293      66.922    
  60.791      63.360      63.577      61.423      57.153      51.241      44.285      36.908      29.667      23.008    
  17.248      12.584      9.0891      6.7193      5.3031      4.5722      4.1778      3.8912      3.6960      3.5947    
  3.5826      3.6618      3.8325      4.1016      4.4612      5.0610      6.2509      8.3441      11.557      15.977    
  21.559      28.124      35.361      42.829      49.970      56.161      49.828      52.543      53.312      52.055    
  48.926      44.285      38.624      32.479      26.345      20.635      15.651      11.582      8.5086      6.4055    
  5.1333      4.4623      4.0882      3.8087      3.6133      3.5006      3.4678      3.5114      3.6363      3.8463    
  4.1441      4.5421      5.2513      6.5917      8.8090      12.051      16.335      21.559      27.487      33.768    
  39.939      45.473      39.386      42.030      43.127      42.556      40.396      36.908      32.479      27.550    
  22.552      17.846      13.708      10.313      7.7394      5.9717      4.8958      4.3163      3.9730      3.7080    
  3.5195      3.4040      3.3579      3.3761      3.4618      3.6197      3.8582      4.1741      4.6065      5.3857    
  6.7797      8.9727      12.051      15.977      20.599      25.649      30.760      35.492      29.992      32.399    
  33.628      33.543      32.164      29.667      26.345      22.552      18.641      14.923      11.634      8.9310    
  6.8828      5.4786      4.6221      4.1474      3.8390      3.5940      3.4183      3.3068      3.2547      3.2563    
  3.3121      3.4271      3.6090      3.8656      4.1922      4.6430      5.4346      6.7797      8.8090      11.557    
  14.946      18.794      22.822      26.681      21.998      24.053      25.262      25.480      24.693      23.008    
  20.635      17.846      14.923      12.117      9.6260      7.5807      6.0386      4.9870      4.3450      3.9683    
  3.6936      3.4726      3.3140      3.2111      3.1596      3.1515      3.1874      3.2686      3.4049      3.6023    
  3.8692      4.1979      4.6430      5.3857      6.5917      8.3441      10.640      13.377      16.363      19.336    
  15.608      17.241      18.308      18.676      18.304      17.248      15.651      13.708      11.634      9.6260    
  7.8406      6.3789      5.2865      4.5465      4.0884      3.7881      3.5440      3.3507      3.2108      3.1205    
  3.0727      3.0619      3.0849      3.1437      3.2435      3.3934      3.6002      3.8692      4.1922      4.6065    
  5.2513      6.2509      7.6544      9.4321      11.476      13.609      10.871      12.061      12.910      13.302    
  13.187      12.584      11.582      10.313      8.9310      7.5807      6.3789      5.4014      4.6768      4.1847    
  3.8612      3.6106      3.3986      3.2333      3.1138      3.0370      2.9962      2.9860      3.0029      3.0472    
  3.1225      3.2352      3.3934      3.6023      3.8656      4.1741      4.5421      5.0610      5.8216      6.8518    
  8.1107      9.4991      7.6978      8.4670      9.0603      9.3879      9.3980      9.0891      8.5086      7.7394    
  6.8828      6.0386      5.2865      4.6768      4.2229      3.9029      3.6561      3.4416      3.2636      3.1255    
  3.0267      2.9635      2.9308      2.9236      2.9387      2.9752      3.0349      3.1225      3.2435      3.4049    
  3.6090      3.8582      4.1441      4.4612      4.8539      5.3815      6.0628      6.8614      5.8327      6.2596    
  6.6110      6.8264      6.8662      6.7193      6.4055      5.9717      5.4786      4.9870      4.5465      4.1847    
  3.9029      3.6722      3.4666      3.2885      3.1430      3.0312      2.9521      2.9021      2.8777      2.8746    
  2.8905      2.9236      2.9752      3.0472      3.1437      3.2686      3.4271      3.6197      3.8463      4.1016    
  4.3705      4.6599      4.9970      5.3949      4.9021      5.0991      5.2635      5.3666      5.3833      5.3031    
  5.1333      4.8958      4.6221      4.3450      4.0884      3.8612      3.6561      3.4666      3.2980      3.1552    
  3.0400      2.9526      2.8914      2.8540      2.8374      2.8392      2.8571      2.8905      2.9387      3.0029    
  3.0849      3.1874      3.3121      3.4618      3.6363      3.8325      4.0480      4.2696      4.4849      4.6947    
  4.4456      4.5495      4.6198      4.6503      4.6356      4.5722      4.4623      4.3163      4.1474      3.9683    
  3.7881      3.6106      3.4416      3.2885      3.1552      3.0441      2.9560      2.8902      2.8453      2.8193    
  2.8106      2.8175      2.8392      2.8746      2.9236      2.9860      3.0619      3.1515      3.2563      3.3761    
  3.5114      3.6618      3.8222      3.9896      4.1573      4.3129      4.1406      4.2117      4.2539      4.2633    
  4.2376      4.1778      4.0882      3.9730      3.8390      3.6936      3.5440      3.3986      3.2636      3.1430    
  3.0400      2.9560      2.8909      2.8438      2.8132      2.7981      2.7973      2.8106      2.8374      2.8777    
  2.9308      2.9962      3.0727      3.1596      3.2547      3.3579      3.4678      3.5826      3.7026      3.8230    
  3.9391      4.0471      3.9533      3.9855      3.9972      3.9858      3.9505      3.8912      3.8087      3.7080    
  3.5940      3.4726      3.3507      3.2333      3.1255      3.0312      2.9526      2.8902      2.8438      2.8122    
  2.7945      2.7898      2.7981      2.8193      2.8540      2.9021      2.9635      3.0370      3.1205      3.2111    
  3.3068      3.4040      3.5006      3.5947      3.6831      3.7655      3.8404      3.9040      3.8913      3.8834    
  3.8601      3.8213      3.7662      3.6960      3.6133      3.5195      3.4183      3.3140      3.2108      3.1138    
  3.0267      2.9521      2.8914      2.8453      2.8132      2.7945      2.7883      2.7945      2.8132      2.8453    
  2.8914      2.9521      3.0267      3.1138      3.2108      3.3140      3.4183      3.5195      3.6133      3.6960    
  3.7662      3.8213      3.8601      3.8834      3.9533      3.9040      3.8404      3.7655      3.6831      3.5947    
  3.5006      3.4040      3.3068      3.2111      3.1205      3.0370      2.9635      2.9021      2.8540      2.8193    
  2.7981      2.7898      2.7945      2.8122      2.8438      2.8902      2.9526      3.0312      3.1255      3.2333    
  3.3507      3.4726      3.5940      3.7080      3.8087      3.8912      3.9505      3.9858      3.9972      3.9855    
  4.1406      4.0471      3.9391      3.8230      3.7026      3.5826      3.4678      3.3579      3.2547      3.1596    
  3.0727      2.9962      2.9308      2.8777      2.8374      2.8106      2.7973      2.7981      2.8132      2.8438    
  2.8909      2.9560      3.0400      3.1430      3.2636      3.3986      3.5440      3.6936      3.8390      3.9730    
  4.0882      4.1778      4.2376      4.2633      4.2539      4.2117      4.4456      4.3129      4.1573      3.9896    
  3.8222      3.6618      3.5114      3.3761      3.2563      3.1515      3.0619      2.9860      2.9236      2.8746    
  2.8392      2.8175      2.8106      2.8193      2.8453      2.8902      2.9560      3.0441      3.1552      3.2885    
  3.4416      3.6106      3.7881      3.9683      4.1474      4.3163      4.4623      4.5722      4.6356      4.6503    
  4.6198      4.5495      4.9021      4.6947      4.4849      4.2696      4.0480      3.8325      3.6363      3.4618    
  3.3121      3.1874      3.0849      3.0029      2.9387      2.8905      2.8571      2.8392      2.8374      2.8540    
  2.8914      2.9526      3.0400      3.1552      3.2980      3.4666      3.6561      3.8612      4.0884      4.3450    
  4.6221      4.8958      5.1333      5.3031      5.3833      5.3666      5.2635      5.0991      5.8327      5.3949    
  4.9970      4.6599      4.3705      4.1016      3.8463      3.6197      3.4271      3.2686      3.1437      3.0472    
  2.9752      2.9236      2.8905      2.8746      2.8777      2.9021      2.9521      3.0312      3.1430      3.2885    
  3.4666      3.6722      3.9029      4.1847      4.5465      4.9870      5.4786      5.9717      6.4055      6.7193    
  6.8662      6.8264      6.6110      6.2596      7.6978      6.8614      6.0628      5.3815      4.8539      4.4612    
  4.1441      3.8582      3.6090      3.4049      3.2435      3.1225      3.0349      2.9752      2.9387      2.9236    
  2.9308      2.9635      3.0267      3.1255      3.2636      3.4416      3.6561      3.9029      4.2229      4.6768    
  5.2865      6.0386      6.8828      7.7394      8.5086      9.0891      9.3980      9.3879      9.0603      8.4670    
  10.871      9.4991      8.1107      6.8518      5.8216      5.0610      4.5421      4.1741      3.8656      3.6023    
  3.3934      3.2352      3.1225      3.0472      3.0029      2.9860      2.9962      3.0370      3.1138      3.2333    
  3.3986      3.6106      3.8612      4.1847      4.6768      5.4014      6.3789      7.5807      8.9310      10.313    
  11.582      12.584      13.187      13.302      12.910      12.061      15.608      13.609      11.476      9.4321    
  7.6544      6.2509      5.2513      4.6065      4.1922      3.8692      3.6002      3.3934      3.2435      3.1437    
  3.0849      3.0619      3.0727      3.1205      3.2108      3.3507      3.5440      3.7881      4.0884      4.5465    
  5.2865      6.3789      7.8406      9.6260      11.634      13.708      15.651      17.248      18.304      18.676    
  18.308      17.241      21.998      19.336      16.363      13.377      10.640      8.3441      6.5917      5.3857    
  4.6430      4.1979      3.8692      3.6023      3.4049      3.2686      3.1874      3.1515      3.1596      3.2111    
  3.3140      3.4726      3.6936      3.9683      4.3450      4.9870      6.0386      7.5807      9.6260      12.117    
  14.923      17.846      20.635      23.008      24.693      25.480      25.262      24.053      29.992      26.681    
  22.822      18.794      14.946      11.557      8.8090      6.7797      5.4346      4.6430      4.1922      3.8656    
  3.6090      3.4271      3.3121      3.2563      3.2547      3.3068      3.4183      3.5940      3.8390      4.1474    
  4.6221      5.4786      6.8828      8.9310      11.634      14.923      18.641      22.552      26.345      29.667    
  32.164      33.543      33.628      32.399      39.386      35.492      30.760      25.649      20.599      15.977    
  12.051      8.9727      6.7797      5.3857      4.6065      4.1741      3.8582      3.6197      3.4618      3.3761    
  3.3579      3.4040      3.5195      3.7080      3.9730      4.3163      4.8958      5.9717      7.7394      10.313    
  13.708      17.846      22.552      27.550      32.479      36.908      40.396      42.556      43.127      42.030    
  49.828      45.473      39.939      33.768      27.487      21.559      16.335      12.051      8.8090      6.5917    
  5.2513      4.5421      4.1441      3.8463      3.6363      3.5114      3.4678      3.5006      3.6133      3.8087    
  4.0882      4.4623      5.1333      6.4055      8.5086      11.582      15.651      20.635      26.345      32.479    
  38.624      44.285      48.926      52.055      53.312      52.543      60.791      56.161      49.970      42.829    
  35.361      28.124      21.559      15.977      11.557      8.3441      6.2509      5.0610      4.4612      4.1016    
  3.8325      3.6618      3.5826      3.5947      3.6960      3.8912      4.1778      4.5722      5.3031      6.7193    
  9.0891      12.584      17.248      23.008      29.667      36.908      44.285      51.241      57.153      61.423    
  63.577      63.360      71.573      66.922      60.293      52.358      43.830      35.361      27.487      20.599    
  14.946      10.640      7.6544      5.8216      4.8539      4.3705      4.0480      3.8222      3.7026      3.6831    
  3.7662      3.9505      4.2376      4.6356      5.3833      6.8662      9.3980      13.187      18.304      24.693    
  32.164      40.396      48.926      57.153      64.384      69.918      73.159      73.734      81.323      76.958    
  70.191      61.729      52.358      42.829      33.768      25.649      18.794      13.377      9.4321      6.8518    
  5.3815      4.6599      4.2696      3.9896      3.8230      3.7655      3.8213      3.9858      4.2633      4.6503    
  5.3666      6.8264      9.3879      13.302      18.676      25.480      33.543      42.556      52.055      61.423    
  69.918      76.752      81.212      82.798      89.143      85.385      78.834      70.191      60.293      49.970    
  39.939      30.760      22.822      16.363      11.476      8.1107      6.0628      4.9970      4.4849      4.1573    
  3.9391      3.8404      3.8601      3.9972      4.2539      4.6198      5.2635      6.6110      9.0603      12.910    
  18.308      25.262      33.628      43.127      53.312      63.577      73.159      81.212      86.928      89.678    
  94.217      91.357      85.385      76.958      66.922      56.161      45.473      35.492      26.681      19.336    
  13.609      9.4991      6.8614      5.3949      4.6947      4.3129      4.0471      3.9040      3.8834      3.9855    
  4.2117      4.5495      5.0991      6.2596      8.4670      12.061      17.241      24.053      32.399      42.030    
  52.543      63.360      73.734      82.798      89.678      93.634      94.218      93.634      89.678      82.798    
  73.734      63.359      52.543      42.030      32.399      24.054      17.241      12.061      8.4671      6.2596    
  5.0991      4.5495      4.2117      3.9855      3.8834      3.9040      4.0471      4.3129      4.6948      5.3948    
  6.8615      9.4990      13.609      19.336      26.681      35.492      45.473      56.161      66.922      76.958    
  85.385      91.357      93.634      94.218      91.357      85.385      76.957      66.922      56.161      45.472    
  35.492      26.681      19.336      13.609      9.4990      6.8615      5.3949      4.6947      4.3129      4.0471    
  3.9040      3.8834      3.9855      4.2117      4.5495      5.0991      6.2596      8.4670      12.061      17.241    
  24.053      32.399      42.030      52.542      63.360      73.734      82.798      89.677      89.678      91.357    
  89.677      84.835      77.372      68.067      57.780      47.323      37.372      28.434      20.846      14.804    
  10.350      7.3898      5.6673      4.8143      4.3837      4.0877      3.9079      3.8477      3.9079      4.0877    
  4.3837      4.8143      5.6673      7.3898      10.350      14.804      20.846      28.434      37.372      47.324    
  57.780      68.067      77.372      84.835      82.798      85.385      84.835      81.212      74.931      66.666    
  57.216      47.374      37.827      29.107      21.586      15.490      10.901      7.7631      5.8716      4.8966    
  4.4194      4.1026      3.8934      3.7986      3.8185      3.9509      4.1998      4.5530      5.1488      6.3903    
  8.6716      12.288      17.395      24.002      31.976      41.040      50.767      60.567      69.704      77.372    
  73.734      76.957      77.372      74.931      69.918      62.885      54.541      45.627      36.810      28.628    
  21.469      15.579      11.070      7.9199      5.9676      4.9269      4.4168      4.0893      3.8591      3.7381    
  3.7209      3.8104      4.0057      4.3062      4.7322      5.5575      7.1841      9.9358      14.023      19.513    
  26.334      34.275      42.985      51.962      60.566      68.067      63.359      66.922      68.067      66.666    
  62.885      57.153      50.069      42.296      34.456      27.067      20.518      15.065      10.834      7.8320    
  5.9326      4.8933      4.3754      4.0463      3.8054      3.6662      3.6199      3.6709      3.8153      4.0627    
  4.4000      4.9301      5.9912      7.9306      10.998      15.323      20.894      27.570      35.071      42.985    
  50.767      57.780      52.543      56.161      57.780      57.216      54.541      50.069      44.285      37.757    
  31.042      24.621      18.864      14.023      10.231      7.5109      5.7671      4.7935      4.2971      3.9746    
  3.7340      3.5838      3.5186      3.5362      3.6383      3.8281      4.1103      4.4846      5.1277      6.3767    
  8.5082      11.704      16.017      21.374      27.570      34.275      41.040      47.324      42.030      45.472    
  47.323      47.374      45.627      42.296      37.757      32.478      26.941      21.573      16.711      12.592    
  9.3475      7.0057      5.4929      4.6376      4.1857      3.8791      3.6457      3.4941      3.4168      3.4117    
  3.4766      3.6181      3.8408      4.1462      4.5563      5.2905      6.6412      8.8228      11.951      16.017    
  20.894      26.333      31.976      37.372      32.399      35.492      37.372      37.827      36.810      34.456    
  31.042      26.941      22.551      18.239      14.301      10.949      8.3006      6.3881      5.1497      4.4433    
  4.0496      3.7641      3.5450      3.3987      3.3173      3.2973      3.3349      3.4355      3.6043      3.8506    
  4.1695      4.6067      5.3822      6.7358      8.8229      11.704      15.323      19.513      24.002      28.434    
  24.054      26.681      28.434      29.107      28.628      27.067      24.621      21.573      18.239      14.923    
  11.873      9.2693      7.2158      5.7380      4.7836      4.2320      3.8975      3.6360      3.4367      3.3003    
  3.2217      3.1936      3.2134      3.2821      3.4071      3.5956      3.8558      4.1815      4.6247      5.3822    
  6.6412      8.5081      10.998      14.023      17.395      20.846      17.241      19.336      20.846      21.586    
  21.469      20.518      18.864      16.711      14.301      11.873      9.6258      7.7089      6.2030      5.1278    
  4.4356      4.0222      3.7367      3.5024      3.3255      3.2033      3.1312      3.1016      3.1105      3.1578    
  3.2483      3.3902      3.5911      3.8572      4.1815      4.6067      5.2906      6.3767      7.9306      9.9358    
  12.288      14.804      12.061      13.609      14.804      15.490      15.579      15.065      14.023      12.592    
  10.949      9.2693      7.7089      6.3789      5.3429      4.6086      4.1329      3.8222      3.5743      3.3702    
  3.2169      3.1111      3.0483      3.0209      3.0252      3.0590      3.1260      3.2314      3.3848      3.5911    
  3.8558      4.1695      4.5562      5.1276      5.9912      7.1841      8.6716      10.351      8.4671      9.4990    
  10.350      10.901      11.070      10.834      10.231      9.3475      8.3006      7.2158      6.2030      5.3429    
  4.6768      4.2034      3.8812      3.6323      3.4179      3.2454      3.1156      3.0274      2.9746      2.9524    
  2.9555      2.9827      3.0344      3.1155      3.2314      3.3902      3.5956      3.8506      4.1463      4.4846    
  4.9300      5.5575      6.3903      7.3897      6.2596      6.8615      7.3898      7.7631      7.9199      7.8320    
  7.5109      7.0057      6.3881      5.7380      5.1278      4.6086      4.2034      3.9029      3.6641      3.4535    
  3.2749      3.1322      3.0262      2.9543      2.9124      2.8958      2.9008      2.9251      2.9690      3.0344    
  3.1260      3.2483      3.4071      3.6043      3.8408      4.1102      4.4000      4.7321      5.1489      5.6674    
  5.0991      5.3949      5.6673      5.8716      5.9676      5.9326      5.7671      5.4929      5.1497      4.7836    
  4.4356      4.1329      3.8812      3.6641      3.4665      3.2932      3.1485      3.0345      2.9504      2.8942    
  2.8626      2.8522      2.8601      2.8847      2.9252      2.9827      3.0590      3.1578      3.2821      3.4355    
  3.6181      3.8282      4.0626      4.3063      4.5529      4.8142      4.5495      4.6947      4.8143      4.8966    
  4.9269      4.8933      4.7935      4.6376      4.4433      4.2320      4.0222      3.8222      3.6323      3.4535    
  3.2932      3.1552      3.0419      2.9538      2.8897      2.8478      2.8259      2.8217      2.8336      2.8601    
  2.9008      2.9555      3.0252      3.1105      3.2134      3.3349      3.4766      3.6382      3.8153      4.0057    
  4.1999      4.3838      4.2117      4.3129      4.3837      4.4194      4.4168      4.3754      4.2971      4.1857    
  4.0496      3.8975      3.7367      3.5743      3.4179      3.2749      3.1485      3.0419      2.9560      2.8905    
  2.8440      2.8152      2.8026      2.8051      2.8217      2.8522      2.8958      2.9523      3.0209      3.1016    
  3.1936      3.2973      3.4118      3.5363      3.6708      3.8104      3.9508      4.0876      3.9855      4.0471    
  4.0877      4.1026      4.0893      4.0463      3.9746      3.8791      3.7641      3.6360      3.5024      3.3702    
  3.2454      3.1322      3.0345      2.9538      2.8905      2.8437      2.8126      2.7958      2.7926      2.8026    
  2.8259      2.8626      2.9124      2.9746      3.0483      3.1312      3.2217      3.3173      3.4167      3.5185    
  3.6199      3.7209      3.8185      3.9080      3.8834      3.9040      3.9079      3.8934      3.8591      3.8054    
  3.7340      3.6457      3.5450      3.4367      3.3255      3.2169      3.1156      3.0262      2.9504      2.8897    
  2.8440      2.8126      2.7945      2.7890      2.7958      2.8152      2.8478      2.8942      2.9543      3.0273    
  3.1111      3.2033      3.3003      3.3986      3.4942      3.5838      3.6662      3.7381      3.7986      3.8476    
  3.9040      3.8834      3.8477      3.7986      3.7381      3.6662      3.5838      3.4941      3.3987      3.3003    
  3.2033      3.1111      3.0274      2.9543      2.8942      2.8478      2.8152      2.7958      2.7890      2.7945    
  2.8126      2.8440      2.8897      2.9504      3.0262      3.1157      3.2169      3.3255      3.4367      3.5450    
  3.6456      3.7340      3.8055      3.8590      3.8935      3.9080      4.0471      3.9855      3.9079      3.8185    
  3.7209      3.6199      3.5186      3.4168      3.3173      3.2217      3.1312      3.0483      2.9746      2.9124    
  2.8626      2.8259      2.8026      2.7926      2.7958      2.8126      2.8438      2.8904      2.9538      3.0345    
  3.1322      3.2454      3.3702      3.5024      3.6360      3.7641      3.8792      3.9747      4.0463      4.0893    
  4.1025      4.0876      4.3129      4.2117      4.0877      3.9509      3.8104      3.6709      3.5362      3.4117    
  3.2973      3.1936      3.1016      3.0209      2.9524      2.8958      2.8522      2.8217      2.8051      2.8026    
  2.8152      2.8440      2.8904      2.9560      3.0419      3.1485      3.2748      3.4180      3.5743      3.7367    
  3.8975      4.0496      4.1857      4.2970      4.3754      4.4168      4.4195      4.3838      4.6948      4.5495    
  4.3837      4.1998      4.0057      3.8153      3.6383      3.4766      3.3349      3.2134      3.1105      3.0252    
  2.9555      2.9008      2.8601      2.8336      2.8217      2.8259      2.8478      2.8897      2.9538      3.0419    
  3.1552      3.2931      3.4536      3.6323      3.8222      4.0222      4.2320      4.4433      4.6376      4.7936    
  4.8933      4.9269      4.8965      4.8142      5.3948      5.0991      4.8143      4.5530      4.3062      4.0627    
  3.8281      3.6181      3.4355      3.2821      3.1578      3.0590      2.9827      2.9251      2.8847      2.8601    
  2.8522      2.8626      2.8942      2.9504      3.0345      3.1485      3.2931      3.4666      3.6640      3.8812    
  4.1329      4.4355      4.7836      5.1498      5.4928      5.7670      5.9326      5.9676      5.8717      5.6674    
  6.8615      6.2596      5.6673      5.1488      4.7322      4.4000      4.1103      3.8408      3.6043      3.4071    
  3.2483      3.1260      3.0344      2.9690      2.9252      2.9008      2.8958      2.9124      2.9543      3.0262    
  3.1322      3.2748      3.4536      3.6640      3.9029      4.2033      4.6086      5.1278      5.7380      6.3880    
  7.0058      7.5110      7.8320      7.9199      7.7630      7.3897      9.4990      8.4670      7.3898      6.3903    
  5.5575      4.9301      4.4846      4.1462      3.8506      3.5956      3.3902      3.2314      3.1155      3.0344    
  2.9827      2.9555      2.9523      2.9746      3.0273      3.1157      3.2454      3.4180      3.6323      3.8812    
  4.2033      4.6768      5.3430      6.2029      7.2157      8.3007      9.3475      10.231      10.834      11.070    
  10.901      10.351      13.609      12.061      10.350      8.6716      7.1841      5.9912      5.1277      4.5563    
  4.1695      3.8558      3.5911      3.3848      3.2314      3.1260      3.0590      3.0252      3.0209      3.0483    
  3.1111      3.2169      3.3702      3.5743      3.8222      4.1329      4.6086      5.3430      6.3788      7.7089    
  9.2695      10.949      12.592      14.023      15.065      15.579      15.490      14.804      19.336      17.241    
  14.804      12.288      9.9358      7.9306      6.3767      5.2905      4.6067      4.1815      3.8572      3.5911    
  3.3902      3.2483      3.1578      3.1105      3.1016      3.1312      3.2033      3.3255      3.5024      3.7367    
  4.0222      4.4355      5.1278      6.2029      7.7089      9.6259      11.872      14.301      16.711      18.864    
  20.518      21.469      21.586      20.846      26.681      24.053      20.846      17.395      14.023      10.998    
  8.5082      6.6412      5.3822      4.6247      4.1815      3.8558      3.5956      3.4071      3.2821      3.2134    
  3.1936      3.2217      3.3003      3.4367      3.6360      3.8975      4.2320      4.7836      5.7380      7.2157    
  9.2695      11.872      14.923      18.239      21.573      24.621      27.068      28.628      29.107      28.434    
  35.492      32.399      28.434      24.002      19.513      15.323      11.704      8.8228      6.7358      5.3822    
  4.6067      4.1695      3.8506      3.6043      3.4355      3.3349      3.2973      3.3173      3.3986      3.5450    
  3.7641      4.0496      4.4433      5.1498      6.3880      8.3007      10.949      14.301      18.239      22.551    
  26.941      31.042      34.456      36.810      37.827      37.372      45.473      42.030      37.372      31.976    
  26.334      20.894      16.017      11.951      8.8229      6.6412      5.2906      4.5562      4.1463      3.8408    
  3.6181      3.4766      3.4118      3.4167      3.4942      3.6456      3.8792      4.1857      4.6376      5.4928    
  7.0058      9.3475      12.592      16.711      21.573      26.941      32.479      37.757      42.296      45.627    
  47.374      47.324      56.161      52.542      47.324      41.040      34.275      27.570      21.374      16.017    
  11.704      8.5081      6.3767      5.1276      4.4846      4.1102      3.8282      3.6382      3.5363      3.5185    
  3.5838      3.7340      3.9747      4.2970      4.7936      5.7670      7.5110      10.231      14.023      18.864    
  24.621      31.042      37.757      44.285      50.069      54.541      57.216      57.779      66.922      63.360    