unknown system                          
   1.00000000000000     
    -1.415006    1.415006    1.415006
     1.415006   -1.415006    1.415006
     1.415006    1.415006   -1.415006
   Fe
     1
Direct
  0.000000  0.000000  0.000000
 
   36   36   36
 0.95977901837E+02 0.94217051562E+02 0.89142727389E+02 0.81322666689E+02 0.71572640867E+02
 0.60790658477E+02 0.49828004672E+02 0.39386016994E+02 0.29992295037E+02 0.21998261913E+02
 0.15607567307E+02 0.10871353006E+02 0.76978446859E+01 0.58326971115E+01 0.49021359508E+01
 0.44455835335E+01 0.41406218250E+01 0.39533111278E+01 0.38912731649E+01 0.39533111278E+01
 0.41406218250E+01 0.44455835335E+01 0.49021359508E+01 0.58326971115E+01 0.76978446859E+01
 0.10871353006E+02 0.15607567307E+02 0.21998261913E+02 0.29992295037E+02 0.39386016994E+02
 0.49828004672E+02 0.60790658477E+02 0.71572640867E+02 0.81322666689E+02 0.89142727389E+02
 0.94217051562E+02 0.94217051562E+02 0.93634319389E+02 0.89677840770E+02 0.82798112343E+02
 0.73733687709E+02 0.63359757459E+02 0.52542640497E+02 0.42029618985E+02 0.32398767311E+02
 0.24053485306E+02 0.17240558423E+02 0.12060769886E+02 0.84670476376E+01 0.62596134541E+01
 0.50990611290E+01 0.45494964630E+01 0.42116935984E+01 0.39855107978E+01 0.38833967858E+01
 0.39040279592E+01 0.40471010644E+01 0.43128966472E+01 0.46947392666E+01 0.53948652163E+01
 0.68614392799E+01 0.94990654685E+01 0.13608941845E+02 0.19336355230E+02 0.26681407550E+02
 0.35491640240E+02 0.45472665265E+02 0.56161131467E+02 0.66921861160E+02 0.76957534092E+02
 0.85385492205E+02 0.91356908920E+02 0.89142727389E+02 0.89677840770E+02 0.86927683989E+02
 0.81212382378E+02 0.73158544611E+02 0.63577113674E+02 0.53312003617E+02 0.43126603854E+02
 0.33628345352E+02 0.25261863486E+02 0.18308187574E+02 0.12909691292E+02 0.90602995183E+01
 0.66109606950E+01 0.52634575648E+01 0.46197634921E+01 0.42539456345E+01 0.39972489351E+01
 0.38600915185E+01 0.38403594612E+01 0.39391385466E+01 0.41573464636E+01 0.44849396244E+01
 0.49969744495E+01 0.60627512430E+01 0.81107296634E+01 0.11476480484E+02 0.16362913233E+02
 0.22821667943E+02 0.30760003739E+02 0.39939078455E+02 0.49969852507E+02 0.60293126672E+02
 0.70191128510E+02 0.78833641281E+02 0.85385492205E+02 0.81322666689E+02 0.82798112343E+02
 0.81212382378E+02 0.76751829057E+02 0.69917849706E+02 0.61423338291E+02 0.52055027580E+02
 0.42555888679E+02 0.33543088746E+02 0.25480355413E+02 0.18676462397E+02 0.13302243794E+02
 0.93879047182E+01 0.68263633384E+01 0.53665661637E+01 0.46503180429E+01 0.42633146274E+01
 0.39858334332E+01 0.38212890496E+01 0.37654610067E+01 0.38230302399E+01 0.39895690396E+01
 0.42695607719E+01 0.46598630073E+01 0.53815091623E+01 0.68517848024E+01 0.94321286695E+01
 0.13376736778E+02 0.18793658730E+02 0.25649461766E+02 0.33767589994E+02 0.42828695809E+02
 0.52357986843E+02 0.61728757239E+02 0.70191128510E+02 0.76957534092E+02 0.71572640867E+02
 0.73733687709E+02 0.73158544611E+02 0.69917849706E+02 0.64384096927E+02 0.57152527425E+02
 0.48925672374E+02 0.40396397270E+02 0.32163795909E+02 0.24692796783E+02 0.18304055713E+02
 0.13186797372E+02 0.93980395868E+01 0.68661695176E+01 0.53833178566E+01 0.46355576001E+01
 0.42375750340E+01 0.39505321386E+01 0.37662121048E+01 0.36830713422E+01 0.37025755370E+01
 0.38221510590E+01 0.40480217287E+01 0.43705076858E+01 0.48539122104E+01 0.58216133519E+01
 0.76543833218E+01 0.10639870617E+02 0.14946237745E+02 0.20599133340E+02 0.27487368725E+02
 0.35361397151E+02 0.43829828500E+02 0.52357986843E+02 0.60293126672E+02 0.66921861160E+02
 0.60790658477E+02 0.63359757459E+02 0.63577113674E+02 0.61423338291E+02 0.57152527425E+02
 0.51240549826E+02 0.44285039213E+02 0.36908358766E+02 0.29666880837E+02 0.23007622995E+02
 0.17247700462E+02 0.12584493476E+02 0.90891220384E+01 0.67192578257E+01 0.53030804012E+01
 0.45721949707E+01 0.41778012892E+01 0.38911761751E+01 0.36959888448E+01 0.35946626281E+01
 0.35826349437E+01 0.36618227238E+01 0.38325335450E+01 0.41016145324E+01 0.44612236577E+01
 0.50610277638E+01 0.62509427392E+01 0.83440678667E+01 0.11556993672E+02 0.15976662681E+02
 0.21559101087E+02 0.28124217022E+02 0.35361397151E+02 0.42828695809E+02 0.49969852507E+02
 0.56161131467E+02 0.49828004672E+02 0.52542640497E+02 0.53312003617E+02 0.52055027580E+02
 0.48925672374E+02 0.44285039213E+02 0.38624211973E+02 0.32478644519E+02 0.26345014688E+02
 0.20635491498E+02 0.15650667369E+02 0.11581813901E+02 0.85085730700E+01 0.64054907676E+01
 0.51333355257E+01 0.44623285043E+01 0.40881601010E+01 0.38087191786E+01 0.36133483547E+01
 0.35005513795E+01 0.34677670898E+01 0.35114090903E+01 0.36363246194E+01 0.38462937450E+01
 0.41441275784E+01 0.45420815982E+01 0.52513252523E+01 0.65917448197E+01 0.88089587482E+01
 0.12050754933E+02 0.16335161971E+02 0.21559101087E+02 0.27487368725E+02 0.33767589994E+02
 0.39939078455E+02 0.45472665265E+02 0.39386016994E+02 0.42029618985E+02 0.43126603854E+02
 0.42555888679E+02 0.40396397270E+02 0.36908358766E+02 0.32478644519E+02 0.27550488495E+02
 0.22551630370E+02 0.17846439299E+02 0.13708067076E+02 0.10312987433E+02 0.77394318603E+01
 0.59716680465E+01 0.48957567012E+01 0.43162882976E+01 0.39729556383E+01 0.37079867225E+01
 0.35195342424E+01 0.34040165574E+01 0.33579124562E+01 0.33761111058E+01 0.34618352529E+01
 0.36196927046E+01 0.38582223796E+01 0.41740644421E+01 0.46065404500E+01 0.53857410169E+01
 0.67796571476E+01 0.89727242732E+01 0.12050754933E+02 0.15976662681E+02 0.20599133340E+02
 0.25649461766E+02 0.30760003739E+02 0.35491640240E+02 0.29992295037E+02 0.32398767311E+02
 0.33628345352E+02 0.33543088746E+02 0.32163795909E+02 0.29666880837E+02 0.26345014688E+02
 0.22551630370E+02 0.18640533416E+02 0.14922906654E+02 0.11634189140E+02 0.89309865802E+01
 0.68828050238E+01 0.54785853001E+01 0.46220642871E+01 0.41474045396E+01 0.38389523717E+01
 0.35939808373E+01 0.34182883687E+01 0.33067783076E+01 0.32547485571E+01 0.32563257121E+01
 0.33120847818E+01 0.34270904872E+01 0.36090141930E+01 0.38655927324E+01 0.41921569751E+01
 0.46429602897E+01 0.54345610830E+01 0.67796571476E+01 0.88089587482E+01 0.11556993672E+02
 0.14946237745E+02 0.18793658730E+02 0.22821667943E+02 0.26681407550E+02 0.21998261913E+02
 0.24053485306E+02 0.25261863486E+02 0.25480355413E+02 0.24692796783E+02 0.23007622995E+02
 0.20635491498E+02 0.17846439299E+02 0.14922906654E+02 0.12116552988E+02 0.96259806065E+01
 0.75806617196E+01 0.60385554666E+01 0.49869509345E+01 0.43450359895E+01 0.39683267108E+01
 0.36935820411E+01 0.34726260242E+01 0.33140243981E+01 0.32111206511E+01 0.31595638027E+01
 0.31515263300E+01 0.31874240258E+01 0.32686257373E+01 0.34048518892E+01 0.36022798197E+01
 0.38691923536E+01 0.41978788288E+01 0.46429602897E+01 0.53857410169E+01 0.65917448197E+01
 0.83440678667E+01 0.10639870617E+02 0.13376736778E+02 0.16362913233E+02 0.19336355230E+02
 0.15607567307E+02 0.17240558423E+02 0.18308187574E+02 0.18676462397E+02 0.18304055713E+02
 0.17247700462E+02 0.15650667369E+02 0.13708067076E+02 0.11634189140E+02 0.96259806065E+01
 0.78406059483E+01 0.63788738863E+01 0.52864732983E+01 0.45464561404E+01 0.40883888973E+01
 0.37880573494E+01 0.35439946804E+01 0.33507256484E+01 0.32107847862E+01 0.31204986959E+01
 0.30727103339E+01 0.30619338739E+01 0.30848743163E+01 0.31437268823E+01 0.32435416333E+01
 0.33934301479E+01 0.36001631395E+01 0.38691923536E+01 0.41921569751E+01 0.46065404500E+01
 0.52513252523E+01 0.62509427392E+01 0.76543833218E+01 0.94321286695E+01 0.11476480484E+02
 0.13608941845E+02 0.10871353006E+02 0.12060769886E+02 0.12909691292E+02 0.13302243794E+02
 0.13186797372E+02 0.12584493476E+02 0.11581813901E+02 0.10312987433E+02 0.89309865802E+01
 0.75806617196E+01 0.63788738863E+01 0.54014442443E+01 0.46767861138E+01 0.41847436479E+01
 0.38612080337E+01 0.36105804367E+01 0.33985963633E+01 0.32332921773E+01 0.31138283790E+01
 0.30370222567E+01 0.29961676784E+01 0.29859983183E+01 0.30029383159E+01 0.30471682049E+01
 0.31224866193E+01 0.32352470317E+01 0.33934301479E+01 0.36022798197E+01 0.38655927324E+01
 0.41740644421E+01 0.45420815982E+01 0.50610277638E+01 0.58216133519E+01 0.68517848024E+01
 0.81107296634E+01 0.94990654685E+01 0.76978446859E+01 0.84670476376E+01 0.90602995183E+01
 0.93879047182E+01 0.93980395868E+01 0.90891220384E+01 0.85085730700E+01 0.77394318603E+01
 0.68828050238E+01 0.60385554666E+01 0.52864732983E+01 0.46767861138E+01 0.42229180593E+01
 0.39029345866E+01 0.36560938632E+01 0.34416237336E+01 0.32635917110E+01 0.31254517367E+01
 0.30267355251E+01 0.29635437328E+01 0.29308099184E+01 0.29236436085E+01 0.29386635120E+01
 0.29752006870E+01 0.30349096549E+01 0.31224866193E+01 0.32435416333E+01 0.34048518892E+01
 0.36090141930E+01 0.38582223796E+01 0.41441275784E+01 0.44612236577E+01 0.48539122104E+01
 0.53815091623E+01 0.60627512430E+01 0.68614392799E+01 0.58326971115E+01 0.62596134541E+01
 0.66109606950E+01 0.68263633384E+01 0.68661695176E+01 0.67192578257E+01 0.64054907676E+01
 0.59716680465E+01 0.54785853001E+01 0.49869509345E+01 0.45464561404E+01 0.41847436479E+01
 0.39029345866E+01 0.36721575591E+01 0.34665989252E+01 0.32884876054E+01 0.31430055268E+01
 0.30312161751E+01 0.29520645007E+01 0.29021252700E+01 0.28776609076E+01 0.28746022076E+01
 0.28904582805E+01 0.29236459938E+01 0.29752006870E+01 0.30471682049E+01 0.31437268823E+01
 0.32686257373E+01 0.34270904872E+01 0.36196927046E+01 0.38462937450E+01 0.41016145324E+01
 0.43705076858E+01 0.46598630073E+01 0.49969744495E+01 0.53948652163E+01 0.49021359508E+01
 0.50990611290E+01 0.52634575648E+01 0.53665661637E+01 0.53833178566E+01 0.53030804012E+01
 0.51333355257E+01 0.48957567012E+01 0.46220642871E+01 0.43450359895E+01 0.40883888973E+01
 0.38612080337E+01 0.36560938632E+01 0.34665989252E+01 0.32980297816E+01 0.31552414709E+01
 0.30399889323E+01 0.29526285956E+01 0.28913814885E+01 0.28539767894E+01 0.28373592988E+01
 0.28391677726E+01 0.28571394806E+01 0.28904582805E+01 0.29386635120E+01 0.30029383159E+01
 0.30848743163E+01 0.31874240258E+01 0.33120847818E+01 0.34618352529E+01 0.36363246194E+01
 0.38325335450E+01 0.40480217287E+01 0.42695607719E+01 0.44849396244E+01 0.46947392666E+01
 0.44455835335E+01 0.45494964630E+01 0.46197634921E+01 0.46503180429E+01 0.46355576001E+01
 0.45721949707E+01 0.44623285043E+01 0.43162882976E+01 0.41474045396E+01 0.39683267108E+01
 0.37880573494E+01 0.36105804367E+01 0.34416237336E+01 0.32884876054E+01 0.31552414709E+01
 0.30440997260E+01 0.29560401961E+01 0.28902116453E+01 0.28452961902E+01 0.28192796529E+01
 0.28105670673E+01 0.28174939612E+01 0.28391677726E+01 0.28746022076E+01 0.29236436085E+01
 0.29859983183E+01 0.30619338739E+01 0.31515263300E+01 0.32563257121E+01 0.33761111058E+01
 0.35114090903E+01 0.36618227238E+01 0.38221510590E+01 0.39895690396E+01 0.41573464636E+01
 0.43128966472E+01 0.41406218250E+01 0.42116935984E+01 0.42539456345E+01 0.42633146274E+01
 0.42375750340E+01 0.41778012892E+01 0.40881601010E+01 0.39729556383E+01 0.38389523717E+01
 0.36935820411E+01 0.35439946804E+01 0.33985963633E+01 0.32635917110E+01 0.31430055268E+01
 0.30399889323E+01 0.29560401961E+01 0.28908957791E+01 0.28437781376E+01 0.28132032290E+01
 0.27980736327E+01 0.27973176902E+01 0.28105670673E+01 0.28373592988E+01 0.28776609076E+01
 0.29308099184E+01 0.29961676784E+01 0.30727103339E+01 0.31595638027E+01 0.32547485571E+01
 0.33579124562E+01 0.34677670898E+01 0.35826349437E+01 0.37025755370E+01 0.38230302399E+01
 0.39391385466E+01 0.40471010644E+01 0.39533111278E+01 0.39855107978E+01 0.39972489351E+01
 0.39858334332E+01 0.39505321386E+01 0.38911761751E+01 0.38087191786E+01 0.37079867225E+01
 0.35939808373E+01 0.34726260242E+01 0.33507256484E+01 0.32332921773E+01 0.31254517367E+01
 0.30312161751E+01 0.29526285956E+01 0.28902116453E+01 0.28437781376E+01 0.28121738063E+01
 0.27944877932E+01 0.27898203879E+01 0.27980736327E+01 0.28192796529E+01 0.28539767894E+01
 0.29021252700E+01 0.29635437328E+01 0.30370222567E+01 0.31204986959E+01 0.32111206511E+01
 0.33067783076E+01 0.34040165574E+01 0.35005513795E+01 0.35946626281E+01 0.36830713422E+01
 0.37654610067E+01 0.38403594612E+01 0.39040279592E+01 0.38912731649E+01 0.38833967858E+01
 0.38600915185E+01 0.38212890496E+01 0.37662121048E+01 0.36959888448E+01 0.36133483547E+01
 0.35195342424E+01 0.34182883687E+01 0.33140243981E+01 0.32107847862E+01 0.31138283790E+01
 0.30267355251E+01 0.29520645007E+01 0.28913814885E+01 0.28452961902E+01 0.28132032290E+01
 0.27944877932E+01 0.27882918489E+01 0.27944877932E+01 0.28132032290E+01 0.28452961902E+01
 0.28913814885E+01 0.29520645007E+01 0.30267355251E+01 0.31138283790E+01 0.32107847862E+01
 0.33140243981E+01 0.34182883687E+01 0.35195342424E+01 0.36133483547E+01 0.36959888448E+01
 0.37662121048E+01 0.38212890496E+01 0.38600915185E+01 0.38833967858E+01 0.39533111278E+01
 0.39040279592E+01 0.38403594612E+01 0.37654610067E+01 0.36830713422E+01 0.35946626281E+01
 0.35005513795E+01 0.34040165574E+01 0.33067783076E+01 0.32111206511E+01 0.31204986959E+01
 0.30370222567E+01 0.29635437328E+01 0.29021252700E+01 0.28539767894E+01 0.28192796529E+01
 0.27980736327E+01 0.27898203879E+01 0.27944877932E+01 0.28121738063E+01 0.28437781376E+01
 0.28902116453E+01 0.29526285956E+01 0.30312161751E+01 0.31254517367E+01 0.32332921773E+01
 0.33507256484E+01 0.34726260242E+01 0.35939808373E+01 0.37079867225E+01 0.38087191786E+01
 0.38911761751E+01 0.39505321386E+01 0.39858334332E+01 0.39972489351E+01 0.39855107978E+01
 0.41406218250E+01 0.40471010644E+01 0.39391385466E+01 0.38230302399E+01 0.37025755370E+01
 0.35826349437E+01 0.34677670898E+01 0.33579124562E+01 0.32547485571E+01 0.31595638027E+01
 0.30727103339E+01 0.29961676784E+01 0.29308099184E+01 0.28776609076E+01 0.28373592988E+01
 0.28105670673E+01 0.27973176902E+01 0.27980736327E+01 0.28132032290E+01 0.28437781376E+01
 0.28908957791E+01 0.29560401961E+01 0.30399889323E+01 0.31430055268E+01 0.32635917110E+01
 0.33985963633E+01 0.35439946804E+01 0.36935820411E+01 0.38389523717E+01 0.39729556383E+01
 0.40881601010E+01 0.41778012892E+01 0.42375750340E+01 0.42633146274E+01 0.42539456345E+01
 0.42116935984E+01 0.44455835335E+01 0.43128966472E+01 0.41573464636E+01 0.39895690396E+01
 0.38221510590E+01 0.36618227238E+01 0.35114090903E+01 0.33761111058E+01 0.32563257121E+01
 0.31515263300E+01 0.30619338739E+01 0.29859983183E+01 0.29236436085E+01 0.28746022076E+01
 0.28391677726E+01 0.28174939612E+01 0.28105670673E+01 0.28192796529E+01 0.28452961902E+01
 0.28902116453E+01 0.29560401961E+01 0.30440997260E+01 0.31552414709E+01 0.32884876054E+01
 0.34416237336E+01 0.36105804367E+01 0.37880573494E+01 0.39683267108E+01 0.41474045396E+01
 0.43162882976E+01 0.44623285043E+01 0.45721949707E+01 0.46355576001E+01 0.46503180429E+01
 0.46197634921E+01 0.45494964630E+01 0.49021359508E+01 0.46947392666E+01 0.44849396244E+01
 0.42695607719E+01 0.40480217287E+01 0.38325335450E+01 0.36363246194E+01 0.34618352529E+01
 0.33120847818E+01 0.31874240258E+01 0.30848743163E+01 0.30029383159E+01 0.29386635120E+01
 0.28904582805E+01 0.28571394806E+01 0.28391677726E+01 0.28373592988E+01 0.28539767894E+01
 0.28913814885E+01 0.29526285956E+01 0.30399889323E+01 0.31552414709E+01 0.32980297816E+01
 0.34665989252E+01 0.36560938632E+01 0.38612080337E+01 0.40883888973E+01 0.43450359895E+01
 0.46220642871E+01 0.48957567012E+01 0.51333355257E+01 0.53030804012E+01 0.53833178566E+01
 0.53665661637E+01 0.52634575648E+01 0.50990611290E+01 0.58326971115E+01 0.53948652163E+01
 0.49969744495E+01 0.46598630073E+01 0.43705076858E+01 0.41016145324E+01 0.38462937450E+01
 0.36196927046E+01 0.34270904872E+01 0.32686257373E+01 0.31437268823E+01 0.30471682049E+01
 0.29752006870E+01 0.29236459938E+01 0.28904582805E+01 0.28746022076E+01 0.28776609076E+01
 0.29021252700E+01 0.29520645007E+01 0.30312161751E+01 0.31430055268E+01 0.32884876054E+01
 0.34665989252E+01 0.36721575591E+01 0.39029345866E+01 0.41847436479E+01 0.45464561404E+01
 0.49869509345E+01 0.54785853001E+01 0.59716680465E+01 0.64054907676E+01 0.67192578257E+01
 0.68661695176E+01 0.68263633384E+01 0.66109606950E+01 0.62596134541E+01 0.76978446859E+01
 0.68614392799E+01 0.60627512430E+01 0.53815091623E+01 0.48539122104E+01 0.44612236577E+01
 0.41441275784E+01 0.38582223796E+01 0.36090141930E+01 0.34048518892E+01 0.32435416333E+01
 0.31224866193E+01 0.30349096549E+01 0.29752006870E+01 0.29386635120E+01 0.29236436085E+01
 0.29308099184E+01 0.29635437328E+01 0.30267355251E+01 0.31254517367E+01 0.32635917110E+01
 0.34416237336E+01 0.36560938632E+01 0.39029345866E+01 0.42229180593E+01 0.46767861138E+01
 0.52864732983E+01 0.60385554666E+01 0.68828050238E+01 0.77394318603E+01 0.85085730700E+01
 0.90891220384E+01 0.93980395868E+01 0.93879047182E+01 0.90602995183E+01 0.84670476376E+01
 0.10871353006E+02 0.94990654685E+01 0.81107296634E+01 0.68517848024E+01 0.58216133519E+01
 0.50610277638E+01 0.45420815982E+01 0.41740644421E+01 0.38655927324E+01 0.36022798197E+01
 0.33934301479E+01 0.32352470317E+01 0.31224866193E+01 0.30471682049E+01 0.30029383159E+01
 0.29859983183E+01 0.29961676784E+01 0.30370222567E+01 0.31138283790E+01 0.32332921773E+01
 0.33985963633E+01 0.36105804367E+01 0.38612080337E+01 0.41847436479E+01 0.46767861138E+01
 0.54014442443E+01 0.63788738863E+01 0.75806617196E+01 0.89309865802E+01 0.10312987433E+02
 0.11581813901E+02 0.12584493476E+02 0.13186797372E+02 0.13302243794E+02 0.12909691292E+02
 0.12060769886E+02 0.15607567307E+02 0.13608941845E+02 0.11476480484E+02 0.94321286695E+01
 0.76543833218E+01 0.62509427392E+01 0.52513252523E+01 0.46065404500E+01 0.41921569751E+01
 0.38691923536E+01 0.36001631395E+01 0.33934301479E+01 0.32435416333E+01 0.31437268823E+01
 0.30848743163E+01 0.30619338739E+01 0.30727103339E+01 0.31204986959E+01 0.32107847862E+01
 0.33507256484E+01 0.35439946804E+01 0.37880573494E+01 0.40883888973E+01 0.45464561404E+01
 0.52864732983E+01 0.63788738863E+01 0.78406059483E+01 0.96259806065E+01 0.11634189140E+02
 0.13708067076E+02 0.15650667369E+02 0.17247700462E+02 0.18304055713E+02 0.18676462397E+02
 0.18308187574E+02 0.17240558423E+02 0.21998261913E+02 0.19336355230E+02 0.16362913233E+02
 0.13376736778E+02 0.10639870617E+02 0.83440678667E+01 0.65917448197E+01 0.53857410169E+01
 0.46429602897E+01 0.41978788288E+01 0.38691923536E+01 0.36022798197E+01 0.34048518892E+01
 0.32686257373E+01 0.31874240258E+01 0.31515263300E+01 0.31595638027E+01 0.32111206511E+01
 0.33140243981E+01 0.34726260242E+01 0.36935820411E+01 0.39683267108E+01 0.43450359895E+01
 0.49869509345E+01 0.60385554666E+01 0.75806617196E+01 0.96259806065E+01 0.12116552988E+02
 0.14922906654E+02 0.17846439299E+02 0.20635491498E+02 0.23007622995E+02 0.24692796783E+02
 0.25480355413E+02 0.25261863486E+02 0.24053485306E+02 0.29992295037E+02 0.26681407550E+02
 0.22821667943E+02 0.18793658730E+02 0.14946237745E+02 0.11556993672E+02 0.88089587482E+01
 0.67796571476E+01 0.54345610830E+01 0.46429602897E+01 0.41921569751E+01 0.38655927324E+01
 0.36090141930E+01 0.34270904872E+01 0.33120847818E+01 0.32563257121E+01 0.32547485571E+01
 0.33067783076E+01 0.34182883687E+01 0.35939808373E+01 0.38389523717E+01 0.41474045396E+01
 0.46220642871E+01 0.54785853001E+01 0.68828050238E+01 0.89309865802E+01 0.11634189140E+02
 0.14922906654E+02 0.18640533416E+02 0.22551630370E+02 0.26345014688E+02 0.29666880837E+02
 0.32163795909E+02 0.33543088746E+02 0.33628345352E+02 0.32398767311E+02 0.39386016994E+02
 0.35491640240E+02 0.30760003739E+02 0.25649461766E+02 0.20599133340E+02 0.15976662681E+02
 0.12050754933E+02 0.89727242732E+01 0.67796571476E+01 0.53857410169E+01 0.46065404500E+01
 0.41740644421E+01 0.38582223796E+01 0.36196927046E+01 0.34618352529E+01 0.33761111058E+01
 0.33579124562E+01 0.34040165574E+01 0.35195342424E+01 0.37079867225E+01 0.39729556383E+01
 0.43162882976E+01 0.48957567012E+01 0.59716680465E+01 0.77394318603E+01 0.10312987433E+02
 0.13708067076E+02 0.17846439299E+02 0.22551630370E+02 0.27550488495E+02 0.32478644519E+02
 0.36908358766E+02 0.40396397270E+02 0.42555888679E+02 0.43126603854E+02 0.42029618985E+02
 0.49828004672E+02 0.45472665265E+02 0.39939078455E+02 0.33767589994E+02 0.27487368725E+02
 0.21559101087E+02 0.16335161971E+02 0.12050754933E+02 0.88089587482E+01 0.65917448197E+01
 0.52513252523E+01 0.45420815982E+01 0.41441275784E+01 0.38462937450E+01 0.36363246194E+01
 0.35114090903E+01 0.34677670898E+01 0.35005513795E+01 0.36133483547E+01 0.38087191786E+01
 0.40881601010E+01 0.44623285043E+01 0.51333355257E+01 0.64054907676E+01 0.85085730700E+01
 0.11581813901E+02 0.15650667369E+02 0.20635491498E+02 0.26345014688E+02 0.32478644519E+02
 0.38624211973E+02 0.44285039213E+02 0.48925672374E+02 0.52055027580E+02 0.53312003617E+02
 0.52542640497E+02 0.60790658477E+02 0.56161131467E+02 0.49969852507E+02 0.42828695809E+02
 0.35361397151E+02 0.28124217022E+02 0.21559101087E+02 0.15976662681E+02 0.11556993672E+02
 0.83440678667E+01 0.62509427392E+01 0.50610277638E+01 0.44612236577E+01 0.41016145324E+01
 0.38325335450E+01 0.36618227238E+01 0.35826349437E+01 0.35946626281E+01 0.36959888448E+01
 0.38911761751E+01 0.41778012892E+01 0.45721949707E+01 0.53030804012E+01 0.67192578257E+01
 0.90891220384E+01 0.12584493476E+02 0.17247700462E+02 0.23007622995E+02 0.29666880837E+02
 0.36908358766E+02 0.44285039213E+02 0.51240549826E+02 0.57152527425E+02 0.61423338291E+02
 0.63577113674E+02 0.63359757459E+02 0.71572640867E+02 0.66921861160E+02 0.60293126672E+02
 0.52357986843E+02 0.43829828500E+02 0.35361397151E+02 0.27487368725E+02 0.20599133340E+02
 0.14946237745E+02 0.10639870617E+02 0.76543833218E+01 0.58216133519E+01 0.48539122104E+01
 0.43705076858E+01 0.40480217287E+01 0.38221510590E+01 0.37025755370E+01 0.36830713422E+01
 0.37662121048E+01 0.39505321386E+01 0.42375750340E+01 0.46355576001E+01 0.53833178566E+01
 0.68661695176E+01 0.93980395868E+01 0.13186797372E+02 0.18304055713E+02 0.24692796783E+02
 0.32163795909E+02 0.40396397270E+02 0.48925672374E+02 0.57152527425E+02 0.64384096927E+02
 0.69917849706E+02 0.73158544611E+02 0.73733687709E+02 0.81322666689E+02 0.76957534092E+02
 0.70191128510E+02 0.61728757239E+02 0.52357986843E+02 0.42828695809E+02 0.33767589994E+02
 0.25649461766E+02 0.18793658730E+02 0.13376736778E+02 0.94321286695E+01 0.68517848024E+01
 0.53815091623E+01 0.46598630073E+01 0.42695607719E+01 0.39895690396E+01 0.38230302399E+01
 0.37654610067E+01 0.38212890496E+01 0.39858334332E+01 0.42633146274E+01 0.46503180429E+01
 0.53665661637E+01 0.68263633384E+01 0.93879047182E+01 0.13302243794E+02 0.18676462397E+02
 0.25480355413E+02 0.33543088746E+02 0.42555888679E+02 0.52055027580E+02 0.61423338291E+02
 0.69917849706E+02 0.76751829057E+02 0.81212382378E+02 0.82798112343E+02 0.89142727389E+02
 0.85385492205E+02 0.78833641281E+02 0.70191128510E+02 0.60293126672E+02 0.49969852507E+02
 0.39939078455E+02 0.30760003739E+02 0.22821667943E+02 0.16362913233E+02 0.11476480484E+02
 0.81107296634E+01 0.60627512430E+01 0.49969744495E+01 0.44849396244E+01 0.41573464636E+01
 0.39391385466E+01 0.38403594612E+01 0.38600915185E+01 0.39972489351E+01 0.42539456345E+01
 0.46197634921E+01 0.52634575648E+01 0.66109606950E+01 0.90602995183E+01 0.12909691292E+02
 0.18308187574E+02 0.25261863486E+02 0.33628345352E+02 0.43126603854E+02 0.53312003617E+02
 0.63577113674E+02 0.73158544611E+02 0.81212382378E+02 0.86927683989E+02 0.89677840770E+02
 0.94217051562E+02 0.91356908920E+02 0.85385492205E+02 0.76957534092E+02 0.66921861160E+02
 0.56161131467E+02 0.45472665265E+02 0.35491640240E+02 0.26681407550E+02 0.19336355230E+02
 0.13608941845E+02 0.94990654685E+01 0.68614392799E+01 0.53948652163E+01 0.46947392666E+01
 0.43128966472E+01 0.40471010644E+01 0.39040279592E+01 0.38833967858E+01 0.39855107978E+01
 0.42116935984E+01 0.45494964630E+01 0.50990611290E+01 0.62596134541E+01 0.84670476376E+01
 0.12060769886E+02 0.17240558423E+02 0.24053485306E+02 0.32398767311E+02 0.42029618985E+02
 0.52542640497E+02 0.63359757459E+02 0.73733687709E+02 0.82798112343E+02 0.89677840770E+02
 0.93634319389E+02 0.94217535058E+02 0.93634279336E+02 0.89677538519E+02 0.82798018759E+02
 0.73733760991E+02 0.63359384653E+02 0.52542586432E+02 0.42029563745E+02 0.32398670845E+02
 0.24053500996E+02 0.17240630497E+02 0.12060771810E+02 0.84670780236E+01 0.62595820970E+01
 0.50990978712E+01 0.45494547486E+01 0.42117350751E+01 0.39854698195E+01 0.38834376787E+01
 0.39039863848E+01 0.40471437588E+01 0.43128536647E+01 0.46947778171E+01 0.53948281101E+01
 0.68614969819E+01 0.94990068502E+01 0.13608986449E+02 0.19336385187E+02 0.26681487257E+02
 0.35491739806E+02 0.45472719116E+02 0.56161045443E+02 0.66922143279E+02 0.76957537401E+02
 0.85385397743E+02 0.91357128967E+02 0.93634279336E+02 0.94217510198E+02 0.91357389660E+02
 0.85385401461E+02 0.76957468136E+02 0.66922100810E+02 0.56161181193E+02 0.45472468493E+02
 0.35491847678E+02 0.26681405922E+02 0.19336461395E+02 0.13608936276E+02 0.94990246020E+01
 0.68614558305E+01 0.53948643448E+01 0.46947417864E+01 0.43128960826E+01 0.40471006466E+01
 0.39040260640E+01 0.38833995708E+01 0.39855047008E+01 0.42117009416E+01 0.45494916304E+01
 0.50990668291E+01 0.62596010495E+01 0.84670480177E+01 0.12060780127E+02 0.17240633084E+02
 0.24053497861E+02 0.32398544217E+02 0.42029640024E+02 0.52542336174E+02 0.63359523990E+02
 0.73733695794E+02 0.82798011319E+02 0.89677406526E+02 0.89677538519E+02 0.91357389660E+02
 0.89677065563E+02 0.84835021095E+02 0.77372091391E+02 0.68067173459E+02 0.57779503773E+02
 0.47323471097E+02 0.37371976206E+02 0.28433599053E+02 0.20846061494E+02 0.14803678655E+02
 0.10350484352E+02 0.73897851646E+01 0.56672858101E+01 0.48143049447E+01 0.43836770605E+01
 0.40876620567E+01 0.39078868377E+01 0.38476618720E+01 0.39078909100E+01 0.40876526324E+01
 0.43836872254E+01 0.48142962138E+01 0.56673047343E+01 0.73897930774E+01 0.10350447942E+02
 0.14803592001E+02 0.20846160420E+02 0.28433818947E+02 0.37372129273E+02 0.47323614970E+02
 0.57779729939E+02 0.68067379385E+02 0.77372139600E+02 0.84835341235E+02 0.82798018759E+02
 0.85385401461E+02 0.84835021095E+02 0.81212290754E+02 0.74931239909E+02 0.66666022737E+02
 0.57215706949E+02 0.47373940631E+02 0.37827014154E+02 0.29106899721E+02 0.21586259305E+02
 0.15489524106E+02 0.10900938730E+02 0.77631066803E+01 0.58715949237E+01 0.48965502562E+01
 0.44193885271E+01 0.41025830668E+01 0.38933807905E+01 0.37986472951E+01 0.38184647595E+01
 0.39508645372E+01 0.41998313746E+01 0.45529769354E+01 0.51488479455E+01 0.63903474552E+01
 0.86715516927E+01 0.12288368992E+02 0.17394901930E+02 0.24001931594E+02 0.31975570819E+02
 0.41040386842E+02 0.50767291389E+02 0.60566539184E+02 0.69704355934E+02 0.77372351591E+02
 0.73733760991E+02 0.76957468136E+02 0.77372091391E+02 0.74931239909E+02 0.69917937117E+02
 0.62884807597E+02 0.54541302814E+02 0.45627403473E+02 0.36810429169E+02 0.28628125050E+02
 0.21468751811E+02 0.15578841221E+02 0.11069890661E+02 0.79198869537E+01 0.59676051503E+01
 0.49268500349E+01 0.44168074163E+01 0.40892583255E+01 0.38590533001E+01 0.37381098813E+01
 0.37209027952E+01 0.38103869797E+01 0.40057157981E+01 0.43062254208E+01 0.47321699169E+01
 0.55575145910E+01 0.71841231606E+01 0.99358065616E+01 0.14023046888E+02 0.19512669380E+02
 0.26333558894E+02 0.34275332491E+02 0.42985466235E+02 0.51962195223E+02 0.60566450041E+02
 0.68067316822E+02 0.63359384653E+02 0.66922100810E+02 0.68067173459E+02 0.66666022737E+02
 0.62884807597E+02 0.57153036509E+02 0.50068982562E+02 0.42296077180E+02 0.34455500059E+02
 0.27067498184E+02 0.20518413584E+02 0.15064641729E+02 0.10834269867E+02 0.78320162024E+01
 0.59325887913E+01 0.48933455771E+01 0.43753731338E+01 0.40462869646E+01 0.38054397922E+01
 0.36662391906E+01 0.36198947960E+01 0.36708773886E+01 0.38153008137E+01 0.40626519654E+01
 0.43999918851E+01 0.49300669319E+01 0.59911744159E+01 0.79306118048E+01 0.10998353824E+02
 0.15322675054E+02 0.20894061964E+02 0.27569654433E+02 0.35071206348E+02 0.42985430574E+02
 0.50767162683E+02 0.57779785082E+02 0.52542586432E+02 0.56161181193E+02 0.57779503773E+02
 0.57215706949E+02 0.54541302814E+02 0.50068982562E+02 0.44285111627E+02 0.37756817168E+02
 0.31041634686E+02 0.24620978102E+02 0.18864177467E+02 0.14022607888E+02 0.10231451257E+02
 0.75109132664E+01 0.57670846285E+01 0.47934750919E+01 0.42970977576E+01 0.39746254101E+01
 0.37340200608E+01 0.35837880649E+01 0.35185551932E+01 0.35362094251E+01 0.36382746435E+01
 0.38281490089E+01 0.41102834968E+01 0.44845509864E+01 0.51276536663E+01 0.63766786785E+01
 0.85081751326E+01 0.11704371828E+02 0.16016777805E+02 0.21374092215E+02 0.27569707939E+02
 0.34275420487E+02 0.41040399330E+02 0.47323657063E+02 0.42029563745E+02 0.45472468493E+02
 0.47323471097E+02 0.47373940631E+02 0.45627403473E+02 0.42296077180E+02 0.37756817168E+02
 0.32478480724E+02 0.26941424866E+02 0.21572813217E+02 0.16711322433E+02 0.12592407188E+02
 0.93475173857E+01 0.70057133545E+01 0.54928527347E+01 0.46375735056E+01 0.41857286788E+01
 0.38791002569E+01 0.36456908311E+01 0.34941440788E+01 0.34167511956E+01 0.34117082959E+01
 0.34766342780E+01 0.36180728066E+01 0.38408051134E+01 0.41462200397E+01 0.45562521723E+01
 0.52905426837E+01 0.66412460339E+01 0.88228344045E+01 0.11950777305E+02 0.16016674389E+02
 0.20894077108E+02 0.26333481956E+02 0.31975571706E+02 0.37372091902E+02 0.32398670845E+02
 0.35491847678E+02 0.37371976206E+02 0.37827014154E+02 0.36810429169E+02 0.34455500059E+02
 0.31041634686E+02 0.26941424866E+02 0.22551427916E+02 0.18239383830E+02 0.14301322158E+02
 0.10949015651E+02 0.83006450572E+01 0.63880582857E+01 0.51497166542E+01 0.44432960771E+01
 0.40496055405E+01 0.37641426218E+01 0.35449835245E+01 0.33986542942E+01 0.33172685125E+01
 0.32972955621E+01 0.33349052206E+01 0.34354844127E+01 0.36042697001E+01 0.38506303377E+01
 0.41694864437E+01 0.46066534232E+01 0.53821760056E+01 0.67358214277E+01 0.88228723427E+01
 0.11704451023E+02 0.15322647154E+02 0.19512738557E+02 0.24001887057E+02 0.28433747081E+02
 0.24053500996E+02 0.26681405922E+02 0.28433599053E+02 0.29106899721E+02 0.28628125050E+02
 0.27067498184E+02 0.24620978102E+02 0.21572813217E+02 0.18239383830E+02 0.14922783845E+02