   1   1   1   0
  0.1133275E+02  0.2450863E-09  0.2450863E-09  0.2450863E-09  0.5000000E-15
  1.000000000000000E-004
  CAR 
 unknown system                          
     48.36513379     -5.02202931  301      6.01822376      1.00000000
     -5.022  0.0000E+00  0.0000E+00  0.0000E+00  0.0000E+00
     -4.844  0.0000E+00  0.0000E+00  0.0000E+00  0.0000E+00
     -4.666  0.0000E+00  0.0000E+00  0.0000E+00  0.0000E+00
     -4.488  0.0000E+00  0.0000E+00  0.0000E+00  0.0000E+00
     -4.310 -0.4156E-32  0.0000E+00 -0.7396E-33  0.0000E+00
     -4.132 -0.7238E-26 -0.1762E-31 -0.1288E-26 -0.3135E-32
     -3.954 -0.2565E-20 -0.2635E-25 -0.4565E-21 -0.4688E-26
     -3.776 -0.1769E-15 -0.8015E-20 -0.3148E-16 -0.1426E-20
     -3.598 -0.2588E-11 -0.4796E-15 -0.4606E-12 -0.8535E-16
     -3.420 -0.7466E-08 -0.5947E-11 -0.1329E-08 -0.1058E-11
     -3.242 -0.4227E-05 -0.1469E-07 -0.7535E-06 -0.2616E-08
     -3.064 -0.4457E-03 -0.7103E-05 -0.8008E-04 -0.1267E-05
     -2.887 -0.6992E-02 -0.6338E-03 -0.1324E-02 -0.1141E-03
     -2.709  0.1861E-01 -0.7958E-02  0.1988E-02 -0.1530E-02
     -2.531  0.1946E+00  0.2949E-01  0.3661E-01  0.3717E-02
     -2.353  0.2085E+00  0.2089E+00  0.7372E-01  0.4090E-01
     -2.175  0.1112E+00  0.1969E+00  0.9351E-01  0.7594E-01
     -1.997  0.9015E-01  0.1064E+00  0.1096E+00  0.9487E-01
     -1.819  0.7491E-01  0.8827E-01  0.1229E+00  0.1106E+00
     -1.641  0.7246E-01  0.7284E-01  0.1358E+00  0.1235E+00
     -1.463  0.6894E-01  0.7185E-01  0.1480E+00  0.1363E+00
     -1.285  0.4624E-01  0.6697E-01  0.1563E+00  0.1482E+00
     -1.107  0.8030E-01  0.4335E-01  0.1706E+00  0.1560E+00
     -0.929  0.4272E-01  0.8045E-01  0.1782E+00  0.1703E+00
     -0.751  0.4393E-01  0.4055E-01  0.1860E+00  0.1775E+00
     -0.573  0.7867E-01  0.3957E-01  0.2000E+00  0.1845E+00
     -0.395  0.4225E-01  0.7230E-01  0.2075E+00  0.1974E+00
     -0.217  0.2866E-01  0.5207E-01  0.2126E+00  0.2067E+00
     -0.039  0.9098E-01  0.1256E-01  0.2288E+00  0.2089E+00
      0.139  0.3937E-01  0.7362E-01  0.2358E+00  0.2220E+00
      0.317  0.3732E-01  0.6339E-01  0.2424E+00  0.2333E+00
      0.495  0.8457E-01  0.1009E-01  0.2575E+00  0.2351E+00
      0.673  0.4156E-01  0.5497E-01  0.2649E+00  0.2449E+00
      0.851  0.1989E+00  0.6492E-01  0.3003E+00  0.2564E+00
      1.029  0.9459E+00  0.4319E-01  0.4686E+00  0.2641E+00
      1.206  0.9277E+00  0.2687E-01  0.6337E+00  0.2689E+00
      1.384  0.5763E+00  0.6760E-01  0.7363E+00  0.2809E+00
      1.562  0.5928E+00  0.6259E-01  0.8418E+00  0.2920E+00
      1.740  0.4601E+00  0.4029E-01  0.9237E+00  0.2992E+00
      1.918  0.2493E+00  0.6268E-01  0.9680E+00  0.3104E+00
      2.096  0.2588E+00  0.1669E+00  0.1014E+01  0.3401E+00
      2.274  0.4046E+00  0.3395E+00  0.1086E+01  0.4005E+00
      2.452  0.1231E+01  0.2470E+00  0.1305E+01  0.4445E+00
      2.630  0.1808E+01  0.1628E+00  0.1627E+01  0.4734E+00
      2.808  0.1313E+01  0.5027E+00  0.1861E+01  0.5629E+00
      2.986  0.7044E+00  0.8870E+00  0.1986E+01  0.7207E+00
      3.164  0.3727E+00  0.6338E+00  0.2052E+01  0.8335E+00
      3.342  0.4469E+00  0.4528E+00  0.2132E+01  0.9141E+00
      3.520  0.1264E+01  0.3487E+00  0.2357E+01  0.9761E+00
      3.698  0.1509E+01  0.3494E+00  0.2625E+01  0.1038E+01
      3.876  0.6273E+00  0.7602E+00  0.2737E+01  0.1174E+01
      4.054  0.3883E+00  0.1713E+01  0.2806E+01  0.1479E+01
      4.232  0.3794E+00  0.1590E+01  0.2873E+01  0.1762E+01
      4.410  0.3758E+00  0.7203E+00  0.2940E+01  0.1890E+01
      4.588  0.7496E+00  0.3775E+00  0.3074E+01  0.1957E+01
      4.766  0.2088E+01  0.3420E+00  0.3445E+01  0.2018E+01
      4.944  0.3380E+01  0.3486E+00  0.4047E+01  0.2080E+01
      5.122  0.2417E+01  0.4483E+00  0.4477E+01  0.2160E+01
      5.299  0.6356E+00  0.7733E+00  0.4590E+01  0.2297E+01
      5.477  0.4622E+00  0.1552E+01  0.4672E+01  0.2573E+01
      5.655  0.5239E+00  0.1009E+01  0.4765E+01  0.2753E+01
      5.833  0.7081E+00  0.3947E+00  0.4891E+01  0.2823E+01
      6.011  0.1163E+01  0.3813E+00  0.5098E+01  0.2891E+01
      6.189  0.9102E+00  0.3538E+00  0.5260E+01  0.2954E+01
      6.367  0.4968E+00  0.3778E+00  0.5349E+01  0.3021E+01
      6.545  0.1491E+00  0.5148E+00  0.5375E+01  0.3113E+01
      6.723  0.5277E-01  0.3973E+00  0.5385E+01  0.3183E+01
      6.901  0.7203E-01  0.2930E+00  0.5398E+01  0.3236E+01
      7.079  0.7224E-01  0.3382E+00  0.5410E+01  0.3296E+01
      7.257  0.5379E-01  0.7029E+00  0.5420E+01  0.3421E+01
      7.435  0.8430E-01  0.1801E+01  0.5435E+01  0.3741E+01
      7.613  0.4633E-01  0.2563E+01  0.5443E+01  0.4198E+01
      7.791  0.4205E-01  0.2592E+01  0.5451E+01  0.4659E+01
      7.969  0.5432E-01  0.1641E+01  0.5460E+01  0.4951E+01
      8.147  0.7824E-01  0.1022E+01  0.5474E+01  0.5133E+01
      8.325  0.6686E-01  0.8632E+00  0.5486E+01  0.5286E+01
      8.503  0.5798E-01  0.4929E+00  0.5496E+01  0.5374E+01
      8.681  0.1903E-01  0.2068E+00  0.5500E+01  0.5411E+01
      8.859  0.2906E-01  0.6267E-01  0.5505E+01  0.5422E+01
      9.037  0.8257E-01  0.6593E-01  0.5520E+01  0.5434E+01
      9.215  0.7504E-01  0.1029E+00  0.5533E+01  0.5452E+01
      9.393  0.4885E-01  0.5102E-01  0.5542E+01  0.5461E+01
      9.570  0.3844E-01  0.5852E-01  0.5549E+01  0.5472E+01
      9.748  0.3703E-01  0.9032E-01  0.5555E+01  0.5488E+01
      9.926  0.2592E-01  0.6183E-01  0.5560E+01  0.5499E+01
     10.104  0.7064E-01  0.4668E-01  0.5572E+01  0.5507E+01
     10.282  0.6561E-01  0.5172E-01  0.5584E+01  0.5516E+01
     10.460  0.3570E-01  0.6017E-01  0.5590E+01  0.5527E+01
     10.638  0.5195E-01  0.9460E-01  0.5600E+01  0.5544E+01
     10.816  0.4296E-01  0.4822E-01  0.5607E+01  0.5552E+01
     10.994  0.3081E-01  0.2655E-01  0.5613E+01  0.5557E+01
     11.172  0.6154E-01  0.3060E-01  0.5624E+01  0.5563E+01
     11.350  0.3922E-01  0.9349E-01  0.5631E+01  0.5579E+01
     11.528  0.4179E-01  0.6784E-01  0.5638E+01  0.5591E+01
     11.706  0.4209E-01  0.4676E-01  0.5646E+01  0.5600E+01
     11.884  0.4269E-01  0.4598E-01  0.5653E+01  0.5608E+01
     12.062  0.6559E-01  0.1479E-01  0.5665E+01  0.5610E+01
     12.240  0.4270E-01  0.6403E-01  0.5673E+01  0.5622E+01
     12.418  0.1916E-01  0.6933E-01  0.5676E+01  0.5634E+01
     12.596  0.1073E+00  0.6250E-01  0.5695E+01  0.5645E+01
     12.774  0.2671E+00  0.3810E-01  0.5743E+01  0.5652E+01
     12.952  0.2311E+00  0.4271E-01  0.5784E+01  0.5660E+01
     13.130  0.2584E+00  0.3969E-01  0.5830E+01  0.5667E+01
     13.308  0.6265E+00  0.4293E-01  0.5941E+01  0.5674E+01
     13.486  0.5848E+00  0.5942E-01  0.6045E+01  0.5685E+01
     13.663  0.3266E+00  0.1027E+00  0.6103E+01  0.5703E+01
     13.841  0.2377E+00  0.3122E+00  0.6146E+01  0.5759E+01
     14.019  0.2775E+00  0.2965E+00  0.6195E+01  0.5812E+01
     14.197  0.1941E+00  0.1657E+00  0.6230E+01  0.5841E+01
     14.375  0.2278E+00  0.1552E+00  0.6270E+01  0.5869E+01
     14.553  0.4576E+00  0.4958E+00  0.6352E+01  0.5957E+01
     14.731  0.2408E+00  0.8082E+00  0.6394E+01  0.6101E+01
     14.909  0.9943E-01  0.4960E+00  0.6412E+01  0.6189E+01
     15.087  0.1530E+00  0.3109E+00  0.6439E+01  0.6244E+01
     15.265  0.2165E+00  0.2884E+00  0.6478E+01  0.6296E+01
     15.443  0.4583E+00  0.4756E+00  0.6559E+01  0.6380E+01
     15.621  0.4992E+00  0.2519E+00  0.6648E+01  0.6425E+01
     15.799  0.6061E+00  0.2051E+00  0.6756E+01  0.6462E+01
     15.977  0.4333E+00  0.3893E+00  0.6833E+01  0.6531E+01
     16.155  0.1053E+00  0.7367E+00  0.6852E+01  0.6662E+01
     16.333  0.1422E+00  0.7036E+00  0.6877E+01  0.6787E+01
     16.511  0.1097E+00  0.3013E+00  0.6897E+01  0.6841E+01
     16.689  0.1492E+00  0.1351E+00  0.6923E+01  0.6865E+01
     16.867  0.2282E+00  0.3001E-01  0.6964E+01  0.6870E+01
     17.045  0.1601E+00  0.8963E-01  0.6992E+01  0.6886E+01
     17.223  0.1636E+00  0.1367E+00  0.7022E+01  0.6910E+01
     17.401  0.1361E+00  0.1246E+00  0.7046E+01  0.6933E+01
     17.579  0.1216E+00  0.2112E+00  0.7067E+01  0.6970E+01
     17.756  0.1046E+00  0.1535E+00  0.7086E+01  0.6998E+01
     17.934  0.1403E+00  0.2238E+00  0.7111E+01  0.7037E+01
     18.112  0.8612E-01  0.1483E+00  0.7126E+01  0.7064E+01
     18.290  0.1468E+00  0.1832E-01  0.7152E+01  0.7067E+01
     18.468  0.9344E-01  0.1080E+00  0.7169E+01  0.7086E+01
     18.646  0.9270E-01  0.2054E+00  0.7186E+01  0.7123E+01
     18.824  0.1508E+00  0.1349E+00  0.7212E+01  0.7147E+01
     19.002  0.6194E-01  0.8244E-01  0.7223E+01  0.7161E+01
     19.180  0.7604E-01  0.7143E-01  0.7237E+01  0.7174E+01
     19.358  0.1151E+00  0.1086E+00  0.7257E+01  0.7193E+01
     19.536  0.1267E+00  0.1357E+00  0.7280E+01  0.7218E+01
     19.714  0.1069E+00  0.9959E-01  0.7299E+01  0.7235E+01
     19.892  0.4838E-01  0.8163E-01  0.7308E+01  0.7250E+01
     20.070  0.1098E+00  0.1143E+00  0.7327E+01  0.7270E+01
     20.248  0.1434E+00  0.1255E+00  0.7353E+01  0.7293E+01
     20.426  0.5444E-01  0.4638E-01  0.7362E+01  0.7301E+01
     20.604  0.9410E-01  0.1022E+00  0.7379E+01  0.7319E+01
     20.782  0.8946E-01  0.1539E+00  0.7395E+01  0.7346E+01
     20.960  0.2974E-01  0.6581E-01  0.7400E+01  0.7358E+01
     21.138  0.8600E-01  0.9529E-01  0.7416E+01  0.7375E+01
     21.316  0.1719E+00  0.1171E+00  0.7446E+01  0.7396E+01
     21.494  0.2786E+00  0.2085E-01  0.7496E+01  0.7400E+01
     21.672  0.4369E+00  0.4678E-01  0.7574E+01  0.7408E+01
     21.850  0.2575E+00  0.1718E+00  0.7619E+01  0.7438E+01
     22.027  0.2076E+00  0.1764E+00  0.7656E+01  0.7470E+01
     22.205  0.1898E+00  0.9159E-01  0.7690E+01  0.7486E+01
     22.383  0.2315E+00  0.1702E-01  0.7731E+01  0.7489E+01
     22.561  0.3090E+00  0.2223E+00  0.7786E+01  0.7529E+01
     22.739  0.2703E+00  0.4638E+00  0.7834E+01  0.7611E+01
     22.917  0.1591E+00  0.3601E+00  0.7863E+01  0.7675E+01
     23.095  0.1284E+00  0.3870E+00  0.7886E+01  0.7744E+01
     23.273  0.1537E+00  0.2567E+00  0.7913E+01  0.7790E+01
     23.451  0.2058E+00  0.2048E+00  0.7950E+01  0.7826E+01
     23.629  0.3573E+00  0.2651E+00  0.8013E+01  0.7874E+01
     23.807  0.2483E+00  0.1789E+00  0.8057E+01  0.7905E+01
     23.985  0.1549E+00  0.2443E+00  0.8085E+01  0.7949E+01
     24.163  0.2207E+00  0.4197E+00  0.8124E+01  0.8024E+01
     24.341  0.3355E+00  0.5108E+00  0.8184E+01  0.8114E+01
     24.519  0.2267E+00  0.2367E+00  0.8224E+01  0.8157E+01
     24.697  0.2040E+00  0.1084E+00  0.8260E+01  0.8176E+01
     24.875  0.2230E+00  0.1309E+00  0.8300E+01  0.8199E+01
     25.053  0.1616E+00  0.2121E+00  0.8329E+01  0.8237E+01
     25.231  0.1113E+00  0.2651E+00  0.8349E+01  0.8284E+01
     25.409  0.1099E+00  0.1592E+00  0.8368E+01  0.8312E+01
     25.587  0.1308E+00  0.1098E+00  0.8392E+01  0.8332E+01
     25.765  0.1092E+00  0.1141E+00  0.8411E+01  0.8352E+01
     25.943  0.1793E+00  0.1728E+00  0.8443E+01  0.8383E+01
     26.120  0.3085E+00  0.1792E+00  0.8498E+01  0.8415E+01
     26.298  0.2454E+00  0.1047E+00  0.8541E+01  0.8433E+01
     26.476  0.1346E+00  0.1308E+00  0.8565E+01  0.8457E+01
     26.654  0.1917E+00  0.2957E+00  0.8600E+01  0.8509E+01
     26.832  0.2160E+00  0.2400E+00  0.8638E+01  0.8552E+01
     27.010  0.2209E+00  0.1279E+00  0.8677E+01  0.8575E+01
     27.188  0.1875E+00  0.1529E+00  0.8711E+01  0.8602E+01
     27.366  0.1867E+00  0.1182E+00  0.8744E+01  0.8623E+01
     27.544  0.1418E+00  0.1531E+00  0.8769E+01  0.8650E+01
     27.722  0.9478E-01  0.1798E+00  0.8786E+01  0.8682E+01
     27.900  0.1978E+00  0.2212E+00  0.8821E+01  0.8722E+01
     28.078  0.1699E+00  0.1823E+00  0.8851E+01  0.8754E+01
     28.256  0.1326E+00  0.1963E+00  0.8875E+01  0.8789E+01
     28.434  0.1494E+00  0.2138E+00  0.8902E+01  0.8827E+01
     28.612  0.1680E+00  0.2326E+00  0.8932E+01  0.8869E+01
     28.790  0.6403E-01  0.1447E+00  0.8943E+01  0.8894E+01
     28.968  0.7903E-01  0.7736E-01  0.8957E+01  0.8908E+01
     29.146  0.1822E+00  0.1241E+00  0.8989E+01  0.8930E+01
     29.324  0.2394E+00  0.1819E+00  0.9032E+01  0.8962E+01
     29.502  0.4472E+00  0.1540E+00  0.9112E+01  0.8990E+01
     29.680  0.3780E+00  0.1991E+00  0.9179E+01  0.9025E+01
     29.858  0.2171E+00  0.3396E+00  0.9218E+01  0.9086E+01
     30.036  0.1618E+00  0.5128E+00  0.9246E+01  0.9177E+01
     30.213  0.2893E+00  0.3883E+00  0.9298E+01  0.9246E+01
     30.391  0.2970E+00  0.3162E+00  0.9351E+01  0.9302E+01
     30.569  0.2850E+00  0.5925E+00  0.9401E+01  0.9408E+01
     30.747  0.3952E+00  0.7719E+00  0.9472E+01  0.9545E+01
     30.925  0.6251E+00  0.2472E+00  0.9583E+01  0.9589E+01
     31.103  0.3594E+00  0.6860E-01  0.9647E+01  0.9601E+01
     31.281  0.8450E-01  0.9298E-01  0.9662E+01  0.9618E+01
     31.459  0.8359E-01  0.6462E-01  0.9677E+01  0.9629E+01
     31.637  0.1201E+00  0.1300E+00  0.9698E+01  0.9653E+01
     31.815  0.1618E+00  0.1365E+00  0.9727E+01  0.9677E+01
     31.993  0.1769E+00  0.1543E+00  0.9758E+01  0.9704E+01
     32.171  0.8993E-01  0.1558E+00  0.9774E+01  0.9732E+01
     32.349  0.7433E-01  0.5421E-01  0.9788E+01  0.9742E+01
     32.527  0.5885E-01  0.1044E+00  0.9798E+01  0.9760E+01
     32.705  0.1442E-01  0.1060E+00  0.9801E+01  0.9779E+01
     32.883  0.7533E-01  0.8909E-01  0.9814E+01  0.9795E+01
     33.061  0.2001E+00  0.3617E-01  0.9850E+01  0.9801E+01
     33.239  0.4848E+00  0.8442E-01  0.9936E+01  0.9816E+01
     33.417  0.3461E+00  0.1541E+00  0.9998E+01  0.9844E+01
     33.595  0.1097E+00  0.9939E-01  0.1002E+02  0.9862E+01
     33.773  0.9183E-01  0.2589E+00  0.1003E+02  0.9908E+01
     33.951  0.1723E+00  0.4593E+00  0.1006E+02  0.9989E+01
     34.129  0.2187E+00  0.2022E+00  0.1010E+02  0.1003E+02
     34.307  0.1417E+00  0.7428E-01  0.1013E+02  0.1004E+02
     34.484  0.9019E-01  0.1090E+00  0.1014E+02  0.1006E+02
     34.662  0.5955E-01  0.2082E+00  0.1015E+02  0.1010E+02
     34.840  0.1998E+00  0.1945E+00  0.1019E+02  0.1013E+02
     35.018  0.2152E+00  0.2305E+00  0.1023E+02  0.1017E+02
     35.196  0.1548E+00  0.8027E-01  0.1026E+02  0.1018E+02
     35.374  0.1925E+00  0.1042E+00  0.1029E+02  0.1020E+02
     35.552  0.2412E+00  0.2390E+00  0.1033E+02  0.1025E+02
     35.730  0.2921E+00  0.2273E+00  0.1039E+02  0.1029E+02
     35.908  0.3247E+00  0.1551E+00  0.1044E+02  0.1031E+02
     36.086  0.4399E+00  0.2774E+00  0.1052E+02  0.1036E+02
     36.264  0.2912E+00  0.5563E+00  0.1057E+02  0.1046E+02
     36.442  0.2595E+00  0.4077E+00  0.1062E+02  0.1053E+02
     36.620  0.3205E+00  0.2671E+00  0.1068E+02  0.1058E+02
     36.798  0.9208E-01  0.2781E+00  0.1069E+02  0.1063E+02
     36.976  0.5067E-01  0.1636E+00  0.1070E+02  0.1066E+02
     37.154  0.1766E+00  0.1044E+00  0.1073E+02  0.1068E+02
     37.332  0.2088E+00  0.1516E+00  0.1077E+02  0.1071E+02
     37.510  0.1897E+00  0.2071E+00  0.1080E+02  0.1074E+02
     37.688  0.1572E+00  0.1143E+00  0.1083E+02  0.1076E+02
     37.866  0.6242E-01  0.9638E-01  0.1084E+02  0.1078E+02
     38.044  0.7692E-01  0.1761E+00  0.1086E+02  0.1081E+02
     38.222  0.2029E+00  0.2015E+00  0.1089E+02  0.1085E+02
     38.400  0.2575E+00  0.2132E+00  0.1094E+02  0.1089E+02
     38.577  0.2548E+00  0.1511E+00  0.1098E+02  0.1091E+02
     38.755  0.1561E+00  0.9512E-01  0.1101E+02  0.1093E+02
     38.933  0.6055E-01  0.2008E+00  0.1102E+02  0.1097E+02
     39.111  0.2845E-01  0.1914E+00  0.1103E+02  0.1100E+02
     39.289  0.1672E+00  0.1187E+00  0.1106E+02  0.1102E+02
     39.467  0.1277E+00  0.1137E+00  0.1108E+02  0.1104E+02
     39.645  0.1428E+00  0.1840E+00  0.1111E+02  0.1107E+02
     39.823  0.1903E+00  0.1738E+00  0.1114E+02  0.1110E+02
     40.001  0.9610E-01  0.1877E+00  0.1116E+02  0.1114E+02
     40.179  0.7112E-01  0.5338E-01  0.1117E+02  0.1115E+02
     40.357  0.1980E+00  0.7902E-01  0.1120E+02  0.1116E+02
     40.535  0.3792E+00  0.3809E+00  0.1127E+02  0.1123E+02
     40.713  0.2684E+00  0.3641E+00  0.1132E+02  0.1129E+02
     40.891  0.2198E+00  0.1987E+00  0.1136E+02  0.1133E+02
     41.069  0.1311E+00  0.1207E+00  0.1138E+02  0.1135E+02
     41.247  0.1104E+00  0.1098E+00  0.1140E+02  0.1137E+02
     41.425  0.1351E+00  0.1180E+00  0.1143E+02  0.1139E+02
     41.603  0.1105E+00  0.2076E+00  0.1145E+02  0.1143E+02
     41.781  0.1185E+00  0.1628E+00  0.1147E+02  0.1146E+02
     41.959  0.1410E+00  0.8386E-01  0.1149E+02  0.1147E+02
     42.137  0.1772E+00  0.1036E+00  0.1152E+02  0.1149E+02
     42.315  0.5948E-01  0.1502E+00  0.1153E+02  0.1152E+02
     42.493  0.4178E-01  0.1016E+00  0.1154E+02  0.1154E+02
     42.671  0.1241E+00  0.5814E-01  0.1156E+02  0.1155E+02
     42.848  0.2059E+00  0.9303E-01  0.1160E+02  0.1156E+02
     43.026  0.9752E-01  0.1315E+00  0.1162E+02  0.1159E+02
     43.204  0.1933E-01  0.1355E+00  0.1162E+02  0.1161E+02
     43.382  0.9372E-01  0.1711E+00  0.1164E+02  0.1164E+02
     43.560  0.1885E+00  0.8613E-01  0.1167E+02  0.1166E+02
     43.738  0.1345E+00  0.1484E+00  0.1170E+02  0.1168E+02
     43.916  0.1269E+00  0.8531E-01  0.1172E+02  0.1170E+02
     44.094  0.1079E+00  0.8331E-01  0.1174E+02  0.1171E+02
     44.272  0.6463E-01  0.7581E-01  0.1175E+02  0.1173E+02
     44.450  0.1098E+00  0.1098E+00  0.1177E+02  0.1175E+02
     44.628  0.7410E-01  0.2830E+00  0.1178E+02  0.1180E+02
     44.806  0.1804E+00  0.3777E+00  0.1181E+02  0.1186E+02
     44.984  0.4117E+00  0.1191E+00  0.1189E+02  0.1188E+02
     45.162  0.1515E+00  0.4559E-01  0.1191E+02  0.1189E+02
     45.340  0.1381E+00  0.5179E-01  0.1194E+02  0.1190E+02
     45.518  0.2120E+00  0.1729E+00  0.1198E+02  0.1193E+02
     45.696  0.1135E+00  0.1909E+00  0.1200E+02  0.1197E+02
     45.874  0.2724E-01  0.1158E+00  0.1200E+02  0.1199E+02
     46.052 -0.3881E-02  0.7168E-01  0.1200E+02  0.1200E+02
     46.230 -0.7659E-03  0.4367E-02  0.1200E+02  0.1200E+02
     46.408 -0.1576E-04 -0.2570E-02  0.1200E+02  0.1200E+02
     46.586 -0.5690E-07 -0.1507E-03  0.1200E+02  0.1200E+02
     46.764 -0.3934E-10 -0.1393E-05  0.1200E+02  0.1200E+02
     46.941 -0.5376E-14 -0.2437E-08  0.1200E+02  0.1200E+02
     47.119  0.0000E+00 -0.8425E-12  0.1200E+02  0.1200E+02
     47.297  0.0000E+00 -0.5199E-16  0.1200E+02  0.1200E+02
     47.475  0.0000E+00  0.0000E+00  0.1200E+02  0.1200E+02
     47.653  0.0000E+00  0.0000E+00  0.1200E+02  0.1200E+02
     47.831  0.0000E+00  0.0000E+00  0.1200E+02  0.1200E+02
     48.009  0.0000E+00  0.0000E+00  0.1200E+02  0.1200E+02
     48.187  0.0000E+00  0.0000E+00  0.1200E+02  0.1200E+02
     48.365  0.0000E+00  0.0000E+00  0.1200E+02  0.1200E+02
     48.36513379     -5.02202931  301      6.01822376      1.00000000
     -5.022  0.0000E+00  0.0000E+00  0.0000E+00  0.0000E+00  0.0000E+00  0.0000E+00  0.0000E+00  0.0000E+00  0.0000E+00  0.0000E+00  0.0000E+00  0.0000E+00  0.0000E+00  0.0000E+00  0.0000E+00  0.0000E+00  0.0000E+00  0.0000E+00
     -4.844  0.0000E+00  0.0000E+00  0.0000E+00  0.0000E+00  0.0000E+00  0.0000E+00  0.0000E+00  0.0000E+00  0.0000E+00  0.0000E+00  0.0000E+00  0.0000E+00  0.0000E+00  0.0000E+00  0.0000E+00  0.0000E+00  0.0000E+00  0.0000E+00
     -4.666  0.0000E+00  0.0000E+00  0.0000E+00  0.0000E+00  0.0000E+00  0.0000E+00  0.0000E+00  0.0000E+00  0.0000E+00  0.0000E+00  0.0000E+00  0.0000E+00  0.0000E+00  0.0000E+00  0.0000E+00  0.0000E+00  0.0000E+00  0.0000E+00
     -4.488  0.0000E+00  0.0000E+00  0.0000E+00  0.0000E+00  0.0000E+00  0.0000E+00  0.0000E+00  0.0000E+00  0.0000E+00  0.0000E+00  0.0000E+00  0.0000E+00  0.0000E+00  0.0000E+00  0.0000E+00  0.0000E+00  0.0000E+00  0.0000E+00
     -4.310 -0.3048E-32  0.0000E+00 -0.1220E-36  0.0000E+00 -0.1220E-36  0.0000E+00 -0.1220E-36  0.0000E+00 -0.3224E-39  0.0000E+00 -0.3224E-39  0.0000E+00 -0.1515E-39  0.0000E+00 -0.3224E-39  0.0000E+00 -0.1515E-39  0.0000E+00
     -4.132 -0.5308E-26 -0.1292E-31 -0.2907E-30 -0.5293E-36 -0.2907E-30 -0.5293E-36 -0.2907E-30 -0.5293E-36 -0.7701E-33 -0.1011E-38 -0.7701E-33 -0.1011E-38 -0.3959E-33 -0.4648E-39 -0.7701E-33 -0.1011E-38 -0.3959E-33 -0.4648E-39
     -3.954 -0.1881E-20 -0.1931E-25 -0.1415E-24 -0.1084E-29 -0.1415E-24 -0.1084E-29 -0.1415E-24 -0.1084E-29 -0.3745E-27 -0.2075E-32 -0.3745E-27 -0.2075E-32 -0.2127E-27 -0.1045E-32 -0.3745E-27 -0.2075E-32 -0.2127E-27 -0.1045E-32
     -3.776 -0.1297E-15 -0.5875E-20 -0.1407E-19 -0.4536E-24 -0.1407E-19 -0.4536E-24 -0.1407E-19 -0.4536E-24 -0.3728E-22 -0.8676E-27 -0.3728E-22 -0.8676E-27 -0.2352E-22 -0.4831E-27 -0.3728E-22 -0.8676E-27 -0.2352E-22 -0.4831E-27
     -3.598 -0.1898E-11 -0.3515E-15 -0.2749E-15 -0.3877E-19 -0.2749E-15 -0.3877E-19 -0.2749E-15 -0.3877E-19 -0.7366E-18 -0.7427E-22 -0.7366E-18 -0.7427E-22 -0.5147E-18 -0.4595E-22 -0.7366E-18 -0.7427E-22 -0.5147E-18 -0.4595E-22
     -3.420 -0.5473E-08 -0.4358E-11 -0.1116E-11 -0.6504E-15 -0.1116E-11 -0.6504E-15 -0.1116E-11 -0.6504E-15 -0.3102E-14 -0.1261E-17 -0.3102E-14 -0.1261E-17 -0.2351E-14 -0.8637E-18 -0.3102E-14 -0.1261E-17 -0.2351E-14 -0.8637E-18
     -3.242 -0.3097E-05 -0.1076E-07 -0.9081E-09 -0.2266E-11 -0.9081E-09 -0.2266E-11 -0.9081E-09 -0.2266E-11 -0.2781E-11 -0.4568E-14 -0.2781E-11 -0.4568E-14 -0.2172E-11 -0.3388E-14 -0.2781E-11 -0.4568E-14 -0.2172E-11 -0.3388E-14
     -3.064 -0.3265E-03 -0.5203E-05 -0.1455E-06 -0.1581E-08 -0.1455E-06 -0.1581E-08 -0.1455E-06 -0.1581E-08 -0.5539E-09 -0.3533E-11 -0.5539E-09 -0.3533E-11 -0.4101E-09 -0.2687E-11 -0.5539E-09 -0.3533E-11 -0.4101E-09 -0.2687E-11
     -2.887 -0.5115E-02 -0.4640E-03 -0.4311E-05 -0.2165E-06 -0.4311E-05 -0.2165E-06 -0.4311E-05 -0.2165E-06 -0.2514E-07 -0.6090E-09 -0.2514E-07 -0.6090E-09 -0.1700E-07 -0.4357E-09 -0.2514E-07 -0.6090E-09 -0.1700E-07 -0.4357E-09
     -2.709  0.1369E-01 -0.5818E-02 -0.1285E-04 -0.5402E-05 -0.1285E-04 -0.5402E-05 -0.1285E-04 -0.5402E-05 -0.2192E-06 -0.2386E-07 -0.2192E-06 -0.2386E-07 -0.1623E-06 -0.1561E-07 -0.2192E-06 -0.2386E-07 -0.1623E-06 -0.1561E-07
     -2.531  0.1423E+00  0.2165E-01  0.1378E-03 -0.1015E-04  0.1378E-03 -0.1015E-04  0.1378E-03 -0.1015E-04  0.4122E-06 -0.1696E-06  0.4122E-06 -0.1696E-06  0.3322E-06 -0.1248E-06  0.4122E-06 -0.1696E-06  0.3322E-06 -0.1248E-06
     -2.353  0.1513E+00  0.1527E+00  0.5376E-03  0.1694E-03  0.5376E-03  0.1694E-03  0.5376E-03  0.1694E-03  0.6287E-05  0.4822E-06  0.6287E-05  0.4822E-06  0.4244E-05  0.3878E-06  0.6287E-05  0.4822E-06  0.4244E-05  0.3878E-06
     -2.175  0.7895E-01  0.1426E+00  0.8494E-03  0.5711E-03  0.8494E-03  0.5711E-03  0.8494E-03  0.5711E-03  0.2002E-04  0.5200E-05  0.2002E-04  0.5200E-05  0.1433E-04  0.3291E-05  0.2002E-04  0.5200E-05  0.1433E-04  0.3291E-05
     -1.997  0.6277E-01  0.7533E-01  0.1086E-02  0.8714E-03  0.1086E-02  0.8714E-03  0.1086E-02  0.8714E-03  0.3902E-04  0.1501E-04  0.3902E-04  0.1501E-04  0.3035E-04  0.1087E-04  0.3902E-04  0.1501E-04  0.3035E-04  0.1087E-04
     -1.819  0.5126E-01  0.6134E-01  0.1174E-02  0.1095E-02  0.1174E-02  0.1095E-02  0.1174E-02  0.1095E-02  0.6729E-04  0.2891E-04  0.6729E-04  0.2891E-04  0.3582E-04  0.2069E-04  0.6729E-04  0.2891E-04  0.3582E-04  0.2069E-04
     -1.641  0.4834E-01  0.4976E-01  0.1496E-02  0.1169E-02  0.1496E-02  0.1169E-02  0.1496E-02  0.1169E-02  0.9020E-04  0.4667E-04  0.9020E-04  0.4667E-04  0.1031E-03  0.2469E-04  0.9020E-04  0.4667E-04  0.1031E-03  0.2469E-04
     -1.463  0.4549E-01  0.4788E-01  0.1559E-02  0.1516E-02  0.1559E-02  0.1516E-02  0.1559E-02  0.1516E-02  0.1574E-03  0.6293E-04  0.1574E-03  0.6293E-04  0.5751E-04  0.6928E-04  0.1574E-03  0.6293E-04  0.5751E-04  0.6928E-04
     -1.285  0.2938E-01  0.4420E-01  0.1333E-02  0.1535E-02  0.1333E-02  0.1535E-02  0.1333E-02  0.1535E-02  0.1452E-03  0.1068E-03  0.1452E-03  0.1068E-03  0.1484E-03  0.3442E-04  0.1452E-03  0.1068E-03  0.1484E-03  0.3442E-04
     -1.107  0.5030E-01  0.2759E-01  0.2513E-02  0.1278E-02  0.2513E-02  0.1278E-02  0.2513E-02  0.1278E-02  0.2916E-03  0.9025E-04  0.2916E-03  0.9025E-04  0.2729E-03  0.8982E-04  0.2916E-03  0.9025E-04  0.2729E-03  0.8982E-04
     -0.929  0.2628E-01  0.5055E-01  0.1410E-02  0.2560E-02  0.1410E-02  0.2560E-02  0.1410E-02  0.2560E-02  0.3020E-03  0.1935E-03  0.3020E-03  0.1935E-03  0.1012E-03  0.1756E-03  0.3020E-03  0.1935E-03  0.1012E-03  0.1756E-03
     -0.751  0.2581E-01  0.2512E-01  0.1717E-02  0.1367E-02  0.1717E-02  0.1367E-02  0.1717E-02  0.1367E-02  0.3267E-03  0.1796E-03  0.3267E-03  0.1796E-03  0.3207E-03  0.5207E-04  0.3267E-03  0.1796E-03  0.3207E-03  0.5207E-04
     -0.573  0.4523E-01  0.2355E-01  0.3312E-02  0.1569E-02  0.3312E-02  0.1569E-02  0.3312E-02  0.1569E-02  0.6506E-03  0.2022E-03  0.6506E-03  0.2022E-03  0.6528E-03  0.1556E-03  0.6506E-03  0.2022E-03  0.6528E-03  0.1556E-03
     -0.395  0.2400E-01  0.4214E-01  0.1722E-02  0.3135E-02  0.1722E-02  0.3135E-02  0.1722E-02  0.3135E-02  0.5851E-03  0.3398E-03  0.5851E-03  0.3398E-03  0.2927E-03  0.3675E-03  0.5851E-03  0.3398E-03  0.2927E-03  0.3675E-03
     -0.217  0.1480E-01  0.2998E-01  0.1378E-02  0.2269E-02  0.1378E-02  0.2269E-02  0.1378E-02  0.2269E-02  0.6064E-03  0.4177E-03  0.6064E-03  0.4177E-03  0.4117E-03  0.2249E-03  0.6064E-03  0.4177E-03  0.4117E-03  0.2249E-03
     -0.039  0.4701E-01  0.6979E-02  0.4554E-02  0.5874E-03  0.4554E-02  0.5874E-03  0.4554E-02  0.5874E-03  0.1513E-02  0.1654E-03  0.1513E-02  0.1654E-03  0.1537E-02  0.4140E-04  0.1513E-02  0.1654E-03  0.1537E-02  0.4140E-04
      0.139  0.1953E-01  0.3908E-01  0.1878E-02  0.3935E-02  0.1878E-02  0.3935E-02  0.1878E-02  0.3935E-02  0.9719E-03  0.8029E-03  0.9719E-03  0.8029E-03  0.8661E-03  0.6494E-03  0.9719E-03  0.8029E-03  0.8661E-03  0.6494E-03
      0.317  0.1651E-01  0.3368E-01  0.1739E-02  0.3377E-02  0.1739E-02  0.3377E-02  0.1739E-02  0.3377E-02  0.1745E-02  0.6004E-03  0.1745E-02  0.6004E-03  0.9277E-03  0.6857E-03  0.1745E-02  0.6004E-03  0.9277E-03  0.6857E-03
      0.495  0.3760E-01  0.4864E-02  0.4706E-02  0.5175E-03  0.4706E-02  0.5175E-03  0.4706E-02  0.5175E-03  0.2684E-02  0.3120E-03  0.2684E-02  0.3120E-03  0.2420E-02  0.1332E-03  0.2684E-02  0.3120E-03  0.2420E-02  0.1332E-03
      0.673  0.2489E-01  0.2655E-01  0.3068E-02  0.3197E-02  0.3068E-02  0.3197E-02  0.3068E-02  0.3197E-02  0.1834E-02  0.1344E-02  0.1834E-02  0.1344E-02 -0.4736E-02  0.5249E-03  0.1834E-02  0.1344E-02 -0.4736E-02  0.5249E-03
      0.851  0.3663E-01  0.3059E-01  0.2204E-02  0.4150E-02  0.2204E-02  0.4150E-02  0.2204E-02  0.4150E-02  0.2464E-01  0.9240E-03  0.2464E-01  0.9240E-03  0.2673E-01  0.1309E-02  0.2464E-01  0.9240E-03  0.2673E-01  0.1309E-02
      1.029  0.8303E-01  0.1909E-01  0.5406E-02  0.2511E-02  0.5406E-02  0.2511E-02  0.5406E-02  0.2511E-02  0.6479E-01  0.1181E-02  0.6479E-01  0.1181E-02  0.2645E+00  0.1252E-02  0.6479E-01  0.1181E-02  0.2645E+00  0.1252E-02
      1.206  0.3925E-01  0.1144E-01  0.3762E-02  0.1564E-02  0.3762E-02  0.1564E-02  0.3762E-02  0.1564E-02  0.3759E-01  0.1257E-02  0.3759E-01  0.1257E-02  0.3243E+00  0.3148E-03  0.3759E-01  0.1257E-02  0.3243E+00  0.3148E-03
      1.384  0.2311E-01  0.2721E-01  0.5952E-02  0.4291E-02  0.5952E-02  0.4291E-02  0.5952E-02  0.4291E-02  0.2163E-01  0.2762E-02  0.2163E-01  0.2762E-02  0.1988E+00  0.1616E-02  0.2163E-01  0.2762E-02  0.1988E+00  0.1616E-02
      1.562  0.3262E-01  0.2361E-01  0.1090E-01  0.3992E-02  0.1090E-01  0.3992E-02  0.1090E-01  0.3992E-02  0.2349E-01  0.2004E-02  0.2349E-01  0.2004E-02  0.1896E+00  0.3129E-02  0.2349E-01  0.2004E-02  0.1896E+00  0.3129E-02
      1.740  0.1842E-01  0.1349E-01  0.9007E-02  0.1918E-02  0.9007E-02  0.1918E-02  0.9007E-02  0.1918E-02  0.1781E-01  0.2860E-02  0.1781E-01  0.2860E-02  0.1513E+00  0.1994E-02  0.1781E-01  0.2860E-02  0.1513E+00  0.1994E-02
      1.918  0.1095E-01  0.2094E-01  0.5829E-02  0.3574E-02  0.5829E-02  0.3574E-02  0.5829E-02  0.3574E-02  0.1353E-01  0.4559E-02  0.1353E-01  0.4559E-02  0.7444E-01  0.1945E-02  0.1353E-01  0.4559E-02  0.7444E-01  0.1945E-02
      2.096  0.1107E-01  0.3912E-01  0.5743E-02  0.4531E-02  0.5743E-02  0.4531E-02  0.5743E-02  0.4531E-02  0.2591E-01  0.1853E-01  0.2591E-01  0.1853E-01  0.6161E-01  0.1490E-01  0.2591E-01  0.1853E-01  0.6161E-01  0.1490E-01
      2.274  0.1239E-01  0.6206E-01  0.7876E-02  0.1978E-02  0.7876E-02  0.1978E-02  0.7876E-02  0.1978E-02  0.7019E-01  0.5025E-01  0.7019E-01  0.5025E-01  0.5977E-01  0.3603E-01  0.7019E-01  0.5025E-01  0.5977E-01  0.3603E-01
      2.452  0.1079E-01  0.4582E-01  0.2111E-01  0.3316E-02  0.2111E-01  0.3316E-02  0.2111E-01  0.3316E-02  0.3131E+00  0.3745E-01  0.3131E+00  0.3745E-01  0.6485E-01  0.2134E-01  0.3131E+00  0.3745E-01  0.6485E-01  0.2134E-01
      2.630  0.7550E-02  0.3049E-01  0.3931E-01  0.5249E-02  0.3931E-01  0.5249E-02  0.3931E-01  0.5249E-02  0.4701E+00  0.2111E-01  0.4701E+00  0.2111E-01  0.7102E-01  0.1343E-01  0.4701E+00  0.2111E-01  0.7102E-01  0.1343E-01
      2.808  0.7180E-02  0.1780E-01  0.4067E-01  0.3385E-02  0.4067E-01  0.3385E-02  0.4067E-01  0.3385E-02  0.3097E+00  0.1738E-01  0.3097E+00  0.1738E-01  0.7312E-01  0.1743E+00  0.3097E+00  0.1738E-01  0.7312E-01  0.1743E+00
      2.986  0.3731E-02  0.2273E-01  0.1970E-01  0.9419E-02  0.1970E-01  0.9419E-02  0.1970E-01  0.9419E-02  0.1648E+00  0.1885E-01  0.1648E+00  0.1885E-01  0.4625E-01  0.3230E+00  0.1648E+00  0.1885E-01  0.4625E-01  0.3230E+00
      3.164  0.6912E-03  0.1891E-01  0.4906E-02  0.1102E-01  0.4906E-02  0.1102E-01  0.4906E-02  0.1102E-01  0.9455E-01  0.1833E-01  0.9455E-01  0.1833E-01  0.2603E-01  0.2154E+00  0.9455E-01  0.1833E-01  0.2603E-01  0.2154E+00
      3.342  0.1623E-02  0.1201E-01  0.5439E-02  0.8671E-02  0.5439E-02  0.8671E-02  0.5439E-02  0.8671E-02  0.1168E+00  0.1816E-01  0.1168E+00  0.1816E-01  0.2756E-01  0.1467E+00  0.1168E+00  0.1816E-01  0.2756E-01  0.1467E+00
      3.520  0.4776E-02  0.1147E-01  0.8774E-02  0.8933E-02  0.8774E-02  0.8933E-02  0.8774E-02  0.8933E-02  0.3685E+00  0.2541E-01  0.3685E+00  0.2541E-01  0.4012E-01  0.9229E-01  0.3685E+00  0.2541E-01  0.4012E-01  0.9229E-01
      3.698  0.4535E-02  0.1209E-01  0.8968E-02  0.8997E-02  0.8968E-02  0.8997E-02  0.8968E-02  0.8997E-02  0.4543E+00  0.4837E-01  0.4543E+00  0.4837E-01  0.3197E-01  0.6100E-01  0.4543E+00  0.4837E-01  0.3197E-01  0.6100E-01
      3.876  0.3638E-02  0.1058E-01  0.8463E-02  0.2709E-01  0.8463E-02  0.2709E-01  0.8463E-02  0.2709E-01  0.1710E+00  0.1548E+00  0.1710E+00  0.1548E+00  0.2814E-01  0.6091E-01  0.1710E+00  0.1548E+00  0.2814E-01  0.6091E-01