    1    1    1    2
  0.1133275E+02  0.2450863E-09  0.2450863E-09  0.2450863E-09  0.5000000E-15
  1.000000000000000E-004
  CAR 
 unknown system                          
      8    120     12
 
  0.0000000E+00  0.0000000E+00  0.0000000E+00  0.8333333E-02
    1       -2.595340     -2.434421   1.000000   1.000000
    2        3.550143      5.429079   1.000000   1.000126
    3        3.550144      5.429216   1.000000   1.000127
    4        3.550145      5.429227   1.000000   1.000127
    5        4.758146      7.495864   1.000000  -0.000000
    6        4.758147      7.496032   1.000000  -0.000000
    7       30.897674     30.642588   0.000000   0.000000
    8       30.897674     30.642588   0.000000   0.000000
    9       30.897674     30.642588   0.000000   0.000000
   10       35.995237     36.192216   0.000000   0.000000
   11       35.995238     36.192224   0.000000   0.000000
   12       38.318179     38.956505   0.000000   0.000000
 
  0.2631579E-01 -0.2631579E-01  0.2631579E-01  0.8333333E-02
    1       -2.537594     -2.376466   1.000000   1.000000
    2        3.549459      5.426199   1.000000   1.000117
    3        3.549460      5.426335   1.000000   1.000117
    4        3.565842      5.446464   1.000000   1.000201
    5        4.732256      7.462252   1.000000  -0.000000
    6        4.768288      7.508853   1.000000  -0.000000
    7       30.481331     30.282834   0.000000   0.000000
    8       30.849931     30.618786   0.000000   0.000000
    9       30.849931     30.618786   0.000000   0.000000
   10       35.399436     35.698088   0.000000   0.000000
   11       36.545359     36.694441   0.000000   0.000000
   12       37.220033     38.038860   0.000000   0.000000
 
  0.5263158E-01 -0.5263158E-01  0.5263158E-01  0.8333333E-02
    1       -2.365699     -2.203653   1.000000   1.000000
    2        3.548883      5.419471   1.000000   1.000097
    3        3.548884      5.419607   1.000000   1.000097
    4        3.612958      5.498331   1.000000   1.000734
    5        4.655460      7.362291   1.000000  -0.000000
    6        4.798519      7.546617   1.000000  -0.000000
    7       29.557050     29.459284   0.000000   0.000000
    8       30.658786     30.510554   0.000000   0.000000
    9       30.658786     30.510556   0.000000   0.000000
   10       34.208049     34.599871   0.000000   0.000000
   11       36.213759     37.002613   0.000000   0.000000
   12       36.213759     37.002628   0.000000   0.000000
 
  0.7894737E-01 -0.7894737E-01  0.7894737E-01  0.8333333E-02
    1       -2.084062     -1.919659   1.000000   1.000000
    2        3.551226      5.412439   1.000000   1.000079
    3        3.551227      5.412574   1.000000   1.000080
    4        3.690264      5.583481   1.000000   1.004384
    5        4.529493      7.198601   1.000000  -0.000000
    6        4.847592      7.606241   1.000000  -0.000000
    7       28.502499     28.502217   0.000000   0.000000
    8       30.210443     30.218257   0.000000   0.000000
    9       30.210443     30.218263   0.000000   0.000000
   10       32.873417     33.299137   0.000000   0.000000
   11       35.614061     36.289564   0.000000   0.000000
   12       35.614062     36.289575   0.000000   0.000000
 
  0.1052632E+00 -0.1052632E+00  0.1052632E+00  0.8333333E-02
    1       -1.700682     -1.530890   1.000000   1.000000
    2        3.561060      5.410834   1.000000   1.000076
    3        3.561062      5.410968   1.000000   1.000076
    4        3.795912      5.699937   1.000000   1.023462
    5        4.357493      6.975695   1.000000  -0.000000
    6        4.914398      7.683156   1.000000  -0.000000
    7       27.470522     27.563841   0.000000   0.000000
    8       29.441603     29.643724   0.000000   0.000000
    9       29.441604     29.643732   0.000000   0.000000
   10       31.528394     31.958663   0.000000   0.000000
   11       35.496503     36.020388   0.000000   0.000000
   12       35.496503     36.020395   0.000000   0.000000
 
  0.1315789E+00 -0.1315789E+00  0.1315789E+00  0.8333333E-02
    1       -1.228205     -1.046918   1.000000   1.000000
    2        3.583900      5.421610   1.000000   1.000103
    3        3.583901      5.421743   1.000000   1.000103
    4        3.927351      5.844968   1.000000   1.005114
    5        4.143872      6.699946   1.000000  -0.000008
    6        5.000145      7.772991   1.000000  -0.000000
    7       26.514981     26.701714   0.000000   0.000000
    8       28.420389     28.787907   0.000000   0.000000
    9       28.420390     28.787917   0.000000   0.000000
   10       30.233840     30.656720   0.000000   0.000000
   11       35.794014     36.195613   0.000000   0.000000
   12       35.794014     36.195618   0.000000   0.000000
 
  0.1578947E+00 -0.1578947E+00  0.1578947E+00  0.8333333E-02
    1       -0.686111     -0.481469   1.000000   1.000000
    2        3.625728      5.452238   1.000000   1.000234
    3        3.625729      5.452370   1.000000   1.000235
    4        3.894441      6.015170   1.000000   0.512919
    5        4.081406      6.379610   1.000000  -0.014166
    6        5.110667      7.872461   1.000000  -0.000000
    7       25.654923     25.936259   0.000000   0.000000
    8       27.258906     27.738341   0.000000   0.000000
    9       27.258907     27.738352   0.000000   0.000000
   10       29.028756     29.442365   0.000000   0.000000
   11       36.390467     36.722580   0.000000   0.000000
   12       36.390467     36.722584   0.000000   0.000000
 
  0.1842105E+00 -0.1842105E+00  0.1842105E+00  0.8333333E-02
    1       -0.104300      0.145979   1.000000   1.000000
    2        3.616086      5.509817   1.000000   1.000958
    3        3.692160      5.509948   1.000000   1.000961
    4        3.692162      6.024472   1.000000   0.473576
    5        4.254088      6.206181   1.000000  -0.017697
    6        5.261895      7.983284   1.000001  -0.000000
    7       24.895410     25.272074   0.000000   0.000000
    8       26.037208     26.584926   0.000000   0.000000
    9       26.037209     26.584936   0.000000   0.000000
   10       27.940912     28.350100   0.000000   0.000000
   11       37.199712     37.503913   0.000000   0.000000
   12       37.199712     37.503917   0.000000   0.000000
 
  0.2105263E+00 -0.2105263E+00  0.2105263E+00  0.8333333E-02
    1        0.472339      0.807619   1.000000   1.000000
    2        3.317053      5.601055   1.000000   1.005999
    3        3.788448      5.601184   1.000000   1.006012
    4        3.788449      5.645766   1.000000   1.012154
    5        4.441113      6.413384   1.000000  -0.008638
    6        5.485590      8.116342   1.000542  -0.000000
    7       24.234761     24.705989   0.000000   0.000000
    8       24.801545     25.387572   0.000000   0.000000
    9       24.801546     25.387581   0.000000   0.000000
   10       26.988833     27.403394   0.000000   0.000000
   11       38.168768     38.471524   0.000000   0.000000
   12       38.168768     38.471528   0.000000   0.000000
 
  0.2368421E+00 -0.2368421E+00  0.2368421E+00  0.8333333E-02
    1        0.983123      1.464415   1.000000   1.000000
    2        3.005989      5.255032   1.000000   1.000000
    3        3.918258      5.730953   1.000000   1.030371
    4        3.918260      5.731081   1.000000   1.030396
    5        4.637631      6.631447   1.000000  -0.000064
    6        5.832221      8.297290   1.016257  -0.000000
    7       23.579350     24.182800   0.000000   0.000000
    8       23.579352     24.182807   0.000000   0.000000
    9       23.667731     24.230858   0.000000   0.000000
   10       26.181960     26.614867   0.000000   0.000000
   11       39.264116     39.581483   0.000000   0.000000
   12       39.264137     39.581489   0.000000   0.000000
 
  0.2631579E+00 -0.2631579E+00  0.2631579E+00  0.8333333E-02
    1        1.364793      2.064672   1.000000   1.000000
    2        2.691939      4.863886   1.000000   1.000000
    3        4.083387      5.902494   1.000000   0.910202
    4        4.083389      5.902620   1.000000   0.909906
    5        4.838206      6.854400   1.000000  -0.000000
    6        6.358478      8.569452  -0.018492  -0.000000
    7       22.388972     22.994077   0.000000   0.000000
    8       22.388973     22.994083   0.000000   0.000000
    9       23.187151     23.837557   0.000000   0.000000
   10       25.520100     25.985315   0.000000   0.000000
   11       40.318928     40.778829   0.000000   0.000000
   12       40.463368     40.804451   0.000000   0.000000
 
  0.2894737E+00 -0.2894737E+00  0.2894737E+00  0.8333333E-02
    1        1.582402      2.551041   1.000000   1.000000
    2        2.383932      4.483512   1.000000   1.000000
    3        4.283709      6.116763   1.000000   0.133940
    4        4.283710      6.116888   1.000000   0.133592
    5        5.037445      7.076242   1.000000  -0.000000
    6        7.097672      8.988434  -0.000000  -0.000000
    7       21.244869     21.838550   0.000000   0.000000
    8       21.244870     21.838553   0.000000   0.000000
    9       22.784890     23.516253   0.000000   0.000000
   10       24.992903     25.502984   0.000000   0.000000
   11       38.518089     39.233369   0.000000   0.000000
   12       40.813220     41.241160   0.000000   0.000000
 
  0.3157895E+00 -0.3157895E+00  0.3157895E+00  0.8333333E-02
    1        1.647026      2.880912   1.000000   1.000000
    2        2.090568      4.124158   1.000000   1.000000
    3        4.516242      6.371877   1.000000  -0.015681
    4        4.516244      6.372001   1.000000  -0.015656
    5        5.229801      7.290774   1.000000  -0.000000
    6        8.040869      9.600385  -0.000000  -0.000000
    7       20.160571     20.731034   0.000000   0.000000
    8       20.160572     20.731036   0.000000   0.000000
    9       22.452644     23.257268   0.000000   0.000000
   10       24.579587     25.143467   0.000000   0.000000
   11       36.229102     36.981236   0.000000   0.000000
   12       41.373842     41.769298   0.000000   0.000000
 
  0.3421053E+00 -0.3421053E+00  0.3421053E+00  0.8333333E-02
    1        1.599391      3.048790   1.000000   1.000000
    2        1.819761      3.794907   1.000000   1.000000
    3        4.774649      6.662336   1.000000  -0.000026
    4        4.774650      6.662459   1.000000  -0.000026
    5        5.409793      7.491814   1.000074  -0.000000
    6        9.151342     10.416939  -0.000000  -0.000000
    7       19.150481     19.686538   0.000000   0.000000
    8       19.150482     19.686539   0.000000   0.000000
    9       22.182421     23.051612   0.000000   0.000000
   10       24.248211     24.869759   0.000000   0.000000
   11       34.022623     34.819406   0.000000   0.000000
   12       41.998034     42.360504   0.000000   0.000000
 
  0.3684211E+00 -0.3684211E+00  0.3684211E+00  0.8333333E-02
    1        1.485369      3.086462   1.000000   1.000000
    2        1.578558      3.503608   1.000000   1.000000
    3        5.048742      6.978455   1.000000  -0.000000
    4        5.048743      6.978578   1.000000  -0.000000
    5        5.572179      7.673461   1.003546  -0.000000
    6       10.386443     11.411215  -0.000000  -0.000000
    7       18.231200     18.722262   0.000000   0.000000
    8       18.231200     18.722262   0.000000   0.000000
    9       21.966880     22.891271   0.000000   0.000000
   10       23.953015     24.630963   0.000000   0.000000
   11       31.952992     32.805185   0.000000   0.000000
   12       42.676871     43.006235   0.000000   0.000000
 
  0.3947368E+00 -0.3947368E+00  0.3947368E+00  0.8333333E-02
    1        1.343587      3.041794   1.000000   1.000000
    2        1.372989      3.256753   1.000000   1.000000
    3        5.323333      7.304111   1.000005  -0.000000
    4        5.323335      7.304234   1.000005  -0.000000
    5        5.712224      7.830307   1.026296  -0.000000
    6       11.702496     12.530390   0.000000   0.000000
    7       17.422711     17.859657   0.000000   0.000000
    8       17.422712     17.859657   0.000000   0.000000
    9       21.799575     22.769394   0.000000   0.000000
   10       23.627836     24.358628   0.000000   0.000000
   11       30.092296     31.011870   0.000000   0.000000
   12       43.391179     43.687624   0.000000   0.000000
 
  0.4210526E+00 -0.4210526E+00  0.4210526E+00  0.8333333E-02
    1        1.204344      2.960726   1.000000   1.000000
    2        1.208041      3.059589   1.000000   1.000000
    3        5.578161      7.615742   1.003971  -0.000000
    4        5.578163      7.615866   1.003971  -0.000000
    5        5.825761      7.957596   1.020761  -0.000000
    6       13.046756     13.703539   0.000000   0.000000
    7       16.749058     17.126505   0.000000   0.000000
    8       16.749058     17.126505   0.000000   0.000000
    9       21.675127     22.680384   0.000000   0.000000
   10       23.182779     23.970141   0.000000   0.000000
   11       28.550864     29.544006   0.000000   0.000000
   12       44.103931     44.368223   0.000000   0.000000
 
  0.4473684E+00 -0.4473684E+00  0.4473684E+00  0.8333333E-02
    1        1.087461      2.878857   1.000000   1.000000
    2        1.089835      2.915976   1.000000   1.000000
    3        5.788495      7.881240   1.034470  -0.000000
    4        5.788497      7.881365   1.034470  -0.000000
    5        5.909391      8.051429   0.893384  -0.000000
    6       14.331424     14.825334   0.000000   0.000000
    7       16.237692     16.557890   0.000000   0.000000
    8       16.237692     16.557891   0.000000   0.000000
    9       21.589282     22.619880   0.000000   0.000000
   10       22.551591     23.421143   0.000000   0.000000
   11       27.457132     28.511314   0.000000   0.000000
   12       44.748868     44.983391   0.000000   0.000000
 
  0.4736842E+00 -0.4736842E+00  0.4736842E+00  0.8333333E-02
    1        1.014020      2.820473   1.000000   1.000000
    2        1.015216      2.828702   1.000000   1.000000
    3        5.928512      8.063008   0.840550  -0.000000
    4        5.928514      8.063135   0.840544  -0.000000
    5        5.960597      8.108914   0.732980  -0.000000
    6       15.371333     15.710575   0.000000   0.000000
    7       15.916261     16.193395   0.000000   0.000000
    8       15.916261     16.193398   0.000000   0.000000
    9       21.539000     22.584801   0.000000   0.000000
   10       21.857701     22.841207   0.000000   0.000000
   11       26.854365     27.941154   0.000000   0.000000
   12       45.221149     45.432572   0.000000   0.000000
 
  0.5000000E+00 -0.5000000E+00  0.5000000E+00  0.8333333E-02
    1        0.989361      2.799385   1.000000   1.000000
    2        0.989361      2.799530   1.000000   1.000000
    3        5.977849      8.128149   0.667040  -0.000000
    4        5.977851      8.128276   0.667034  -0.000000
    5        5.977852      8.128288   0.667028  -0.000000
    6       15.806351     16.067235   0.000000   0.000000
    7       15.806351     16.067235   0.000000   0.000000
    8       15.806351     16.067238   0.000000   0.000000
    9       21.522445     22.573307   0.000000   0.000000
   10       21.522447     22.573320   0.000000   0.000000
   11       26.670230     27.765897   0.000000   0.000000
   12       45.398612     45.600886   0.000000   0.000000
 
  0.5000000E+00 -0.5000000E+00  0.5000000E+00  0.8333333E-02
    1        0.989361      2.799385   1.000000   1.000000
    2        0.989361      2.799530   1.000000   1.000000
    3        5.977849      8.128149   0.667040  -0.000000
    4        5.977851      8.128276   0.667034  -0.000000
    5        5.977852      8.128288   0.667028  -0.000000
    6       15.806351     16.067235   0.000000   0.000000
    7       15.806351     16.067235   0.000000   0.000000
    8       15.806351     16.067238   0.000000   0.000000
    9       21.522445     22.573307   0.000000   0.000000
   10       21.522447     22.573320   0.000000   0.000000
   11       26.670230     27.765897   0.000000   0.000000
   12       45.398613     45.600886   0.000000   0.000000
 
  0.4736842E+00 -0.4736842E+00  0.5000000E+00  0.8333333E-02
    1        1.001834      2.811200   1.000000   1.000000
    2        1.002229      2.812979   1.000000   1.000000
    3        5.942591      8.083747   0.796070  -0.000000
    4        5.952912      8.095116   0.760697  -0.000000
    5        5.979675      8.130314   0.659801  -0.000000
    6       15.692955     15.983666   0.000000   0.000000
    7       15.744646     16.027628   0.000000   0.000000
    8       15.861441     16.130555   0.000000   0.000000
    9       21.573923     22.613257   0.000000   0.000000
   10       21.662059     22.683441   0.000000   0.000000
   11       26.759812     27.851365   0.000000   0.000000
   12       45.305778     45.512972   0.000000   0.000000
 
  0.4473684E+00 -0.4473684E+00  0.5000000E+00  0.8333333E-02
    1        1.038645      2.846252   1.000000   1.000000
    2        1.040857      2.852923   1.000000   1.000000
    3        5.839666      7.954856   1.010128  -0.000000
    4        5.879195      7.998008   0.958166  -0.000000
    5        5.985105      8.136362   0.638029  -0.000000
    6       15.380481     15.747402   0.000000   0.000000
    7       15.573829     15.917639   0.000000   0.000000
    8       16.024013     16.315980   0.000000   0.000000
    9       21.712695     22.721985   0.000000   0.000000
   10       22.053294     22.999486   0.000000   0.000000
   11       27.028820     28.108228   0.000000   0.000000
   12       45.016080     45.238982   0.000000   0.000000
 
  0.4210526E+00 -0.4210526E+00  0.5000000E+00  0.8333333E-02
    1        1.097866      2.904702   1.000000   1.000000
    2        1.105212      2.916569   1.000000   1.000000
    3        5.676788      7.753967   1.018236  -0.000000
    4        5.759881      7.842709   1.034828  -0.000000
    5        5.994003      8.146272   0.601659  -0.000000
    6       14.927854     15.392356   0.000000   0.000000
    7       15.328196     15.759320   0.000000   0.000000
    8       16.286662     16.611527   0.000000   0.000000
    9       21.902804     22.872771   0.000000   0.000000
   10       22.637735     23.488086   0.000000   0.000000
   11       27.475785     28.535887   0.000000   0.000000
   12       44.510030     44.759851   0.000000   0.000000
 
  0.3947368E+00 -0.3947368E+00  0.5000000E+00  0.8333333E-02
    1        1.176202      2.986607   1.000000   1.000000
    2        1.195278      2.999283   1.000000   1.000000
    3        5.464902      7.497479   1.000324  -0.000000
    4        5.600872      7.639671   1.005980  -0.000000
    5        6.006127      8.159780   0.551081  -0.000000
    6       14.389381     14.954919   0.000000   0.000000
    7       15.045639     15.578314   0.000000   0.000000
    8       16.638963     17.001426   0.000000   0.000000
    9       22.108858     23.037128   0.000000   0.000000
   10       23.361910     24.113731   0.000000   0.000000
   11       28.092668     29.128205   0.000000   0.000000
   12       43.790443     44.074372   0.000000   0.000000
 
  0.3684211E+00 -0.3684211E+00  0.5000000E+00  0.8333333E-02
    1        1.268610      3.091931   1.000000   1.000000
    2        1.310948      3.093764   1.000000   1.000000
    3        5.216301      7.202334   1.000000  -0.000000
    4        5.410730      7.403720   1.000076  -0.000000
    5        6.021162      8.176532   0.487567  -0.000000
    6       13.802352     14.464259   0.000000   0.000000
    7       14.756850     15.396138   0.000000   0.000000
    8       17.069365     17.469628   0.000000   0.000000
    9       22.308610     23.194954   0.000000   0.000000
   10       24.189585     24.848358   0.000000   0.000000
   11       28.862454     29.870746   0.000000   0.000000
   12       42.895604     43.213765   0.000000   0.000000
 
  0.3421053E+00 -0.3421053E+00  0.5000000E+00  0.8333333E-02
    1        1.368084      3.189591   1.000000   1.000000
    2        1.452194      3.220815   1.000000   1.000000
    3        4.942971      6.883720   1.000000  -0.000000
    4        5.201196      7.154363   1.000000  -0.000000
    5        6.038642      8.196012   0.414102  -0.000000
    6       13.189822     13.940903   0.000000   0.000000
    7       14.482555     15.227262   0.000000   0.000000
    8       17.566656     18.001908   0.000000   0.000000
    9       22.493671     23.336909   0.000000   0.000000
   10       25.099005     25.672843   0.000000   0.000000
   11       29.760809     30.741466   0.000000   0.000000
   12       41.880661     42.228451   0.000000   0.000000
 
  0.3157895E+00 -0.3157895E+00  0.5000000E+00  0.8333333E-02
    1        1.465185      3.272513   1.000000   1.000000
    2        1.618955      3.373333   1.000000   1.000000
    3        4.656010      6.554586   1.000000  -0.000495
    4        4.987189      6.915328   1.000000  -0.000000
    5        6.058227      8.217844   0.334430  -0.000000
    6       12.565949     13.398770   0.000000   0.000000
    7       14.234806     15.079492   0.000000   0.000000
    8       18.120817     18.586614   0.000000   0.000000
    9       22.664330     23.461356   0.000000   0.000000
   10       26.077445     26.574752   0.000000   0.000000
   11       30.758772     31.712600   0.000000   0.000000
   12       40.794796     41.166604   0.000000   0.000000
 
  0.2894737E+00 -0.2894737E+00  0.5000000E+00  0.8333333E-02
    1        1.547941      3.324985   1.000000   1.000000
    2        1.810974      3.549343   1.000000   1.000000
    3        4.364907      6.225288   1.000000  -0.028415
    4        4.786409      6.713042   1.000000  -0.000005
    5        6.079257      8.241289   0.254594  -0.000000
    6       11.939586     12.847227   0.000000   0.000000
    7       14.019129     14.955612   0.000000   0.000000
    8       18.723311     19.214590   0.000000   0.000000
    9       22.824638     23.570630   0.000000   0.000000
   10       27.117670     27.546385   0.000000   0.000000
   11       31.823412     32.750878   0.000000   0.000000
   12       39.673319     40.064453   0.000000   0.000000
 
  0.2631579E+00 -0.2631579E+00  0.5000000E+00  0.8333333E-02
    1        1.602864      3.329530   1.000000   1.000000
    2        2.028012      3.748783   1.000000   1.000000
    3        4.077822      5.904262   1.000000   0.906007
    4        4.617873      6.572531   1.000000  -0.000316
    5        6.101321      8.265897   0.179781  -0.000000
    6       11.316525     12.292746  -0.000000   0.000000
    7       13.836694     14.855206   0.000000   0.000000
    8       19.367129     19.878823   0.000000   0.000000
    9       22.979314     23.668299   0.000000   0.000000
   10       28.215390     28.582822   0.000000   0.000000
   11       32.912776     33.811851   0.000000   0.000000
   12       38.539608     38.946636   0.000000   0.000000
 
  0.2368421E+00 -0.2368421E+00  0.5000000E+00  0.8333333E-02
    1        1.617601      3.275287   1.000000   1.000000
    2        2.269692      3.971389   1.000000   1.000000
    3        3.801522      5.598228   1.000000   1.005711
    4        4.498611      6.510239   1.000000  -0.001381
    5        6.123747      8.290914   0.115114  -0.000000
    6       10.700876     11.740071  -0.000000   0.000000
    7       13.686018     14.776142   0.000000   0.000000
    8       20.046379     20.573777   0.000000   0.000000
    9       23.132362     23.757762   0.000000   0.000000
   10       29.367975     29.680803   0.000000   0.000000
   11       33.960427     34.822347   0.000000   0.000000
   12       37.408705     37.829260   0.000000   0.000000
 
  0.2105263E+00 -0.2105263E+00  0.5000000E+00  0.8333333E-02
    1        1.585834      3.164486   1.000000   1.000000
    2        2.535308      4.216623   1.000000   1.000000
    3        3.541569      5.312516   1.000000   1.000004
    4        4.438102      6.526785   1.000000  -0.000954
    5        6.145921      8.315653   0.063463  -0.000000
    6       10.095830     11.192931  -0.000000  -0.000000
    7       13.564216     14.715569   0.000000   0.000000
    8       20.756053     21.294966   0.000000   0.000000
    9       23.286476     23.841683   0.000000   0.000000
   10       30.573546     30.837850   0.000000   0.000000
   11       34.838980     35.640449   0.000000   0.000000
   12       36.290737     36.723174   0.000000   0.000000
 
  0.1842105E+00 -0.1842105E+00  0.5000000E+00  0.8333333E-02
    1        1.511146      3.012009   1.000000   1.000000
    2        2.824214      4.484005   1.000000   1.000000
    3        3.302651      5.051545   1.000000   1.000000
    4        4.434919      6.608414   1.000000  -0.000123
    5        6.167210      8.339418   0.025412  -0.000000
    6        9.504072     10.654494  -0.000000  -0.000000
    7       13.467765     14.670435   0.000000   0.000000
    8       21.491642     22.038473   0.000000   0.000000
    9       23.442742     23.921764   0.000000   0.000000
   10       31.830218     32.051577   0.000000   0.000000
   11       35.193005     35.636114   0.000000   0.000000
   12       35.327733     36.037166   0.000000   0.000000
 
  0.1578947E+00 -0.1578947E+00  0.5000000E+00  0.8333333E-02
    1        1.405987      2.838445   1.000000   1.000000
    2        3.088652      4.772365   1.000000   1.000000
    3        3.135082      4.818960   1.000000   1.000000
    4        4.477246      6.733331   1.000000  -0.000003
    5        6.187051      8.361574  -0.000493  -0.000000
    6        8.928331     10.127814  -0.000000  -0.000000
    7       13.393009     14.637830   0.000000   0.000000
    8       22.248378     22.800161   0.000000   0.000000
    9       23.600332     23.998584   0.000000   0.000000
   10       33.135517     33.318971   0.000000   0.000000
   11       34.121522     34.574321   0.000000   0.000000
   12       35.284652     35.915852   0.000000   0.000000
 
  0.1315789E+00 -0.1315789E+00  0.5000000E+00  0.8333333E-02
    1        1.286804      2.663416   1.000000   1.000000
    2        2.902666      4.617623   1.000000   1.000000
    3        3.465895      5.079914   1.000000   1.000000
    4        4.548049      6.878963   1.000000  -0.000000
    5        6.204889      8.381497  -0.016753  -0.000000
    6        8.371744      9.616243  -0.000000  -0.000000
    7       13.336433     14.615083   0.000000   0.000000
    8       23.020484     23.574906   0.000000   0.000000
    9       23.756180     24.071559   0.000000   0.000000
   10       33.082858     33.544387   0.000000   0.000000
   11       34.485077     34.635115   0.000000   0.000000
   12       34.884896     35.488150   0.000000   0.000000
 
  0.1052632E+00 -0.1052632E+00  0.5000000E+00  0.8333333E-02
    1        1.169292      2.502577   1.000000   1.000000
    2        2.747167      4.449791   1.000000   1.000000
    3        3.813000      5.403385   1.000000   1.000061
    4        4.630102      7.025353   1.000000  -0.000000
    5        6.220217      8.398624  -0.026131  -0.000000
    6        7.838729      9.124182  -0.000000  -0.000000
    7       13.294855     14.599866   0.000000   0.000000
    8       23.799045     24.138863   0.000000   0.000000
    9       23.904636     24.354513   0.000000   0.000000
   10       32.086206     32.555321   0.000000   0.000000
   11       34.374310     34.983046   0.000000   0.000000
   12       35.870550     35.991019   0.000000   0.000000
 
  0.7894737E-01 -0.7894737E-01  0.5000000E+00  0.8333333E-02
    1        1.066108      2.367430   1.000000   1.000000
    2        2.624284      4.317484   1.000000   1.000000
    3        4.169404      5.736459   1.000000   1.031445
    4        4.708834      7.156304   1.000000  -0.000000
    5        6.232610      8.412475  -0.031072  -0.000000
    6        7.337094      8.659036  -0.000000  -0.000000
    7       13.265574     14.590222   0.000000   0.000000
    8       24.037320     24.197458   0.000000   0.000000
    9       24.567402     25.123233   0.000000   0.000000
   10       31.148248     31.623314   0.000000   0.000000
   11       33.892554     34.521066   0.000000   0.000000
   12       37.273517     37.367380   0.000000   0.000000
 
  0.5263158E-01 -0.5263158E-01  0.5000000E+00  0.8333333E-02
    1        0.986433      2.265869   1.000000   1.000000
    2        2.535577      4.222163   1.000000   1.000000
    3        4.518524      6.064133   1.000000   0.311301
    4        4.772984      7.259090   1.000000  -0.000000
    5        6.241768      8.236539  -0.033425  -0.000000
    6        6.883896      8.422715  -0.000000  -0.000000
    7       13.246330     14.584511   0.000000   0.000000
    8       24.143853     24.243549   0.000000   0.000000
    9       25.288529     25.845263   0.000000   0.000000
   10       30.306056     30.784510   0.000000   0.000000
   11       33.510080     34.161039   0.000000   0.000000
   12       38.646832     38.715629   0.000000   0.000000
 
  0.2631579E-01 -0.2631579E-01  0.5000000E+00  0.8333333E-02
    1        0.936327      2.202996   1.000000   1.000000
    2        2.481755      4.164360   1.000000   1.000000
    3        4.814561      6.345324   1.000000  -0.021433
    4        4.815691      7.324469   1.000000  -0.000000
    5        6.247333      7.898201  -0.034384  -0.000000
    6        6.524101      8.428945  -0.001014  -0.000000
    7       13.235459     14.581587   0.000000   0.000000
    8       24.213428     24.273191   0.000000   0.000000
    9       25.870644     26.430090   0.000000   0.000000
   10       29.651309     30.129549   0.000000   0.000000
   11       33.266169     33.934221   0.000000   0.000000
   12       39.843984     39.887685   0.000000   0.000000
 
  0.0000000E+00  0.0000000E+00  0.5000000E+00  0.8333333E-02
    1        0.919259      2.181742   1.000000   1.000000
    2        2.463779      4.145068   1.000000   1.000000