PROCAR lm decomposed
# of k-points:  120         # of bands:   12         # of ions:    1

 k-point     1 :    0.00000000 0.00000000 0.00000000     weight = 0.00833333

band     1 # energy   -2.59534007 # occ.  1.00000000
 
ion      s     py     pz     px    dxy    dyz    dz2    dxz  x2-y2    tot
    1  0.733  0.000  0.000  0.000  0.000  0.000  0.000  0.000  0.000  0.733
 
band     2 # energy    3.55014336 # occ.  1.00000000
 
ion      s     py     pz     px    dxy    dyz    dz2    dxz  x2-y2    tot
    1  0.000  0.000  0.000  0.000  0.846  0.065  0.000  0.068  0.000  0.979
 
band     3 # energy    3.55014412 # occ.  1.00000000
 
ion      s     py     pz     px    dxy    dyz    dz2    dxz  x2-y2    tot
    1  0.000  0.000  0.000  0.000  0.000  0.485  0.000  0.494  0.000  0.979
 
band     4 # energy    3.55014540 # occ.  1.00000000
 
ion      s     py     pz     px    dxy    dyz    dz2    dxz  x2-y2    tot
    1  0.000  0.000  0.000  0.000  0.132  0.430  0.000  0.417  0.000  0.979
 
band     5 # energy    4.75814618 # occ.  1.00000000
 
ion      s     py     pz     px    dxy    dyz    dz2    dxz  x2-y2    tot
    1  0.000  0.000  0.000  0.000  0.000  0.000  0.964  0.000  0.007  0.971
 
band     6 # energy    4.75814727 # occ.  1.00000000
 
ion      s     py     pz     px    dxy    dyz    dz2    dxz  x2-y2    tot
    1  0.000  0.000  0.000  0.000  0.000  0.000  0.007  0.000  0.964  0.971
 
band     7 # energy   30.89767386 # occ.  0.00000000
 
ion      s     py     pz     px    dxy    dyz    dz2    dxz  x2-y2    tot
    1  0.000  0.000  0.000  0.000  0.000  0.000  0.000  0.000  0.000  0.000
 
band     8 # energy   30.89767388 # occ.  0.00000000
 
ion      s     py     pz     px    dxy    dyz    dz2    dxz  x2-y2    tot
    1  0.000  0.000  0.000  0.000  0.000  0.000  0.000  0.000  0.000  0.000
 
band     9 # energy   30.89767389 # occ.  0.00000000
 
ion      s     py     pz     px    dxy    dyz    dz2    dxz  x2-y2    tot
    1  0.000  0.000  0.000  0.000  0.000  0.000  0.000  0.000  0.000  0.000
 
band    10 # energy   35.99523735 # occ.  0.00000000
 
ion      s     py     pz     px    dxy    dyz    dz2    dxz  x2-y2    tot
    1  0.000  0.000  0.000  0.000  0.000  0.000  0.802  0.000  0.000  0.803
 
band    11 # energy   35.99523790 # occ.  0.00000000
 
ion      s     py     pz     px    dxy    dyz    dz2    dxz  x2-y2    tot
    1  0.000  0.000  0.000  0.000  0.000  0.000  0.000  0.000  0.802  0.803
 
band    12 # energy   38.31817922 # occ.  0.00000000
 
ion      s     py     pz     px    dxy    dyz    dz2    dxz  x2-y2    tot
    1  0.000  0.000  0.000  0.000  1.007  0.262  0.000  0.566  0.000  1.836
 

 k-point     2 :    0.02631579-0.02631579 0.02631579     weight = 0.00833333

band     1 # energy   -2.53759407 # occ.  1.00000000
 
ion      s     py     pz     px    dxy    dyz    dz2    dxz  x2-y2    tot
    1  0.729  0.004  0.000  0.000  0.000  0.000  0.000  0.000  0.000  0.734
 
band     2 # energy    3.54945894 # occ.  1.00000000
 
ion      s     py     pz     px    dxy    dyz    dz2    dxz  x2-y2    tot
    1  0.000  0.000  0.000  0.000  0.837  0.141  0.000  0.000  0.000  0.978
 
band     3 # energy    3.54946034 # occ.  1.00000000
 
ion      s     py     pz     px    dxy    dyz    dz2    dxz  x2-y2    tot
    1  0.000  0.000  0.000  0.000  0.141  0.837  0.000  0.000  0.000  0.978
 
band     4 # energy    3.56584235 # occ.  1.00000000
 
ion      s     py     pz     px    dxy    dyz    dz2    dxz  x2-y2    tot
    1  0.000  0.000  0.000  0.000  0.000  0.000  0.000  0.979  0.000  0.979
 
band     5 # energy    4.73225573 # occ.  1.00000000
 
ion      s     py     pz     px    dxy    dyz    dz2    dxz  x2-y2    tot
    1  0.000  0.000  0.000  0.000  0.000  0.000  0.727  0.000  0.242  0.970
 
band     6 # energy    4.76828849 # occ.  1.00000000
 
ion      s     py     pz     px    dxy    dyz    dz2    dxz  x2-y2    tot
    1  0.000  0.000  0.000  0.000  0.000  0.000  0.243  0.000  0.728  0.971
 
band     7 # energy   30.48133082 # occ.  0.00000000
 
ion      s     py     pz     px    dxy    dyz    dz2    dxz  x2-y2    tot
    1  0.000  0.000  0.000  0.000  0.000  0.000  0.064  0.000  0.021  0.086
 
band     8 # energy   30.84993053 # occ.  0.00000000
 
ion      s     py     pz     px    dxy    dyz    dz2    dxz  x2-y2    tot
    1  0.000  0.000  0.000  0.001  0.043  0.002  0.000  0.000  0.000  0.046
 
band     9 # energy   30.84993059 # occ.  0.00000000
 
ion      s     py     pz     px    dxy    dyz    dz2    dxz  x2-y2    tot
    1  0.000  0.000  0.001  0.000  0.002  0.043  0.000  0.000  0.000  0.046
 
band    10 # energy   35.39943571 # occ.  0.00000000
 
ion      s     py     pz     px    dxy    dyz    dz2    dxz  x2-y2    tot
    1  0.002  0.137  0.000  0.000  0.000  0.000  0.150  0.000  0.449  0.738
 
band    11 # energy   36.54535923 # occ.  0.00000000
 
ion      s     py     pz     px    dxy    dyz    dz2    dxz  x2-y2    tot
    1  0.000  0.000  0.000  0.000  0.000  0.000  0.539  0.000  0.180  0.719
 
band    12 # energy   37.22003327 # occ.  0.00000000
 
ion      s     py     pz     px    dxy    dyz    dz2    dxz  x2-y2    tot
    1  0.000  0.000  0.000  0.372  0.910  0.000  0.000  0.000  0.000  1.282
 

 k-point     3 :    0.05263158-0.05263158 0.05263158     weight = 0.00833333

band     1 # energy   -2.36569884 # occ.  1.00000000
 
ion      s     py     pz     px    dxy    dyz    dz2    dxz  x2-y2    tot
    1  0.717  0.016  0.000  0.000  0.000  0.000  0.000  0.000  0.000  0.734
 
band     2 # energy    3.54888287 # occ.  1.00000000
 
ion      s     py     pz     px    dxy    dyz    dz2    dxz  x2-y2    tot
    1  0.000  0.000  0.000  0.001  0.835  0.141  0.000  0.000  0.000  0.977
 
band     3 # energy    3.54888426 # occ.  1.00000000
 
ion      s     py     pz     px    dxy    dyz    dz2    dxz  x2-y2    tot
    1  0.000  0.000  0.001  0.000  0.141  0.835  0.000  0.000  0.000  0.977
 
band     4 # energy    3.61295810 # occ.  1.00000000
 
ion      s     py     pz     px    dxy    dyz    dz2    dxz  x2-y2    tot
    1  0.000  0.000  0.000  0.000  0.000  0.000  0.000  0.978  0.000  0.978
 
band     5 # energy    4.65546018 # occ.  1.00000000
 
ion      s     py     pz     px    dxy    dyz    dz2    dxz  x2-y2    tot
    1  0.000  0.000  0.000  0.000  0.000  0.000  0.725  0.000  0.242  0.966
 
band     6 # energy    4.79851873 # occ.  1.00000000
 
ion      s     py     pz     px    dxy    dyz    dz2    dxz  x2-y2    tot
    1  0.000  0.000  0.000  0.000  0.000  0.000  0.243  0.000  0.729  0.972
 
band     7 # energy   29.55704984 # occ.  0.00000000
 
ion      s     py     pz     px    dxy    dyz    dz2    dxz  x2-y2    tot
    1  0.000  0.000  0.000  0.000  0.000  0.000  0.165  0.000  0.055  0.220
 
band     8 # energy   30.65878565 # occ.  0.00000000
 
ion      s     py     pz     px    dxy    dyz    dz2    dxz  x2-y2    tot
    1  0.000  0.000  0.000  0.012  0.181  0.002  0.000  0.000  0.000  0.195
 
band     9 # energy   30.65878587 # occ.  0.00000000
 
ion      s     py     pz     px    dxy    dyz    dz2    dxz  x2-y2    tot
    1  0.000  0.000  0.012  0.000  0.002  0.181  0.000  0.000  0.000  0.195
 
band    10 # energy   34.20804910 # occ.  0.00000000
 
ion      s     py     pz     px    dxy    dyz    dz2    dxz  x2-y2    tot
    1  0.012  0.264  0.000  0.000  0.000  0.000  0.094  0.000  0.281  0.651
 
band    11 # energy   36.21375855 # occ.  0.00000000
 
ion      s     py     pz     px    dxy    dyz    dz2    dxz  x2-y2    tot
    1  0.000  0.000  0.019  0.418  0.605  0.028  0.000  0.000  0.000  1.070
 
band    12 # energy   36.21375941 # occ.  0.00000000
 
ion      s     py     pz     px    dxy    dyz    dz2    dxz  x2-y2    tot
    1  0.000  0.000  0.418  0.019  0.028  0.605  0.000  0.000  0.000  1.070
 

 k-point     4 :    0.07894737-0.07894737 0.07894737     weight = 0.00833333

band     1 # energy   -2.08406240 # occ.  1.00000000
 
ion      s     py     pz     px    dxy    dyz    dz2    dxz  x2-y2    tot
    1  0.696  0.036  0.000  0.000  0.000  0.000  0.000  0.000  0.001  0.734
 
band     2 # energy    3.55122563 # occ.  1.00000000
 
ion      s     py     pz     px    dxy    dyz    dz2    dxz  x2-y2    tot
    1  0.000  0.000  0.001  0.003  0.831  0.140  0.000  0.000  0.000  0.975
 
band     3 # energy    3.55122702 # occ.  1.00000000
 
ion      s     py     pz     px    dxy    dyz    dz2    dxz  x2-y2    tot
    1  0.000  0.000  0.003  0.001  0.140  0.831  0.000  0.000  0.000  0.975
 
band     4 # energy    3.69026432 # occ.  1.00000000
 
ion      s     py     pz     px    dxy    dyz    dz2    dxz  x2-y2    tot
    1  0.000  0.000  0.000  0.000  0.000  0.000  0.000  0.978  0.000  0.978
 
band     5 # energy    4.52949346 # occ.  1.00000000
 
ion      s     py     pz     px    dxy    dyz    dz2    dxz  x2-y2    tot
    1  0.000  0.000  0.000  0.000  0.000  0.000  0.721  0.000  0.240  0.961
 
band     6 # energy    4.84759183 # occ.  1.00000000
 
ion      s     py     pz     px    dxy    dyz    dz2    dxz  x2-y2    tot
    1  0.001  0.000  0.000  0.000  0.000  0.000  0.243  0.000  0.730  0.974
 
band     7 # energy   28.50249864 # occ.  0.00000000
 
ion      s     py     pz     px    dxy    dyz    dz2    dxz  x2-y2    tot
    1  0.000  0.000  0.000  0.000  0.000  0.000  0.246  0.000  0.082  0.328
 
band     8 # energy   30.21044267 # occ.  0.00000000
 
ion      s     py     pz     px    dxy    dyz    dz2    dxz  x2-y2    tot
    1  0.000  0.000  0.000  0.057  0.375  0.003  0.000  0.000  0.000  0.435
 
band     9 # energy   30.21044315 # occ.  0.00000000
 
ion      s     py     pz     px    dxy    dyz    dz2    dxz  x2-y2    tot
    1  0.000  0.000  0.057  0.000  0.003  0.375  0.000  0.000  0.000  0.435
 
band    10 # energy   32.87341672 # occ.  0.00000000
 
ion      s     py     pz     px    dxy    dyz    dz2    dxz  x2-y2    tot
    1  0.031  0.325  0.000  0.000  0.000  0.000  0.056  0.000  0.169  0.581
 
band    11 # energy   35.61406129 # occ.  0.00000000
 
ion      s     py     pz     px    dxy    dyz    dz2    dxz  x2-y2    tot
    1  0.000  0.000  0.027  0.422  0.334  0.022  0.000  0.000  0.000  0.806
 
band    12 # energy   35.61406194 # occ.  0.00000000
 
ion      s     py     pz     px    dxy    dyz    dz2    dxz  x2-y2    tot
    1  0.000  0.000  0.422  0.027  0.022  0.334  0.000  0.000  0.000  0.806
 

 k-point     5 :    0.10526316-0.10526316 0.10526316     weight = 0.00833333

band     1 # energy   -1.70068170 # occ.  1.00000000
 
ion      s     py     pz     px    dxy    dyz    dz2    dxz  x2-y2    tot
    1  0.667  0.063  0.000  0.000  0.000  0.000  0.001  0.000  0.004  0.735
 
band     2 # energy    3.56106046 # occ.  1.00000000
 
ion      s     py     pz     px    dxy    dyz    dz2    dxz  x2-y2    tot
    1  0.000  0.000  0.001  0.005  0.827  0.139  0.000  0.000  0.000  0.973
 
band     3 # energy    3.56106185 # occ.  1.00000000
 
ion      s     py     pz     px    dxy    dyz    dz2    dxz  x2-y2    tot
    1  0.000  0.000  0.005  0.001  0.139  0.827  0.000  0.000  0.000  0.973
 
band     4 # energy    3.79591194 # occ.  1.00000000
 
ion      s     py     pz     px    dxy    dyz    dz2    dxz  x2-y2    tot
    1  0.000  0.000  0.000  0.000  0.000  0.000  0.000  0.977  0.000  0.977
 
band     5 # energy    4.35749279 # occ.  1.00000000
 
ion      s     py     pz     px    dxy    dyz    dz2    dxz  x2-y2    tot
    1  0.000  0.000  0.000  0.000  0.000  0.000  0.716  0.000  0.239  0.954
 
band     6 # energy    4.91439784 # occ.  1.00000000
 
ion      s     py     pz     px    dxy    dyz    dz2    dxz  x2-y2    tot
    1  0.004  0.001  0.000  0.000  0.000  0.000  0.243  0.000  0.729  0.976
 
band     7 # energy   27.47052191 # occ.  0.00000000
 
ion      s     py     pz     px    dxy    dyz    dz2    dxz  x2-y2    tot
    1  0.000  0.000  0.000  0.000  0.000  0.000  0.310  0.000  0.103  0.413
 
band     8 # energy   29.44160341 # occ.  0.00000000
 
ion      s     py     pz     px    dxy    dyz    dz2    dxz  x2-y2    tot
    1  0.000  0.000  0.001  0.137  0.532  0.004  0.000  0.000  0.000  0.674
 
band     9 # energy   29.44160415 # occ.  0.00000000
 
ion      s     py     pz     px    dxy    dyz    dz2    dxz  x2-y2    tot
    1  0.000  0.000  0.137  0.001  0.004  0.532  0.000  0.000  0.000  0.674
 
band    10 # energy   31.52839399 # occ.  0.00000000
 
ion      s     py     pz     px    dxy    dyz    dz2    dxz  x2-y2    tot
    1  0.058  0.350  0.000  0.000  0.000  0.000  0.030  0.000  0.091  0.529
 
band    11 # energy   35.49650253 # occ.  0.00000000
 
ion      s     py     pz     px    dxy    dyz    dz2    dxz  x2-y2    tot
    1  0.000  0.000  0.035  0.384  0.128  0.012  0.000  0.000  0.000  0.559
 
band    12 # energy   35.49650299 # occ.  0.00000000
 
ion      s     py     pz     px    dxy    dyz    dz2    dxz  x2-y2    tot
    1  0.000  0.000  0.384  0.035  0.012  0.128  0.000  0.000  0.000  0.559
 

 k-point     6 :    0.13157895-0.13157895 0.13157895     weight = 0.00833333

band     1 # energy   -1.22820539 # occ.  1.00000000
 
ion      s     py     pz     px    dxy    dyz    dz2    dxz  x2-y2    tot
    1  0.627  0.095  0.000  0.000  0.000  0.000  0.004  0.000  0.011  0.737
 
band     2 # energy    3.58390006 # occ.  1.00000000
 
ion      s     py     pz     px    dxy    dyz    dz2    dxz  x2-y2    tot
    1  0.000  0.000  0.001  0.008  0.823  0.137  0.000  0.000  0.000  0.970
 
band     3 # energy    3.58390144 # occ.  1.00000000
 
ion      s     py     pz     px    dxy    dyz    dz2    dxz  x2-y2    tot
    1  0.000  0.000  0.008  0.001  0.137  0.823  0.000  0.000  0.000  0.970
 
band     4 # energy    3.92735124 # occ.  1.00000000
 
ion      s     py     pz     px    dxy    dyz    dz2    dxz  x2-y2    tot
    1  0.000  0.000  0.000  0.000  0.000  0.000  0.000  0.976  0.000  0.976
 
band     5 # energy    4.14387197 # occ.  1.00000000
 
ion      s     py     pz     px    dxy    dyz    dz2    dxz  x2-y2    tot
    1  0.000  0.000  0.000  0.000  0.000  0.000  0.710  0.000  0.237  0.946
 
band     6 # energy    5.00014545 # occ.  1.00000000
 
ion      s     py     pz     px    dxy    dyz    dz2    dxz  x2-y2    tot
    1  0.010  0.002  0.000  0.000  0.000  0.000  0.242  0.000  0.725  0.978
 
band     7 # energy   26.51498093 # occ.  0.00000000
 
ion      s     py     pz     px    dxy    dyz    dz2    dxz  x2-y2    tot
    1  0.000  0.000  0.000  0.000  0.000  0.000  0.364  0.000  0.121  0.486
 
band     8 # energy   28.42038859 # occ.  0.00000000
 
ion      s     py     pz     px    dxy    dyz    dz2    dxz  x2-y2    tot
    1  0.000  0.000  0.002  0.224  0.599  0.005  0.000  0.000  0.000  0.830
 
band     9 # energy   28.42038951 # occ.  0.00000000
 
ion      s     py     pz     px    dxy    dyz    dz2    dxz  x2-y2    tot
    1  0.000  0.000  0.224  0.002  0.005  0.599  0.000  0.000  0.000  0.830
 
band    10 # energy   30.23384011 # occ.  0.00000000
 
ion      s     py     pz     px    dxy    dyz    dz2    dxz  x2-y2    tot
    1  0.090  0.350  0.000  0.000  0.000  0.000  0.013  0.000  0.040  0.493
 
band    11 # energy   35.79401401 # occ.  0.00000000
 
ion      s     py     pz     px    dxy    dyz    dz2    dxz  x2-y2    tot
    1  0.000  0.000  0.043  0.335  0.026  0.003  0.000  0.000  0.000  0.407
 
band    12 # energy   35.79401434 # occ.  0.00000000
 
ion      s     py     pz     px    dxy    dyz    dz2    dxz  x2-y2    tot
    1  0.000  0.000  0.335  0.043  0.003  0.026  0.000  0.000  0.000  0.407
 

 k-point     7 :    0.15789474-0.15789474 0.15789474     weight = 0.00833333

band     1 # energy   -0.68611052 # occ.  1.00000000
 
ion      s     py     pz     px    dxy    dyz    dz2    dxz  x2-y2    tot
    1  0.576  0.130  0.000  0.000  0.000  0.000  0.008  0.000  0.025  0.740
 
band     2 # energy    3.62572756 # occ.  1.00000000
 
ion      s     py     pz     px    dxy    dyz    dz2    dxz  x2-y2    tot
    1  0.000  0.000  0.002  0.012  0.819  0.134  0.000  0.000  0.000  0.967
 
band     3 # energy    3.62572894 # occ.  1.00000000
 
ion      s     py     pz     px    dxy    dyz    dz2    dxz  x2-y2    tot
    1  0.000  0.000  0.012  0.002  0.134  0.819  0.000  0.000  0.000  0.967
 
band     4 # energy    3.89444067 # occ.  1.00000000
 
ion      s     py     pz     px    dxy    dyz    dz2    dxz  x2-y2    tot
    1  0.000  0.000  0.000  0.000  0.000  0.000  0.703  0.000  0.234  0.938
 
band     5 # energy    4.08140610 # occ.  1.00000000
 
ion      s     py     pz     px    dxy    dyz    dz2    dxz  x2-y2    tot
    1  0.000  0.000  0.000  0.000  0.000  0.000  0.000  0.975  0.000  0.975
 
band     6 # energy    5.11066733 # occ.  1.00000000
 
ion      s     py     pz     px    dxy    dyz    dz2    dxz  x2-y2    tot
    1  0.021  0.005  0.000  0.000  0.000  0.000  0.238  0.000  0.714  0.978
 
band     7 # energy   25.65492283 # occ.  0.00000000
 
ion      s     py     pz     px    dxy    dyz    dz2    dxz  x2-y2    tot
    1  0.000  0.000  0.000  0.000  0.000  0.000  0.412  0.000  0.137  0.550
 
band     8 # energy   27.25890615 # occ.  0.00000000
 
ion      s     py     pz     px    dxy    dyz    dz2    dxz  x2-y2    tot
    1  0.000  0.000  0.003  0.302  0.598  0.005  0.000  0.000  0.000  0.908
 
band     9 # energy   27.25890717 # occ.  0.00000000
 
ion      s     py     pz     px    dxy    dyz    dz2    dxz  x2-y2    tot
    1  0.000  0.000  0.302  0.003  0.005  0.598  0.000  0.000  0.000  0.908
 
band    10 # energy   29.02875604 # occ.  0.00000000
 
ion      s     py     pz     px    dxy    dyz    dz2    dxz  x2-y2    tot
    1  0.125  0.333  0.000  0.000  0.000  0.000  0.004  0.000  0.011  0.472
 
band    11 # energy   36.39046708 # occ.  0.00000000
 
ion      s     py     pz     px    dxy    dyz    dz2    dxz  x2-y2    tot
    1  0.000  0.000  0.040  0.301  0.000  0.000  0.000  0.000  0.000  0.341
 
band    12 # energy   36.39046737 # occ.  0.00000000
 
ion      s     py     pz     px    dxy    dyz    dz2    dxz  x2-y2    tot
    1  0.000  0.000  0.301  0.040  0.000  0.000  0.000  0.000  0.000  0.341
 

 k-point     8 :    0.18421053-0.18421053 0.18421053     weight = 0.00833333

band     1 # energy   -0.10429991 # occ.  1.00000000
 
ion      s     py     pz     px    dxy    dyz    dz2    dxz  x2-y2    tot
    1  0.511  0.165  0.000  0.000  0.000  0.000  0.017  0.000  0.052  0.745
 
band     2 # energy    3.61608579 # occ.  1.00000000
 
ion      s     py     pz     px    dxy    dyz    dz2    dxz  x2-y2    tot
    1  0.000  0.000  0.000  0.000  0.000  0.000  0.696  0.000  0.232  0.928
 
band     3 # energy    3.69216028 # occ.  1.00000000
 
ion      s     py     pz     px    dxy    dyz    dz2    dxz  x2-y2    tot
    1  0.000  0.000  0.003  0.016  0.816  0.130  0.000  0.000  0.000  0.964
 
band     4 # energy    3.69216167 # occ.  1.00000000
 
ion      s     py     pz     px    dxy    dyz    dz2    dxz  x2-y2    tot
    1  0.000  0.000  0.016  0.003  0.130  0.816  0.000  0.000  0.000  0.964
 
band     5 # energy    4.25408799 # occ.  1.00000000
 
ion      s     py     pz     px    dxy    dyz    dz2    dxz  x2-y2    tot
    1  0.000  0.000  0.000  0.000  0.000  0.000  0.000  0.975  0.000  0.975
 
band     6 # energy    5.26189544 # occ.  1.00000061
 
ion      s     py     pz     px    dxy    dyz    dz2    dxz  x2-y2    tot
    1  0.043  0.012  0.000  0.000  0.000  0.000  0.230  0.000  0.690  0.976
 
band     7 # energy   24.89541042 # occ.  0.00000000
 
ion      s     py     pz     px    dxy    dyz    dz2    dxz  x2-y2    tot
    1  0.000  0.000  0.000  0.000  0.000  0.000  0.456  0.000  0.152  0.608
 
band     8 # energy   26.03720777 # occ.  0.00000000
 
ion      s     py     pz     px    dxy    dyz    dz2    dxz  x2-y2    tot
    1  0.000  0.000  0.004  0.367  0.562  0.006  0.000  0.000  0.000  0.938
 
band     9 # energy   26.03720884 # occ.  0.00000000
 
ion      s     py     pz     px    dxy    dyz    dz2    dxz  x2-y2    tot
    1  0.000  0.000  0.367  0.004  0.006  0.562  0.000  0.000  0.000  0.938
 
band    10 # energy   27.94091245 # occ.  0.00000000
 
ion      s     py     pz     px    dxy    dyz    dz2    dxz  x2-y2    tot
    1  0.162  0.303  0.000  0.000  0.000  0.000  0.000  0.000  0.000  0.465
 
band    11 # energy   37.19971206 # occ.  0.00000000
 
ion      s     py     pz     px    dxy    dyz    dz2    dxz  x2-y2    tot
    1  0.000  0.000  0.035  0.278  0.016  0.002  0.000  0.000  0.000  0.331
 
band    12 # energy   37.19971232 # occ.  0.00000000
 
ion      s     py     pz     px    dxy    dyz    dz2    dxz  x2-y2    tot
    1  0.000  0.000  0.278  0.035  0.002  0.016  0.000  0.000  0.000  0.331
 

 k-point     9 :    0.21052632-0.21052632 0.21052632     weight = 0.00833333

band     1 # energy    0.47233930 # occ.  1.00000000
 
ion      s     py     pz     px    dxy    dyz    dz2    dxz  x2-y2    tot
    1  0.429  0.193  0.000  0.000  0.000  0.000  0.034  0.000  0.101  0.756
 
band     2 # energy    3.31705328 # occ.  1.00000000
 
ion      s     py     pz     px    dxy    dyz    dz2    dxz  x2-y2    tot
    1  0.000  0.000  0.000  0.000  0.000  0.000  0.690  0.000  0.230  0.920
 
band     3 # energy    3.78844766 # occ.  1.00000000
 
ion      s     py     pz     px    dxy    dyz    dz2    dxz  x2-y2    tot
    1  0.000  0.000  0.003  0.020  0.814  0.125  0.000  0.000  0.000  0.962
 
band     4 # energy    3.78844906 # occ.  1.00000000
 
ion      s     py     pz     px    dxy    dyz    dz2    dxz  x2-y2    tot
    1  0.000  0.000  0.020  0.003  0.125  0.814  0.000  0.000  0.000  0.962
 
band     5 # energy    4.44111319 # occ.  1.00000000
 
ion      s     py     pz     px    dxy    dyz    dz2    dxz  x2-y2    tot
    1  0.000  0.000  0.000  0.000  0.000  0.000  0.000  0.974  0.000  0.974
 
band     6 # energy    5.48558979 # occ.  1.00054171
 
ion      s     py     pz     px    dxy    dyz    dz2    dxz  x2-y2    tot
    1  0.078  0.028  0.000  0.000  0.000  0.000  0.215  0.000  0.646  0.967
 
band     7 # energy   24.23476057 # occ.  0.00000000
 
ion      s     py     pz     px    dxy    dyz    dz2    dxz  x2-y2    tot
    1  0.000  0.000  0.000  0.000  0.000  0.000  0.496  0.000  0.165  0.662
 
band     8 # energy   24.80154485 # occ.  0.00000000
 
ion      s     py     pz     px    dxy    dyz    dz2    dxz  x2-y2    tot
    1  0.000  0.000  0.005  0.423  0.509  0.005  0.000  0.000  0.000  0.942
 
band     9 # energy   24.80154592 # occ.  0.00000000
 
ion      s     py     pz     px    dxy    dyz    dz2    dxz  x2-y2    tot
    1  0.000  0.000  0.423  0.005  0.005  0.509  0.000  0.000  0.000  0.942
 
band    10 # energy   26.98883297 # occ.  0.00000000
 
ion      s     py     pz     px    dxy    dyz    dz2    dxz  x2-y2    tot
    1  0.199  0.264  0.000  0.000  0.000  0.000  0.002  0.000  0.006  0.471
 
band    11 # energy   38.16876817 # occ.  0.00000000
 
ion      s     py     pz     px    dxy    dyz    dz2    dxz  x2-y2    tot
    1  0.000  0.000  0.092  0.200  0.044  0.020  0.000  0.000  0.000  0.356
 
band    12 # energy   38.16876834 # occ.  0.00000000
 
ion      s     py     pz     px    dxy    dyz    dz2    dxz  x2-y2    tot
    1  0.000  0.000  0.200  0.092  0.020  0.044  0.000  0.000  0.000  0.356
 

 k-point    10 :    0.23684211-0.23684211 0.23684211     weight = 0.00833333

band     1 # energy    0.98312284 # occ.  1.00000000
 
ion      s     py     pz     px    dxy    dyz    dz2    dxz  x2-y2    tot
    1  0.331  0.206  0.000  0.000  0.000  0.000  0.059  0.000  0.177  0.773
 
band     2 # energy    3.00598904 # occ.  1.00000000
 
ion      s     py     pz     px    dxy    dyz    dz2    dxz  x2-y2    tot
    1  0.000  0.000  0.000  0.000  0.000  0.000  0.683  0.000  0.228  0.911
 
band     3 # energy    3.91825848 # occ.  1.00000000
 
ion      s     py     pz     px    dxy    dyz    dz2    dxz  x2-y2    tot
    1  0.000  0.000  0.004  0.024  0.813  0.119  0.000  0.000  0.000  0.960
 
band     4 # energy    3.91825991 # occ.  1.00000000
 
ion      s     py     pz     px    dxy    dyz    dz2    dxz  x2-y2    tot
    1  0.000  0.000  0.024  0.004  0.119  0.813  0.000  0.000  0.000  0.960
 
band     5 # energy    4.63763142 # occ.  1.00000000
 
ion      s     py     pz     px    dxy    dyz    dz2    dxz  x2-y2    tot
    1  0.000  0.000  0.000  0.000  0.000  0.000  0.000  0.974  0.000  0.974
 
band     6 # energy    5.83222102 # occ.  1.01625699
 
ion      s     py     pz     px    dxy    dyz    dz2    dxz  x2-y2    tot
    1  0.127  0.060  0.000  0.000  0.000  0.000  0.191  0.000  0.572  0.950
 
band     7 # energy   23.57935048 # occ.  0.00000000
 
ion      s     py     pz     px    dxy    dyz    dz2    dxz  x2-y2    tot
    1  0.000  0.000  0.006  0.470  0.450  0.005  0.000  0.000  0.000  0.931
 
band     8 # energy   23.57935153 # occ.  0.00000000
 
ion      s     py     pz     px    dxy    dyz    dz2    dxz  x2-y2    tot
    1  0.000  0.000  0.470  0.006  0.005  0.450  0.000  0.000  0.000  0.931
 
band     9 # energy   23.66773149 # occ.  0.00000000
 
ion      s     py     pz     px    dxy    dyz    dz2    dxz  x2-y2    tot
    1  0.000  0.000  0.000  0.000  0.000  0.000  0.533  0.000  0.178  0.711
 
band    10 # energy   26.18196002 # occ.  0.00000000
 
ion      s     py     pz     px    dxy    dyz    dz2    dxz  x2-y2    tot
    1  0.234  0.218  0.000  0.000  0.000  0.000  0.009  0.000  0.028  0.490
 
band    11 # energy   39.26411638 # occ.  0.00000000
 
ion      s     py     pz     px    dxy    dyz    dz2    dxz  x2-y2    tot
    1  0.000  0.000  0.275  0.000  0.000  0.126  0.000  0.000  0.000  0.401
 
band    12 # energy   39.26413748 # occ.  0.00000000
 
ion      s     py     pz     px    dxy    dyz    dz2    dxz  x2-y2    tot
    1  0.000  0.000  0.000  0.276  0.126  0.000  0.000  0.000  0.000  0.402
 

 k-point    11 :    0.26315789-0.26315789 0.26315789     weight = 0.00833333

band     1 # energy    1.36479269 # occ.  1.00000000
 
ion      s     py     pz     px    dxy    dyz    dz2    dxz  x2-y2    tot
    1  0.229  0.197  0.000  0.000  0.000  0.000  0.093  0.000  0.278  0.797
 
band     2 # energy    2.69193947 # occ.  1.00000000
 
ion      s     py     pz     px    dxy    dyz    dz2    dxz  x2-y2    tot
    1  0.000  0.000  0.000  0.000  0.000  0.000  0.678  0.000  0.226  0.904
 
band     3 # energy    4.08338743 # occ.  1.00000000
 
ion      s     py     pz     px    dxy    dyz    dz2    dxz  x2-y2    tot
    1  0.000  0.000  0.004  0.028  0.815  0.112  0.000  0.000  0.000  0.959
 
band     4 # energy    4.08338890 # occ.  1.00000000
 
ion      s     py     pz     px    dxy    dyz    dz2    dxz  x2-y2    tot
    1  0.000  0.000  0.028  0.004  0.112  0.815  0.000  0.000  0.000  0.959
 
band     5 # energy    4.83820612 # occ.  1.00000000
 
ion      s     py     pz     px    dxy    dyz    dz2    dxz  x2-y2    tot
    1  0.000  0.000  0.000  0.000  0.000  0.000  0.000  0.975  0.000  0.975
 
band     6 # energy    6.35847764 # occ. -0.01849213
 
ion      s     py     pz     px    dxy    dyz    dz2    dxz  x2-y2    tot
    1  0.180  0.113  0.000  0.000  0.000  0.000  0.158  0.000  0.475  0.925
 
band     7 # energy   22.38897204 # occ.  0.00000000
 
ion      s     py     pz     px    dxy    dyz    dz2    dxz  x2-y2    tot
    1  0.000  0.000  0.007  0.512  0.388  0.005  0.000  0.000  0.000  0.913
 
band     8 # energy   22.38897304 # occ.  0.00000000
 
ion      s     py     pz     px    dxy    dyz    dz2    dxz  x2-y2    tot
    1  0.000  0.000  0.512  0.007  0.005  0.388  0.000  0.000  0.000  0.913
 
band     9 # energy   23.18715067 # occ.  0.00000000
 
ion      s     py     pz     px    dxy    dyz    dz2    dxz  x2-y2    tot
    1  0.000  0.000  0.000  0.000  0.000  0.000  0.567  0.000  0.189  0.756
 
band    10 # energy   25.52009987 # occ.  0.00000000
 
ion      s     py     pz     px    dxy    dyz    dz2    dxz  x2-y2    tot
    1  0.265  0.170  0.000  0.000  0.000  0.000  0.021  0.000  0.063  0.519
 
band    11 # energy   40.31892842 # occ.  0.00000000
 
ion      s     py     pz     px    dxy    dyz    dz2    dxz  x2-y2    tot
    1  0.000  0.000  0.000  0.000  0.000  0.000  0.000  1.262  0.000  1.262
 
band    12 # energy   40.46336838 # occ.  0.00000000
 
ion      s     py     pz     px    dxy    dyz    dz2    dxz  x2-y2    tot
    1  0.000  0.000  0.263  0.000  0.000  0.198  0.000  0.000  0.000  0.462
 

 k-point    12 :    0.28947368-0.28947368 0.28947368     weight = 0.00833333

band     1 # energy    1.58240205 # occ.  1.00000000
 
ion      s     py     pz     px    dxy    dyz    dz2    dxz  x2-y2    tot
    1  0.141  0.171  0.000  0.000  0.000  0.000  0.128  0.000  0.383  0.822
 
band     2 # energy    2.38393245 # occ.  1.00000000
 
ion      s     py     pz     px    dxy    dyz    dz2    dxz  x2-y2    tot
    1  0.000  0.000  0.000  0.000  0.000  0.000  0.673  0.000  0.224  0.897
 
band     3 # energy    4.28370889 # occ.  1.00000000
 
ion      s     py     pz     px    dxy    dyz    dz2    dxz  x2-y2    tot
    1  0.000  0.000  0.004  0.031  0.819  0.105  0.000  0.000  0.000  0.959
 
band     4 # energy    4.28371040 # occ.  1.00000000
 
ion      s     py     pz     px    dxy    dyz    dz2    dxz  x2-y2    tot
    1  0.000  0.000  0.031  0.004  0.105  0.819  0.000  0.000  0.000  0.959
 
band     5 # energy    5.03744482 # occ.  1.00000000
 
ion      s     py     pz     px    dxy    dyz    dz2    dxz  x2-y2    tot
    1  0.000  0.000  0.000  0.000  0.000  0.000  0.000  0.976  0.000  0.976
 
band     6 # energy    7.09767177 # occ. -0.00000000
 
ion      s     py     pz     px    dxy    dyz    dz2    dxz  x2-y2    tot
    1  0.218  0.182  0.000  0.000  0.000  0.000  0.124  0.000  0.373  0.897
 
band     7 # energy   21.24486878 # occ.  0.00000000
 
ion      s     py     pz     px    dxy    dyz    dz2    dxz  x2-y2    tot
    1  0.000  0.000  0.009  0.549  0.327  0.006  0.000  0.000  0.000  0.891
 
band     8 # energy   21.24486973 # occ.  0.00000000
 
ion      s     py     pz     px    dxy    dyz    dz2    dxz  x2-y2    tot