<?xml version="1.0" encoding="ISO-8859-1"?>
<modeling>
 <generator>
  <i name="program" type="string">vasp </i>
  <i name="version" type="string">6.2.0  </i>
  <i name="subversion" type="string">18Jan21 (build Aug 12 2022 13:00:08) complex                          parallel </i>
  <i name="platform" type="string">LinuxIFC </i>
  <i name="date" type="string">2024 11 04 </i>
  <i name="time" type="string">21:22:14 </i>
 </generator>
 <incar>
  <i type="int" name="ISTART">     1</i>
  <i type="string" name="PREC">Accurate      (Accurate strictly avoids</i>
  <i type="logical" name="ADDGRID"> T  </i>
  <i type="int" name="ISPIN">     2</i>
  <i type="int" name="ICHARG">    11</i>
  <i type="int" name="NELM">    90</i>
  <i type="int" name="NELMIN">     6</i>
  <i type="int" name="IBRION">    -1</i>
  <i name="EDIFF">      0.00000100</i>
  <i name="EDIFFG">     -0.00200000</i>
  <i type="int" name="NSW">     0</i>
  <i type="int" name="ISIF">     3</i>
  <i type="int" name="ISYM">     2</i>
  <i name="ENCUT">    450.00000000</i>
  <v name="MAGMOM">      5.00000000</v>
  <i type="logical" name="LREAL"> F  </i>
  <i type="int" name="ISMEAR">     1</i>
  <i name="SIGMA">      0.20000000</i>
  <i type="int" name="LMAXMIX">     4</i>
  <i type="logical" name="LWAVE"> T  </i>
  <i type="logical" name="LCHARG"> T  </i>
  <i type="int" name="LORBIT">    11</i>
  <i type="logical" name="LASPH"> T  </i>
  <i type="logical" name="GGA_COMPAT"> F  </i>
  <i type="int" name="VOSKOWN">     1</i>
 </incar>
 <primitive_cell>
  <structure name="primitive_cell" >
   <crystal>
    <varray name="basis" >
     <v>      -1.41500639       1.41500639       1.41500639 </v>
     <v>       1.41500639      -1.41500639       1.41500639 </v>
     <v>       1.41500639       1.41500639      -1.41500639 </v>
    </varray>
    <i name="volume">     11.33274695 </i>
    <varray name="rec_basis" >
     <v>       0.00000000       0.35335530       0.35335530 </v>
     <v>       0.35335530       0.00000000       0.35335530 </v>
     <v>       0.35335530       0.35335530       0.00000000 </v>
    </varray>
   </crystal>
   <varray name="positions" >
    <v>       0.00000000       0.00000000       0.00000000 </v>
   </varray>
  </structure>
  <varray name="primitive_index" >
   <v type="int" >        1 </v>
  </varray>
 </primitive_cell>
 <kpoints>
  <generation param="listgenerated">
   <i name="divisions" type="int">      20 </i>
   <v>       0.00000000       0.00000000       0.00000000 </v>
   <v>       0.50000000      -0.50000000       0.50000000 </v>
   <v>       0.00000000       0.00000000       0.50000000 </v>
   <v>       0.00000000       0.00000000       0.00000000 </v>
   <v>       0.25000000       0.25000000       0.25000000 </v>
   <v>       0.25000000       0.25000000       0.25000000 </v>
   <v>       0.00000000       0.00000000       0.50000000 </v>
  </generation>
  <varray name="kpointlist" >
   <v>       0.00000000       0.00000000       0.00000000 </v>
   <v>       0.02631579      -0.02631579       0.02631579 </v>
   <v>       0.05263158      -0.05263158       0.05263158 </v>
   <v>       0.07894737      -0.07894737       0.07894737 </v>
   <v>       0.10526316      -0.10526316       0.10526316 </v>
   <v>       0.13157895      -0.13157895       0.13157895 </v>
   <v>       0.15789474      -0.15789474       0.15789474 </v>
   <v>       0.18421053      -0.18421053       0.18421053 </v>
   <v>       0.21052632      -0.21052632       0.21052632 </v>
   <v>       0.23684211      -0.23684211       0.23684211 </v>
   <v>       0.26315789      -0.26315789       0.26315789 </v>
   <v>       0.28947368      -0.28947368       0.28947368 </v>
   <v>       0.31578947      -0.31578947       0.31578947 </v>
   <v>       0.34210526      -0.34210526       0.34210526 </v>
   <v>       0.36842105      -0.36842105       0.36842105 </v>
   <v>       0.39473684      -0.39473684       0.39473684 </v>
   <v>       0.42105263      -0.42105263       0.42105263 </v>
   <v>       0.44736842      -0.44736842       0.44736842 </v>
   <v>       0.47368421      -0.47368421       0.47368421 </v>
   <v>       0.50000000      -0.50000000       0.50000000 </v>
   <v>       0.50000000      -0.50000000       0.50000000 </v>
   <v>       0.47368421      -0.47368421       0.50000000 </v>
   <v>       0.44736842      -0.44736842       0.50000000 </v>
   <v>       0.42105263      -0.42105263       0.50000000 </v>
   <v>       0.39473684      -0.39473684       0.50000000 </v>
   <v>       0.36842105      -0.36842105       0.50000000 </v>
   <v>       0.34210526      -0.34210526       0.50000000 </v>
   <v>       0.31578947      -0.31578947       0.50000000 </v>
   <v>       0.28947368      -0.28947368       0.50000000 </v>
   <v>       0.26315789      -0.26315789       0.50000000 </v>
   <v>       0.23684211      -0.23684211       0.50000000 </v>
   <v>       0.21052632      -0.21052632       0.50000000 </v>
   <v>       0.18421053      -0.18421053       0.50000000 </v>
   <v>       0.15789474      -0.15789474       0.50000000 </v>
   <v>       0.13157895      -0.13157895       0.50000000 </v>
   <v>       0.10526316      -0.10526316       0.50000000 </v>
   <v>       0.07894737      -0.07894737       0.50000000 </v>
   <v>       0.05263158      -0.05263158       0.50000000 </v>
   <v>       0.02631579      -0.02631579       0.50000000 </v>
   <v>       0.00000000       0.00000000       0.50000000 </v>
   <v>       0.00000000       0.00000000       0.50000000 </v>
   <v>       0.00000000       0.00000000       0.47368421 </v>
   <v>       0.00000000       0.00000000       0.44736842 </v>
   <v>       0.00000000       0.00000000       0.42105263 </v>
   <v>       0.00000000       0.00000000       0.39473684 </v>
   <v>       0.00000000       0.00000000       0.36842105 </v>
   <v>       0.00000000       0.00000000       0.34210526 </v>
   <v>       0.00000000       0.00000000       0.31578947 </v>
   <v>       0.00000000       0.00000000       0.28947368 </v>
   <v>       0.00000000       0.00000000       0.26315789 </v>
   <v>       0.00000000       0.00000000       0.23684211 </v>
   <v>       0.00000000       0.00000000       0.21052632 </v>
   <v>       0.00000000       0.00000000       0.18421053 </v>
   <v>       0.00000000       0.00000000       0.15789474 </v>
   <v>       0.00000000       0.00000000       0.13157895 </v>
   <v>       0.00000000       0.00000000       0.10526316 </v>
   <v>       0.00000000       0.00000000       0.07894737 </v>
   <v>       0.00000000       0.00000000       0.05263158 </v>
   <v>       0.00000000       0.00000000       0.02631579 </v>
   <v>       0.00000000       0.00000000       0.00000000 </v>
   <v>       0.00000000       0.00000000       0.00000000 </v>
   <v>       0.01315789       0.01315789       0.01315789 </v>
   <v>       0.02631579       0.02631579       0.02631579 </v>
   <v>       0.03947368       0.03947368       0.03947368 </v>
   <v>       0.05263158       0.05263158       0.05263158 </v>
   <v>       0.06578947       0.06578947       0.06578947 </v>
   <v>       0.07894737       0.07894737       0.07894737 </v>
   <v>       0.09210526       0.09210526       0.09210526 </v>
   <v>       0.10526316       0.10526316       0.10526316 </v>
   <v>       0.11842105       0.11842105       0.11842105 </v>
   <v>       0.13157895       0.13157895       0.13157895 </v>
   <v>       0.14473684       0.14473684       0.14473684 </v>
   <v>       0.15789474       0.15789474       0.15789474 </v>
   <v>       0.17105263       0.17105263       0.17105263 </v>
   <v>       0.18421053       0.18421053       0.18421053 </v>
   <v>       0.19736842       0.19736842       0.19736842 </v>
   <v>       0.21052632       0.21052632       0.21052632 </v>
   <v>       0.22368421       0.22368421       0.22368421 </v>
   <v>       0.23684211       0.23684211       0.23684211 </v>
   <v>       0.25000000       0.25000000       0.25000000 </v>
   <v>       0.25000000       0.25000000       0.25000000 </v>
   <v>       0.26315789       0.21052632       0.26315789 </v>
   <v>       0.27631579       0.17105263       0.27631579 </v>
   <v>       0.28947368       0.13157895       0.28947368 </v>
   <v>       0.30263158       0.09210526       0.30263158 </v>
   <v>       0.31578947       0.05263158       0.31578947 </v>
   <v>       0.32894737       0.01315789       0.32894737 </v>
   <v>       0.34210526      -0.02631579       0.34210526 </v>
   <v>       0.35526316      -0.06578947       0.35526316 </v>
   <v>       0.36842105      -0.10526316       0.36842105 </v>
   <v>       0.38157895      -0.14473684       0.38157895 </v>
   <v>       0.39473684      -0.18421053       0.39473684 </v>
   <v>       0.40789474      -0.22368421       0.40789474 </v>
   <v>       0.42105263      -0.26315789       0.42105263 </v>
   <v>       0.43421053      -0.30263158       0.43421053 </v>
   <v>       0.44736842      -0.34210526       0.44736842 </v>
   <v>       0.46052632      -0.38157895       0.46052632 </v>
   <v>       0.47368421      -0.42105263       0.47368421 </v>
   <v>       0.48684211      -0.46052632       0.48684211 </v>
   <v>       0.50000000      -0.50000000       0.50000000 </v>
   <v>       0.25000000       0.25000000       0.25000000 </v>
   <v>       0.23684211       0.23684211       0.26315789 </v>
   <v>       0.22368421       0.22368421       0.27631579 </v>
   <v>       0.21052632       0.21052632       0.28947368 </v>
   <v>       0.19736842       0.19736842       0.30263158 </v>
   <v>       0.18421053       0.18421053       0.31578947 </v>
   <v>       0.17105263       0.17105263       0.32894737 </v>
   <v>       0.15789474       0.15789474       0.34210526 </v>
   <v>       0.14473684       0.14473684       0.35526316 </v>
   <v>       0.13157895       0.13157895       0.36842105 </v>
   <v>       0.11842105       0.11842105       0.38157895 </v>
   <v>       0.10526316       0.10526316       0.39473684 </v>
   <v>       0.09210526       0.09210526       0.40789474 </v>
   <v>       0.07894737       0.07894737       0.42105263 </v>
   <v>       0.06578947       0.06578947       0.43421053 </v>
   <v>       0.05263158       0.05263158       0.44736842 </v>
   <v>       0.03947368       0.03947368       0.46052632 </v>
   <v>       0.02631579       0.02631579       0.47368421 </v>
   <v>       0.01315789       0.01315789       0.48684211 </v>
   <v>       0.00000000       0.00000000       0.50000000 </v>
  </varray>
  <varray name="weights" >
   <v>       0.00833333 </v>
   <v>       0.00833333 </v>
   <v>       0.00833333 </v>
   <v>       0.00833333 </v>
   <v>       0.00833333 </v>
   <v>       0.00833333 </v>
   <v>       0.00833333 </v>
   <v>       0.00833333 </v>
   <v>       0.00833333 </v>
   <v>       0.00833333 </v>
   <v>       0.00833333 </v>
   <v>       0.00833333 </v>
   <v>       0.00833333 </v>
   <v>       0.00833333 </v>
   <v>       0.00833333 </v>
   <v>       0.00833333 </v>
   <v>       0.00833333 </v>
   <v>       0.00833333 </v>
   <v>       0.00833333 </v>
   <v>       0.00833333 </v>
   <v>       0.00833333 </v>
   <v>       0.00833333 </v>
   <v>       0.00833333 </v>
   <v>       0.00833333 </v>
   <v>       0.00833333 </v>
   <v>       0.00833333 </v>
   <v>       0.00833333 </v>
   <v>       0.00833333 </v>
   <v>       0.00833333 </v>
   <v>       0.00833333 </v>
   <v>       0.00833333 </v>
   <v>       0.00833333 </v>
   <v>       0.00833333 </v>
   <v>       0.00833333 </v>
   <v>       0.00833333 </v>
   <v>       0.00833333 </v>
   <v>       0.00833333 </v>
   <v>       0.00833333 </v>
   <v>       0.00833333 </v>
   <v>       0.00833333 </v>
   <v>       0.00833333 </v>
   <v>       0.00833333 </v>
   <v>       0.00833333 </v>
   <v>       0.00833333 </v>
   <v>       0.00833333 </v>
   <v>       0.00833333 </v>
   <v>       0.00833333 </v>
   <v>       0.00833333 </v>
   <v>       0.00833333 </v>
   <v>       0.00833333 </v>
   <v>       0.00833333 </v>
   <v>       0.00833333 </v>
   <v>       0.00833333 </v>
   <v>       0.00833333 </v>
   <v>       0.00833333 </v>
   <v>       0.00833333 </v>
   <v>       0.00833333 </v>
   <v>       0.00833333 </v>
   <v>       0.00833333 </v>
   <v>       0.00833333 </v>
   <v>       0.00833333 </v>
   <v>       0.00833333 </v>
   <v>       0.00833333 </v>
   <v>       0.00833333 </v>
   <v>       0.00833333 </v>
   <v>       0.00833333 </v>
   <v>       0.00833333 </v>
   <v>       0.00833333 </v>
   <v>       0.00833333 </v>
   <v>       0.00833333 </v>
   <v>       0.00833333 </v>
   <v>       0.00833333 </v>
   <v>       0.00833333 </v>
   <v>       0.00833333 </v>
   <v>       0.00833333 </v>
   <v>       0.00833333 </v>
   <v>       0.00833333 </v>
   <v>       0.00833333 </v>
   <v>       0.00833333 </v>
   <v>       0.00833333 </v>
   <v>       0.00833333 </v>
   <v>       0.00833333 </v>
   <v>       0.00833333 </v>
   <v>       0.00833333 </v>
   <v>       0.00833333 </v>
   <v>       0.00833333 </v>
   <v>       0.00833333 </v>
   <v>       0.00833333 </v>
   <v>       0.00833333 </v>
   <v>       0.00833333 </v>
   <v>       0.00833333 </v>
   <v>       0.00833333 </v>
   <v>       0.00833333 </v>
   <v>       0.00833333 </v>
   <v>       0.00833333 </v>
   <v>       0.00833333 </v>
   <v>       0.00833333 </v>
   <v>       0.00833333 </v>
   <v>       0.00833333 </v>
   <v>       0.00833333 </v>
   <v>       0.00833333 </v>
   <v>       0.00833333 </v>
   <v>       0.00833333 </v>
   <v>       0.00833333 </v>
   <v>       0.00833333 </v>
   <v>       0.00833333 </v>
   <v>       0.00833333 </v>
   <v>       0.00833333 </v>
   <v>       0.00833333 </v>
   <v>       0.00833333 </v>
   <v>       0.00833333 </v>
   <v>       0.00833333 </v>
   <v>       0.00833333 </v>
   <v>       0.00833333 </v>
   <v>       0.00833333 </v>
   <v>       0.00833333 </v>
   <v>       0.00833333 </v>
   <v>       0.00833333 </v>
   <v>       0.00833333 </v>
   <v>       0.00833333 </v>
  </varray>
 </kpoints>
 <parameters>
  <separator name="general" >
   <i type="string" name="SYSTEM">unknown system</i>
   <i type="logical" name="LCOMPAT"> F  </i>
  </separator>
  <separator name="electronic" >
   <i type="string" name="PREC">accura</i>
   <i name="ENMAX">    450.00000000</i>
   <i name="ENAUG">    511.36800000</i>
   <i name="EDIFF">      0.00000100</i>
   <i type="int" name="IALGO">    38</i>
   <i type="int" name="IWAVPR">    10</i>
   <i type="int" name="NBANDS">    12</i>
   <i type="int" name="NBANDSLOW">    -1</i>
   <i type="int" name="NBANDSHIGH">    -1</i>
   <i name="NELECT">      8.00000000</i>
   <i type="int" name="TURBO">     0</i>
   <i type="int" name="IRESTART">     0</i>
   <i type="int" name="NREBOOT">     0</i>
   <i type="int" name="NMIN">     0</i>
   <i name="EREF">      0.00000000</i>
   <separator name="electronic smearing" >
    <i type="int" name="ISMEAR">     1</i>
    <i name="SIGMA">      0.20000000</i>
    <i name="KSPACING">      0.50000000</i>
    <i type="logical" name="KGAMMA"> T  </i>
    <i type="logical" name="KBLOWUP"> T  </i>
   </separator>
   <separator name="electronic projectors" >
    <i type="logical" name="LREAL"> F  </i>
    <v name="ROPT">      0.00000000</v>
    <i type="int" name="LMAXPAW">  -100</i>
    <i type="int" name="LMAXMIX">     4</i>
    <i type="logical" name="NLSPLINE"> F  </i>
   </separator>
   <separator name="electronic startup" >
    <i type="int" name="ISTART">     1</i>
    <i type="int" name="ICHARG">    11</i>
    <i type="int" name="INIWAV">     1</i>
   </separator>
   <separator name="electronic spin" >
    <i type="int" name="ISPIN">     2</i>
    <i type="logical" name="LNONCOLLINEAR"> F  </i>
    <v name="MAGMOM">      5.00000000</v>
    <i name="NUPDOWN">     -1.00000000</i>
    <i type="logical" name="LSORBIT"> F  </i>
    <v name="SAXIS">      0.00000000      0.00000000      1.00000000</v>
    <i type="logical" name="LSPIRAL"> F  </i>
    <v name="QSPIRAL">      0.00000000      0.00000000      0.00000000</v>
    <i type="logical" name="LZEROZ"> F  </i>
   </separator>
   <separator name="electronic exchange-correlation" >
    <i type="logical" name="LASPH"> T  </i>
    <i type="logical" name="LMETAGGA"> F  </i>
   </separator>
   <separator name="electronic convergence" >
    <i type="int" name="NELM">    90</i>
    <i type="int" name="NELMDL">     0</i>
    <i type="int" name="NELMIN">     6</i>
    <i name="ENINI">    450.00000000</i>
    <separator name="electronic convergence detail" >
     <i type="logical" name="LDIAG"> T  </i>
     <i type="logical" name="LSUBROT"> F  </i>
     <i name="WEIMIN">      0.00000000</i>
     <i name="EBREAK">      0.00000002</i>
     <i name="DEPER">      0.30000000</i>
     <i type="int" name="NRMM">     4</i>
     <i name="TIME">      0.40000000</i>
    </separator>
   </separator>
   <separator name="electronic mixer" >
    <i name="AMIX">      0.40000000</i>
    <i name="BMIX">      1.00000000</i>
    <i name="AMIN">      0.10000000</i>
    <i name="AMIX_MAG">      1.60000000</i>
    <i name="BMIX_MAG">      1.00000000</i>
    <separator name="electronic mixer details" >
     <i type="int" name="IMIX">     4</i>
     <i type="logical" name="MIXFIRST"> F  </i>
     <i type="int" name="MAXMIX">   -45</i>
     <i name="WC">    100.00000000</i>
     <i type="int" name="INIMIX">     1</i>
     <i type="int" name="MIXPRE">     1</i>
     <i type="int" name="MREMOVE">     5</i>
    </separator>
   </separator>
   <separator name="electronic dipolcorrection" >
    <i type="logical" name="LDIPOL"> F  </i>
    <i type="logical" name="LMONO"> F  </i>
    <i type="int" name="IDIPOL">     0</i>
    <i name="EPSILON">      1.00000000</i>
    <v name="DIPOL">   -100.00000000   -100.00000000   -100.00000000</v>
    <i name="EFIELD">      0.00000000</i>
   </separator>
  </separator>
  <separator name="grids" >
   <i type="int" name="NGX">    18</i>
   <i type="int" name="NGY">    18</i>
   <i type="int" name="NGZ">    18</i>
   <i type="int" name="NGXF">    36</i>
   <i type="int" name="NGYF">    36</i>
   <i type="int" name="NGZF">    36</i>
   <i type="logical" name="ADDGRID"> T  </i>
  </separator>
  <separator name="ionic" >
   <i type="int" name="NSW">     0</i>
   <i type="int" name="IBRION">    -1</i>
   <i type="int" name="MDALGO">     0</i>
   <i type="int" name="ISIF">     3</i>
   <i name="PSTRESS">      0.00000000</i>
   <i name="EDIFFG">     -0.00200000</i>
   <i type="int" name="NFREE">     0</i>
   <i name="POTIM">      0.50000000</i>
   <i name="SMASS">     -3.00000000</i>
   <i name="SCALEE">      1.00000000</i>
  </separator>
  <separator name="ionic md" >
   <i name="TEBEG">      0.00010000</i>
   <i name="TEEND">      0.00010000</i>
   <i type="int" name="NBLOCK">     1</i>
   <i type="int" name="KBLOCK">     1</i>
   <i type="int" name="NPACO">   256</i>
   <i name="APACO">     16.00000000</i>
  </separator>
  <separator name="symmetry" >
   <i type="int" name="ISYM">     2</i>
   <i name="SYMPREC">      0.00001000</i>
  </separator>
  <separator name="dos" >
   <i type="int" name="LORBIT">    11</i>
   <v name="RWIGS">     -1.00000000</v>
   <i type="int" name="NEDOS">   301</i>
   <i name="EMIN">     10.00000000</i>
   <i name="EMAX">    -10.00000000</i>
   <i name="EFERMI">      0.00000000</i>
  </separator>
  <separator name="writing" >
   <i type="int" name="NWRITE">     2</i>
   <i type="logical" name="LWAVE"> T  </i>
   <i type="logical" name="LDOWNSAMPLE"> F  </i>
   <i type="logical" name="LCHARG"> T  </i>
   <i type="logical" name="LPARD"> F  </i>
   <i type="logical" name="LVTOT"> F  </i>
   <i type="logical" name="LVHAR"> F  </i>
   <i type="logical" name="LELF"> F  </i>
   <i type="logical" name="LOPTICS"> F  </i>
   <v name="STM">      0.00000000      0.00000000      0.00000000      0.00000000      0.00000000      0.00000000      0.00000000</v>
  </separator>
  <separator name="performance" >
   <i type="int" name="NPAR">     4</i>
   <i type="int" name="NSIM">     4</i>
   <i type="int" name="NBLK">    -1</i>
   <i type="logical" name="LPLANE"> T  </i>
   <i type="logical" name="LSCALAPACK"> T  </i>
   <i type="logical" name="LSCAAWARE"> F  </i>
   <i type="logical" name="LSCALU"> F  </i>
   <i type="logical" name="LASYNC"> F  </i>
   <i type="logical" name="LORBITALREAL"> F  </i>
  </separator>
  <separator name="miscellaneous" >
   <i type="int" name="IDIOT">     3</i>
   <i type="int" name="PHON_NSTRUCT">    -1</i>
   <i type="logical" name="LMUSIC"> F  </i>
   <v name="POMASS">     55.84700000</v>
   <v name="DARWINR">      0.00000000</v>
   <v name="DARWINV">      1.00000000</v>
   <i type="logical" name="LCORR"> T  </i>
  </separator>
  <i type="logical" name="GGA_COMPAT"> F  </i>
  <i type="logical" name="LBERRY"> F  </i>
  <i type="int" name="ICORELEVEL">     0</i>
  <i type="logical" name="LDAU"> F  </i>
  <i type="int" name="I_CONSTRAINED_M">     0</i>
  <separator name="electronic exchange-correlation" >
   <i type="string" name="GGA">--</i>
   <i type="int" name="VOSKOWN">     1</i>
   <i type="logical" name="LHFCALC"> F  </i>
   <i type="string" name="PRECFOCK"></i>
   <i type="logical" name="LSYMGRAD"> F  </i>
   <i type="logical" name="LHFONE"> F  </i>
   <i type="logical" name="LRHFCALC"> F  </i>
   <i type="logical" name="LTHOMAS"> F  </i>
   <i type="logical" name="LMODELHF"> F  </i>
   <i type="logical" name="LFOCKACE"> F  </i>
   <i name="ENCUT4O">     -1.00000000</i>
   <i type="int" name="EXXOEP">     0</i>
   <i type="int" name="FOURORBIT">     0</i>
   <i name="AEXX">      0.00000000</i>
   <i name="HFALPHA">      0.00000000</i>
   <i name="MCALPHA">      0.00000000</i>
   <i name="ALDAX">      1.00000000</i>
   <i name="AGGAX">      1.00000000</i>
   <i name="ALDAC">      1.00000000</i>
   <i name="AGGAC">      1.00000000</i>
   <i type="int" name="NKREDX">     1</i>
   <i type="int" name="NKREDY">     1</i>
   <i type="int" name="NKREDZ">     1</i>
   <i type="logical" name="SHIFTRED"> F  </i>
   <i type="logical" name="ODDONLY"> F  </i>
   <i type="logical" name="EVENONLY"> F  </i>
   <i type="int" name="LMAXFOCK">     0</i>
   <i type="int" name="NMAXFOCKAE">     0</i>
   <i type="logical" name="LFOCKAEDFT"> F  </i>
   <i name="HFSCREEN">      0.00000000</i>
   <i name="HFSCREENC">      0.00000000</i>
   <i type="int" name="NBANDSGWLOW">     0</i>
  </separator>
  <separator name="vdW DFT" >
   <i type="logical" name="LUSE_VDW"> F  </i>
   <i name="Zab_VDW">     -0.84910000</i>
   <i name="PARAM1">      0.12340000</i>
   <i name="PARAM2">      1.00000000</i>
   <i name="PARAM3">      0.00000000</i>
  </separator>
  <separator name="model GW" >
   <i type="int" name="MODEL_GW">     0</i>
   <i name="MODEL_EPS0">      6.79964817</i>
   <i name="MODEL_ALPHA">      1.00000000</i>
  </separator>
  <separator name="linear response parameters" >
   <i type="logical" name="LEPSILON"> F  </i>
   <i type="logical" name="LRPA"> F  </i>
   <i type="logical" name="LNABLA"> F  </i>
   <i type="logical" name="LVEL"> F  </i>
   <i type="int" name="KINTER">     0</i>
   <i name="CSHIFT">      0.10000000</i>
   <i name="OMEGAMAX">     -1.00000000</i>
   <i name="DEG_THRESHOLD">      0.00200000</i>
   <i name="RTIME">     -0.10000000</i>
   <i name="WPLASMAI">      0.00000000</i>
   <v name="DFIELD">      0.00000000      0.00000000      0.00000000</v>
   <v name="WPLASMA">      0.00000000      0.00000000      0.00000000      0.00000000      0.00000000      0.00000000      0.00000000      0.00000000      0.00000000</v>
  </separator>
  <separator name="orbital magnetization" >
   <i type="logical" name="NUCIND"> F  </i>
   <v name="MAGPOS">      0.00000000      0.00000000      0.00000000</v>
   <i type="logical" name="LNICSALL"> T  </i>
   <i type="logical" name="ORBITALMAG"> F  </i>
   <i type="logical" name="LMAGBLOCH"> F  </i>
   <i type="logical" name="LCHIMAG"> F  </i>
   <i type="logical" name="LGAUGE"> T  </i>
   <i type="int" name="MAGATOM">     0</i>
   <v name="MAGDIPOL">      0.00000000      0.00000000      0.00000000</v>
   <v name="AVECCONST">      0.00000000      0.00000000      0.00000000</v>
  </separator>
  <separator name="response functions" >
   <i type="logical" name="LFINITE_TEMPERATURE"> F  </i>
   <i type="logical" name="LADDER"> F  </i>
   <i type="logical" name="LRPAFORCE"> F  </i>
   <i type="logical" name="LFXC"> F  </i>
   <i type="logical" name="LHARTREE"> T  </i>
   <i type="int" name="IBSE">     0</i>
   <v type="int" name="KPOINT">    -1     0     0     0</v>
   <i type="logical" name="LTCTC"> F  </i>
   <i type="logical" name="LTCTE"> F  </i>
   <i type="logical" name="LTETE"> F  </i>
   <i type="logical" name="LTRIPLET"> F  </i>
   <i type="logical" name="LFXCEPS"> F  </i>
   <i type="logical" name="LFXHEG"> F  </i>
   <i type="int" name="NATURALO">     2</i>
   <i type="logical" name="LHOLEGF"> F  </i>
   <i type="logical" name="L2ORDER"> F  </i>
   <i type="logical" name="LDMP1"> F  </i>
   <i type="logical" name="LMP2LT"> F  </i>
   <i type="logical" name="LSMP2LT"> F  </i>
   <i type="logical" name="LGWLF"> F  </i>
   <i name="ENCUTGW">     -2.00000000</i>
   <i name="ENCUTGWSOFT">     -2.00000000</i>
   <i name="ENCUTLF">     -1.00000000</i>
   <i type="logical" name="LESF_SPLINES"> F  </i>
   <i type="int" name="LMAXMP2">    -1</i>
   <i name="SCISSOR">      0.00000000</i>
   <i type="int" name="NOMEGA">     0</i>
   <i type="int" name="NOMEGAR">     0</i>
   <i type="int" name="NBANDSGW">    -1</i>
   <i type="int" name="NBANDSO">    -1</i>
   <i type="int" name="NBANDSV">    -1</i>
   <i type="int" name="NELM">    90</i>
   <i type="int" name="NELMHF">     1</i>
   <i type="int" name="DIM">     3</i>
   <i type="int" name="IESPILON">     4</i>
   <i type="int" name="ANTIRES">     0</i>
   <i name="OMEGAMAX">    -30.00000000</i>
   <i name="OMEGAMIN">    -30.00000000</i>
   <i name="OMEGATL">   -200.00000000</i>
   <i type="int" name="OMEGAGRID">     0</i>
   <i name="CSHIFT">     -0.10000000</i>
   <i type="logical" name="LSELFENERGY"> F  </i>
   <i type="logical" name="LSPECTRAL"> F  </i>
   <i type="logical" name="LSPECTRALGW"> F  </i>
   <i type="logical" name="LSINGLES"> F  </i>
   <i type="logical" name="LFERMIGW"> F  </i>
   <i type="logical" name="ODDONLYGW"> F  </i>
   <i type="logical" name="EVENONLYGW"> F  </i>
   <i type="int" name="NKREDLFX">     1</i>
   <i type="int" name="NKREDLFY">     1</i>
   <i type="int" name="NKREDLFZ">     1</i>
   <i type="int" name="MAXMEM">  2800</i>
   <i type="int" name="TELESCOPE">     0</i>
   <i type="int" name="NTAUPAR">    -1</i>
   <i type="int" name="NOMEGAPAR">    -1</i>
   <i name="DAMP_NEWTON">      0.80000001</i>
   <i name="LAMBDA">      1.00000000</i>
  </separator>
  <separator name="External order field" >
   <i name="OFIELD_KAPPA">      0.00000000</i>
   <v name="OFIELD_K">      0.00000000      0.00000000      0.00000000</v>
   <i name="OFIELD_Q6_NEAR">      0.00000000</i>
   <i name="OFIELD_Q6_FAR">      0.00000000</i>
   <i name="OFIELD_A">      0.00000000</i>
  </separator>
 </parameters>
 <atominfo>
  <atoms>       1 </atoms>
  <types>       1 </types>
  <array name="atoms" >
   <dimension dim="1">ion</dimension>
   <field type="string">element</field>
   <field type="int">atomtype</field>
   <set>
    <rc><c>Fe</c><c>   1</c></rc>
   </set>
  </array>
  <array name="atomtypes" >
   <dimension dim="1">type</dimension>
   <field type="int">atomspertype</field>
   <field type="string">element</field>
   <field>mass</field>
   <field>valence</field>
   <field type="string">pseudopotential</field>
   <set>
    <rc><c>   1</c><c>Fe</c><c>     55.84700000</c><c>      8.00000000</c><c>  PAW_PBE Fe 06Sep2000                  </c></rc>
   </set>
  </array>
 </atominfo>
 <structure name="initialpos" >
  <crystal>
   <varray name="basis" >
    <v>      -1.41500639       1.41500639       1.41500639 </v>
    <v>       1.41500639      -1.41500639       1.41500639 </v>
    <v>       1.41500639       1.41500639      -1.41500639 </v>
   </varray>
   <i name="volume">     11.33274695 </i>
   <varray name="rec_basis" >
    <v>       0.00000000       0.35335530       0.35335530 </v>
    <v>       0.35335530       0.00000000       0.35335530 </v>
    <v>       0.35335530       0.35335530       0.00000000 </v>
   </varray>
  </crystal>
  <varray name="positions" >
   <v>       0.00000000       0.00000000       0.00000000 </v>
  </varray>
 </structure>
 <calculation>
  <scstep>
   <time name="dav">    2.65    2.65</time>
   <time name="total">    4.25    4.26</time>
   <energy>
    <i name="alphaZ">     60.98589892 </i>
    <i name="ewald">   -592.55350491 </i>
    <i name="hartreedc">    -94.85991679 </i>
    <i name="XCdc">      4.28650274 </i>
    <i name="pawpsdc">    720.71079764 </i>
    <i name="pawaedc">   -729.75726735 </i>
    <i name="eentropy">      0.00029738 </i>
    <i name="bandstr">     31.59703789 </i>
    <i name="atom">    594.31193140 </i>
    <i name="e_fr_energy">     -5.27822309 </i>
    <i name="e_wo_entrp">     -5.27852046 </i>
    <i name="e_0_energy">     -5.27832221 </i>
   </energy>
  </scstep>
  <scstep>
   <time name="dav">    2.11    2.12</time>
   <time name="total">    2.11    2.13</time>
   <energy>
    <i name="e_fr_energy">     -8.68871076 </i>
    <i name="e_wo_entrp">     -8.68543794 </i>
    <i name="e_0_energy">     -8.68761982 </i>
   </energy>
  </scstep>
  <scstep>
   <time name="dav">    2.18    2.20</time>
   <time name="total">    2.19    2.21</time>
   <energy>
    <i name="e_fr_energy">     -8.72965397 </i>
    <i name="e_wo_entrp">     -8.72651348 </i>
    <i name="e_0_energy">     -8.72860714 </i>
   </energy>
  </scstep>
  <scstep>
   <time name="dav">    2.15    2.16</time>
   <time name="total">    2.16    2.17</time>
   <energy>
    <i name="e_fr_energy">     -8.72983418 </i>
    <i name="e_wo_entrp">     -8.72669523 </i>
    <i name="e_0_energy">     -8.72878787 </i>
   </energy>
  </scstep>
  <scstep>
   <time name="dav">    2.11    2.13</time>
   <time name="total">    2.12    2.14</time>
   <energy>
    <i name="e_fr_energy">     -8.72983573 </i>
    <i name="e_wo_entrp">     -8.72669679 </i>
    <i name="e_0_energy">     -8.72878942 </i>
   </energy>
  </scstep>
  <scstep>
   <time name="dav">    1.77    1.79</time>
   <time name="total">    1.78    1.79</time>
   <energy>
    <i name="alphaZ">     60.98589892 </i>
    <i name="ewald">   -592.55350491 </i>
    <i name="hartreedc">    -94.85991679 </i>
    <i name="XCdc">      4.28650274 </i>
    <i name="pawpsdc">    720.71079764 </i>
    <i name="pawaedc">   -729.75726735 </i>
    <i name="eentropy">     -0.00313894 </i>
    <i name="bandstr">     28.14886154 </i>
    <i name="atom">    594.31193140 </i>
    <i name="e_fr_energy">     -8.72983575 </i>
    <i name="e_wo_entrp">     -8.72669681 </i>
    <i name="e_0_energy">     -8.72878943 </i>
   </energy>
  </scstep>
  <structure>
   <crystal>
    <varray name="basis" >
     <v>      -1.41500639       1.41500639       1.41500639 </v>
     <v>       1.41500639      -1.41500639       1.41500639 </v>
     <v>       1.41500639       1.41500639      -1.41500639 </v>
    </varray>
    <i name="volume">     11.33274695 </i>
    <varray name="rec_basis" >
     <v>       0.00000000       0.35335530       0.35335530 </v>
     <v>       0.35335530       0.00000000       0.35335530 </v>
     <v>       0.35335530       0.35335530       0.00000000 </v>
    </varray>
   </crystal>
   <varray name="positions" >
    <v>       0.00000000       0.00000000       0.00000000 </v>
   </varray>
  </structure>
  <varray name="forces" >
   <v>      -0.00000000      -0.00000000       0.00000000 </v>
  </varray>
  <varray name="stress" >
   <v>     934.60360179       0.00000000      -0.00000000 </v>
   <v>       0.00000000     934.60360179      -0.00000000 </v>
   <v>       0.00000000       0.00000000     934.60360179 </v>
  </varray>
  <energy>
   <i name="e_fr_energy">     -8.72983575 </i>
   <i name="e_wo_entrp">     -8.72669681 </i>
   <i name="e_0_energy">     -8.72878943 </i>
  </energy>
  <time name="totalsc">   20.05   21.38</time>
  <eigenvalues>
   <array>
    <dimension dim="1">band</dimension>
    <dimension dim="2">kpoint</dimension>
    <dimension dim="3">spin</dimension>
    <field>eigene</field>
    <field>occ</field>
    <set>
     <set comment="spin 1">
      <set comment="kpoint 1">
       <r>   -2.5953    1.0000 </r>
       <r>    3.5501    1.0000 </r>
       <r>    3.5501    1.0000 </r>
       <r>    3.5501    1.0000 </r>
       <r>    4.7581    1.0000 </r>
       <r>    4.7581    1.0000 </r>
       <r>   30.8977    0.0000 </r>
       <r>   30.8977    0.0000 </r>
       <r>   30.8977    0.0000 </r>
       <r>   35.9952    0.0000 </r>
       <r>   35.9952    0.0000 </r>
       <r>   38.3182    0.0000 </r>
      </set>
      <set comment="kpoint 2">
       <r>   -2.5376    1.0000 </r>
       <r>    3.5495    1.0000 </r>
       <r>    3.5495    1.0000 </r>
       <r>    3.5658    1.0000 </r>
       <r>    4.7323    1.0000 </r>
       <r>    4.7683    1.0000 </r>
       <r>   30.4813    0.0000 </r>
       <r>   30.8499    0.0000 </r>
       <r>   30.8499    0.0000 </r>
       <r>   35.3994    0.0000 </r>
       <r>   36.5454    0.0000 </r>
       <r>   37.2200    0.0000 </r>
      </set>
      <set comment="kpoint 3">
       <r>   -2.3657    1.0000 </r>
       <r>    3.5489    1.0000 </r>
       <r>    3.5489    1.0000 </r>
       <r>    3.6130    1.0000 </r>
       <r>    4.6555    1.0000 </r>
       <r>    4.7985    1.0000 </r>
       <r>   29.5570    0.0000 </r>
       <r>   30.6588    0.0000 </r>
       <r>   30.6588    0.0000 </r>
       <r>   34.2080    0.0000 </r>
       <r>   36.2138    0.0000 </r>
       <r>   36.2138    0.0000 </r>
      </set>
      <set comment="kpoint 4">
       <r>   -2.0841    1.0000 </r>
       <r>    3.5512    1.0000 </r>
       <r>    3.5512    1.0000 </r>
       <r>    3.6903    1.0000 </r>
       <r>    4.5295    1.0000 </r>
       <r>    4.8476    1.0000 </r>
       <r>   28.5025    0.0000 </r>
       <r>   30.2104    0.0000 </r>
       <r>   30.2104    0.0000 </r>
       <r>   32.8734    0.0000 </r>
       <r>   35.6141    0.0000 </r>
       <r>   35.6141    0.0000 </r>
      </set>
      <set comment="kpoint 5">
       <r>   -1.7007    1.0000 </r>
       <r>    3.5611    1.0000 </r>
       <r>    3.5611    1.0000 </r>
       <r>    3.7959    1.0000 </r>
       <r>    4.3575    1.0000 </r>
       <r>    4.9144    1.0000 </r>
       <r>   27.4705    0.0000 </r>
       <r>   29.4416    0.0000 </r>
       <r>   29.4416    0.0000 </r>
       <r>   31.5284    0.0000 </r>
       <r>   35.4965    0.0000 </r>
       <r>   35.4965    0.0000 </r>
      </set>
      <set comment="kpoint 6">
       <r>   -1.2282    1.0000 </r>
       <r>    3.5839    1.0000 </r>
       <r>    3.5839    1.0000 </r>
       <r>    3.9274    1.0000 </r>
       <r>    4.1439    1.0000 </r>
       <r>    5.0001    1.0000 </r>
       <r>   26.5150    0.0000 </r>
       <r>   28.4204    0.0000 </r>
       <r>   28.4204    0.0000 </r>
       <r>   30.2338    0.0000 </r>
       <r>   35.7940    0.0000 </r>
       <r>   35.7940    0.0000 </r>
      </set>
      <set comment="kpoint 7">
       <r>   -0.6861    1.0000 </r>
       <r>    3.6257    1.0000 </r>
       <r>    3.6257    1.0000 </r>
       <r>    3.8944    1.0000 </r>
       <r>    4.0814    1.0000 </r>
       <r>    5.1107    1.0000 </r>
       <r>   25.6549    0.0000 </r>
       <r>   27.2589    0.0000 </r>
       <r>   27.2589    0.0000 </r>
       <r>   29.0288    0.0000 </r>
       <r>   36.3905    0.0000 </r>
       <r>   36.3905    0.0000 </r>
      </set>
      <set comment="kpoint 8">
       <r>   -0.1043    1.0000 </r>
       <r>    3.6161    1.0000 </r>
       <r>    3.6922    1.0000 </r>
       <r>    3.6922    1.0000 </r>
       <r>    4.2541    1.0000 </r>
       <r>    5.2619    1.0000 </r>
       <r>   24.8954    0.0000 </r>
       <r>   26.0372    0.0000 </r>
       <r>   26.0372    0.0000 </r>
       <r>   27.9409    0.0000 </r>
       <r>   37.1997    0.0000 </r>
       <r>   37.1997    0.0000 </r>
      </set>
      <set comment="kpoint 9">
       <r>    0.4723    1.0000 </r>
       <r>    3.3171    1.0000 </r>
       <r>    3.7884    1.0000 </r>
       <r>    3.7884    1.0000 </r>
       <r>    4.4411    1.0000 </r>
       <r>    5.4856    1.0005 </r>
       <r>   24.2348    0.0000 </r>
       <r>   24.8015    0.0000 </r>
       <r>   24.8015    0.0000 </r>
       <r>   26.9888    0.0000 </r>
       <r>   38.1688    0.0000 </r>
       <r>   38.1688    0.0000 </r>
      </set>
      <set comment="kpoint 10">
       <r>    0.9831    1.0000 </r>
       <r>    3.0060    1.0000 </r>
       <r>    3.9183    1.0000 </r>
       <r>    3.9183    1.0000 </r>
       <r>    4.6376    1.0000 </r>
       <r>    5.8322    1.0163 </r>
       <r>   23.5794    0.0000 </r>
       <r>   23.5794    0.0000 </r>
       <r>   23.6677    0.0000 </r>
       <r>   26.1820    0.0000 </r>
       <r>   39.2641    0.0000 </r>
       <r>   39.2641    0.0000 </r>
      </set>
      <set comment="kpoint 11">
       <r>    1.3648    1.0000 </r>
       <r>    2.6919    1.0000 </r>
       <r>    4.0834    1.0000 </r>
       <r>    4.0834    1.0000 </r>
       <r>    4.8382    1.0000 </r>
       <r>    6.3585   -0.0185 </r>
       <r>   22.3890    0.0000 </r>
       <r>   22.3890    0.0000 </r>
       <r>   23.1872    0.0000 </r>
       <r>   25.5201    0.0000 </r>
       <r>   40.3189    0.0000 </r>
       <r>   40.4634    0.0000 </r>
      </set>
      <set comment="kpoint 12">
       <r>    1.5824    1.0000 </r>
       <r>    2.3839    1.0000 </r>
       <r>    4.2837    1.0000 </r>
       <r>    4.2837    1.0000 </r>
       <r>    5.0374    1.0000 </r>
       <r>    7.0977   -0.0000 </r>
       <r>   21.2449    0.0000 </r>
       <r>   21.2449    0.0000 </r>
       <r>   22.7849    0.0000 </r>
       <r>   24.9929    0.0000 </r>
       <r>   38.5181    0.0000 </r>
       <r>   40.8132    0.0000 </r>
      </set>
      <set comment="kpoint 13">
       <r>    1.6470    1.0000 </r>
       <r>    2.0906    1.0000 </r>
       <r>    4.5162    1.0000 </r>
       <r>    4.5162    1.0000 </r>
       <r>    5.2298    1.0000 </r>
       <r>    8.0409   -0.0000 </r>
       <r>   20.1606    0.0000 </r>
       <r>   20.1606    0.0000 </r>
       <r>   22.4526    0.0000 </r>
       <r>   24.5796    0.0000 </r>
       <r>   36.2291    0.0000 </r>
       <r>   41.3738    0.0000 </r>
      </set>
      <set comment="kpoint 14">
       <r>    1.5994    1.0000 </r>
       <r>    1.8198    1.0000 </r>
       <r>    4.7746    1.0000 </r>
       <r>    4.7747    1.0000 </r>
       <r>    5.4098    1.0001 </r>
       <r>    9.1513   -0.0000 </r>
       <r>   19.1505    0.0000 </r>
       <r>   19.1505    0.0000 </r>
       <r>   22.1824    0.0000 </r>
       <r>   24.2482    0.0000 </r>
       <r>   34.0226    0.0000 </r>
       <r>   41.9980    0.0000 </r>
      </set>
      <set comment="kpoint 15">
       <r>    1.4854    1.0000 </r>
       <r>    1.5786    1.0000 </r>
       <r>    5.0487    1.0000 </r>
       <r>    5.0487    1.0000 </r>
       <r>    5.5722    1.0035 </r>
       <r>   10.3864   -0.0000 </r>
       <r>   18.2312    0.0000 </r>
       <r>   18.2312    0.0000 </r>
       <r>   21.9669    0.0000 </r>
       <r>   23.9530    0.0000 </r>
       <r>   31.9530    0.0000 </r>
       <r>   42.6769    0.0000 </r>
      </set>
      <set comment="kpoint 16">
       <r>    1.3436    1.0000 </r>
       <r>    1.3730    1.0000 </r>
       <r>    5.3233    1.0000 </r>
       <r>    5.3233    1.0000 </r>
       <r>    5.7122    1.0263 </r>
       <r>   11.7025    0.0000 </r>
       <r>   17.4227    0.0000 </r>
       <r>   17.4227    0.0000 </r>
       <r>   21.7996    0.0000 </r>
       <r>   23.6278    0.0000 </r>
       <r>   30.0923    0.0000 </r>
       <r>   43.3912    0.0000 </r>
      </set>
      <set comment="kpoint 17">
       <r>    1.2043    1.0000 </r>
       <r>    1.2080    1.0000 </r>
       <r>    5.5782    1.0040 </r>
       <r>    5.5782    1.0040 </r>
       <r>    5.8258    1.0208 </r>
       <r>   13.0468    0.0000 </r>
       <r>   16.7491    0.0000 </r>
       <r>   16.7491    0.0000 </r>
       <r>   21.6751    0.0000 </r>
       <r>   23.1828    0.0000 </r>
       <r>   28.5509    0.0000 </r>
       <r>   44.1039    0.0000 </r>
      </set>
      <set comment="kpoint 18">
       <r>    1.0875    1.0000 </r>
       <r>    1.0898    1.0000 </r>
       <r>    5.7885    1.0345 </r>
       <r>    5.7885    1.0345 </r>
       <r>    5.9094    0.8934 </r>
       <r>   14.3314    0.0000 </r>
       <r>   16.2377    0.0000 </r>
       <r>   16.2377    0.0000 </r>
       <r>   21.5893    0.0000 </r>
       <r>   22.5516    0.0000 </r>
       <r>   27.4571    0.0000 </r>
       <r>   44.7489    0.0000 </r>
      </set>
      <set comment="kpoint 19">
       <r>    1.0140    1.0000 </r>
       <r>    1.0152    1.0000 </r>
       <r>    5.9285    0.8406 </r>
       <r>    5.9285    0.8405 </r>
       <r>    5.9606    0.7330 </r>
       <r>   15.3713    0.0000 </r>
       <r>   15.9163    0.0000 </r>
       <r>   15.9163    0.0000 </r>
       <r>   21.5390    0.0000 </r>
       <r>   21.8577    0.0000 </r>
       <r>   26.8544    0.0000 </r>
       <r>   45.2211    0.0000 </r>
      </set>
      <set comment="kpoint 20">
       <r>    0.9894    1.0000 </r>
       <r>    0.9894    1.0000 </r>
       <r>    5.9778    0.6670 </r>
       <r>    5.9779    0.6670 </r>
       <r>    5.9779    0.6670 </r>
       <r>   15.8064    0.0000 </r>
       <r>   15.8064    0.0000 </r>
       <r>   15.8064    0.0000 </r>
       <r>   21.5224    0.0000 </r>
       <r>   21.5224    0.0000 </r>
       <r>   26.6702    0.0000 </r>
       <r>   45.3986    0.0000 </r>
      </set>
      <set comment="kpoint 21">
       <r>    0.9894    1.0000 </r>
       <r>    0.9894    1.0000 </r>
       <r>    5.9778    0.6670 </r>
       <r>    5.9779    0.6670 </r>
       <r>    5.9779    0.6670 </r>
       <r>   15.8064    0.0000 </r>
       <r>   15.8064    0.0000 </r>
       <r>   15.8064    0.0000 </r>
       <r>   21.5224    0.0000 </r>
       <r>   21.5224    0.0000 </r>
       <r>   26.6702    0.0000 </r>
       <r>   45.3986    0.0000 </r>
      </set>
      <set comment="kpoint 22">
       <r>    1.0018    1.0000 </r>
       <r>    1.0022    1.0000 </r>
       <r>    5.9426    0.7961 </r>
       <r>    5.9529    0.7607 </r>
       <r>    5.9797    0.6598 </r>
       <r>   15.6930    0.0000 </r>
       <r>   15.7446    0.0000 </r>
       <r>   15.8614    0.0000 </r>
       <r>   21.5739    0.0000 </r>
       <r>   21.6621    0.0000 </r>
       <r>   26.7598    0.0000 </r>
       <r>   45.3058    0.0000 </r>
      </set>
      <set comment="kpoint 23">
       <r>    1.0386    1.0000 </r>
       <r>    1.0409    1.0000 </r>
       <r>    5.8397    1.0101 </r>
       <r>    5.8792    0.9582 </r>
       <r>    5.9851    0.6380 </r>
       <r>   15.3805    0.0000 </r>
       <r>   15.5738    0.0000 </r>
       <r>   16.0240    0.0000 </r>
       <r>   21.7127    0.0000 </r>
       <r>   22.0533    0.0000 </r>
       <r>   27.0288    0.0000 </r>
       <r>   45.0161    0.0000 </r>
      </set>
      <set comment="kpoint 24">
       <r>    1.0979    1.0000 </r>
       <r>    1.1052    1.0000 </r>
       <r>    5.6768    1.0182 </r>
       <r>    5.7599    1.0348 </r>
       <r>    5.9940    0.6017 </r>
       <r>   14.9279    0.0000 </r>
       <r>   15.3282    0.0000 </r>
       <r>   16.2867    0.0000 </r>
       <r>   21.9028    0.0000 </r>
       <r>   22.6377    0.0000 </r>
       <r>   27.4758    0.0000 </r>
       <r>   44.5100    0.0000 </r>
      </set>
      <set comment="kpoint 25">
       <r>    1.1762    1.0000 </r>
       <r>    1.1953    1.0000 </r>
       <r>    5.4649    1.0003 </r>
       <r>    5.6009    1.0060 </r>
       <r>    6.0061    0.5511 </r>
       <r>   14.3894    0.0000 </r>
       <r>   15.0456    0.0000 </r>
       <r>   16.6390    0.0000 </r>
       <r>   22.1089    0.0000 </r>
       <r>   23.3619    0.0000 </r>
       <r>   28.0927    0.0000 </r>
       <r>   43.7904    0.0000 </r>
      </set>
      <set comment="kpoint 26">
       <r>    1.2686    1.0000 </r>
       <r>    1.3109    1.0000 </r>
       <r>    5.2163    1.0000 </r>
       <r>    5.4107    1.0001 </r>
       <r>    6.0212    0.4876 </r>
       <r>   13.8024    0.0000 </r>
       <r>   14.7569    0.0000 </r>
       <r>   17.0694    0.0000 </r>
       <r>   22.3086    0.0000 </r>
       <r>   24.1896    0.0000 </r>
       <r>   28.8625    0.0000 </r>
       <r>   42.8956    0.0000 </r>
      </set>
      <set comment="kpoint 27">
       <r>    1.3681    1.0000 </r>
       <r>    1.4522    1.0000 </r>
       <r>    4.9430    1.0000 </r>
       <r>    5.2012    1.0000 </r>
       <r>    6.0386    0.4141 </r>
       <r>   13.1898    0.0000 </r>
       <r>   14.4826    0.0000 </r>
       <r>   17.5667    0.0000 </r>
       <r>   22.4937    0.0000 </r>
       <r>   25.0990    0.0000 </r>
       <r>   29.7608    0.0000 </r>
       <r>   41.8807    0.0000 </r>
      </set>
      <set comment="kpoint 28">
       <r>    1.4652    1.0000 </r>
       <r>    1.6190    1.0000 </r>
       <r>    4.6560    1.0000 </r>
       <r>    4.9872    1.0000 </r>
       <r>    6.0582    0.3344 </r>
       <r>   12.5659    0.0000 </r>
       <r>   14.2348    0.0000 </r>
       <r>   18.1208    0.0000 </r>
       <r>   22.6643    0.0000 </r>
       <r>   26.0774    0.0000 </r>
       <r>   30.7588    0.0000 </r>
       <r>   40.7948    0.0000 </r>
      </set>
      <set comment="kpoint 29">
       <r>    1.5479    1.0000 </r>
       <r>    1.8110    1.0000 </r>
       <r>    4.3649    1.0000 </r>
       <r>    4.7864    1.0000 </r>
       <r>    6.0793    0.2546 </r>
       <r>   11.9396    0.0000 </r>
       <r>   14.0191    0.0000 </r>
       <r>   18.7233    0.0000 </r>
       <r>   22.8246    0.0000 </r>
       <r>   27.1177    0.0000 </r>
       <r>   31.8234    0.0000 </r>
       <r>   39.6733    0.0000 </r>
      </set>
      <set comment="kpoint 30">
       <r>    1.6029    1.0000 </r>
       <r>    2.0280    1.0000 </r>
       <r>    4.0778    1.0000 </r>
       <r>    4.6179    1.0000 </r>
       <r>    6.1013    0.1798 </r>
       <r>   11.3165   -0.0000 </r>
       <r>   13.8367    0.0000 </r>
       <r>   19.3671    0.0000 </r>
       <r>   22.9793    0.0000 </r>
       <r>   28.2154    0.0000 </r>
       <r>   32.9128    0.0000 </r>
       <r>   38.5396    0.0000 </r>
      </set>
      <set comment="kpoint 31">
       <r>    1.6176    1.0000 </r>
       <r>    2.2697    1.0000 </r>
       <r>    3.8015    1.0000 </r>
       <r>    4.4986    1.0000 </r>
       <r>    6.1237    0.1151 </r>
       <r>   10.7009   -0.0000 </r>
       <r>   13.6860    0.0000 </r>
       <r>   20.0464    0.0000 </r>
       <r>   23.1324    0.0000 </r>
       <r>   29.3680    0.0000 </r>
       <r>   33.9604    0.0000 </r>
       <r>   37.4087    0.0000 </r>
      </set>
      <set comment="kpoint 32">
       <r>    1.5858    1.0000 </r>
       <r>    2.5353    1.0000 </r>
       <r>    3.5416    1.0000 </r>
       <r>    4.4381    1.0000 </r>
       <r>    6.1459    0.0635 </r>
       <r>   10.0958   -0.0000 </r>
       <r>   13.5642    0.0000 </r>
       <r>   20.7561    0.0000 </r>
       <r>   23.2865    0.0000 </r>
       <r>   30.5735    0.0000 </r>
       <r>   34.8390    0.0000 </r>
       <r>   36.2907    0.0000 </r>
      </set>
      <set comment="kpoint 33">
       <r>    1.5111    1.0000 </r>
       <r>    2.8242    1.0000 </r>
       <r>    3.3027    1.0000 </r>
       <r>    4.4349    1.0000 </r>
       <r>    6.1672    0.0254 </r>
       <r>    9.5041   -0.0000 </r>
       <r>   13.4678    0.0000 </r>
       <r>   21.4916    0.0000 </r>
       <r>   23.4427    0.0000 </r>
       <r>   31.8302    0.0000 </r>
       <r>   35.1930    0.0000 </r>
       <r>   35.3277    0.0000 </r>
      </set>
      <set comment="kpoint 34">
       <r>    1.4060    1.0000 </r>
       <r>    3.0887    1.0000 </r>
       <r>    3.1351    1.0000 </r>
       <r>    4.4772    1.0000 </r>
       <r>    6.1871   -0.0005 </r>
       <r>    8.9283   -0.0000 </r>
       <r>   13.3930    0.0000 </r>
       <r>   22.2484    0.0000 </r>
       <r>   23.6003    0.0000 </r>
       <r>   33.1355    0.0000 </r>
       <r>   34.1215    0.0000 </r>
       <r>   35.2847    0.0000 </r>
      </set>
      <set comment="kpoint 35">
       <r>    1.2868    1.0000 </r>
       <r>    2.9027    1.0000 </r>
       <r>    3.4659    1.0000 </r>
       <r>    4.5480    1.0000 </r>
       <r>    6.2049   -0.0168 </r>
       <r>    8.3717   -0.0000 </r>
       <r>   13.3364    0.0000 </r>
       <r>   23.0205    0.0000 </r>
       <r>   23.7562    0.0000 </r>
       <r>   33.0829    0.0000 </r>
       <r>   34.4851    0.0000 </r>
       <r>   34.8849    0.0000 </r>
      </set>
      <set comment="kpoint 36">
       <r>    1.1693    1.0000 </r>
       <r>    2.7472    1.0000 </r>
       <r>    3.8130    1.0000 </r>
       <r>    4.6301    1.0000 </r>
       <r>    6.2202   -0.0261 </r>
       <r>    7.8387   -0.0000 </r>
       <r>   13.2949    0.0000 </r>
       <r>   23.7990    0.0000 </r>
       <r>   23.9046    0.0000 </r>
       <r>   32.0862    0.0000 </r>
       <r>   34.3743    0.0000 </r>
       <r>   35.8706    0.0000 </r>
      </set>
      <set comment="kpoint 37">
       <r>    1.0661    1.0000 </r>
       <r>    2.6243    1.0000 </r>
       <r>    4.1694    1.0000 </r>
       <r>    4.7088    1.0000 </r>
       <r>    6.2326   -0.0311 </r>
       <r>    7.3371   -0.0000 </r>
       <r>   13.2656    0.0000 </r>
       <r>   24.0373    0.0000 </r>
       <r>   24.5674    0.0000 </r>
       <r>   31.1482    0.0000 </r>
       <r>   33.8926    0.0000 </r>
       <r>   37.2735    0.0000 </r>
      </set>
      <set comment="kpoint 38">
       <r>    0.9864    1.0000 </r>
       <r>    2.5356    1.0000 </r>
       <r>    4.5185    1.0000 </r>
       <r>    4.7730    1.0000 </r>
       <r>    6.2418   -0.0334 </r>
       <r>    6.8839   -0.0000 </r>
       <r>   13.2463    0.0000 </r>
       <r>   24.1439    0.0000 </r>
       <r>   25.2885    0.0000 </r>
       <r>   30.3061    0.0000 </r>
       <r>   33.5101    0.0000 </r>
       <r>   38.6468    0.0000 </r>
      </set>
      <set comment="kpoint 39">
       <r>    0.9363    1.0000 </r>
       <r>    2.4818    1.0000 </r>
       <r>    4.8146    1.0000 </r>
       <r>    4.8157    1.0000 </r>
       <r>    6.2473   -0.0344 </r>
       <r>    6.5241   -0.0010 </r>
       <r>   13.2355    0.0000 </r>
       <r>   24.2134    0.0000 </r>
       <r>   25.8706    0.0000 </r>
       <r>   29.6513    0.0000 </r>
       <r>   33.2662    0.0000 </r>
       <r>   39.8440    0.0000 </r>
      </set>
      <set comment="kpoint 40">
       <r>    0.9193    1.0000 </r>
       <r>    2.4638    1.0000 </r>
       <r>    4.8290    1.0000 </r>
       <r>    4.9480    1.0000 </r>
       <r>    6.2492   -0.0346 </r>
       <r>    6.3709   -0.0159 </r>
       <r>   13.2320    0.0000 </r>
       <r>   24.2377    0.0000 </r>
       <r>   26.1160    0.0000 </r>
       <r>   29.3818    0.0000 </r>
       <r>   33.1825    0.0000 </r>
       <r>   40.4047    0.0000 </r>
      </set>
      <set comment="kpoint 41">
       <r>    0.9193    1.0000 </r>
       <r>    2.4638    1.0000 </r>
       <r>    4.8290    1.0000 </r>
       <r>    4.9480    1.0000 </r>
       <r>    6.2492   -0.0346 </r>
       <r>    6.3709   -0.0159 </r>
       <r>   13.2320    0.0000 </r>
       <r>   24.2377    0.0000 </r>
       <r>   26.1160    0.0000 </r>
       <r>   29.3818    0.0000 </r>
       <r>   33.1825    0.0000 </r>
       <r>   40.4047    0.0000 </r>
      </set>
      <set comment="kpoint 42">
       <r>    0.9195    1.0000 </r>
       <r>    2.4707    1.0000 </r>
       <r>    4.8214    1.0000 </r>
       <r>    4.9460    1.0000 </r>
       <r>    6.2269   -0.0291 </r>
       <r>    6.2532   -0.0350 </r>
       <r>   13.4033    0.0000 </r>
       <r>   24.2724    0.0000 </r>
       <r>   26.1661    0.0000 </r>
       <r>   29.3872    0.0000 </r>
       <r>   33.1783    0.0000 </r>
       <r>   40.4135    0.0000 </r>
      </set>
      <set comment="kpoint 43">
       <r>    0.9180    1.0000 </r>
       <r>    2.4913    1.0000 </r>
       <r>    4.7970    1.0000 </r>
       <r>    4.9402    1.0000 </r>
       <r>    5.9382    0.8105 </r>
       <r>    6.1610    0.0353 </r>
       <r>   13.8830    0.0000 </r>
       <r>   24.3762    0.0000 </r>
       <r>   26.3152    0.0000 </r>
       <r>   29.4037    0.0000 </r>
       <r>   33.1671    0.0000 </r>
       <r>   40.4378    0.0000 </r>
      </set>
      <set comment="kpoint 44">
       <r>    0.9083    1.0000 </r>
       <r>    2.5250    1.0000 </r>
       <r>    4.7471    1.0000 </r>
       <r>    4.9305    1.0000 </r>
       <r>    5.5144    1.0011 </r>
       <r>    6.0546    0.3489 </r>
       <r>   14.5970    0.0000 </r>
       <r>   24.5480    0.0000 </r>
       <r>   26.5604    0.0000 </r>
       <r>   29.4313    0.0000 </r>
       <r>   33.1523    0.0000 </r>
       <r>   40.4712    0.0000 </r>
      </set>
      <set comment="kpoint 45">
       <r>    0.8785    1.0000 </r>
       <r>    2.5712    1.0000 </r>
       <r>    4.6298    1.0000 </r>
       <r>    4.9180    1.0000 </r>
       <r>    5.1042    1.0000 </r>
       <r>    5.9124    0.8858 </r>
       <r>   15.4758    0.0000 </r>
       <r>   24.7860    0.0000 </r>
       <r>   26.8967    0.0000 </r>
       <r>   29.4701    0.0000 </r>
       <r>   33.1393    0.0000 </r>
       <r>   40.5037    0.0000 </r>
      </set>
      <set comment="kpoint 46">
       <r>    0.8107    1.0000 </r>
       <r>    2.6290    1.0000 </r>
       <r>    4.3462    1.0000 </r>
       <r>    4.8724    1.0000 </r>
       <r>    4.9031    1.0000 </r>
       <r>    5.7404    1.0322 </r>
       <r>   16.4699    0.0000 </r>
       <r>   25.0877    0.0000 </r>
       <r>   27.3179    0.0000 </r>
       <r>   29.5205    0.0000 </r>
       <r>   33.1347    0.0000 </r>
       <r>   40.5228    0.0000 </r>
      </set>
      <set comment="kpoint 47">
       <r>    0.6834    1.0000 </r>
       <r>    2.6967    1.0000 </r>
       <r>    3.9923    1.0000 </r>
       <r>    4.7753    1.0000 </r>
       <r>    4.8866    1.0000 </r>
       <r>    5.5451    1.0021 </r>
       <r>   17.5463    0.0000 </r>
       <r>   25.4498    0.0000 </r>
       <r>   27.8171    0.0000 </r>
       <r>   29.5826    0.0000 </r>
       <r>   33.1457    0.0000 </r>
       <r>   39.4603    0.0000 </r>
      </set>
      <set comment="kpoint 48">
       <r>    0.4789    1.0000 </r>
       <r>    2.7728    1.0000 </r>
       <r>    3.7051    1.0000 </r>
       <r>    4.7121    1.0000 </r>
       <r>    4.8693    1.0000 </r>
       <r>    5.3338    1.0000 </r>
       <r>   18.6834    0.0000 </r>
       <r>   25.8682    0.0000 </r>
       <r>   28.3870    0.0000 </r>
       <r>   29.6567    0.0000 </r>
       <r>   33.1802    0.0000 </r>
       <r>   38.6406    0.0000 </r>
      </set>
      <set comment="kpoint 49">
       <r>    0.1960    1.0000 </r>
       <r>    2.8556    1.0000 </r>
       <r>    3.5198    1.0000 </r>
       <r>    4.6607    1.0000 </r>
       <r>    4.8520    1.0000 </r>
       <r>    5.1132    1.0000 </r>
       <r>   19.8651    0.0000 </r>
       <r>   26.3379    0.0000 </r>
       <r>   29.0203    0.0000 </r>
       <r>   29.7429    0.0000 </r>
       <r>   33.2459    0.0000 </r>
       <r>   37.8803    0.0000 </r>
      </set>
      <set comment="kpoint 50">
       <r>   -0.1470    1.0000 </r>
       <r>    2.9429    1.0000 </r>
       <r>    3.4280    1.0000 </r>
       <r>    4.6182    1.0000 </r>
       <r>    4.8353    1.0000 </r>
       <r>    4.8901    1.0000 </r>
       <r>   21.0789    0.0000 </r>
       <r>   26.8525    0.0000 </r>
       <r>   29.7098    0.0000 </r>
       <r>   29.8410    0.0000 </r>
       <r>   33.3507    0.0000 </r>
       <r>   37.1851    0.0000 </r>
      </set>
      <set comment="kpoint 51">
       <r>   -0.5215    1.0000 </r>
       <r>    3.0324    1.0000 </r>
       <r>    3.4035    1.0000 </r>
       <r>    4.5864    1.0000 </r>
       <r>    4.6704    1.0000 </r>
       <r>    4.8198    1.0000 </r>
       <r>   22.3134    0.0000 </r>
       <r>   27.4038    0.0000 </r>
       <r>   29.9508    0.0000 </r>
       <r>   30.4489    0.0000 </r>
       <r>   33.5023    0.0000 </r>
       <r>   36.5627    0.0000 </r>
      </set>
      <set comment="kpoint 52">
       <r>   -0.9008    1.0000 </r>
       <r>    3.1218    1.0000 </r>
       <r>    3.4189    1.0000 </r>
       <r>    4.4598    1.0000 </r>
       <r>    4.5682    1.0000 </r>
       <r>    4.8060    1.0000 </r>
       <r>   23.5567    0.0000 </r>
       <r>   27.9808    0.0000 </r>
       <r>   30.0710    0.0000 </r>
       <r>   31.2316    0.0000 </r>
       <r>   33.7092    0.0000 </r>
       <r>   36.0233    0.0000 </r>
      </set>
      <set comment="kpoint 53">
       <r>   -1.2646    1.0000 </r>
       <r>    3.2085    1.0000 </r>
       <r>    3.4516    1.0000 </r>
       <r>    4.2628    1.0000 </r>
       <r>    4.5662    1.0000 </r>
       <r>    4.7938    1.0000 </r>
       <r>   24.7955    0.0000 </r>
       <r>   28.5685    0.0000 </r>
       <r>   30.2001    0.0000 </r>
       <r>   32.0522    0.0000 </r>
       <r>   33.9795    0.0000 </r>
       <r>   35.5800    0.0000 </r>
      </set>
      <set comment="kpoint 54">
       <r>   -1.5985    1.0000 </r>
       <r>    3.2899    1.0000 </r>
       <r>    3.4861    1.0000 </r>
       <r>    4.0839    1.0000 </r>
       <r>    4.5813    1.0000 </r>
       <r>    4.7835    1.0000 </r>
       <r>   26.0135    0.0000 </r>
       <r>   29.1454    0.0000 </r>
       <r>   30.3349    0.0000 </r>
       <r>   32.9059    0.0000 </r>
       <r>   34.3224    0.0000 </r>
       <r>   35.2508    0.0000 </r>
      </set>
      <set comment="kpoint 55">
       <r>   -1.8927    1.0000 </r>
       <r>    3.3639    1.0000 </r>
       <r>    3.5142    1.0000 </r>
       <r>    3.9268    1.0000 </r>
       <r>    4.6111    1.0000 </r>
       <r>    4.7752    1.0000 </r>
       <r>   27.1898    0.0000 </r>
       <r>   29.6822    0.0000 </r>
       <r>   30.4710    0.0000 </r>
       <r>   33.7880    0.0000 </r>
       <r>   34.7466    0.0000 </r>
       <r>   35.0593    0.0000 </r>
      </set>
      <set comment="kpoint 56">
       <r>   -2.1406    1.0000 </r>
       <r>    3.4279    1.0000 </r>
       <r>    3.5328    1.0000 </r>
       <r>    3.7942    1.0000 </r>
       <r>    4.6501    1.0000 </r>
       <r>    4.7687    1.0000 </r>
       <r>   28.2957    0.0000 </r>
       <r>   30.1436    0.0000 </r>
       <r>   30.6020    0.0000 </r>
       <r>   34.6947    0.0000 </r>
       <r>   35.0312    0.0000 </r>
       <r>   35.2589    0.0000 </r>
      </set>
      <set comment="kpoint 57">
       <r>   -2.3375    1.0000 </r>
       <r>    3.4800    1.0000 </r>
       <r>    3.5432    1.0000 </r>
       <r>    3.6887    1.0000 </r>
       <r>    4.6910    1.0000 </r>
       <r>    4.7639    1.0000 </r>
       <r>   29.2914    0.0000 </r>
       <r>   30.4975    0.0000 </r>
       <r>   30.7197    0.0000 </r>
       <r>   35.1799    0.0000 </r>
       <r>   35.6223    0.0000 </r>
       <r>   35.8496    0.0000 </r>
      </set>
      <set comment="kpoint 58">
       <r>   -2.4801    1.0000 </r>
       <r>    3.5185    1.0000 </r>
       <r>    3.5480    1.0000 </r>
       <r>    3.6121    1.0000 </r>
       <r>    4.7262    1.0000 </r>
       <r>    4.7606    1.0000 </r>
       <r>   30.1181    0.0000 </r>
       <r>   30.7318    0.0000 </r>
       <r>   30.8143    0.0000 </r>
       <r>   35.4787    0.0000 </r>
       <r>   36.3036    0.0000 </r>
       <r>   36.5670    0.0000 </r>
      </set>
      <set comment="kpoint 59">
       <r>   -2.5665    1.0000 </r>
       <r>    3.5421    1.0000 </r>
       <r>    3.5496    1.0000 </r>
       <r>    3.5656    1.0000 </r>
       <r>    4.7498    1.0000 </r>
       <r>    4.7587    1.0000 </r>
       <r>   30.6889    0.0000 </r>
       <r>   30.8585    0.0000 </r>
       <r>   30.8761    0.0000 </r>
       <r>   35.8239    0.0000 </r>
       <r>   36.1196    0.0000 </r>
       <r>   37.5257    0.0000 </r>
      </set>
      <set comment="kpoint 60">
       <r>   -2.5953    1.0000 </r>
       <r>    3.5501    1.0000 </r>
       <r>    3.5501    1.0000 </r>
       <r>    3.5501    1.0000 </r>
       <r>    4.7581    1.0000 </r>
       <r>    4.7581    1.0000 </r>
       <r>   30.8977    0.0000 </r>
       <r>   30.8977    0.0000 </r>
       <r>   30.8977    0.0000 </r>
       <r>   35.9952    0.0000 </r>
       <r>   35.9952    0.0000 </r>
       <r>   38.3182    0.0000 </r>
      </set>
      <set comment="kpoint 61">
       <r>   -2.5953    1.0000 </r>
       <r>    3.5501    1.0000 </r>
       <r>    3.5501    1.0000 </r>
       <r>    3.5501    1.0000 </r>
       <r>    4.7581    1.0000 </r>
       <r>    4.7581    1.0000 </r>
       <r>   30.8977    0.0000 </r>
       <r>   30.8977    0.0000 </r>
       <r>   30.8977    0.0000 </r>
       <r>   35.9952    0.0000 </r>
       <r>   35.9952    0.0000 </r>
       <r>   38.3182    0.0000 </r>
      </set>
      <set comment="kpoint 62">
       <r>   -2.5520    1.0000 </r>
       <r>    3.5418    1.0000 </r>
       <r>    3.5418    1.0000 </r>
       <r>    3.5773    1.0000 </r>
       <r>    4.7524    1.0000 </r>
       <r>    4.7524    1.0000 </r>
       <r>   30.6762    0.0000 </r>
       <r>   30.6762    0.0000 </r>
       <r>   30.9365    0.0000 </r>
       <r>   35.9632    0.0000 </r>
       <r>   35.9632    0.0000 </r>
       <r>   37.0740    0.0000 </r>
      </set>
      <set comment="kpoint 63">
       <r>   -2.4228    1.0000 </r>
       <r>    3.5163    1.0000 </r>
       <r>    3.5163    1.0000 </r>
       <r>    3.6587    1.0000 </r>
       <r>    4.7372    1.0000 </r>
       <r>    4.7372    1.0000 </r>
       <r>   30.0578    0.0000 </r>
       <r>   30.0578    0.0000 </r>
       <r>   31.0531    0.0000 </r>
       <r>   35.5753    0.0000 </r>
       <r>   35.9709    0.0000 </r>
       <r>   35.9709    0.0000 </r>
      </set>
      <set comment="kpoint 64">
       <r>   -2.2105    1.0000 </r>
       <r>    3.4714    1.0000 </r>
       <r>    3.4714    1.0000 </r>
       <r>    3.7937    1.0000 </r>
       <r>    4.7176    1.0000 </r>
       <r>    4.7177    1.0000 </r>
       <r>   29.1587    0.0000 </r>
       <r>   29.1587    0.0000 </r>
       <r>   31.2474    0.0000 </r>
       <r>   34.0268    0.0000 </r>
       <r>   36.1434    0.0000 </r>
       <r>   36.1434    0.0000 </r>
      </set>
      <set comment="kpoint 65">
       <r>   -1.9193    1.0000 </r>
       <r>    3.4051    1.0000 </r>
       <r>    3.4051    1.0000 </r>
       <r>    3.9812    1.0000 </r>
       <r>    4.7002    1.0000 </r>
       <r>    4.7002    1.0000 </r>
       <r>   28.1023    0.0000 </r>
       <r>   28.1023    0.0000 </r>
       <r>   31.5193    0.0000 </r>
       <r>   32.4564    0.0000 </r>
       <r>   36.4986    0.0000 </r>
       <r>   36.4986    0.0000 </r>
      </set>
      <set comment="kpoint 66">
       <r>   -1.5557    1.0000 </r>
       <r>    3.3171    1.0000 </r>
       <r>    3.3171    1.0000 </r>
       <r>    4.2200    1.0000 </r>
       <r>    4.6906    1.0000 </r>
       <r>    4.6906    1.0000 </r>
       <r>   26.9757    0.0000 </r>
       <r>   26.9757    0.0000 </r>
       <r>   30.8855    0.0000 </r>
       <r>   31.8690    0.0000 </r>
       <r>   37.0012    0.0000 </r>
       <r>   37.0012    0.0000 </r>
      </set>
      <set comment="kpoint 67">
       <r>   -1.1283    1.0000 </r>
       <r>    3.2102    1.0000 </r>
       <r>    3.2102    1.0000 </r>
       <r>    4.5091    1.0000 </r>
       <r>    4.6924    1.0000 </r>
       <r>    4.6924    1.0000 </r>
       <r>   25.8306    0.0000 </r>
       <r>   25.8306    0.0000 </r>
       <r>   29.3325    0.0000 </r>
       <r>   32.2963    0.0000 </r>
       <r>   37.5796    0.0000 </r>
       <r>   37.5798    0.0000 </r>
      </set>
      <set comment="kpoint 68">
       <r>   -0.6482    1.0000 </r>
       <r>    3.0898    1.0000 </r>
       <r>    3.0898    1.0000 </r>
       <r>    4.7059    1.0000 </r>
       <r>    4.7059    1.0000 </r>
       <r>    4.8485    1.0000 </r>
       <r>   24.6961    0.0000 </r>
       <r>   24.6961    0.0000 </r>
       <r>   27.8134    0.0000 </r>
       <r>   32.8013    0.0000 </r>
       <r>   38.0810    0.0000 </r>
       <r>   38.0810    0.0000 </r>
      </set>
      <set comment="kpoint 69">
       <r>   -0.1298    1.0000 </r>
       <r>    2.9636    1.0000 </r>
       <r>    2.9636    1.0000 </r>
       <r>    4.7297    1.0000 </r>
       <r>    4.7297    1.0000 </r>
       <r>    5.2394    1.0000 </r>
       <r>   23.5889    0.0000 </r>
       <r>   23.5889    0.0000 </r>
       <r>   26.3428    0.0000 </r>
       <r>   33.3839    0.0000 </r>
       <r>   38.4591    0.0000 </r>
       <r>   38.4591    0.0000 </r>
      </set>
      <set comment="kpoint 70">
       <r>    0.4088    1.0000 </r>
       <r>    2.8394    1.0000 </r>
       <r>    2.8394    1.0000 </r>
       <r>    4.7608    1.0000 </r>
       <r>    4.7608    1.0000 </r>
       <r>    5.6856    1.0202 </r>
       <r>   22.5188    0.0000 </r>
       <r>   22.5188    0.0000 </r>
       <r>   24.9346    0.0000 </r>
       <r>   34.0441    0.0000 </r>
       <r>   38.8231    0.0000 </r>
       <r>   38.8231    0.0000 </r>
      </set>
      <set comment="kpoint 71">
       <r>    0.9455    1.0000 </r>
       <r>    2.7243    1.0000 </r>
       <r>    2.7243    1.0000 </r>
       <r>    4.7962    1.0000 </r>
       <r>    4.7962    1.0000 </r>
       <r>    6.1937   -0.0073 </r>
       <r>   21.4914    0.0000 </r>
       <r>   21.4914    0.0000 </r>
       <r>   23.6020    0.0000 </r>
       <r>   34.7819    0.0000 </r>
       <r>   39.2204    0.0000 </r>
       <r>   39.2204    0.0000 </r>
      </set>
      <set comment="kpoint 72">
       <r>    1.4545    1.0000 </r>
       <r>    2.6244    1.0000 </r>
       <r>    2.6244    1.0000 </r>
       <r>    4.8327    1.0000 </r>
       <r>    4.8327    1.0000 </r>
       <r>    6.7739   -0.0000 </r>
       <r>   20.5103    0.0000 </r>
       <r>   20.5103    0.0000 </r>
       <r>   22.3575    0.0000 </r>
       <r>   35.5972    0.0000 </r>
       <r>   39.6664    0.0000 </r>
       <r>   39.6664    0.0000 </r>
      </set>
      <set comment="kpoint 73">
       <r>    1.9090    1.0000 </r>
       <r>    2.5445    1.0000 </r>
       <r>    2.5445    1.0000 </r>
       <r>    4.8682    1.0000 </r>
       <r>    4.8682    1.0000 </r>
       <r>    7.4377   -0.0000 </r>
       <r>   19.5775    0.0000 </r>
       <r>   19.5775    0.0000 </r>
       <r>   21.2130    0.0000 </r>
       <r>   36.4899    0.0000 </r>
       <r>   40.1681    0.0000 </r>
       <r>   40.1681    0.0000 </r>
      </set>
      <set comment="kpoint 74">
       <r>    2.2846    1.0000 </r>
       <r>    2.4875    1.0000 </r>
       <r>    2.4875    1.0000 </r>
       <r>    4.9005    1.0000 </r>
       <r>    4.9005    1.0000 </r>
       <r>    8.1956   -0.0000 </r>
       <r>   18.6945    0.0000 </r>
       <r>   18.6945    0.0000 </r>
       <r>   20.1794    0.0000 </r>
       <r>   37.4601    0.0000 </r>
       <r>   40.7296    0.0000 </r>
       <r>   40.7296    0.0000 </r>
      </set>
      <set comment="kpoint 75">
       <r>    2.4553    1.0000 </r>
       <r>    2.4553    1.0000 </r>
       <r>    2.5645    1.0000 </r>
       <r>    4.9281    1.0000 </r>
       <r>    4.9281    1.0000 </r>
       <r>    9.0532   -0.0000 </r>
       <r>   17.8621    0.0000 </r>
       <r>   17.8621    0.0000 </r>
       <r>   19.2652    0.0000 </r>
       <r>   38.5077    0.0000 </r>
       <r>   41.3532    0.0000 </r>
       <r>   41.3532    0.0000 </r>
      </set>
      <set comment="kpoint 76">
       <r>    2.4479    1.0000 </r>
       <r>    2.4479    1.0000 </r>
       <r>    2.7421    1.0000 </r>
       <r>    4.9502    1.0000 </r>
       <r>    4.9502    1.0000 </r>
       <r>   10.0101   -0.0000 </r>
       <r>   17.0813    0.0000 </r>
       <r>   17.0813    0.0000 </r>
       <r>   18.4765    0.0000 </r>
       <r>   39.6325    0.0000 </r>
       <r>   42.0392    0.0000 </r>
       <r>   42.0392    0.0000 </r>
      </set>
      <set comment="kpoint 77">
       <r>    2.4640    1.0000 </r>
       <r>    2.4640    1.0000 </r>
       <r>    2.8211    1.0000 </r>
       <r>    4.9663    1.0000 </r>
       <r>    4.9663    1.0000 </r>
       <r>   11.0589   -0.0000 </r>
       <r>   16.3533    0.0000 </r>
       <r>   16.3533    0.0000 </r>
       <r>   17.8169    0.0000 </r>
       <r>   40.8345    0.0000 </r>
       <r>   42.7848    0.0000 </r>
       <r>   42.7848    0.0000 </r>
      </set>
      <set comment="kpoint 78">
       <r>    2.5009    1.0000 </r>
       <r>    2.5009    1.0000 </r>
       <r>    2.8138    1.0000 </r>
       <r>    4.9769    1.0000 </r>
       <r>    4.9769    1.0000 </r>
       <r>   12.1862    0.0000 </r>
       <r>   15.6797    0.0000 </r>
       <r>   15.6797    0.0000 </r>
       <r>   17.2891    0.0000 </r>
       <r>   42.1135    0.0000 </r>
       <r>   43.5819    0.0000 </r>
       <r>   43.5819    0.0000 </r>
      </set>
      <set comment="kpoint 79">
       <r>    2.5544    1.0000 </r>
       <r>    2.5544    1.0000 </r>
       <r>    2.7389    1.0000 </r>
       <r>    4.9823    1.0000 </r>
       <r>    4.9823    1.0000 </r>
       <r>   13.3637    0.0000 </r>
       <r>   15.0628    0.0000 </r>
       <r>   15.0628    0.0000 </r>
       <r>   16.9055    0.0000 </r>
       <r>   43.4694    0.0000 </r>
       <r>   44.4067    0.0000 </r>
       <r>   44.4121    0.0000 </r>
      </set>
      <set comment="kpoint 80">
       <r>    2.6187    1.0000 </r>
       <r>    2.6187    1.0000 </r>
       <r>    2.6187    1.0000 </r>
       <r>    4.9838    1.0000 </r>
       <r>    4.9838    1.0000 </r>
       <r>   14.5058    0.0000 </r>
       <r>   14.5058    0.0000 </r>
       <r>   14.5058    0.0000 </r>
       <r>   16.7332    0.0000 </r>
       <r>   44.9020    0.0000 </r>
       <r>   44.9027    0.0000 </r>
       <r>   45.5471    0.0000 </r>
      </set>
      <set comment="kpoint 81">
       <r>    2.6187    1.0000 </r>
       <r>    2.6187    1.0000 </r>
       <r>    2.6187    1.0000 </r>
       <r>    4.9838    1.0000 </r>
       <r>    4.9838    1.0000 </r>
       <r>   14.5058    0.0000 </r>
       <r>   14.5058    0.0000 </r>
       <r>   14.5058    0.0000 </r>
       <r>   16.7332    0.0000 </r>
       <r>   44.9022    0.0000 </r>
       <r>   44.9046    0.0000 </r>
       <r>   44.9086    0.0000 </r>
      </set>
      <set comment="kpoint 82">
       <r>    2.4769    1.0000 </r>
       <r>    2.6867    1.0000 </r>
       <r>    2.6867    1.0000 </r>
       <r>    4.9830    1.0000 </r>
       <r>    4.9830    1.0000 </r>
       <r>   14.0129    0.0000 </r>
       <r>   14.0129    0.0000 </r>
       <r>   15.2959    0.0000 </r>
       <r>   17.0697    0.0000 </r>
       <r>   43.3886    0.0000 </r>
       <r>   43.3887    0.0000 </r>
       <r>   45.6587    0.0000 </r>
      </set>
      <set comment="kpoint 83">
       <r>    2.3360    1.0000 </r>
       <r>    2.7499    1.0000 </r>
       <r>    2.7499    1.0000 </r>
       <r>    4.9822    1.0000 </r>
       <r>    4.9822    1.0000 </r>
       <r>   13.5889    0.0000 </r>
       <r>   13.5889    0.0000 </r>
       <r>   15.4865    0.0000 </r>
       <r>   18.1441    0.0000 </r>
       <r>   41.6414    0.0000 </r>
       <r>   41.6414    0.0000 </r>
       <r>   45.6399    0.0000 </r>
      </set>
      <set comment="kpoint 84">
       <r>    2.2167    1.0000 </r>
       <r>    2.7985    1.0000 </r>
       <r>    2.7985    1.0000 </r>
       <r>    4.9844    1.0000 </r>
       <r>    4.9844    1.0000 </r>
       <r>   13.2391    0.0000 </r>
       <r>   13.2391    0.0000 </r>
       <r>   15.4602    0.0000 </r>
       <r>   19.5569    0.0000 </r>
       <r>   39.8886    0.0000 </r>
       <r>   39.8886    0.0000 </r>
       <r>   45.4214    0.0000 </r>
      </set>
      <set comment="kpoint 85">
       <r>    2.1363    1.0000 </r>
       <r>    2.8226    1.0000 </r>
       <r>    2.8226    1.0000 </r>
       <r>    4.9937    1.0000 </r>
       <r>    4.9937    1.0000 </r>
       <r>   12.9685    0.0000 </r>
       <r>   12.9685    0.0000 </r>
       <r>   15.4065    0.0000 </r>
       <r>   21.1031    0.0000 </r>
       <r>   38.1654    0.0000 </r>
       <r>   38.1654    0.0000 </r>
       <r>   44.8579    0.0000 </r>
      </set>
      <set comment="kpoint 86">
       <r>    2.1082    1.0000 </r>
       <r>    2.8132    1.0000 </r>
       <r>    2.8132    1.0000 </r>
       <r>    5.0144    1.0000 </r>
       <r>    5.0144    1.0000 </r>
       <r>   12.7808    0.0000 </r>
       <r>   12.7808    0.0000 </r>
       <r>   15.3640    0.0000 </r>
       <r>   22.7293    0.0000 </r>
       <r>   36.4884    0.0000 </r>
       <r>   36.4884    0.0000 </r>
       <r>   43.8825    0.0000 </r>
      </set>
      <set comment="kpoint 87">
       <r>    2.1425    1.0000 </r>
       <r>    2.7640    1.0000 </r>
       <r>    2.7640    1.0000 </r>
       <r>    5.0499    1.0000 </r>
       <r>    5.0499    1.0000 </r>
       <r>   12.6780    0.0000 </r>
       <r>   12.6780    0.0000 </r>
       <r>   15.3404    0.0000 </r>
       <r>   24.4120    0.0000 </r>
       <r>   34.8668    0.0000 </r>
       <r>   34.8668    0.0000 </r>
       <r>   42.5985    0.0000 </r>
      </set>
      <set comment="kpoint 88">
       <r>    2.2452    1.0000 </r>
       <r>    2.6729    1.0000 </r>
       <r>    2.6729    1.0000 </r>
       <r>    5.1021    1.0000 </r>
       <r>    5.1021    1.0000 </r>
       <r>   12.6593    0.0000 </r>
       <r>   12.6593    0.0000 </r>
       <r>   15.3356    0.0000 </r>
       <r>   26.1306    0.0000 </r>
       <r>   33.3065    0.0000 </r>
       <r>   33.3065    0.0000 </r>
       <r>   41.1649    0.0000 </r>
      </set>
      <set comment="kpoint 89">
       <r>    2.4191    1.0000 </r>
       <r>    2.5428    1.0000 </r>
       <r>    2.5428    1.0000 </r>
       <r>    5.1707    1.0000 </r>
       <r>    5.1707    1.0000 </r>
       <r>   12.7214    0.0000 </r>
       <r>   12.7214    0.0000 </r>
       <r>   15.3477    0.0000 </r>
       <r>   27.8534    0.0000 </r>
       <r>   31.8114    0.0000 </r>
       <r>   31.8114    0.0000 </r>
       <r>   39.7078    0.0000 </r>
      </set>
      <set comment="kpoint 90">
       <r>    2.3807    1.0000 </r>
       <r>    2.3807    1.0000 </r>
       <r>    2.6627    1.0000 </r>
       <r>    5.2529    1.0000 </r>
       <r>    5.2529    1.0000 </r>
       <r>   12.8585    0.0000 </r>
       <r>   12.8585    0.0000 </r>
       <r>   15.3743    0.0000 </r>
       <r>   29.5131    0.0000 </r>
       <r>   30.3846    0.0000 </r>
       <r>   30.3846    0.0000 </r>
       <r>   38.3479    0.0000 </r>
      </set>
      <set comment="kpoint 91">
       <r>    2.1961    1.0000 </r>
       <r>    2.1961    1.0000 </r>
       <r>    2.9714    1.0000 </r>
       <r>    5.3456    1.0000 </r>
       <r>    5.3456    1.0000 </r>
       <r>   13.0633    0.0000 </r>
       <r>   13.0633    0.0000 </r>
       <r>   15.4128    0.0000 </r>
       <r>   29.0290    0.0000 </r>
       <r>   29.0290    0.0000 </r>
       <r>   30.9333    0.0000 </r>
       <r>   37.2916    0.0000 </r>
      </set>
      <set comment="kpoint 92">
       <r>    1.9993    1.0000 </r>
       <r>    1.9993    1.0000 </r>
       <r>    3.3368    1.0000 </r>
       <r>    5.4445    1.0002 </r>
       <r>    5.4445    1.0002 </r>
       <r>   13.3275    0.0000 </r>
       <r>   13.3275    0.0000 </r>
       <r>   15.4604    0.0000 </r>
       <r>   27.7480    0.0000 </r>
       <r>   27.7480    0.0000 </r>
       <r>   31.6835    0.0000 </r>
       <r>   36.9870    0.0000 </r>
      </set>
      <set comment="kpoint 93">
       <r>    1.8006    1.0000 </r>
       <r>    1.8006    1.0000 </r>
       <r>    3.7461    1.0000 </r>
       <r>    5.5452    1.0021 </r>
       <r>    5.5452    1.0021 </r>
       <r>   13.6419    0.0000 </r>
       <r>   13.6419    0.0000 </r>
       <r>   15.5143    0.0000 </r>
       <r>   26.5455    0.0000 </r>
       <r>   26.5455    0.0000 </r>
       <r>   31.4229    0.0000 </r>
       <r>   37.7814    0.0000 </r>
      </set>
      <set comment="kpoint 94">
       <r>    1.6095    1.0000 </r>
       <r>    1.6095    1.0000 </r>
       <r>    4.1829    1.0000 </r>
       <r>    5.6437    1.0118 </r>
       <r>    5.6437    1.0118 </r>
       <r>   13.9962    0.0000 </r>
       <r>   13.9962    0.0000 </r>
       <r>   15.5718    0.0000 </r>
       <r>   25.4275    0.0000 </r>
       <r>   25.4275    0.0000 </r>
       <r>   30.5740    0.0000 </r>
       <r>   39.2476    0.0000 </r>
      </set>
      <set comment="kpoint 95">
       <r>    1.4340    1.0000 </r>
       <r>    1.4340    1.0000 </r>
       <r>    4.6258    1.0000 </r>
       <r>    5.7357    1.0313 </r>
       <r>    5.7357    1.0313 </r>
       <r>   14.3782    0.0000 </r>
       <r>   14.3782    0.0000 </r>
       <r>   15.6297    0.0000 </r>
       <r>   24.4029    0.0000 </r>
       <r>   24.4029    0.0000 </r>
       <r>   29.5801    0.0000 </r>
       <r>   40.9146    0.0000 </r>
      </set>
      <set comment="kpoint 96">
       <r>    1.2813    1.0000 </r>
       <r>    1.2813    1.0000 </r>
       <r>    5.0491    1.0000 </r>
       <r>    5.8173    1.0256 </r>
       <r>    5.8174    1.0256 </r>
       <r>   14.7715    0.0000 </r>
       <r>   14.7715    0.0000 </r>
       <r>   15.6848    0.0000 </r>
       <r>   23.4858    0.0000 </r>
       <r>   23.4858    0.0000 </r>
       <r>   28.6315    0.0000 </r>
       <r>   42.5249    0.0000 </r>
      </set>
      <set comment="kpoint 97">
       <r>    1.1567    1.0000 </r>
       <r>    1.1567    1.0000 </r>
       <r>    5.4241    1.0001 </r>
       <r>    5.8850    0.9474 </r>
       <r>    5.8850    0.9474 </r>
       <r>   15.1525    0.0000 </r>
       <r>   15.1525    0.0000 </r>
       <r>   15.7336    0.0000 </r>
       <r>   22.6983    0.0000 </r>
       <r>   22.6983    0.0000 </r>
       <r>   27.8177    0.0000 </r>
       <r>   43.8679    0.0000 </r>
      </set>
      <set comment="kpoint 98">
       <r>    1.0648    1.0000 </r>
       <r>    1.0648    1.0000 </r>
       <r>    5.7208    1.0282 </r>
       <r>    5.9358    0.8181 </r>
       <r>    5.9358    0.8181 </r>
       <r>   15.4851    0.0000 </r>
       <r>   15.4851    0.0000 </r>
       <r>   15.7724    0.0000 </r>
       <r>   22.0756    0.0000 </r>
       <r>   22.0756    0.0000 </r>
       <r>   27.1949    0.0000 </r>
       <r>   44.7797    0.0000 </r>
      </set>
      <set comment="kpoint 99">
       <r>    1.0084    1.0000 </r>
       <r>    1.0084    1.0000 </r>
       <r>    5.9118    0.8872 </r>
       <r>    5.9672    0.7083 </r>
       <r>    5.9672    0.7083 </r>
       <r>   15.7202    0.0000 </r>
       <r>   15.7202    0.0000 </r>
       <r>   15.7976    0.0000 </r>
       <r>   21.6666    0.0000 </r>
       <r>   21.6666    0.0000 </r>
       <r>   26.8037    0.0000 </r>
       <r>   45.2565    0.0000 </r>
      </set>
      <set comment="kpoint 100">
       <r>    0.9894    1.0000 </r>
       <r>    0.9894    1.0000 </r>
       <r>    5.9778    0.6670 </r>
       <r>    5.9779    0.6670 </r>
       <r>    5.9779    0.6670 </r>
       <r>   15.8064    0.0000 </r>
       <r>   15.8064    0.0000 </r>
       <r>   15.8064    0.0000 </r>
       <r>   21.5224    0.0000 </r>
[...]
       </set>
       <set comment="band 5">
        <r>  0.0000  0.0000  0.0000  0.0000  0.0000  0.0000  0.0000  0.0000  0.9872 </r>
       </set>
       <set comment="band 6">
        <r>  0.0000  0.1652  0.0000  0.1652  0.0000  0.2641  0.0000  0.2641  0.0000 </r>
       </set>
       <set comment="band 7">
        <r>  0.3278  0.0000  0.0923  0.0000  0.4020  0.0000  0.0601  0.0000  0.0000 </r>
       </set>
       <set comment="band 8">
        <r>  0.0000  0.1585  0.0000  0.1585  0.0000  0.2101  0.0000  0.2101  0.0000 </r>
       </set>
       <set comment="band 9">
        <r>  0.3668  0.0000  0.3495  0.0000  0.0484  0.0000  0.0256  0.0000  0.0000 </r>
       </set>
       <set comment="band 10">
        <r>  0.0000  0.0004  0.0000  0.0004  0.0000  0.2120  0.0000  0.2120  0.0000 </r>
       </set>
       <set comment="band 11">
        <r>  0.0403  0.0000  0.1379  0.0000  0.0247  0.0000  0.6421  0.0000  0.0000 </r>
       </set>
       <set comment="band 12">
        <r>  0.0000  0.0304  0.0000  0.0305  0.0000  0.0371  0.0000  0.0371  0.0000 </r>
       </set>
      </set>
      <set comment="kpoint 110">
       <set comment="band 1">
        <r>  0.0935  0.0000  0.0770  0.0000  0.5810  0.0000  0.1254  0.0000  0.0000 </r>
       </set>
       <set comment="band 2">
        <r>  0.0000  0.0215  0.0000  0.0215  0.0000  0.4466  0.0000  0.4466  0.0000 </r>
       </set>
       <set comment="band 3">
        <r>  0.0000  0.1636  0.0000  0.1636  0.0000  0.2564  0.0000  0.2564  0.0000 </r>
       </set>
       <set comment="band 4">
        <r>  0.0027  0.0000  0.0004  0.0000  0.1705  0.0000  0.8091  0.0000  0.0000 </r>
       </set>
       <set comment="band 5">
        <r>  0.0000  0.0000  0.0000  0.0000  0.0000  0.0000  0.0000  0.0000  0.9870 </r>
       </set>
       <set comment="band 6">
        <r>  0.0000  0.1589  0.0000  0.1589  0.0000  0.2733  0.0000  0.2733  0.0000 </r>
       </set>
       <set comment="band 7">
        <r>  0.3448  0.0000  0.0728  0.0000  0.4036  0.0000  0.0692  0.0000  0.0000 </r>
       </set>
       <set comment="band 8">
        <r>  0.0000  0.1542  0.0000  0.1542  0.0000  0.2038  0.0000  0.2038  0.0000 </r>
       </set>
       <set comment="band 9">
        <r>  0.3238  0.0000  0.3881  0.0000  0.0455  0.0000  0.0319  0.0000  0.0000 </r>
       </set>
       <set comment="band 10">
        <r>  0.0000  0.0008  0.0000  0.0008  0.0000  0.2417  0.0000  0.2417  0.0000 </r>
       </set>
       <set comment="band 11">
        <r>  0.0520  0.0000  0.1457  0.0000  0.0117  0.0000  0.6667  0.0000  0.0000 </r>
       </set>
       <set comment="band 12">
        <r>  0.0000  0.0315  0.0000  0.0315  0.0000  0.0306  0.0000  0.0306  0.0000 </r>
       </set>
      </set>
      <set comment="kpoint 111">
       <set comment="band 1">
        <r>  0.1075  0.0000  0.0645  0.0000  0.5601  0.0000  0.1421  0.0000  0.0000 </r>
       </set>
       <set comment="band 2">
        <r>  0.0000  0.0175  0.0000  0.0175  0.0000  0.4525  0.0000  0.4525  0.0000 </r>
       </set>
       <set comment="band 3">
        <r>  0.0000  0.1763  0.0000  0.1763  0.0000  0.2394  0.0000  0.2394  0.0000 </r>
       </set>
       <set comment="band 4">
        <r>  0.0036  0.0000  0.0004  0.0000  0.1919  0.0000  0.7862  0.0000  0.0000 </r>
       </set>
       <set comment="band 5">
        <r>  0.0000  0.0000  0.0000  0.0000  0.0000  0.0000  0.0000  0.0000  0.9868 </r>
       </set>
       <set comment="band 6">
        <r>  0.0000  0.1513  0.0000  0.1513  0.0000  0.2843  0.0000  0.2843  0.0000 </r>
       </set>
       <set comment="band 7">
        <r>  0.3580  0.0000  0.0565  0.0000  0.4058  0.0000  0.0776  0.0000  0.0000 </r>
       </set>
       <set comment="band 8">
        <r>  0.0000  0.1498  0.0000  0.1498  0.0000  0.1955  0.0000  0.1955  0.0000 </r>
       </set>
       <set comment="band 9">
        <r>  0.2834  0.0000  0.4253  0.0000  0.0418  0.0000  0.0378  0.0000  0.0000 </r>
       </set>
       <set comment="band 10">
        <r>  0.0000  0.0015  0.0000  0.0015  0.0000  0.2726  0.0000  0.2726  0.0000 </r>
       </set>
       <set comment="band 11">
        <r>  0.0652  0.0000  0.1501  0.0000  0.0042  0.0000  0.6795  0.0000  0.0000 </r>
       </set>
       <set comment="band 12">
        <r>  0.0000  0.0324  0.0000  0.0324  0.0000  0.0248  0.0000  0.0247  0.0000 </r>
       </set>
      </set>
      <set comment="kpoint 112">
       <set comment="band 1">
        <r>  0.1208  0.0000  0.0525  0.0000  0.5413  0.0000  0.1573  0.0000  0.0000 </r>
       </set>
       <set comment="band 2">
        <r>  0.0000  0.0138  0.0000  0.0138  0.0000  0.4579  0.0000  0.4579  0.0000 </r>
       </set>
       <set comment="band 3">
        <r>  0.0000  0.1902  0.0000  0.1902  0.0000  0.2208  0.0000  0.2209  0.0000 </r>
       </set>
       <set comment="band 4">
        <r>  0.0045  0.0000  0.0003  0.0000  0.2110  0.0000  0.7656  0.0000  0.0000 </r>
       </set>
       <set comment="band 5">
        <r>  0.0000  0.0000  0.0000  0.0000  0.0000  0.0000  0.0000  0.0000  0.9866 </r>
       </set>
       <set comment="band 6">
        <r>  0.0000  0.1422  0.0000  0.1422  0.0000  0.2974  0.0000  0.2974  0.0000 </r>
       </set>
       <set comment="band 7">
        <r>  0.3682  0.0000  0.0430  0.0000  0.4083  0.0000  0.0853  0.0000  0.0000 </r>
       </set>
       <set comment="band 8">
        <r>  0.0000  0.1454  0.0000  0.1454  0.0000  0.1845  0.0000  0.1845  0.0000 </r>
       </set>
       <set comment="band 9">
        <r>  0.2449  0.0000  0.4617  0.0000  0.0375  0.0000  0.0430  0.0000  0.0000 </r>
       </set>
       <set comment="band 10">
        <r>  0.0000  0.0022  0.0000  0.0022  0.0000  0.3050  0.0000  0.3050  0.0000 </r>
       </set>
       <set comment="band 11">
        <r>  0.0801  0.0000  0.1507  0.0000  0.0007  0.0000  0.6846  0.0000  0.0000 </r>
       </set>
       <set comment="band 12">
        <r>  0.0000  0.0332  0.0000  0.0332  0.0000  0.0195  0.0000  0.0195  0.0000 </r>
       </set>
      </set>
      <set comment="kpoint 113">
       <set comment="band 1">
        <r>  0.1330  0.0000  0.0412  0.0000  0.5248  0.0000  0.1710  0.0000  0.0000 </r>
       </set>
       <set comment="band 2">
        <r>  0.0000  0.0106  0.0000  0.0106  0.0000  0.4627  0.0000  0.4627  0.0000 </r>
       </set>
       <set comment="band 3">
        <r>  0.0000  0.2053  0.0000  0.2053  0.0000  0.2003  0.0000  0.2003  0.0000 </r>
       </set>
       <set comment="band 4">
        <r>  0.0055  0.0000  0.0003  0.0000  0.2279  0.0000  0.7473  0.0000  0.0000 </r>
       </set>
       <set comment="band 5">
        <r>  0.0000  0.0000  0.0000  0.0000  0.0000  0.0000  0.0000  0.0000  0.9865 </r>
       </set>
       <set comment="band 6">
        <r>  0.0000  0.1311  0.0000  0.1311  0.0000  0.3131  0.0000  0.3131  0.0000 </r>
       </set>
       <set comment="band 7">
        <r>  0.3761  0.0000  0.0318  0.0000  0.4109  0.0000  0.0921  0.0000  0.0000 </r>
       </set>
       <set comment="band 8">
        <r>  0.0000  0.1413  0.0000  0.1413  0.0000  0.1704  0.0000  0.1704  0.0000 </r>
       </set>
       <set comment="band 9">
        <r>  0.2077  0.0000  0.4983  0.0000  0.0328  0.0000  0.0468  0.0000  0.0000 </r>
       </set>
       <set comment="band 10">
        <r>  0.0000  0.0029  0.0000  0.0029  0.0000  0.3391  0.0000  0.3391  0.0000 </r>
       </set>
       <set comment="band 11">
        <r>  0.0970  0.0000  0.1468  0.0000  0.0001  0.0000  0.6852  0.0000  0.0000 </r>
       </set>
       <set comment="band 12">
        <r>  0.0000  0.0340  0.0000  0.0336  0.0000  0.0149  0.0000  0.0149  0.0000 </r>
       </set>
      </set>
      <set comment="kpoint 114">
       <set comment="band 1">
        <r>  0.1438  0.0000  0.0309  0.0000  0.5105  0.0000  0.1829  0.0000  0.0000 </r>
       </set>
       <set comment="band 2">
        <r>  0.0000  0.0078  0.0000  0.0078  0.0000  0.4670  0.0000  0.4670  0.0000 </r>
       </set>
       <set comment="band 3">
        <r>  0.0000  0.2223  0.0000  0.2223  0.0000  0.1772  0.0000  0.1772  0.0000 </r>
       </set>
       <set comment="band 4">
        <r>  0.0065  0.0000  0.0002  0.0000  0.2423  0.0000  0.7316  0.0000  0.0000 </r>
       </set>
       <set comment="band 5">
        <r>  0.0000  0.0000  0.0000  0.0000  0.0000  0.0000  0.0000  0.0000  0.9863 </r>
       </set>
       <set comment="band 6">
        <r>  0.0000  0.1178  0.0000  0.1178  0.0000  0.3319  0.0000  0.3319  0.0000 </r>
       </set>
       <set comment="band 7">
        <r>  0.3821  0.0000  0.0227  0.0000  0.4135  0.0000  0.0981  0.0000  0.0000 </r>
       </set>
       <set comment="band 8">
        <r>  0.0000  0.1376  0.0000  0.1376  0.0000  0.1523  0.0000  0.1523  0.0000 </r>
       </set>
       <set comment="band 9">
        <r>  0.1713  0.0000  0.5357  0.0000  0.0277  0.0000  0.0485  0.0000  0.0000 </r>
       </set>
       <set comment="band 10">
        <r>  0.0000  0.0035  0.0000  0.0035  0.0000  0.3754  0.0000  0.3754  0.0000 </r>
       </set>
       <set comment="band 11">
        <r>  0.1160  0.0000  0.1376  0.0000  0.0016  0.0000  0.6843  0.0000  0.0000 </r>
       </set>
       <set comment="band 12">
        <r>  0.0000  0.0343  0.0000  0.0344  0.0000  0.0109  0.0000  0.0109  0.0000 </r>
       </set>
      </set>
      <set comment="kpoint 115">
       <set comment="band 1">
        <r>  0.1533  0.0000  0.0218  0.0000  0.4986  0.0000  0.1930  0.0000  0.0000 </r>
       </set>
       <set comment="band 2">
        <r>  0.0000  0.0054  0.0000  0.0054  0.0000  0.4706  0.0000  0.4706  0.0000 </r>
       </set>
       <set comment="band 3">
        <r>  0.0000  0.2417  0.0000  0.2417  0.0000  0.1508  0.0000  0.1508  0.0000 </r>
       </set>
       <set comment="band 4">
        <r>  0.0074  0.0000  0.0002  0.0000  0.2543  0.0000  0.7184  0.0000  0.0000 </r>
       </set>
       <set comment="band 5">
        <r>  0.0000  0.0000  0.0000  0.0000  0.0000  0.0000  0.0000  0.0000  0.9861 </r>
       </set>
       <set comment="band 6">
        <r>  0.0000  0.1015  0.0000  0.1015  0.0000  0.3547  0.0000  0.3547  0.0000 </r>
       </set>
       <set comment="band 7">
        <r>  0.3867  0.0000  0.0154  0.0000  0.4159  0.0000  0.1031  0.0000  0.0000 </r>
       </set>
       <set comment="band 8">
        <r>  0.0000  0.1345  0.0000  0.1345  0.0000  0.1296  0.0000  0.1296  0.0000 </r>
       </set>
       <set comment="band 9">
        <r>  0.1353  0.0000  0.5750  0.0000  0.0223  0.0000  0.0471  0.0000  0.0000 </r>
       </set>
       <set comment="band 10">
        <r>  0.0000  0.0039  0.0000  0.0039  0.0000  0.4140  0.0000  0.4140  0.0000 </r>
       </set>
       <set comment="band 11">
        <r>  0.1375  0.0000  0.1222  0.0000  0.0047  0.0000  0.6844  0.0000  0.0000 </r>
       </set>
       <set comment="band 12">
        <r>  0.0000  0.0348  0.0000  0.0348  0.0000  0.0076  0.0000  0.0076  0.0000 </r>
       </set>
      </set>
      <set comment="kpoint 116">
       <set comment="band 1">
        <r>  0.1611  0.0000  0.0141  0.0000  0.4889  0.0000  0.2012  0.0000  0.0000 </r>
       </set>
       <set comment="band 2">
        <r>  0.0000  0.0035  0.0000  0.0035  0.0000  0.4736  0.0000  0.4736  0.0000 </r>
       </set>
       <set comment="band 3">
        <r>  0.0000  0.2639  0.0000  0.2639  0.0000  0.1201  0.0000  0.1201  0.0000 </r>
       </set>
       <set comment="band 4">
        <r>  0.0082  0.0000  0.0001  0.0000  0.2639  0.0000  0.7077  0.0000  0.0000 </r>
       </set>
       <set comment="band 5">
        <r>  0.0000  0.0000  0.0000  0.0000  0.0000  0.0000  0.0000  0.0000  0.9860 </r>
       </set>
       <set comment="band 6">
        <r>  0.0000  0.0818  0.0000  0.0818  0.0000  0.3823  0.0000  0.3823  0.0000 </r>
       </set>
       <set comment="band 7">
        <r>  0.3901  0.0000  0.0097  0.0000  0.4179  0.0000  0.1072  0.0000  0.0000 </r>
       </set>
       <set comment="band 8">
        <r>  0.0000  0.1322  0.0000  0.1322  0.0000  0.1020  0.0000  0.1020  0.0000 </r>
       </set>
       <set comment="band 9">
        <r>  0.0996  0.0000  0.6168  0.0000  0.0166  0.0000  0.0417  0.0000  0.0000 </r>
       </set>
       <set comment="band 10">
        <r>  0.0000  0.0038  0.0000  0.0038  0.0000  0.4552  0.0000  0.4552  0.0000 </r>
       </set>
       <set comment="band 11">
        <r>  0.1614  0.0000  0.1000  0.0000  0.0089  0.0000  0.6874  0.0000  0.0000 </r>
       </set>
       <set comment="band 12">
        <r>  0.0000  0.0351  0.0000  0.0352  0.0000  0.0049  0.0000  0.0048  0.0000 </r>
       </set>
      </set>
      <set comment="kpoint 117">
       <set comment="band 1">
        <r>  0.1673  0.0000  0.0080  0.0000  0.4814  0.0000  0.2077  0.0000  0.0000 </r>
       </set>
       <set comment="band 2">
        <r>  0.0000  0.0020  0.0000  0.0020  0.0000  0.4760  0.0000  0.4760  0.0000 </r>
       </set>
       <set comment="band 3">
        <r>  0.0000  0.2894  0.0000  0.2894  0.0000  0.0849  0.0000  0.0849  0.0000 </r>
       </set>
       <set comment="band 4">
        <r>  0.0089  0.0000  0.0001  0.0000  0.2714  0.0000  0.6995  0.0000  0.0000 </r>
       </set>
       <set comment="band 5">
        <r>  0.0000  0.0000  0.0000  0.0000  0.0000  0.0000  0.0000  0.0000  0.9859 </r>
       </set>
       <set comment="band 6">
        <r>  0.0000  0.0584  0.0000  0.0584  0.0000  0.4151  0.0000  0.4151  0.0000 </r>
       </set>
       <set comment="band 7">
        <r>  0.3925  0.0000  0.0053  0.0000  0.4196  0.0000  0.1105  0.0000  0.0000 </r>
       </set>
       <set comment="band 8">
        <r>  0.0000  0.1311  0.0000  0.1311  0.0000  0.0701  0.0000  0.0701  0.0000 </r>
       </set>
       <set comment="band 9">
        <r>  0.0648  0.0000  0.6608  0.0000  0.0109  0.0000  0.0318  0.0000  0.0000 </r>
       </set>
       <set comment="band 10">
        <r>  0.0000  0.0031  0.0000  0.0031  0.0000  0.4979  0.0000  0.4979  0.0000 </r>
       </set>
       <set comment="band 11">
        <r>  0.1872  0.0000  0.0712  0.0000  0.0137  0.0000  0.6948  0.0000  0.0000 </r>
       </set>
       <set comment="band 12">
        <r>  0.0000  0.0354  0.0000  0.0354  0.0000  0.0027  0.0000  0.0027  0.0000 </r>
       </set>
      </set>
      <set comment="kpoint 118">
       <set comment="band 1">
        <r>  0.1717  0.0000  0.0036  0.0000  0.4761  0.0000  0.2123  0.0000  0.0000 </r>
       </set>
       <set comment="band 2">
        <r>  0.0000  0.0009  0.0000  0.0009  0.0000  0.4777  0.0000  0.4777  0.0000 </r>
       </set>
       <set comment="band 3">
        <r>  0.0000  0.3166  0.0000  0.3166  0.0000  0.0470  0.0000  0.0470  0.0000 </r>
       </set>
       <set comment="band 4">
        <r>  0.0094  0.0000  0.0000  0.0000  0.2766  0.0000  0.6937  0.0000  0.0000 </r>
       </set>
       <set comment="band 5">
        <r>  0.0000  0.0000  0.0000  0.0000  0.0000  0.0000  0.0000  0.0000  0.9858 </r>
       </set>
       <set comment="band 6">
        <r>  0.0000  0.0326  0.0000  0.0326  0.0000  0.4513  0.0000  0.4513  0.0000 </r>
       </set>
       <set comment="band 7">
        <r>  0.3941  0.0000  0.0023  0.0000  0.4209  0.0000  0.1127  0.0000  0.0000 </r>
       </set>
       <set comment="band 8">
        <r>  0.0000  0.1309  0.0000  0.1309  0.0000  0.0372  0.0000  0.0372  0.0000 </r>
       </set>
       <set comment="band 9">
        <r>  0.0330  0.0000  0.7040  0.0000  0.0056  0.0000  0.0183  0.0000  0.0000 </r>
       </set>
       <set comment="band 10">
        <r>  0.0000  0.0019  0.0000  0.0019  0.0000  0.5388  0.0000  0.5388  0.0000 </r>
       </set>
       <set comment="band 11">
        <r>  0.2125  0.0000  0.0390  0.0000  0.0185  0.0000  0.7060  0.0000  0.0000 </r>
       </set>
       <set comment="band 12">
        <r>  0.0000  0.0356  0.0000  0.0356  0.0000  0.0012  0.0000  0.0012  0.0000 </r>
       </set>
      </set>
      <set comment="kpoint 119">
       <set comment="band 1">
        <r>  0.1744  0.0000  0.0009  0.0000  0.4729  0.0000  0.2150  0.0000  0.0000 </r>
       </set>
       <set comment="band 2">
        <r>  0.0000  0.0002  0.0000  0.0002  0.0000  0.4788  0.0000  0.4788  0.0000 </r>
       </set>
       <set comment="band 3">
        <r>  0.0000  0.3404  0.0000  0.3404  0.0000  0.0139  0.0000  0.0139  0.0000 </r>
       </set>
       <set comment="band 4">
        <r>  0.0097  0.0000  0.0000  0.0000  0.2797  0.0000  0.6902  0.0000  0.0000 </r>
       </set>
       <set comment="band 5">
        <r>  0.0000  0.0000  0.0000  0.0000  0.0000  0.0000  0.0000  0.0000  0.9858 </r>
       </set>
       <set comment="band 6">
        <r>  0.0000  0.0097  0.0000  0.0097  0.0000  0.4834  0.0000  0.4834  0.0000 </r>
       </set>
       <set comment="band 7">
        <r>  0.3950  0.0000  0.0006  0.0000  0.4216  0.0000  0.1141  0.0000  0.0000 </r>
       </set>
       <set comment="band 8">
        <r>  0.0000  0.1314  0.0000  0.1314  0.0000  0.0106  0.0000  0.0106  0.0000 </r>
       </set>
       <set comment="band 9">
        <r>  0.0091  0.0000  0.7382  0.0000  0.0015  0.0000  0.0055  0.0000  0.0000 </r>
       </set>
       <set comment="band 10">
        <r>  0.0000  0.0006  0.0000  0.0006  0.0000  0.5703  0.0000  0.5703  0.0000 </r>
       </set>
       <set comment="band 11">
        <r>  0.2325  0.0000  0.0113  0.0000  0.0223  0.0000  0.7174  0.0000  0.0000 </r>
       </set>
       <set comment="band 12">
        <r>  0.0000  0.0357  0.0000  0.0357  0.0000  0.0003  0.0000  0.0003  0.0000 </r>
       </set>
      </set>
      <set comment="kpoint 120">
       <set comment="band 1">
        <r>  0.1753  0.0000  0.0000  0.0000  0.4719  0.0000  0.2160  0.0000  0.0000 </r>
       </set>
       <set comment="band 2">
        <r>  0.0000  0.0000  0.0000  0.0000  0.0000  0.4791  0.0000  0.4791  0.0000 </r>
       </set>
       <set comment="band 3">
        <r>  0.0000  0.3503  0.0000  0.3503  0.0000  0.0000  0.0000  0.0000  0.0000 </r>
       </set>
       <set comment="band 4">
        <r>  0.0098  0.0000  0.0000  0.0000  0.2808  0.0000  0.6890  0.0000  0.0000 </r>
       </set>
       <set comment="band 5">
        <r>  0.0000  0.0000  0.0000  0.0000  0.0000  0.0000  0.0000  0.0000  0.9858 </r>
       </set>
       <set comment="band 6">
        <r>  0.0000  0.0000  0.0000  0.0000  0.0000  0.4970  0.0000  0.4970  0.0000 </r>
       </set>
       <set comment="band 7">
        <r>  0.3953  0.0000  0.0000  0.0000  0.4219  0.0000  0.1146  0.0000  0.0000 </r>
       </set>
       <set comment="band 8">
        <r>  0.0000  0.1317  0.0000  0.1317  0.0000  0.0000  0.0000  0.0000  0.0000 </r>
       </set>
       <set comment="band 9">
        <r>  0.0000  0.0000  0.7517  0.0000  0.0000  0.0000  0.0000  0.0000  0.0000 </r>
       </set>
       <set comment="band 10">
        <r>  0.0000  0.0000  0.0000  0.0000  0.0000  0.5825  0.0000  0.5825  0.0000 </r>
       </set>
       <set comment="band 11">
        <r>  0.2403  0.0000  0.0000  0.0000  0.0237  0.0000  0.7224  0.0000  0.0000 </r>
       </set>
       <set comment="band 12">
        <r>  0.0000  0.0357  0.0000  0.0357  0.0000  0.0000  0.0000  0.0000  0.0000 </r>
       </set>
      </set>
     </set>
    </set>
   </array>
  </projected>
 </calculation>
 <structure name="finalpos" >
  <crystal>
   <varray name="basis" >
    <v>      -1.41500639       1.41500639       1.41500639 </v>
    <v>       1.41500639      -1.41500639       1.41500639 </v>
    <v>       1.41500639       1.41500639      -1.41500639 </v>
   </varray>
   <i name="volume">     11.33274695 </i>
   <varray name="rec_basis" >
    <v>       0.00000000       0.35335530       0.35335530 </v>
    <v>       0.35335530       0.00000000       0.35335530 </v>
    <v>       0.35335530       0.35335530       0.00000000 </v>
   </varray>
  </crystal>
  <varray name="positions" >
   <v>       0.00000000       0.00000000       0.00000000 </v>
  </varray>
 </structure>
</modeling>
