unknown system                          
           1
     2.863035    0.000000    0.000000
     0.000000    2.863035    0.000000
     0.000000    0.000000    2.863035
   Fe
     2
Direct configuration=     1
   0.00000000  0.00000000  0.00000000
   0.50000000  0.50000000  0.50000000
unknown system                          
           1
     2.802975   -0.000000    0.000000
     0.000000    2.802975    0.000000
    -0.000000   -0.000000    2.802975
   Fe
     2
Direct configuration=     2
   0.00000000  0.00000000 -0.00000000
   0.50000000  0.50000000  0.50000000
unknown system                          
           1
     2.825562   -0.000000    0.000000
     0.000000    2.825562    0.000000
    -0.000000   -0.000000    2.825562
   Fe
     2
Direct configuration=     3
   0.00000000  0.00000000 -0.00000000
   0.50000000  0.50000000  0.50000000
unknown system                          
           1
     2.825061   -0.000000    0.000000
     0.000000    2.825061    0.000000
    -0.000000   -0.000000    2.825061
   Fe
     2
Direct configuration=     4
   0.00000000  0.00000000 -0.00000000
   0.50000000  0.50000000  0.50000000
