   1   1   0   0
  0.1408159E+02  0.2710538E-09  0.2710538E-09  0.2710538E-09  0.5000000E-15
  1.000000000000000E-004
  CAR 
 unknown system                          
     38.35198988     -6.29375454  301     10.18635797      1.00000000
     -6.294  0.0000E+00  0.0000E+00
     -6.145  0.0000E+00  0.0000E+00
     -5.996  0.0000E+00  0.0000E+00
     -5.847  0.0000E+00  0.0000E+00
     -5.698  0.0000E+00  0.0000E+00
     -5.550  0.0000E+00  0.0000E+00
     -5.401  0.0000E+00  0.0000E+00
     -5.252  0.0000E+00  0.0000E+00
     -5.103  0.0000E+00  0.0000E+00
     -4.954  0.0000E+00  0.0000E+00
     -4.806  0.0000E+00  0.0000E+00
     -4.657  0.0000E+00  0.0000E+00
     -4.508  0.9516E-16  0.1416E-16
     -4.359  0.1268E-06  0.1886E-07
     -4.210  0.9997E-04  0.1490E-04
     -4.061  0.3972E-03  0.7400E-04
     -3.913  0.5761E-03  0.1597E-03
     -3.764  0.6709E-03  0.2596E-03
     -3.615  0.8219E-03  0.3819E-03
     -3.466  0.8999E-03  0.5158E-03
     -3.317  0.9451E-03  0.6565E-03
     -3.169  0.1134E-02  0.8252E-03
     -3.020  0.1089E-02  0.9872E-03
     -2.871  0.1187E-02  0.1164E-02
     -2.722  0.1422E-02  0.1375E-02
     -2.573  0.1136E-02  0.1545E-02
     -2.424  0.1540E-02  0.1774E-02
     -2.276  0.1380E-02  0.1979E-02
     -2.127  0.1487E-02  0.2200E-02
     -1.978  0.1622E-02  0.2442E-02
     -1.829  0.1610E-02  0.2682E-02
     -1.680  0.1697E-02  0.2934E-02
     -1.532  0.1614E-02  0.3174E-02
     -1.383  0.1966E-02  0.3467E-02
     -1.234  0.1690E-02  0.3718E-02
     -1.085  0.1834E-02  0.3991E-02
     -0.936  0.1942E-02  0.4280E-02
     -0.787  0.2089E-02  0.4591E-02
     -0.639  0.1861E-02  0.4868E-02
     -0.490  0.2021E-02  0.5169E-02
     -0.341  0.2147E-02  0.5488E-02
     -0.192  0.2340E-02  0.5837E-02
     -0.043  0.2126E-02  0.6153E-02
      0.105  0.1868E-02  0.6431E-02
      0.254  0.2685E-02  0.6831E-02
      0.403  0.2251E-02  0.7166E-02
      0.552  0.2089E-02  0.7476E-02
      0.701  0.2562E-02  0.7858E-02
      0.850  0.2281E-02  0.8197E-02
      0.998  0.2528E-02  0.8573E-02
      1.147  0.2674E-02  0.8971E-02
      1.296  0.2509E-02  0.9345E-02
      1.445  0.1988E-02  0.9640E-02
      1.594  0.3162E-02  0.1011E-01
      1.742  0.2434E-02  0.1047E-01
      1.891  0.2978E-02  0.1092E-01
      2.040  0.2283E-02  0.1126E-01
      2.189  0.2850E-02  0.1168E-01
      2.338  0.3134E-02  0.1215E-01
      2.487  0.2739E-02  0.1255E-01
      2.635  0.2998E-02  0.1300E-01
      2.784  0.3307E-02  0.1349E-01
      2.933  0.2657E-02  0.1389E-01
      3.082  0.2536E-02  0.1427E-01
      3.231  0.3012E-02  0.1471E-01
      3.379  0.3094E-02  0.1517E-01
      3.528  0.2809E-02  0.1559E-01
      3.677  0.2742E-02  0.1600E-01
      3.826  0.2843E-02  0.1642E-01
      3.975  0.3443E-02  0.1694E-01
      4.124  0.3404E-02  0.1744E-01
      4.272  0.2702E-02  0.1784E-01
      4.421  0.3495E-02  0.1836E-01
      4.570  0.3147E-02  0.1883E-01
      4.719  0.3293E-02  0.1932E-01
      4.868  0.3522E-02  0.1985E-01
      5.017  0.3383E-02  0.2035E-01
      5.165  0.3638E-02  0.2089E-01
      5.314  0.3251E-02  0.2138E-01
      5.463  0.3044E-02  0.2183E-01
      5.612  0.3575E-02  0.2236E-01
      5.761  0.2865E-02  0.2279E-01
      5.909  0.3769E-02  0.2335E-01
      6.058  0.3569E-02  0.2388E-01
      6.207  0.3308E-02  0.2437E-01
      6.356  0.3730E-02  0.2493E-01
      6.505  0.3702E-02  0.2548E-01
      6.654  0.4048E-02  0.2608E-01
      6.802  0.3200E-02  0.2656E-01
      6.951  0.3925E-02  0.2714E-01
      7.100  0.3287E-02  0.2763E-01
      7.249  0.3840E-02  0.2820E-01
      7.398  0.3874E-02  0.2878E-01
      7.546  0.3274E-02  0.2926E-01
      7.695  0.3729E-02  0.2982E-01
      7.844  0.3585E-02  0.3035E-01
      7.993  0.4058E-02  0.3096E-01
      8.142  0.4470E-02  0.3162E-01
      8.291  0.4511E-02  0.3229E-01
      8.439  0.3273E-02  0.3278E-01
      8.588  0.3249E-02  0.3326E-01
      8.737  0.3776E-02  0.3383E-01
      8.886  0.4816E-02  0.3454E-01
      9.035  0.4480E-02  0.3521E-01
      9.183  0.3864E-02  0.3578E-01
      9.332  0.3732E-02  0.3634E-01
      9.481  0.4014E-02  0.3694E-01
      9.630  0.4128E-02  0.3755E-01
      9.779  0.4467E-02  0.3822E-01
      9.928  0.3952E-02  0.3880E-01
     10.076  0.4341E-02  0.3945E-01
     10.225  0.4944E-02  0.4019E-01
     10.374  0.3624E-02  0.4072E-01
     10.523  0.4415E-02  0.4138E-01
     10.672  0.4657E-02  0.4207E-01
     10.820  0.3854E-02  0.4265E-01
     10.969  0.4688E-02  0.4335E-01
     11.118  0.5474E-02  0.4416E-01
     11.267  0.3110E-02  0.4462E-01
     11.416  0.5448E-02  0.4543E-01
     11.565  0.4514E-02  0.4611E-01
     11.713  0.4711E-02  0.4681E-01
     11.862  0.4305E-02  0.4745E-01
     12.011  0.4462E-02  0.4811E-01
     12.160  0.5437E-02  0.4892E-01
     12.309  0.4135E-02  0.4954E-01
     12.457  0.5918E-02  0.5042E-01
     12.606  0.4382E-02  0.5107E-01
     12.755  0.4681E-02  0.5177E-01
     12.904  0.5717E-02  0.5262E-01
     13.053  0.4518E-02  0.5329E-01
     13.202  0.5338E-02  0.5408E-01
     13.350  0.5540E-02  0.5491E-01
     13.499  0.6237E-02  0.5584E-01
     13.648  0.5447E-02  0.5665E-01
     13.797  0.5194E-02  0.5742E-01
     13.946  0.5738E-02  0.5827E-01
     14.094  0.5005E-02  0.5902E-01
     14.243  0.5531E-02  0.5984E-01
     14.392  0.5706E-02  0.6069E-01
     14.541  0.4164E-02  0.6131E-01
     14.690  0.5076E-02  0.6207E-01
     14.839  0.5331E-02  0.6286E-01
     14.987  0.5122E-02  0.6362E-01
     15.136  0.4158E-02  0.6424E-01
     15.285  0.5186E-02  0.6501E-01
     15.434  0.4452E-02  0.6567E-01
     15.583  0.4884E-02  0.6640E-01
     15.731  0.4380E-02  0.6705E-01
     15.880  0.4847E-02  0.6777E-01
     16.029  0.4199E-02  0.6840E-01
     16.178  0.5086E-02  0.6916E-01
     16.327  0.4535E-02  0.6983E-01
     16.476  0.4974E-02  0.7057E-01
     16.624  0.4907E-02  0.7130E-01
     16.773  0.4085E-02  0.7191E-01
     16.922  0.5124E-02  0.7267E-01
     17.071  0.5012E-02  0.7342E-01
     17.220  0.4368E-02  0.7407E-01
     17.368  0.5141E-02  0.7483E-01
     17.517  0.5819E-02  0.7570E-01
     17.666  0.4295E-02  0.7634E-01
     17.815  0.5292E-02  0.7713E-01
     17.964  0.4936E-02  0.7786E-01
     18.113  0.5260E-02  0.7864E-01
     18.261  0.5710E-02  0.7949E-01
     18.410  0.5158E-02  0.8026E-01
     18.559  0.5324E-02  0.8105E-01
     18.708  0.4598E-02  0.8174E-01
     18.857  0.5371E-02  0.8254E-01
     19.006  0.6720E-02  0.8354E-01
     19.154  0.5188E-02  0.8431E-01
     19.303  0.4505E-02  0.8498E-01
     19.452  0.5668E-02  0.8582E-01
     19.601  0.5306E-02  0.8661E-01
     19.750  0.4596E-02  0.8730E-01
     19.898  0.7286E-02  0.8838E-01
     20.047  0.4982E-02  0.8912E-01
     20.196  0.5340E-02  0.8992E-01
     20.345  0.5112E-02  0.9068E-01
     20.494  0.5717E-02  0.9153E-01
     20.643  0.5422E-02  0.9233E-01
     20.791  0.6364E-02  0.9328E-01
     20.940  0.6727E-02  0.9428E-01
     21.089  0.6242E-02  0.9521E-01
     21.238  0.7050E-02  0.9626E-01
     21.387  0.5086E-02  0.9702E-01
     21.535  0.5075E-02  0.9777E-01
     21.684  0.6832E-02  0.9879E-01
     21.833  0.6293E-02  0.9973E-01
     21.982  0.4616E-02  0.1004E+00
     22.131  0.5951E-02  0.1013E+00
     22.280  0.5416E-02  0.1021E+00
     22.428  0.5733E-02  0.1030E+00
     22.577  0.5684E-02  0.1038E+00
     22.726  0.5959E-02  0.1047E+00
     22.875  0.5549E-02  0.1055E+00
     23.024  0.5674E-02  0.1064E+00
     23.172  0.5966E-02  0.1072E+00
     23.321  0.5766E-02  0.1081E+00
     23.470  0.6149E-02  0.1090E+00
     23.619  0.7260E-02  0.1101E+00
     23.768  0.7197E-02  0.1112E+00
     23.917  0.7444E-02  0.1123E+00
     24.065  0.6569E-02  0.1133E+00
     24.214  0.6056E-02  0.1142E+00
     24.363  0.6733E-02  0.1152E+00
     24.512  0.6114E-02  0.1161E+00
     24.661  0.6653E-02  0.1171E+00
     24.809  0.6356E-02  0.1180E+00
     24.958  0.5757E-02  0.1189E+00
     25.107  0.6085E-02  0.1198E+00
     25.256  0.5603E-02  0.1206E+00
     25.405  0.6615E-02  0.1216E+00
     25.554  0.7674E-02  0.1227E+00
     25.702  0.6912E-02  0.1238E+00
     25.851  0.6251E-02  0.1247E+00
     26.000  0.6689E-02  0.1257E+00
     26.149  0.5911E-02  0.1266E+00
     26.298  0.6440E-02  0.1275E+00
     26.446  0.7481E-02  0.1286E+00
     26.595  0.7090E-02  0.1297E+00
     26.744  0.5467E-02  0.1305E+00
     26.893  0.6444E-02  0.1315E+00
     27.042  0.4736E-02  0.1322E+00
     27.191  0.7099E-02  0.1332E+00
     27.339  0.5951E-02  0.1341E+00
     27.488  0.6379E-02  0.1351E+00
     27.637  0.5427E-02  0.1359E+00
     27.786  0.5946E-02  0.1368E+00
     27.935  0.4222E-02  0.1374E+00
     28.083  0.6677E-02  0.1384E+00
     28.232  0.5809E-02  0.1392E+00
     28.381  0.6145E-02  0.1402E+00
     28.530  0.4935E-02  0.1409E+00
     28.679  0.4038E-02  0.1415E+00
     28.828  0.5170E-02  0.1423E+00
     28.976  0.6422E-02  0.1432E+00
     29.125  0.4546E-02  0.1439E+00
     29.274  0.3810E-02  0.1445E+00
     29.423  0.4077E-02  0.1451E+00
     29.572  0.7041E-02  0.1461E+00
     29.720  0.5450E-02  0.1469E+00
     29.869  0.4336E-02  0.1476E+00
     30.018  0.5222E-02  0.1483E+00
     30.167  0.6994E-02  0.1494E+00
     30.316  0.5186E-02  0.1502E+00
     30.465  0.3190E-02  0.1506E+00
     30.613  0.5202E-02  0.1514E+00
     30.762  0.4111E-02  0.1520E+00
     30.911  0.3652E-02  0.1526E+00
     31.060  0.3449E-02  0.1531E+00
     31.209  0.3109E-02  0.1535E+00
     31.357  0.2821E-02  0.1540E+00
     31.506  0.2288E-02  0.1543E+00
     31.655  0.3134E-02  0.1548E+00
     31.804  0.2365E-02  0.1551E+00
     31.953  0.2535E-02  0.1555E+00
     32.102  0.2088E-02  0.1558E+00
     32.250  0.1957E-02  0.1561E+00
     32.399  0.2185E-02  0.1564E+00
     32.548  0.1981E-02  0.1567E+00
     32.697  0.1137E-02  0.1569E+00
     32.846  0.2629E-02  0.1573E+00
     32.995  0.1742E-02  0.1575E+00
     33.143  0.1509E-02  0.1578E+00
     33.292  0.1431E-02  0.1580E+00
     33.441  0.1545E-02  0.1582E+00
     33.590  0.1018E-02  0.1584E+00
     33.739  0.8250E-03  0.1585E+00
     33.887  0.1749E-02  0.1587E+00
     34.036  0.1518E-02  0.1590E+00
     34.185  0.5041E-03  0.1590E+00
     34.334  0.1144E-02  0.1592E+00
     34.483  0.9127E-03  0.1593E+00
     34.632  0.6536E-03  0.1594E+00
     34.780  0.5742E-03  0.1595E+00
     34.929  0.4211E-03  0.1596E+00
     35.078  0.7962E-03  0.1597E+00
     35.227  0.6040E-03  0.1598E+00
     35.376  0.2413E-03  0.1598E+00
     35.524  0.2244E-04  0.1598E+00
     35.673  0.2760E-03  0.1599E+00
     35.822  0.4497E-03  0.1599E+00
     35.971  0.1590E-03  0.1600E+00
     36.120  0.5470E-04  0.1600E+00
     36.269  0.5244E-04  0.1600E+00
     36.417  0.9408E-04  0.1600E+00
     36.566  0.3726E-06  0.1600E+00
     36.715  0.2855E-15  0.1600E+00
     36.864  0.0000E+00  0.1600E+00
     37.013  0.0000E+00  0.1600E+00
     37.161  0.0000E+00  0.1600E+00
     37.310  0.0000E+00  0.1600E+00
     37.459  0.0000E+00  0.1600E+00
     37.608  0.0000E+00  0.1600E+00
     37.757  0.0000E+00  0.1600E+00
     37.906  0.0000E+00  0.1600E+00
     38.054  0.0000E+00  0.1600E+00
     38.203  0.0000E+00  0.1600E+00
     38.352  0.0000E+00  0.1600E+00
