    1    1  100    1
  0.1408159E+02  0.2710538E-09  0.2710538E-09  0.2710538E-09  0.5000000E-15
  1.000000000000000E-004
  CAR 
 unknown system                          
      4    770      8
 
  0.2500000E-01  0.2500000E-01  0.2500000E-01  0.2500000E-03
    1       -4.264403   1.000000
    2       20.769893   0.000000
    3       21.161730   0.000000
    4       21.161738   0.000000
    5       22.315031   0.000000
    6       22.315039   0.000000
    7       22.519082   0.000000
    8       27.602963   0.000000
 
  0.7500000E-01  0.2500000E-01  0.2500000E-01  0.7500000E-03
    1       -4.167275   1.000000
    2       19.513301   0.000000
    3       20.126507   0.000000
    4       21.201678   0.000000
    5       22.395916   0.000000
    6       23.034489   0.000000
    7       23.383502   0.000000
    8       28.175573   0.000000
 
  0.1250000E+00  0.2500000E-01  0.2500000E-01  0.7500000E-03
    1       -3.924705   1.000000
    2       17.430030   0.000000
    3       19.520159   0.000000
    4       20.662992   0.000000
    5       23.188085   0.000000
    6       23.452456   0.000000
    7       24.171392   0.000000
    8       27.258223   0.000000
 
  0.1750000E+00  0.2500000E-01  0.2500000E-01  0.7500000E-03
    1       -3.537205   1.000000
    2       15.291717   0.000000
    3       19.017297   0.000000
    4       20.159589   0.000000
    5       23.526888   0.000000
    6       23.850678   0.000000
    7       24.747025   0.000000
    8       26.605207   0.000000
 
  0.2250000E+00  0.2500000E-01  0.2500000E-01  0.7500000E-03
    1       -3.005683   1.000000
    2       13.189720   0.000000
    3       18.629503   0.000000
    4       19.750688   0.000000
    5       23.471690   0.000000
    6       23.759662   0.000000
    7       24.570149   0.000000
    8       26.887434   0.000000
 
  0.2750000E+00  0.2500000E-01  0.2500000E-01  0.7500000E-03
    1       -2.331427   1.000000
    2       11.164438   0.000000
    3       18.358668   0.000000
    4       19.440959   0.000000
    5       23.090358   0.000000
    6       23.403184   0.000000
    7       23.857984   0.000000
    8       27.966897   0.000000
 
  0.3250000E+00  0.2500000E-01  0.2500000E-01  0.7500000E-03
    1       -1.516107   1.000000
    2        9.237134   1.000000
    3       18.203081   0.000000
    4       19.219750   0.000000
    5       22.352637   0.000000
    6       23.049008   0.000000
    7       23.388455   0.000000
    8       28.060366   0.000000
 
  0.3750000E+00  0.2500000E-01  0.2500000E-01  0.7500000E-03
    1       -0.562152   1.000000
    2        7.420732   1.000000
    3       18.157647   0.000000
    4       19.061508   0.000000
    5       21.726779   0.000000
    6       22.319619   0.000000
    7       23.415413   0.000000
    8       27.297264   0.000000
 
  0.4250000E+00  0.2500000E-01  0.2500000E-01  0.7500000E-03
    1        0.526130   1.000000
    2        5.725587   1.000000
    3       18.211849   0.000000
    4       18.924853   0.000000
    5       21.296919   0.000000
    6       21.705083   0.000000
    7       23.494223   0.000000
    8       26.678145   0.000000
 
  0.4750000E+00  0.2500000E-01  0.2500000E-01  0.7500000E-03
    1        1.733140   1.000000
    2        4.170239   1.000000
    3       18.345718   0.000000
    4       18.767457   0.000000
    5       21.126675   0.000000
    6       21.246100   0.000000
    7       23.577757   0.000000
    8       26.274961   0.000000
 
 -0.4750000E+00  0.2500000E-01  0.2500000E-01  0.7500000E-03
    1        2.504279   1.000000
    2        3.312161   1.000000
    3       18.523819   0.000000
    4       18.585470   0.000000
    5       20.988138   0.000000
    6       21.224757   0.000000
    7       23.613076   0.000000
    8       26.162158   0.000000
 
 -0.4250000E+00  0.2500000E-01  0.2500000E-01  0.7500000E-03
    1        1.320367   1.000000
    2        4.670058   1.000000
    3       18.418310   0.000000
    4       18.697368   0.000000
    5       20.978317   0.000000
    6       21.550618   0.000000
    7       23.568111   0.000000
    8       26.368556   0.000000
 
 -0.3750000E+00  0.2500000E-01  0.2500000E-01  0.7500000E-03
    1        0.148911   1.000000
    2        6.276482   1.000000
    3       18.310051   0.000000
    4       18.837514   0.000000
    5       21.245463   0.000000
    6       22.061170   0.000000
    7       23.491157   0.000000
    8       26.846413   0.000000
 
 -0.3250000E+00  0.2500000E-01  0.2500000E-01  0.7500000E-03
    1       -0.895337   1.000000
    2        8.013245   1.000000
    3       18.289376   0.000000
    4       18.967717   0.000000
    5       21.755438   0.000000
    6       22.711819   0.000000
    7       23.433446   0.000000
    8       27.517736   0.000000
 
 -0.2750000E+00  0.2500000E-01  0.2500000E-01  0.7500000E-03
    1       -1.803413   1.000000
    2        9.867834   1.000000
    3       18.372263   0.000000
    4       19.136298   0.000000
    5       22.430541   0.000000
    6       23.435678   0.000000
    7       23.464567   0.000000
    8       28.237968   0.000000
 
 -0.2250000E+00  0.2500000E-01  0.2500000E-01  0.7500000E-03
    1       -2.571953   1.000000
    2       11.829502   0.000000
    3       18.567162   0.000000
    4       19.379586   0.000000
    5       23.125911   0.000000
    6       23.545414   0.000000
    7       24.243143   0.000000
    8       27.428026   0.000000
 
 -0.1750000E+00  0.2500000E-01  0.2500000E-01  0.7500000E-03
    1       -3.198796   1.000000
    2       13.883369   0.000000
    3       18.878316   0.000000
    4       19.717544   0.000000
    5       23.408643   0.000000
    6       23.919760   0.000000
    7       24.814017   0.000000
    8       26.545709   0.000000
 
 -0.1250000E+00  0.2500000E-01  0.2500000E-01  0.7500000E-03
    1       -3.682410   1.000000
    2       16.003589   0.000000
    3       19.306513   0.000000
    4       20.155085   0.000000
    5       23.316536   0.000000
    6       23.887388   0.000000
    7       24.657082   0.000000
    8       26.611055   0.000000
 
 -0.7500000E-01  0.2500000E-01  0.2500000E-01  0.7500000E-03
    1       -4.021699   1.000000
    2       18.138086   0.000000
    3       19.849304   0.000000
    4       20.681370   0.000000
    5       22.713437   0.000000
    6       23.615253   0.000000
    7       23.898894   0.000000
    8       27.430612   0.000000
 
 -0.2500000E-01  0.2500000E-01  0.2500000E-01  0.7500000E-03
    1       -4.215837   1.000000
    2       20.139793   0.000000
    3       20.494019   0.000000
    4       21.187380   0.000000
    5       22.022980   0.000000
    6       23.041202   0.000000
    7       23.064030   0.000000
    8       27.993622   0.000000
 
  0.7500000E-01  0.7500000E-01  0.2500000E-01  0.7500000E-03
    1       -4.118727   1.000000
    2       19.453918   0.000000
    3       19.780626   0.000000
    4       20.990244   0.000000
    5       21.544481   0.000000
    6       23.825670   0.000000
    7       23.869951   0.000000
    8       27.417894   0.000000
 
  0.1250000E+00  0.7500000E-01  0.2500000E-01  0.1500000E-02
    1       -3.924689   1.000000
    2       18.154505   0.000000
    3       18.819022   0.000000
    4       20.849684   0.000000
    5       21.604188   0.000000
    6       24.424762   0.000000
    7       24.750768   0.000000
    8       26.309852   0.000000
 
  0.1750000E+00  0.7500000E-01  0.2500000E-01  0.1500000E-02
    1       -3.585559   1.000000
    2       16.067028   0.000000
    3       18.278262   0.000000
    4       20.355818   0.000000
    5       22.315181   0.000000
    6       24.643586   0.000000
    7       25.357943   0.000000
    8       25.510978   0.000000
 
  0.2250000E+00  0.7500000E-01  0.2500000E-01  0.1500000E-02
    1       -3.102146   1.000000
    2       13.960866   0.000000
    3       17.854966   0.000000
    4       19.903659   0.000000
    5       22.569563   0.000000
    6       24.417410   0.000000
    7       25.403943   0.000000
    8       25.618918   0.000000
 
  0.2750000E+00  0.7500000E-01  0.2500000E-01  0.1500000E-02
    1       -2.475585   1.000000
    2       11.913286   0.000000
    3       17.551178   0.000000
    4       19.515309   0.000000
    5       22.089028   0.000000
    6       24.282756   0.000000
    7       24.975898   0.000000
    8       26.344450   0.000000
 
  0.3250000E+00  0.7500000E-01  0.2500000E-01  0.1500000E-02
    1       -1.707387   1.000000
    2        9.955145   1.000000
    3       17.368768   0.000000
    4       19.167802   0.000000
    5       21.435292   0.000000
    6       24.098289   0.000000
    7       24.337570   0.000000
    8       27.569937   0.000000
 
  0.3750000E+00  0.7500000E-01  0.2500000E-01  0.1500000E-02
    1       -0.799697   1.000000
    2        8.102750   1.000000
    3       17.304947   0.000000
    4       18.813904   0.000000
    5       20.928791   0.000000
    6       23.386962   0.000000
    7       24.281809   0.000000
    8       28.195870   0.000000
 
  0.4250000E+00  0.7500000E-01  0.2500000E-01  0.1500000E-02
    1        0.244110   1.000000
    2        6.367481   1.000000
    3       17.353132   0.000000
    4       18.422832   0.000000
    5       20.676374   0.000000
    6       22.713289   0.000000
    7       24.313270   0.000000
    8       27.703188   0.000000
 
  0.4750000E+00  0.7500000E-01  0.2500000E-01  0.1500000E-02
    1        1.415192   1.000000
    2        4.762066   1.000000
    3       17.486911   0.000000
    4       18.039949   0.000000
    5       20.674158   0.000000
    6       22.157568   0.000000
    7       24.350152   0.000000
    8       27.295799   0.000000
 
 -0.4750000E+00  0.7500000E-01  0.2500000E-01  0.1500000E-02
    1        2.599728   1.000000
    2        3.403653   1.000000
    3       17.483225   0.000000
    4       17.933472   0.000000
    5       20.860420   0.000000
    6       21.761272   0.000000
    7       24.352467   0.000000
    8       27.136873   0.000000
 
 -0.4250000E+00  0.7500000E-01  0.2500000E-01  0.1500000E-02
    1        1.827941   1.000000
    2        4.262382   1.000000
    3       17.234331   0.000000
    4       18.235721   0.000000
    5       21.106409   0.000000
    6       21.634664   0.000000
    7       24.292651   0.000000
    8       27.265215   0.000000
 
 -0.3750000E+00  0.7500000E-01  0.2500000E-01  0.1500000E-02
    1        0.621172   1.000000
    2        5.816897   1.000000
    3       17.036432   0.000000
    4       18.644308   0.000000
    5       21.209885   0.000000
    6       21.981860   0.000000
    7       24.202393   0.000000
    8       27.645869   0.000000
 
 -0.3250000E+00  0.7500000E-01  0.2500000E-01  0.1500000E-02
    1       -0.466678   1.000000
    2        7.510614   1.000000
    3       16.941623   0.000000
    4       19.075878   0.000000
    5       21.389232   0.000000
    6       22.605898   0.000000
    7       24.123574   0.000000
    8       28.193013   0.000000
 
 -0.2750000E+00  0.7500000E-01  0.2500000E-01  0.1500000E-02
    1       -1.420219   1.000000
    2        9.324948   1.000000
    3       16.961984   0.000000
    4       19.484579   0.000000
    5       21.788733   0.000000
    6       23.357623   0.000000
    7       24.094335   0.000000
    8       28.286276   0.000000
 
 -0.2250000E+00  0.7500000E-01  0.2500000E-01  0.1500000E-02
    1       -2.235178   1.000000
    2       11.248979   0.000000
    3       17.102355   0.000000
    4       19.870919   0.000000
    5       22.375098   0.000000
    6       24.044590   0.000000
    7       24.251989   0.000000
    8       26.990285   0.000000
 
 -0.1750000E+00  0.7500000E-01  0.2500000E-01  0.1500000E-02
    1       -2.909140   1.000000
    2       13.268707   0.000000
    3       17.365522   0.000000
    4       20.272419   0.000000
    5       22.938338   0.000000
    6       24.171646   0.000000
    7       24.968004   0.000000
    8       25.924428   0.000000
 
 -0.1250000E+00  0.7500000E-01  0.2500000E-01  0.1500000E-02
    1       -3.440426   1.000000
    2       15.359179   0.000000
    3       17.749426   0.000000
    4       20.717944   0.000000
    5       22.924296   0.000000
    6       24.259568   0.000000
    7       25.260329   0.000000
    8       25.659353   0.000000
 
 -0.7500000E-01  0.7500000E-01  0.2500000E-01  0.1500000E-02
    1       -3.827737   1.000000
    2       17.464563   0.000000
    3       18.259459   0.000000
    4       21.172787   0.000000
    5       22.303881   0.000000
    6       24.056450   0.000000
    7       24.832778   0.000000
    8       26.352679   0.000000
 
 -0.2500000E-01  0.7500000E-01  0.2500000E-01  0.1500000E-02
    1       -4.070208   1.000000
    2       18.834463   0.000000
    3       19.483318   0.000000
    4       21.124680   0.000000
    5       22.117083   0.000000
    6       23.618700   0.000000
    7       23.993462   0.000000
    8       27.407029   0.000000
 
  0.1250000E+00  0.1250000E+00  0.2500000E-01  0.7500000E-03
    1       -3.779237   1.000000
    2       18.118187   0.000000
    3       18.430106   0.000000
    4       20.165905   0.000000
    5       20.450000   0.000000
    6       25.022111   0.000000
    7       25.549273   0.000000
    8       25.619583   0.000000
 
  0.1750000E+00  0.1250000E+00  0.2500000E-01  0.1500000E-02
    1       -3.488704   1.000000
    2       16.867613   0.000000
    3       17.557968   0.000000
    4       19.915365   0.000000
    5       20.471397   0.000000
    6       23.872244   0.000000
    7       26.207490   0.000000
    8       26.410742   0.000000
 
  0.2250000E+00  0.1250000E+00  0.2500000E-01  0.1500000E-02
    1       -3.053719   1.000000
    2       14.826685   0.000000
    3       17.090255   0.000000
    4       19.397462   0.000000
    5       20.975791   0.000000
    6       23.262946   0.000000
    7       26.428630   0.000000
    8       26.804421   0.000000
 
  0.2750000E+00  0.1250000E+00  0.2500000E-01  0.1500000E-02
    1       -2.475328   1.000000
    2       12.777430   0.000000
    3       16.746962   0.000000
    4       18.888268   0.000000
    5       20.723226   0.000000
    6       23.727278   0.000000
    7       26.360455   0.000000
    8       26.596182   0.000000
 
  0.3250000E+00  0.1250000E+00  0.2500000E-01  0.1500000E-02
    1       -1.754877   1.000000
    2       10.797780   0.000000
    3       16.525619   0.000000
    4       18.341864   0.000000
    5       20.208861   0.000000
    6       24.633782   0.000000
    7       25.698983   0.000000
    8       26.806357   0.000000
 
  0.3750000E+00  0.1250000E+00  0.2500000E-01  0.1500000E-02
    1       -0.894283   1.000000
    2        8.914939   1.000000
    3       16.424164   0.000000
    4       17.735283   0.000000
    5       19.874116   0.000000
    6       24.768054   0.000000
    7       25.481301   0.000000
    8       27.532182   0.000000
 
  0.4250000E+00  0.1250000E+00  0.2500000E-01  0.1500000E-02
    1        0.103685   1.000000
    2        7.143523   1.000000
    3       16.423162   0.000000
    4       17.132679   0.000000
    5       19.770834   0.000000
    6       24.116068   0.000000
    7       25.676856   0.000000
    8       28.715598   0.000000
 
  0.4750000E+00  0.1250000E+00  0.2500000E-01  0.1500000E-02
    1        1.233242   1.000000
    2        5.495355   1.000000
    3       16.335395   0.000000
    4       16.783666   0.000000
    5       19.861743   0.000000
    6       23.512596   0.000000
    7       25.715612   0.000000
    8       29.023851   0.000000
 
 -0.4750000E+00  0.1250000E+00  0.2500000E-01  0.1500000E-02
    1        2.461469   1.000000
    2        4.006701   1.000000
    3       15.924063   0.000000
    4       16.962582   0.000000
    5       20.115094   0.000000
    6       23.020166   0.000000
    7       25.652743   0.000000
    8       28.925396   0.000000
 
 -0.4250000E+00  0.1250000E+00  0.2500000E-01  0.1500000E-02
    1        2.461556   1.000000
    2        4.006510   1.000000
    3       15.542327   0.000000
    4       17.333322   0.000000
    5       20.512264   0.000000
    6       22.658245   0.000000
    7       25.524993   0.000000
    8       29.043033   0.000000
 
 -0.3750000E+00  0.1250000E+00  0.2500000E-01  0.1500000E-02
    1        1.233182   1.000000
    2        5.494599   1.000000
    3       15.265791   0.000000
    4       17.822138   0.000000
    5       21.032478   0.000000
    6       22.444003   0.000000
    7       25.372020   0.000000
    8       29.350774   0.000000
 
 -0.3250000E+00  0.1250000E+00  0.2500000E-01  0.1500000E-02
    1        0.103579   1.000000
    2        7.142247   1.000000
    3       15.108278   0.000000
    4       18.407800   0.000000
    5       21.633029   0.000000
    6       22.423695   0.000000
    7       25.234567   0.000000
    8       29.501604   0.000000
 
 -0.2750000E+00  0.1250000E+00  0.2500000E-01  0.1500000E-02
    1       -0.894411   1.000000
    2        8.912344   1.000000
    3       15.075622   0.000000
    4       19.065353   0.000000
    5       22.147421   0.000000
    6       22.760507   0.000000
    7       25.126173   0.000000
    8       28.058789   0.000000
 
 -0.2250000E+00  0.1250000E+00  0.2500000E-01  0.1500000E-02
    1       -1.755008   1.000000
    2       10.792359   0.000000
    3       15.171640   0.000000
    4       19.756768   0.000000
    5       22.514239   0.000000
    6       23.490575   0.000000
    7       25.037539   0.000000
    8       26.621366   0.000000
 
 -0.1750000E+00  0.1250000E+00  0.2500000E-01  0.1500000E-02
    1       -2.475449   1.000000
    2       12.764252   0.000000
    3       15.400472   0.000000
    4       20.429140   0.000000
    5       22.894406   0.000000
    6       24.253592   0.000000
    7       24.946110   0.000000
    8       25.515603   0.000000
 
 -0.1250000E+00  0.1250000E+00  0.2500000E-01  0.1500000E-02
    1       -3.053822   1.000000
    2       14.773948   0.000000
    3       15.791505   0.000000
    4       21.003396   0.000000
    5       22.902964   0.000000
    6       24.589558   0.000000
    7       24.932119   0.000000
    8       25.317512   0.000000
 
 -0.7500000E-01  0.1250000E+00  0.2500000E-01  0.1500000E-02
    1       -3.488783   1.000000
    2       16.099738   0.000000
    3       17.013490   0.000000
    4       21.179355   0.000000
    5       22.566065   0.000000
    6       24.462538   0.000000
    7       25.226074   0.000000
    8       25.532936   0.000000
 
 -0.2500000E-01  0.1250000E+00  0.2500000E-01  0.1500000E-02
    1       -3.779283   1.000000
    2       16.736044   0.000000
    3       18.907943   0.000000
    4       20.623876   0.000000
    5       22.841921   0.000000
    6       23.952584   0.000000
    7       24.766677   0.000000
    8       26.444844   0.000000
 
  0.1750000E+00  0.1750000E+00  0.2500000E-01  0.7500000E-03
    1       -3.246844   1.000000
    2       16.907041   0.000000
    3       17.223779   0.000000
    4       18.992675   0.000000
    5       19.329258   0.000000
    6       22.566907   0.000000
    7       27.363336   0.000000
    8       27.411090   0.000000
 
  0.2250000E+00  0.1750000E+00  0.2500000E-01  0.1500000E-02
    1       -2.860529   1.000000
    2       15.716204   0.000000
    3       16.430935   0.000000
    4       18.677465   0.000000
    5       19.207999   0.000000
    6       21.688973   0.000000
    7       27.971916   0.000000
    8       28.100901   0.000000
 
  0.2750000E+00  0.1750000E+00  0.2500000E-01  0.1500000E-02
    1       -2.330667   1.000000
    2       13.736172   0.000000
    3       16.039094   0.000000
    4       17.966368   0.000000
    5       19.382845   0.000000
    6       21.793000   0.000000
    7       27.843192   0.000000
    8       28.356755   0.000000
 
  0.3250000E+00  0.1750000E+00  0.2500000E-01  0.1500000E-02
    1       -1.658488   1.000000
    2       11.755695   0.000000
    3       15.772610   0.000000
    4       17.176887   0.000000
    5       19.134222   0.000000
    6       22.806046   0.000000
    7       27.224736   0.000000
    8       28.423528   0.000000
 
  0.3750000E+00  0.1750000E+00  0.2500000E-01  0.1500000E-02
    1       -0.845690   1.000000
    2        9.851783   1.000000
    3       15.612640   0.000000
    4       16.382193   0.000000
    5       18.936517   0.000000
    6       24.110706   0.000000
    7       26.496553   0.000000
    8       28.472104   0.000000
 
  0.4250000E+00  0.1750000E+00  0.2500000E-01  0.1500000E-02
    1        0.105334   1.000000
    2        8.049733   1.000000
    3       15.389663   0.000000
    4       15.820784   0.000000
    5       18.890013   0.000000
    6       25.298912   0.000000
    7       25.921249   0.000000
    8       28.616005   0.000000
 
  0.4750000E+00  0.1750000E+00  0.2500000E-01  0.1500000E-02
    1        1.190378   1.000000
    2        6.364006   1.000000
    3       14.805011   0.000000
    4       15.832131   0.000000
    5       18.994271   0.000000
    6       25.046060   0.000000
    7       26.537434   0.000000
    8       29.112455   0.000000
 
 -0.4750000E+00  0.1750000E+00  0.2500000E-01  0.1500000E-02
    1        2.394935   1.000000
    2        4.814206   1.000000
    3       14.238105   0.000000
    4       16.057612   0.000000
    5       19.243060   0.000000
    6       24.529238   0.000000
    7       26.886093   0.000000
    8       30.171711   0.000000
 
 -0.4250000E+00  0.1750000E+00  0.2500000E-01  0.1500000E-02
    1        3.171269   1.000000
    2        3.950968   1.000000
    3       13.778976   0.000000
    4       16.417798   0.000000
    5       19.630494   0.000000
    6       24.114353   0.000000
    7       26.855485   0.000000
    8       31.180103   0.000000
 
 -0.3750000E+00  0.1750000E+00  0.2500000E-01  0.1500000E-02
    1        1.982641   1.000000
    2        5.311130   1.000000
    3       13.441852   0.000000
    4       16.899337   0.000000
    5       20.149988   0.000000
    6       23.819180   0.000000
    7       26.691852   0.000000
    8       31.035433   0.000000
 
 -0.3250000E+00  0.1750000E+00  0.2500000E-01  0.1500000E-02
    1        0.813948   1.000000
    2        6.907995   1.000000
    3       13.233094   0.000000
    4       17.494612   0.000000
    5       20.794089   0.000000
    6       23.655841   0.000000
    7       26.492218   0.000000
    8       29.480755   0.000000
 
 -0.2750000E+00  0.1750000E+00  0.2500000E-01  0.1500000E-02
    1       -0.227259   1.000000
    2        8.628513   1.000000
    3       13.157302   0.000000
    4       18.193103   0.000000
    5       21.550447   0.000000
    6       23.630262   0.000000
    7       26.257374   0.000000
    8       27.880018   0.000000
 
 -0.2250000E+00  0.1750000E+00  0.2500000E-01  0.1500000E-02
    1       -1.132553   1.000000
    2       10.451425   0.000000
    3       13.223167   0.000000
    4       18.973678   0.000000
    5       22.396114   0.000000
    6       23.740707   0.000000
    7       25.797666   0.000000
    8       26.589795   0.000000
 
 -0.1750000E+00  0.1750000E+00  0.2500000E-01  0.1500000E-02
    1       -1.898665   1.000000
    2       12.310736   0.000000
    3       13.482731   0.000000
    4       19.793960   0.000000
    5       23.283585   0.000000
    6       23.878280   0.000000
    7       24.866099   0.000000
    8       25.972281   0.000000
 
 -0.1250000E+00  0.1750000E+00  0.2500000E-01  0.1500000E-02
    1       -2.523536   1.000000
    2       13.507046   0.000000
    3       14.610669   0.000000
    4       20.525156   0.000000
    5       23.309901   0.000000
    6       24.108414   0.000000
    7       24.856027   0.000000
    8       25.414636   0.000000
 
 -0.7500000E-01  0.1750000E+00  0.2500000E-01  0.1500000E-02
    1       -3.005579   1.000000
    2       14.030492   0.000000
    3       16.563236   0.000000
    4       20.724959   0.000000
    5       22.900483   0.000000
    6       24.499927   0.000000
    7       25.018272   0.000000
    8       25.418931   0.000000
 
 -0.2500000E-01  0.1750000E+00  0.2500000E-01  0.1500000E-02
    1       -3.343742   1.000000
    2       14.609181   0.000000
    3       18.444912   0.000000
    4       20.152223   0.000000
    5       23.262919   0.000000
    6       24.018000   0.000000
    7       25.124176   0.000000
    8       26.022150   0.000000
 
  0.2250000E+00  0.2250000E+00  0.2500000E-01  0.7500000E-03
    1       -2.523019   1.000000
    2       15.845096   0.000000
    3       16.175221   0.000000
    4       17.671373   0.000000
    5       17.974784   0.000000
    6       20.575379   0.000000
    7       29.141748   0.000000
    8       29.173004   0.000000
 
  0.2750000E+00  0.2250000E+00  0.2500000E-01  0.1500000E-02
    1       -2.041930   1.000000
    2       14.717076   0.000000
    3       15.448002   0.000000
    4       16.850834   0.000000
    5       18.059966   0.000000
    6       20.177555   0.000000
    7       29.352316   0.000000
    8       29.907260   0.000000
 
  0.3250000E+00  0.2250000E+00  0.2500000E-01  0.1500000E-02
    1       -1.418446   1.000000
    2       12.805886   0.000000
    3       15.116236   0.000000
    4       15.903237   0.000000
    5       18.201528   0.000000
    6       20.795510   0.000000
    7       28.867933   0.000000
    8       30.168306   0.000000
 
  0.3750000E+00  0.2250000E+00  0.2500000E-01  0.1500000E-02
    1       -0.654048   1.000000
    2       10.902125   0.000000
    3       14.734844   0.000000
    4       15.156549   0.000000
    5       18.123837   0.000000
    6       22.048446   0.000000
    7       28.176509   0.000000
    8       30.190280   0.000000
 
  0.4250000E+00  0.2250000E+00  0.2500000E-01  0.1500000E-02
    1        0.249112   1.000000
    2        9.079485   1.000000
    3       13.973953   0.000000
    4       14.997369   0.000000
    5       18.099287   0.000000
    6       23.532850   0.000000
    7       27.470822   0.000000
    8       30.087244   0.000000
 
  0.4750000E+00  0.2250000E+00  0.2500000E-01  0.1500000E-02
    1        1.287767   1.000000
    2        7.362811   1.000000
    3       13.224332   0.000000
    4       15.060012   0.000000
    5       18.193962   0.000000
    6       25.081396   0.000000
    7       26.842094   0.000000
    8       29.924450   0.000000
 
 -0.4750000E+00  0.2250000E+00  0.2500000E-01  0.1500000E-02
    1        2.453560   1.000000
    2        5.769567   1.000000
    3       12.581406   0.000000
    4       15.260850   0.000000
    5       18.419922   0.000000
    6       26.070782   0.000000
    7       26.787578   0.000000
    8       29.812089   0.000000
 
 -0.4250000E+00  0.2250000E+00  0.2500000E-01  0.1500000E-02
    1        3.644517   1.000000
    2        4.405584   1.000000
    3       12.061395   0.000000
    4       15.590187   0.000000
    5       18.779128   0.000000
    6       25.721677   0.000000
    7       27.728879   0.000000
    8       30.049772   0.000000
 
 -0.3750000E+00  0.2250000E+00  0.2500000E-01  0.1500000E-02
    1        2.865608   1.000000
    2        5.267324   1.000000
    3       11.671581   0.000000
    4       16.043860   0.000000
    5       19.271131   0.000000
    6       25.392194   0.000000
    7       27.967293   0.000000
    8       30.611224   0.000000
 
 -0.3250000E+00  0.2250000E+00  0.2500000E-01  0.1500000E-02
    1        1.662495   1.000000
    2        6.805244   1.000000
    3       11.417674   0.000000
    4       16.617540   0.000000
    5       19.890600   0.000000
    6       25.173950   0.000000
    7       27.761348   0.000000
    8       29.447131   0.000000
 
 -0.2750000E+00  0.2250000E+00  0.2500000E-01  0.1500000E-02
    1        0.579584   1.000000
    2        8.463157   1.000000
    3       11.311121   0.000000
    4       17.304036   0.000000
    5       20.630180   0.000000
    6       25.078136   0.000000
    7       27.164161   0.000000
    8       28.061639   0.000000
 
 -0.2250000E+00  0.2250000E+00  0.2500000E-01  0.1500000E-02
    1       -0.369314   1.000000
    2       10.156358   0.801926
    3       11.417859   0.000000
    4       18.091603   0.000000
    5       21.474862   0.000000
    6       25.097301   0.000000
    7       25.869780   0.000000
    8       27.307838   0.000000
 
 -0.1750000E+00  0.2250000E+00  0.2500000E-01  0.1500000E-02
    1       -1.180225   1.000000
    2       11.192251   0.000000
    3       12.416082   0.000000
    4       18.950154   0.000000
    5       22.391667   0.000000
    6       24.435178   0.000000
    7       25.265699   0.000000
    8       26.603018   0.000000
 
 -0.1250000E+00  0.2250000E+00  0.2500000E-01  0.1500000E-02
    1       -1.850767   1.000000
    2       11.569281   0.000000
    3       14.282706   0.000000
    4       19.786837   0.000000
    5       23.019755   0.000000
    6       23.562472   0.000000
    7       25.281692   0.000000
    8       25.982864   0.000000
 
 -0.7500000E-01  0.2250000E+00  0.2500000E-01  0.1500000E-02
    1       -2.379307   1.000000
    2       11.993767   0.000000
    3       16.256081   0.000000
    4       20.213026   0.000000
    5       22.550025   0.000000
    6       24.232001   0.000000
    7       24.620649   0.000000
    8       26.173725   0.000000
 
 -0.2500000E-01  0.2250000E+00  0.2500000E-01  0.1500000E-02
    1       -2.764566   1.000000
    2       12.532206   0.000000
    3       18.099634   0.000000
    4       19.764266   0.000000
    5       23.018994   0.000000
    6       23.817371   0.000000
    7       24.693604   0.000000
    8       26.653676   0.000000
 
  0.2750000E+00  0.2750000E+00  0.2500000E-01  0.7500000E-03
    1       -1.609820   1.000000
    2       14.929140   0.000000
    3       15.289146   0.000000
    4       15.615291   0.000000
    5       16.966198   0.000000
    6       19.271970   0.000000
    7       30.636033   0.000000
    8       30.908181   0.000000
 