 running on    4 total cores
 distrk:  each k-point on    4 cores,    1 groups
 distr:  one band on    1 cores,    4 groups
 vasp.6.2.0 18Jan21 (build Aug 12 2022 13:00:08) complex                        
  
 POSCAR found type information on POSCAR Si
 POSCAR found :  1 types and       1 ions
 scaLAPACK will be used
 LDA part: xc-table for Pade appr. of Perdew
 POSCAR, INCAR and KPOINTS ok, starting setup
 FFT: planning ...
 WAVECAR not read
 entering main loop
       N       E                     dE             d eps       ncg     rms          rms(c)
DAV:   1    -0.331275894531E+01   -0.33128E+01   -0.14721E+03 13680   0.276E+02
DAV:   2    -0.489698886385E+01   -0.15842E+01   -0.15301E+01 18528   0.236E+01
DAV:   3    -0.490423344353E+01   -0.72446E-02   -0.72400E-02 13672   0.161E+00
DAV:   4    -0.490423914236E+01   -0.56988E-05   -0.56981E-05 20848   0.461E-02
DAV:   5    -0.490423914236E+01   -0.85691E-11   -0.88847E-09 13736   0.295E-04    0.280E+00
DAV:   6    -0.489074489715E+01    0.13494E-01   -0.38919E-03 14240   0.273E-01    0.155E+00
DAV:   7    -0.488297647701E+01    0.77684E-02   -0.78919E-03 14640   0.388E-01    0.134E-01
DAV:   8    -0.488293829821E+01    0.38179E-04   -0.24983E-05 18472   0.396E-02    0.146E-02
DAV:   9    -0.488293861907E+01   -0.32086E-06   -0.34203E-07 15624   0.331E-03
   1 F= -.48829386E+01 E0= -.48826565E+01  d E =-.488294E+01
 curvature:   0.00 expect dE= 0.000E+00 dE for cont linesearch  0.000E+00
 trial: gam= 0.00000 g(F)=  0.458E-66 g(S)=  0.613E-02 ort = 0.000E+00 (trialstep = 0.100E+01)
 search vector abs. value=  0.613E-02
 bond charge predicted
       N       E                     dE             d eps       ncg     rms          rms(c)
DAV:   1    -0.488729266550E+01   -0.43544E-02   -0.95768E-02 13416   0.121E+00    0.293E-01
DAV:   2    -0.488625117312E+01    0.10415E-02   -0.51352E-04 17088   0.164E-01    0.164E-01
DAV:   3    -0.488564400877E+01    0.60716E-03   -0.69006E-04 13552   0.110E-01    0.491E-02
DAV:   4    -0.488564311088E+01    0.89789E-06   -0.12572E-06 18720   0.962E-03    0.415E-02
DAV:   5    -0.488563938717E+01    0.37237E-05   -0.25231E-07  9840   0.346E-03    0.831E-03
DAV:   6    -0.488563963067E+01   -0.24351E-06   -0.81956E-09  6888   0.759E-04
   2 F= -.48856396E+01 E0= -.48853298E+01  d E =-.270101E-02
 trial-energy change:   -0.002701  1 .order   -0.002773   -0.006129    0.000584
 step:   0.9077(harm=  0.9130)  dis= 0.00000  next Energy=    -4.885667 (dE=-0.273E-02)
 bond charge predicted
       N       E                     dE             d eps       ncg     rms          rms(c)
DAV:   1    -0.488568036962E+01   -0.40982E-04   -0.82311E-04 13408   0.113E-01    0.265E-02
DAV:   2    -0.488567135994E+01    0.90097E-05   -0.43948E-06 17016   0.151E-02    0.149E-02
DAV:   3    -0.488566638968E+01    0.49703E-05   -0.60101E-06 13568   0.103E-02    0.472E-03
DAV:   4    -0.488566642216E+01   -0.32478E-07   -0.10438E-08  6504   0.893E-04    0.398E-03
DAV:   5    -0.488566661325E+01   -0.19109E-06   -0.29713E-09  6312   0.411E-04    0.563E-04
DAV:   6    -0.488566659186E+01    0.21389E-07   -0.96208E-11  6336   0.792E-05
   3 F= -.48856666E+01 E0= -.48853603E+01  d E =-.272797E-02
 curvature:  -0.45 expect dE=-0.389E-08 dE for cont linesearch -0.389E-08
 trial: gam=-0.00118 g(F)=  0.340E-65 g(S)=  0.856E-08 ort = 0.724E-05 (trialstep = 0.982E+00)
 search vector abs. value=  0.100E-09
 reached required accuracy - stopping structural energy minimisation
