unknown system                          
           1
     2.347395    0.000000    1.355268
     0.782465    2.213145    1.355268
     0.000000    0.000000    2.710538
   Si
     1
Direct configuration=     1
   0.00000000  0.00000000  0.00000000
unknown system                          
           1
     2.370700   -0.000000    1.368723
     0.790233    2.235117    1.368723
    -0.000000   -0.000000    2.737448
   Si
     1
Direct configuration=     2
  -0.00000000  0.00000000  0.00000000
unknown system                          
           1
     2.368548   -0.000000    1.367480
     0.789516    2.233088    1.367480
    -0.000000   -0.000000    2.734963
   Si
     1
Direct configuration=     3
  -0.00000000  0.00000000  0.00000000
