unknown system                          
   1.00000000000000     
     1.733850   -0.000000    0.000000
     0.000000    1.733850    0.000000
    -0.000000   -0.000000    1.733850
   Fe
     2
Direct
  0.000000  0.000000  0.000000
  0.500000  0.500000  0.500000
 
   28   28   28
  196.97      188.89      166.48      134.58      99.515      67.177      41.553      24.149      14.201      9.5835    
  7.5971      6.3385      5.5610      5.1751      5.0636      5.1751      5.5610      6.3385      7.5971      9.5835    
  14.201      24.149      41.553      67.177      99.515      134.58      166.48      188.89      188.89      181.20    
  159.81      129.33      95.747      64.719      40.109      23.403      13.887      9.4930      7.5713      6.3311    
  5.5734      5.1972      5.0901      5.1972      5.5734      6.3311      7.5713      9.4930      13.887      23.403    
  40.109      64.719      95.747      129.33      159.81      181.20      166.48      159.81      141.24      114.64    
  85.162      57.791      36.029      21.311      13.021      9.2419      7.4882      6.3039      5.6049      5.2564    
  5.1619      5.2564      5.6049      6.3039      7.4882      9.2419      13.021      21.311      36.029      57.791    
  85.162      114.64      141.24      159.81      134.58      129.33      114.64      93.444      69.771      47.655    
  30.076      18.298      11.812      8.8787      7.3279      6.2481      5.6389      5.3381      5.2599      5.3381    
  5.6389      6.2481      7.3279      8.8787      11.812      18.298      30.076      47.655      69.771      93.444    
  114.64      129.33      99.515      95.747      85.162      69.771      52.453      36.227      23.421      15.021    
  10.554      8.4363      7.0755      6.1593      5.6581      5.4237      5.3603      5.4237      5.6581      6.1593    
  7.0755      8.4363      10.554      15.021      23.421      36.227      52.453      69.771      85.162      95.747    
  67.177      64.719      57.791      47.655      36.227      25.586      17.368      12.167      9.4611      7.9028    
  6.7491      6.0360      5.6544      5.4949      5.4470      5.4949      5.6544      6.0360      6.7491      7.9028    
  9.4611      12.167      17.368      25.586      36.227      47.655      57.791      64.719      41.553      40.109    
  36.029      30.076      23.421      17.368      12.863      10.133      8.5195      7.2813      6.4005      5.8823    
  5.6306      5.5322      5.5093      5.5322      5.6306      5.8823      6.4005      7.2813      8.5195      10.133    
  12.863      17.368      23.421      30.076      36.029      40.109      24.149      23.403      21.311      18.298    
  15.021      12.167      10.133      8.7514      7.5995      6.6755      6.0632      5.7243      5.5804      5.5370    
  5.5313      5.5370      5.5804      5.7243      6.0632      6.6755      7.5995      8.7514      10.133      12.167    
  15.021      18.298      21.311      23.403      14.201      13.887      13.021      11.812      10.554      9.4611    
  8.5195      7.5995      6.7795      6.1669      5.7770      5.5814      5.5123      5.5059      5.5093      5.5059    
  5.5123      5.5814      5.7770      6.1669      6.7795      7.5995      8.5195      9.4611      10.554      11.812    
  13.021      13.887      9.5835      9.4930      9.2419      8.8787      8.4363      7.9028      7.2813      6.6755    
  6.1669      5.7948      5.5693      5.4604      5.4323      5.4394      5.4470      5.4394      5.4323      5.4604    
  5.5693      5.7948      6.1669      6.6755      7.2813      7.9028      8.4363      8.8787      9.2419      9.4930    
  7.5971      7.5713      7.4882      7.3279      7.0755      6.7491      6.4005      6.0632      5.7770      5.5693    
  5.4357      5.3706      5.3529      5.3567      5.3603      5.3567      5.3529      5.3706      5.4357      5.5693    
  5.7770      6.0632      6.4005      6.7491      7.0755      7.3279      7.4882      7.5713      6.3385      6.3311    
  6.3039      6.2481      6.1593      6.0360      5.8823      5.7243      5.5814      5.4604      5.3706      5.3141    
  5.2817      5.2650      5.2599      5.2650      5.2817      5.3141      5.3706      5.4604      5.5814      5.7243    
  5.8823      6.0360      6.1593      6.2481      6.3039      6.3311      5.5610      5.5734      5.6049      5.6389    
  5.6581      5.6544      5.6306      5.5804      5.5123      5.4323      5.3529      5.2817      5.2203      5.1777    
  5.1619      5.1777      5.2203      5.2817      5.3529      5.4323      5.5123      5.5804      5.6306      5.6544    
  5.6581      5.6389      5.6049      5.5734      5.1751      5.1972      5.2564      5.3381      5.4237      5.4949    
  5.5322      5.5370      5.5059      5.4394      5.3567      5.2650      5.1777      5.1134      5.0901      5.1134    
  5.1777      5.2650      5.3567      5.4394      5.5059      5.5370      5.5322      5.4949      5.4237      5.3381    
  5.2564      5.1972      5.0636      5.0901      5.1619      5.2599      5.3603      5.4470      5.5093      5.5313    
  5.5093      5.4470      5.3603      5.2599      5.1619      5.0901      5.0636      5.0901      5.1619      5.2599    
  5.3603      5.4470      5.5093      5.5313      5.5093      5.4470      5.3603      5.2599      5.1619      5.0901    
  5.1751      5.1972      5.2564      5.3381      5.4237      5.4949      5.5322      5.5370      5.5059      5.4394    
  5.3567      5.2650      5.1777      5.1134      5.0901      5.1134      5.1777      5.2650      5.3567      5.4394    
  5.5059      5.5370      5.5322      5.4949      5.4237      5.3381      5.2564      5.1972      5.5610      5.5734    
  5.6049      5.6389      5.6581      5.6544      5.6306      5.5804      5.5123      5.4323      5.3529      5.2817    
  5.2203      5.1777      5.1619      5.1777      5.2203      5.2817      5.3529      5.4323      5.5123      5.5804    
  5.6306      5.6544      5.6581      5.6389      5.6049      5.5734      6.3385      6.3311      6.3039      6.2481    
  6.1593      6.0360      5.8823      5.7243      5.5814      5.4604      5.3706      5.3141      5.2817      5.2650    
  5.2599      5.2650      5.2817      5.3141      5.3706      5.4604      5.5814      5.7243      5.8823      6.0360    
  6.1593      6.2481      6.3039      6.3311      7.5971      7.5713      7.4882      7.3279      7.0755      6.7491    
  6.4005      6.0632      5.7770      5.5693      5.4357      5.3706      5.3529      5.3567      5.3603      5.3567    
  5.3529      5.3706      5.4357      5.5693      5.7770      6.0632      6.4005      6.7491      7.0755      7.3279    
  7.4882      7.5713      9.5835      9.4930      9.2419      8.8787      8.4363      7.9028      7.2813      6.6755    
  6.1669      5.7948      5.5693      5.4604      5.4323      5.4394      5.4470      5.4394      5.4323      5.4604    
  5.5693      5.7948      6.1669      6.6755      7.2813      7.9028      8.4363      8.8787      9.2419      9.4930    
  14.201      13.887      13.021      11.812      10.554      9.4611      8.5195      7.5995      6.7795      6.1669    
  5.7770      5.5814      5.5123      5.5059      5.5093      5.5059      5.5123      5.5814      5.7770      6.1669    
  6.7795      7.5995      8.5195      9.4611      10.554      11.812      13.021      13.887      24.149      23.403    
  21.311      18.298      15.021      12.167      10.133      8.7514      7.5995      6.6755      6.0632      5.7243    
  5.5804      5.5370      5.5313      5.5370      5.5804      5.7243      6.0632      6.6755      7.5995      8.7514    
  10.133      12.167      15.021      18.298      21.311      23.403      41.553      40.109      36.029      30.076    
  23.421      17.368      12.863      10.133      8.5195      7.2813      6.4005      5.8823      5.6306      5.5322    
  5.5093      5.5322      5.6306      5.8823      6.4005      7.2813      8.5195      10.133      12.863      17.368    
  23.421      30.076      36.029      40.109      67.177      64.719      57.791      47.655      36.227      25.586    
  17.368      12.167      9.4611      7.9028      6.7491      6.0360      5.6544      5.4949      5.4470      5.4949    
  5.6544      6.0360      6.7491      7.9028      9.4611      12.167      17.368      25.586      36.227      47.655    
  57.791      64.719      99.515      95.747      85.162      69.771      52.453      36.227      23.421      15.021    
  10.554      8.4363      7.0755      6.1593      5.6581      5.4237      5.3603      5.4237      5.6581      6.1593    
  7.0755      8.4363      10.554      15.021      23.421      36.227      52.453      69.771      85.162      95.747    
  134.58      129.33      114.64      93.444      69.771      47.655      30.076      18.298      11.812      8.8787    
  7.3279      6.2481      5.6389      5.3381      5.2599      5.3381      5.6389      6.2481      7.3279      8.8787    
  11.812      18.298      30.076      47.655      69.771      93.444      114.64      129.33      166.48      159.81    
  141.24      114.64      85.162      57.791      36.029      21.311      13.021      9.2419      7.4882      6.3039    
  5.6049      5.2564      5.1619      5.2564      5.6049      6.3039      7.4882      9.2419      13.021      21.311    
  36.029      57.791      85.162      114.64      141.24      159.81      188.89      181.20      159.81      129.33    
  95.747      64.719      40.109      23.403      13.887      9.4930      7.5713      6.3311      5.5734      5.1972    
  5.0901      5.1972      5.5734      6.3311      7.5713      9.4930      13.887      23.403      40.109      64.719    
  95.747      129.33      159.81      181.20      188.89      181.20      159.81      129.33      95.747      64.719    
  40.109      23.403      13.887      9.4930      7.5713      6.3311      5.5734      5.1972      5.0901      5.1972    
  5.5734      6.3311      7.5713      9.4930      13.887      23.403      40.109      64.719      95.747      129.33    
  159.81      181.20      181.20      173.86      153.44      124.30      92.130      62.354      38.720      22.687    
  13.588      9.4064      7.5440      6.3218      5.5833      5.2164      5.1134      5.2164      5.5833      6.3218    
  7.5440      9.4064      13.588      22.687      38.720      62.354      92.130      124.30      153.44      173.86    
  159.81      153.44      135.69      110.23      81.965      55.688      34.791      20.678      12.763      9.1656    
  7.4560      6.2891      5.6081      5.2684      5.1777      5.2684      5.6081      6.2891      7.4560      9.1656    
  12.763      20.678      34.791      55.688      81.965      110.23      135.69      153.44      129.33      124.30    
  110.23      89.905      67.178      45.940      29.068      17.793      11.616      8.8130      7.2889      6.2275    
  5.6332      5.3406      5.2650      5.3406      5.6332      6.2275      7.2889      8.8130      11.616      17.793    
  29.068      45.940      67.178      89.905      110.23      124.30      95.747      92.130      81.965      67.178    
  50.540      34.959      22.685      14.668      10.420      8.3770      7.0314      6.1344      5.6448      5.4188    
  5.3567      5.4188      5.6448      6.1344      7.0314      8.3770      10.420      14.668      22.685      34.959    
  50.540      67.178      81.965      92.130      64.719      62.354      55.688      45.940      34.959      24.754    
  16.903      11.957      9.3748      7.8440      6.7072      6.0104      5.6391      5.4855      5.4394      5.4855    
  5.6391      6.0104      6.7072      7.8440      9.3748      11.957      16.903      24.754      34.959      45.940    
  55.688      62.354      40.109      38.720      34.791      29.068      22.685      16.903      12.618      10.024    
  8.4522      7.2290      6.3667      5.8613      5.6199      5.5264      5.5059      5.5264      5.6199      5.8613    
  6.3667      7.2290      8.4522      10.024      12.618      16.903      22.685      29.068      34.791      38.720    
  23.403      22.687      20.678      17.793      14.668      11.957      10.024      8.6807      7.5430      6.6380    
  6.0422      5.7169      5.5804      5.5416      5.5370      5.5416      5.5804      5.7169      6.0422      6.6380    
  7.5430      8.6807      10.024      11.957      14.668      17.793      20.678      22.687      13.887      13.588    
  12.763      11.616      10.420      9.3748      8.4522      7.5430      6.7412      6.1475      5.7737      5.5880    
  5.5273      5.5264      5.5322      5.5264      5.5273      5.5880      5.7737      6.1475      6.7412      7.5430    
  8.4522      9.3748      10.420      11.616      12.763      13.588      9.4930      9.4064      9.1656      8.8130    
  8.3770      7.8440      7.2290      6.6380      6.1475      5.7933      5.5813      5.4879      5.4716      5.4855    
  5.4949      5.4855      5.4716      5.4879      5.5813      5.7933      6.1475      6.6380      7.2290      7.8440    
  8.3770      8.8130      9.1656      9.4064      7.5713      7.5440      7.4560      7.2889      7.0314      6.7072    
  6.3667      6.0422      5.7737      5.5813      5.4687      5.4204      5.4110      5.4188      5.4237      5.4188    
  5.4110      5.4204      5.4687      5.5813      5.7737      6.0422      6.3667      6.7072      7.0314      7.2889    
  7.4560      7.5440      6.3311      6.3218      6.2891      6.2275      6.1344      6.0104      5.8613      5.7169    
  5.5880      5.4879      5.4204      5.3756      5.3515      5.3406      5.3381      5.3406      5.3515      5.3756    
  5.4204      5.4879      5.5880      5.7169      5.8613      6.0104      6.1344      6.2275      6.2891      6.3218    
  5.5734      5.5833      5.6081      5.6332      5.6448      5.6391      5.6199      5.5804      5.5273      5.4716    
  5.4110      5.3515      5.3017      5.2684      5.2564      5.2684      5.3017      5.3515      5.4110      5.4716    
  5.5273      5.5804      5.6199      5.6391      5.6448      5.6332      5.6081      5.5833      5.1972      5.2164    
  5.2684      5.3406      5.4188      5.4855      5.5264      5.5416      5.5264      5.4855      5.4188      5.3406    
  5.2684      5.2164      5.1972      5.2164      5.2684      5.3406      5.4188      5.4855      5.5264      5.5416    
  5.5264      5.4855      5.4188      5.3406      5.2684      5.2164      5.0901      5.1134      5.1777      5.2650    
  5.3567      5.4394      5.5059      5.5370      5.5322      5.4949      5.4237      5.3381      5.2564      5.1972    
  5.1751      5.1972      5.2564      5.3381      5.4237      5.4949      5.5322      5.5370      5.5059      5.4394    
  5.3567      5.2650      5.1777      5.1134      5.1972      5.2164      5.2684      5.3406      5.4188      5.4855    
  5.5264      5.5416      5.5264      5.4855      5.4188      5.3406      5.2684      5.2164      5.1972      5.2164    
  5.2684      5.3406      5.4188      5.4855      5.5264      5.5416      5.5264      5.4855      5.4188      5.3406    
  5.2684      5.2164      5.5734      5.5833      5.6081      5.6332      5.6448      5.6391      5.6199      5.5804    
  5.5273      5.4716      5.4110      5.3515      5.3017      5.2684      5.2564      5.2684      5.3017      5.3515    
  5.4110      5.4716      5.5273      5.5804      5.6199      5.6391      5.6448      5.6332      5.6081      5.5833    
  6.3311      6.3218      6.2891      6.2275      6.1344      6.0104      5.8613      5.7169      5.5880      5.4879    
  5.4204      5.3756      5.3515      5.3406      5.3381      5.3406      5.3515      5.3756      5.4204      5.4879    
  5.5880      5.7169      5.8613      6.0104      6.1344      6.2275      6.2891      6.3218      7.5713      7.5440    
  7.4560      7.2889      7.0314      6.7072      6.3667      6.0422      5.7737      5.5813      5.4687      5.4204    
  5.4110      5.4188      5.4237      5.4188      5.4110      5.4204      5.4687      5.5813      5.7737      6.0422    
  6.3667      6.7072      7.0314      7.2889      7.4560      7.5440      9.4930      9.4064      9.1656      8.8130    
  8.3770      7.8440      7.2290      6.6380      6.1475      5.7933      5.5813      5.4879      5.4716      5.4855    
  5.4949      5.4855      5.4716      5.4879      5.5813      5.7933      6.1475      6.6380      7.2290      7.8440    
  8.3770      8.8130      9.1656      9.4064      13.887      13.588      12.763      11.616      10.420      9.3748    
  8.4522      7.5430      6.7412      6.1475      5.7737      5.5880      5.5273      5.5264      5.5322      5.5264    
  5.5273      5.5880      5.7737      6.1475      6.7412      7.5430      8.4522      9.3748      10.420      11.616    
  12.763      13.588      23.403      22.687      20.678      17.793      14.668      11.957      10.024      8.6807    
  7.5430      6.6380      6.0422      5.7169      5.5804      5.5416      5.5370      5.5416      5.5804      5.7169    
  6.0422      6.6380      7.5430      8.6807      10.024      11.957      14.668      17.793      20.678      22.687    
  40.109      38.720      34.791      29.068      22.685      16.903      12.618      10.024      8.4522      7.2290    
  6.3667      5.8613      5.6199      5.5264      5.5059      5.5264      5.6199      5.8613      6.3667      7.2290    
  8.4522      10.024      12.618      16.903      22.685      29.068      34.791      38.720      64.719      62.354    
  55.688      45.940      34.959      24.754      16.903      11.957      9.3748      7.8440      6.7072      6.0104    
  5.6391      5.4855      5.4394      5.4855      5.6391      6.0104      6.7072      7.8440      9.3748      11.957    
  16.903      24.754      34.959      45.940      55.688      62.354      95.747      92.130      81.965      67.178    
  50.540      34.959      22.685      14.668      10.420      8.3770      7.0314      6.1344      5.6448      5.4188    
  5.3567      5.4188      5.6448      6.1344      7.0314      8.3770      10.420      14.668      22.685      34.959    
  50.540      67.178      81.965      92.130      129.33      124.30      110.23      89.905      67.178      45.940    
  29.068      17.793      11.616      8.8130      7.2889      6.2275      5.6332      5.3406      5.2650      5.3406    
  5.6332      6.2275      7.2889      8.8130      11.616      17.793      29.068      45.940      67.178      89.905    
  110.23      124.30      159.81      153.44      135.69      110.23      81.965      55.688      34.791      20.678    
  12.763      9.1656      7.4560      6.2891      5.6081      5.2684      5.1777      5.2684      5.6081      6.2891    
  7.4560      9.1656      12.763      20.678      34.791      55.688      81.965      110.23      135.69      153.44    
  181.20      173.86      153.44      124.30      92.130      62.354      38.720      22.687      13.588      9.4064    
  7.5440      6.3218      5.5833      5.2164      5.1134      5.2164      5.5833      6.3218      7.5440      9.4064    
  13.588      22.687      38.720      62.354      92.130      124.30      153.44      173.86      166.48      159.81    
  141.24      114.64      85.162      57.791      36.029      21.311      13.021      9.2419      7.4882      6.3039    
  5.6049      5.2564      5.1619      5.2564      5.6049      6.3039      7.4882      9.2419      13.021      21.311    
  36.029      57.791      85.162      114.64      141.24      159.81      159.81      153.44      135.69      110.23    
  81.965      55.688      34.791      20.678      12.763      9.1656      7.4560      6.2891      5.6081      5.2684    
  5.1777      5.2684      5.6081      6.2891      7.4560      9.1656      12.763      20.678      34.791      55.688    
  81.965      110.23      135.69      153.44      141.24      135.69      120.19      97.866      72.979      49.760    
  31.300      18.912      12.054      8.9504      7.3536      6.2445      5.6142      5.3017      5.2203      5.3017    
  5.6142      6.2445      7.3536      8.9504      12.054      18.912      31.300      49.760      72.979      97.866    
  120.19      135.69      114.64      110.23      97.866      79.961      59.886      41.107      26.240      16.394    
  11.076      8.6248      7.1697      6.1693      5.6172      5.3515      5.2817      5.3515      5.6172      6.1693    
  7.1697      8.6248      11.076      16.394      26.240      41.107      59.886      79.961      97.866      110.23    
  85.162      81.965      72.979      59.886      45.155      31.395      20.641      13.698      10.056      8.2020    
  6.9058      6.0683      5.6133      5.4110      5.3529      5.4110      5.6133      6.0683      6.9058      8.2020    
  10.056      13.698      20.641      31.395      45.155      59.886      72.979      81.965      57.791      55.688    
  49.760      41.107      31.395      22.441      15.624      11.386      9.1335      7.6749      6.5955      5.9461    
  5.6083      5.4716      5.4323      5.4716      5.6083      5.9461      6.5955      7.6749      9.1335      11.386    
  15.624      22.441      31.395      41.107      49.760      55.688      36.029      34.791      31.300      26.240    
  20.641      15.624      11.954      9.7237      8.2600      7.0883      6.2840      5.8198      5.6064      5.5273    
  5.5123      5.5273      5.6064      5.8198      6.2840      7.0883      8.2600      9.7237      11.954      15.624    
  20.641      26.240      31.300      34.791      21.311      20.678      18.912      16.394      13.698      11.386    
  9.7237      8.4802      7.3907      6.5478      6.0019      5.7147      5.6033      5.5804      5.5804      5.5804    
  5.6033      5.7147      6.0019      6.5478      7.3907      8.4802      9.7237      11.386      13.698      16.394    
  18.912      20.678      13.021      12.763      12.054      11.076      10.056      9.1335      8.2600      7.3907    
  6.6494      6.1119      5.7877      5.6407      5.6064      5.6199      5.6306      5.6199      5.6064      5.6407    
  5.7877      6.1119      6.6494      7.3907      8.2600      9.1335      10.056      11.076      12.054      12.763    
  9.2419      9.1656      8.9504      8.6248      8.2020      7.6749      7.0883      6.5478      6.1119      5.8148    
  5.6544      5.5985      5.6083      5.6391      5.6544      5.6391      5.6083      5.5985      5.6544      5.8148    
  6.1119      6.5478      7.0883      7.6749      8.2020      8.6248      8.9504      9.1656      7.4882      7.4560    
  7.3536      7.1697      6.9058      6.5955      6.2840      6.0019      5.7877      5.6544      5.5915      5.5857    
  5.6133      5.6448      5.6581      5.6448      5.6133      5.5857      5.5915      5.6544      5.7877      6.0019    
  6.2840      6.5955      6.9058      7.1697      7.3536      7.4560      6.3039      6.2891      6.2445      6.1693    
  6.0683      5.9461      5.8198      5.7147      5.6407      5.5985      5.5857      5.5976      5.6172      5.6332    
  5.6389      5.6332      5.6172      5.5976      5.5857      5.5985      5.6407      5.7147      5.8198      5.9461    
  6.0683      6.1693      6.2445      6.2891      5.6049      5.6081      5.6142      5.6172      5.6133      5.6083    
  5.6064      5.6033      5.6064      5.6083      5.6133      5.6172      5.6142      5.6081      5.6049      5.6081    
  5.6142      5.6172      5.6133      5.6083      5.6064      5.6033      5.6064      5.6083      5.6133      5.6172    
  5.6142      5.6081      5.2564      5.2684      5.3017      5.3515      5.4110      5.4716      5.5273      5.5804    
  5.6199      5.6391      5.6448      5.6332      5.6081      5.5833      5.5734      5.5833      5.6081      5.6332    
  5.6448      5.6391      5.6199      5.5804      5.5273      5.4716      5.4110      5.3515      5.3017      5.2684    
  5.1619      5.1777      5.2203      5.2817      5.3529      5.4323      5.5123      5.5804      5.6306      5.6544    
  5.6581      5.6389      5.6049      5.5734      5.5610      5.5734      5.6049      5.6389      5.6581      5.6544    
  5.6306      5.5804      5.5123      5.4323      5.3529      5.2817      5.2203      5.1777      5.2564      5.2684    
  5.3017      5.3515      5.4110      5.4716      5.5273      5.5804      5.6199      5.6391      5.6448      5.6332    
  5.6081      5.5833      5.5734      5.5833      5.6081      5.6332      5.6448      5.6391      5.6199      5.5804    
  5.5273      5.4716      5.4110      5.3515      5.3017      5.2684      5.6049      5.6081      5.6142      5.6172    
  5.6133      5.6083      5.6064      5.6033      5.6064      5.6083      5.6133      5.6172      5.6142      5.6081    
  5.6049      5.6081      5.6142      5.6172      5.6133      5.6083      5.6064      5.6033      5.6064      5.6083    
  5.6133      5.6172      5.6142      5.6081      6.3039      6.2891      6.2445      6.1693      6.0683      5.9461    
  5.8198      5.7147      5.6407      5.5985      5.5857      5.5976      5.6172      5.6332      5.6389      5.6332    
  5.6172      5.5976      5.5857      5.5985      5.6407      5.7147      5.8198      5.9461      6.0683      6.1693    
  6.2445      6.2891      7.4882      7.4560      7.3536      7.1697      6.9058      6.5955      6.2840      6.0019    
  5.7877      5.6544      5.5915      5.5857      5.6133      5.6448      5.6581      5.6448      5.6133      5.5857    
  5.5915      5.6544      5.7877      6.0019      6.2840      6.5955      6.9058      7.1697      7.3536      7.4560    
  9.2419      9.1656      8.9504      8.6248      8.2020      7.6749      7.0883      6.5478      6.1119      5.8148    
  5.6544      5.5985      5.6083      5.6391      5.6544      5.6391      5.6083      5.5985      5.6544      5.8148    
  6.1119      6.5478      7.0883      7.6749      8.2020      8.6248      8.9504      9.1656      13.021      12.763    
  12.054      11.076      10.056      9.1335      8.2600      7.3907      6.6494      6.1119      5.7877      5.6407    
  5.6064      5.6199      5.6306      5.6199      5.6064      5.6407      5.7877      6.1119      6.6494      7.3907    
  8.2600      9.1335      10.056      11.076      12.054      12.763      21.311      20.678      18.912      16.394    
  13.698      11.386      9.7237      8.4802      7.3907      6.5478      6.0019      5.7147      5.6033      5.5804    
  5.5804      5.5804      5.6033      5.7147      6.0019      6.5478      7.3907      8.4802      9.7237      11.386    
  13.698      16.394      18.912      20.678      36.029      34.791      31.300      26.240      20.641      15.624    
  11.954      9.7237      8.2600      7.0883      6.2840      5.8198      5.6064      5.5273      5.5123      5.5273    
  5.6064      5.8198      6.2840      7.0883      8.2600      9.7237      11.954      15.624      20.641      26.240    
  31.300      34.791      57.791      55.688      49.760      41.107      31.395      22.441      15.624      11.386    
  9.1335      7.6749      6.5955      5.9461      5.6083      5.4716      5.4323      5.4716      5.6083      5.9461    
  6.5955      7.6749      9.1335      11.386      15.624      22.441      31.395      41.107      49.760      55.688    
  85.162      81.965      72.979      59.886      45.155      31.395      20.641      13.698      10.056      8.2020    
  6.9058      6.0683      5.6133      5.4110      5.3529      5.4110      5.6133      6.0683      6.9058      8.2020    
  10.056      13.698      20.641      31.395      45.155      59.886      72.979      81.965      114.64      110.23    
  97.866      79.961      59.886      41.107      26.240      16.394      11.076      8.6248      7.1697      6.1693    
  5.6172      5.3515      5.2817      5.3515      5.6172      6.1693      7.1697      8.6248      11.076      16.394    
  26.240      41.107      59.886      79.961      97.866      110.23      141.24      135.69      120.19      97.866    
  72.979      49.760      31.300      18.912      12.054      8.9504      7.3536      6.2445      5.6142      5.3017    
  5.2203      5.3017      5.6142      6.2445      7.3536      8.9504      12.054      18.912      31.300      49.760    
  72.979      97.866      120.19      135.69      159.81      153.44      135.69      110.23      81.965      55.688    
  34.791      20.678      12.763      9.1656      7.4560      6.2891      5.6081      5.2684      5.1777      5.2684    
  5.6081      6.2891      7.4560      9.1656      12.763      20.678      34.791      55.688      81.965      110.23    
  135.69      153.44      134.58      129.33      114.64      93.444      69.771      47.655      30.076      18.298    
  11.812      8.8787      7.3279      6.2481      5.6389      5.3381      5.2599      5.3381      5.6389      6.2481    
  7.3279      8.8787      11.812      18.298      30.076      47.655      69.771      93.444      114.64      129.33    
  129.33      124.30      110.23      89.905      67.178      45.940      29.068      17.793      11.616      8.8130    
  7.2889      6.2275      5.6332      5.3406      5.2650      5.3406      5.6332      6.2275      7.2889      8.8130    
  11.616      17.793      29.068      45.940      67.178      89.905      110.23      124.30      114.64      110.23    
  97.866      79.961      59.886      41.107      26.240      16.394      11.076      8.6248      7.1697      6.1693    
  5.6172      5.3515      5.2817      5.3515      5.6172      6.1693      7.1697      8.6248      11.076      16.394    
  26.240      41.107      59.886      79.961      97.866      110.23      93.444      89.905      79.961      65.504    
  49.258      34.085      22.176      14.427      10.335      8.3250      6.9739      6.0827      5.5976      5.3756    