       N       E                     dE             d eps       ncg     rms          rms(c)
DAV:   1     0.330003174903E+02    0.33000E+02   -0.44098E+03 10764   0.446E+02
DAV:   2    -0.149369969910E+02   -0.47937E+02   -0.43220E+02 10260   0.113E+02
DAV:   3    -0.158653119224E+02   -0.92831E+00   -0.92204E+00 10696   0.180E+01
DAV:   4    -0.158677211505E+02   -0.24092E-02   -0.24091E-02 10240   0.925E-01
DAV:   5    -0.158677316678E+02   -0.10517E-04   -0.10517E-04 10624   0.605E-02    0.219E+01
DAV:   6    -0.154521790907E+02    0.41555E+00   -0.61130E+00 10204   0.329E+01    0.419E+00
DAV:   7    -0.154369881468E+02    0.15191E-01   -0.27336E-01 10208   0.524E+00    0.285E+00
DAV:   8    -0.154312403442E+02    0.57478E-02   -0.57831E-03 10164   0.523E-01    0.106E+00
DAV:   9    -0.154261000579E+02    0.51403E-02   -0.16876E-03 13060   0.479E-01    0.288E-01
DAV:  10    -0.154261725560E+02   -0.72498E-04   -0.11774E-03  9984   0.329E-01    0.608E-02
DAV:  11    -0.154261499516E+02    0.22604E-04   -0.21279E-05 10200   0.374E-02    0.252E-02
DAV:  12    -0.154261415250E+02    0.84266E-05   -0.27767E-06 10360   0.960E-03    0.112E-02
DAV:  13    -0.154261378635E+02    0.36615E-05   -0.66277E-07  6920   0.598E-03    0.342E-03
DAV:  14    -0.154261382091E+02   -0.34556E-06   -0.60137E-08  5088   0.233E-03
   1 F= -.15426138E+02 E0= -.15426263E+02  d E =-.154261E+02  mag=     4.5261
       N       E                     dE             d eps       ncg     rms          rms(c)
DAV:   1    -0.504777927599E+02   -0.35052E+02   -0.56544E+02 12392   0.318E+02    0.346E+02
DAV:   2     0.443717009198E+02    0.94849E+02   -0.83096E+01 13656   0.134E+02    0.139E+02
DAV:   3     0.752469611455E+02    0.30875E+02   -0.13645E+01 13456   0.930E+01    0.424E+01
DAV:   4     0.709978133696E+02   -0.42491E+01   -0.17373E+00 11160   0.132E+01    0.170E+01
DAV:   5     0.467628481266E+02   -0.24235E+02   -0.14923E+02 11936   0.620E+00    0.631E+00
DAV:   6    -0.188445109936E+05   -0.18891E+05   -0.16680E+05 13452   0.603E+00    0.148E+01
DAV:   7    -0.363720443881E+08   -0.36353E+08   -0.36360E+08 10464   0.196E+01    0.325E+01
DAV:   8    -0.112154620935E+09   -0.75783E+08   -0.11190E+09 12576   0.339E+01    0.446E+01
DAV:   9    -0.253094818339E+09   -0.14094E+09   -0.25309E+09 12192   0.733E+01    0.998E+01
