 vasp.6.2.0 18Jan21 (build Aug 12 2022 13:00:08) complex                        
  
 executed on             LinuxIFC date 2024.11.04  06:44:04
 running on    4 total cores
 distrk:  each k-point on    4 cores,    1 groups
 distr:  one band on NCORE=   1 cores,    4 groups


--------------------------------------------------------------------------------------------------------


 INCAR:
   ISTART = 0            (Read existing wavefunction, if there)
   ISPIN = 2            (Non-Spin polarised DFT)
   MAGMOM = 5 5          (Set this parameters manually)
   GGA_COMPAT = .FALSE.   (Apply spherical cutoff on gradient field)
   VOSKOWN = 1        (Enhances the magnetic moments and the magnetic energies)
   LMAXMIX = 4        (For d elements increase LMAXMIX to 4, f: LMAXMIX \= 6)
   LREAL = .FALSE.       (Projection operators: automatic)
   ENCUT = 200          (Cut-off energy for plane wave basis set, in eV)
   LORBIT = 11           (Write orbital decomposed charge densities and magnetic moments)
   ADDGRID = .TRUE.        (Increase grid, helps GGA convergence)
   LASPH = .TRUE.        (Give more accurate total energies and band structure calculations)
   PREC = Accurate      (Accurate strictly avoids any aliasing or wrap around errors)
   ISMEAR = 1            (Gaussian smearing, metals:1)
   SIGMA = 0.2          (Smearing value in eV, metals:0.2)
   NELM = 90           (Max electronic SCF steps)
   NELMIN = 6            (Min electronic SCF steps)
   EDIFF = 1E-06        (SCF energy convergence, in eV)
   NSW = 100          (Max ionic steps)
   IBRION = 2            (Algorithm: 0-MD, 1-Quasi-New, 2-CG)
   ISIF = 3            (Stress/relaxation: 2-Ions, 3-Shape/Ions/V, 4-Shape/Ions)
   EDIFFG = -2E-03        (Ionic convergence, eV/AA)
   ISYM = 2              (Symmetry: 0\=none, 2\=GGA, 3\=hybrids)

 POTCAR:    PAW_PBE Fe 06Sep2000                  
 POTCAR:    PAW_PBE Fe 06Sep2000                  
   VRHFIN =Fe:  d7 s1                                                                               
   LEXCH  = PE                                                                                      
   EATOM  =   594.3153 eV,   43.6809 Ry                                                             
                                                                                                    
   TITEL  = PAW_PBE Fe 06Sep2000                                                                    
   LULTRA =        F    use ultrasoft PP ?                                                          
   IUNSCR =        1    unscreen: 0-lin 1-nonlin 2-no                                               
   RPACOR =    2.000    partial core radius                                                         
   POMASS =   55.847; ZVAL   =    8.000    mass and valenz                                          
   RCORE  =    2.300    outmost cutoff radius                                                       
   RWIGS  =    2.460; RWIGS  =    1.302    wigner-seitz radius (au A)                               
   ENMAX  =  267.882; ENMIN  =  200.911 eV                                                          
   RCLOC  =    1.701    cutoff for local pot                                                        
   LCOR   =        T    correct aug charges                                                         
   LPAW   =        T    paw PP                                                                      
   EAUG   =  511.368                                                                                
   DEXC   =    0.000                                                                                
   RMAX   =    2.356    core radius for proj-oper                                                   
   RAUG   =    1.300    factor for augmentation sphere                                              
   RDEP   =    2.442    radius for radial grids                                                     
   RDEPT  =    1.890    core radius for aug-charge                                                  
                                                                                                    
   Atomic configuration                                                                             
    9 entries                                                                                       
     n  l   j            E        occ.                                                              
     1  0  0.50     -6993.8440   2.0000                                                             
     2  0  0.50      -814.6047   2.0000                                                             
     2  1  1.50      -693.3689   6.0000                                                             
     3  0  0.50       -89.4732   2.0000                                                             
     3  1  1.50       -55.6373   6.0000                                                             
     3  2  2.50        -3.8151   7.0000                                                             
     4  0  0.50        -4.2551   1.0000                                                             
     4  1  1.50        -3.4015   0.0000                                                             
     4  3  2.50        -1.3606   0.0000                                                             
   Description                                                                                      
     l       E           TYP  RCUT    TYP  RCUT                                                     
     2     -3.8151135     23  2.300                                                                 
     2     -5.1756961     23  2.300                                                                 
     0     -4.2550963     23  2.300                                                                 
     0      7.2035603     23  2.300                                                                 
     1     -2.7211652     23  2.300                                                                 
     1     18.4316424     23  2.300                                                                 
  local pseudopotential read in
  partial core-charges read in
  partial kinetic energy density read in
  atomic valenz-charges read in
  non local Contribution for L=           2  read in
    real space projection operators read in
  non local Contribution for L=           2  read in
    real space projection operators read in
  non local Contribution for L=           0  read in
    real space projection operators read in
  non local Contribution for L=           0  read in
    real space projection operators read in
  non local Contribution for L=           1  read in
    real space projection operators read in
  non local Contribution for L=           1  read in
    real space projection operators read in
    PAW grid and wavefunctions read in
 
   number of l-projection  operators is LMAX  =           6
   number of lm-projection operators is LMMAX =          18
 
  PAW_PBE Fe 06Sep2000                  :
 energy of atom  1       EATOM= -594.3153
 kinetic energy error for atom=    0.6672 (will be added to EATOM!!)
 
 
 POSCAR: Fe2
  positions in direct lattice
  No initial velocities read in
 exchange correlation table for  LEXCH =        8
   RHO(1)=    0.500       N(1)  =     2000
   RHO(2)=  100.500       N(2)  =     4000
 


--------------------------------------------------------------------------------------------------------


 ion  position               nearest neighbor table
   1  0.000  0.000  0.000-   2 2.48   2 2.48   2 2.48   2 2.48   2 2.48   2 2.48   2 2.48   2 2.48

   2  0.500  0.500  0.500-   1 2.48   1 2.48   1 2.48   1 2.48   1 2.48   1 2.48   1 2.48   1 2.48

 
  LATTYP: Found a simple cubic cell.
 ALAT       =     2.8630354989
  
  Lattice vectors:
  
 A1 = (   2.8630354989,   0.0000000000,   0.0000000000)
 A2 = (   0.0000000000,   2.8630354989,   0.0000000000)
 A3 = (   0.0000000000,   0.0000000000,   2.8630354989)


Analysis of symmetry for initial positions (statically):
=====================================================================
 Subroutine PRICEL returns following result:
 
  LATTYP: Found a body centered cubic cell.
 ALAT       =     2.8630354989
  
  Lattice vectors:
  
 A1 = (   1.4315177495,   1.4315177495,  -1.4315177495)
 A2 = (  -1.4315177495,   1.4315177495,   1.4315177495)
 A3 = (   1.4315177495,  -1.4315177495,   1.4315177495)
 
   2 primitive cells build up your supercell.
 

 Routine SETGRP: Setting up the symmetry group for a 
 simple cubic supercell.


 Subroutine GETGRP returns: Found 48 space group operations
 (whereof 48 operations were pure point group operations)
 out of a pool of 48 trial point group operations.


The static configuration has the point symmetry O_h .


Analysis of symmetry for dynamics (positions and initial velocities):
=====================================================================
 Subroutine PRICEL returns following result:
 
  LATTYP: Found a body centered cubic cell.
 ALAT       =     2.8630354989
  
  Lattice vectors:
  
 A1 = (   1.4315177495,   1.4315177495,  -1.4315177495)
 A2 = (  -1.4315177495,   1.4315177495,   1.4315177495)
 A3 = (   1.4315177495,  -1.4315177495,   1.4315177495)
 
   2 primitive cells build up your supercell.
 

 Routine SETGRP: Setting up the symmetry group for a 
 simple cubic supercell.


 Subroutine GETGRP returns: Found 48 space group operations
 (whereof 48 operations were pure point group operations)
 out of a pool of 48 trial point group operations.


The dynamic configuration has the point symmetry O_h .


Analysis of structural, dynamic, and magnetic symmetry:
=====================================================================
 Subroutine PRICEL returns following result:
 
  LATTYP: Found a body centered cubic cell.
 ALAT       =     2.8630354989
  
  Lattice vectors:
  
 A1 = (   1.4315177495,   1.4315177495,  -1.4315177495)
 A2 = (  -1.4315177495,   1.4315177495,   1.4315177495)
 A3 = (   1.4315177495,  -1.4315177495,   1.4315177495)
 
   2 primitive cells build up your supercell.
 

 Routine SETGRP: Setting up the symmetry group for a 
 simple cubic supercell.


 Subroutine GETGRP returns: Found 48 space group operations
 (whereof 48 operations were pure point group operations)
 out of a pool of 48 trial point group operations.


The overall configuration has the point symmetry O_h .


 Subroutine INISYM returns: Found 48 space group operations
 (whereof 48 operations are pure point group operations),
 and found     2 'primitive' translations


----------------------------------------------------------------------------------------

                                     Primitive cell                                     

  volume of cell :      11.7341

  direct lattice vectors                    reciprocal lattice vectors
     1.431517749  1.431517749 -1.431517749     0.349279637  0.349279637  0.000000000
    -1.431517749  1.431517749  1.431517749     0.000000000  0.349279637  0.349279637
     1.431517749 -1.431517749  1.431517749     0.349279637 -0.000000000  0.349279637

  length of vectors
     2.479461474  2.479461474  2.479461474     0.493956000  0.493956000  0.493956000

  position of ions in fractional coordinates (direct lattice)
     0.000000000  0.000000000  0.000000000

  ion indices of the primitive-cell ions
   primitive index   ion index
                 1           1

----------------------------------------------------------------------------------------

 
 
 KPOINTS: Automatic                               

Automatic generation of k-mesh.
 Grid dimensions read from file:
 generate k-points for:   15   15   15

 Generating k-lattice:

  Cartesian coordinates                     Fractional coordinates (reciprocal lattice)
     0.023285309 -0.000000000  0.000000000     0.066666667  0.000000000  0.000000000
     0.000000000  0.023285309  0.000000000     0.000000000  0.066666667  0.000000000
    -0.000000000 -0.000000000  0.023285309     0.000000000  0.000000000  0.066666667

  Length of vectors
     0.023285309  0.023285309  0.023285309

  Shift w.r.t. Gamma in fractional coordinates (k-lattice)
     0.000000000  0.000000000  0.000000000

 
 Subroutine IBZKPT returns following result:
 ===========================================
 
 Found    120 irreducible k-points:
 
 Following reciprocal coordinates:
            Coordinates               Weight
  0.000000  0.000000  0.000000      1.000000
  0.066667  0.000000  0.000000      6.000000
  0.133333  0.000000  0.000000      6.000000
  0.200000 -0.000000  0.000000      6.000000
  0.266667  0.000000  0.000000      6.000000
  0.333333  0.000000  0.000000      6.000000
  0.400000  0.000000  0.000000      6.000000
  0.466667 -0.000000  0.000000      6.000000
  0.066667  0.066667  0.000000     12.000000
  0.133333  0.066667  0.000000     24.000000
  0.200000  0.066667  0.000000     24.000000
  0.266667  0.066667  0.000000     24.000000
  0.333333  0.066667  0.000000     24.000000
  0.400000  0.066667  0.000000     24.000000
  0.466667  0.066667  0.000000     24.000000
  0.133333  0.133333  0.000000     12.000000
  0.200000  0.133333  0.000000     24.000000
  0.266667  0.133333  0.000000     24.000000
  0.333333  0.133333  0.000000     24.000000
  0.400000  0.133333  0.000000     24.000000
  0.466667  0.133333  0.000000     24.000000
  0.200000  0.200000  0.000000     12.000000
  0.266667  0.200000  0.000000     24.000000
  0.333333  0.200000  0.000000     24.000000
  0.400000  0.200000  0.000000     24.000000
  0.466667  0.200000  0.000000     24.000000
  0.266667  0.266667  0.000000     12.000000
  0.333333  0.266667  0.000000     24.000000
  0.400000  0.266667  0.000000     24.000000
  0.466667  0.266667  0.000000     24.000000
  0.333333  0.333333  0.000000     12.000000
  0.400000  0.333333  0.000000     24.000000
  0.466667  0.333333  0.000000     24.000000
  0.400000  0.400000  0.000000     12.000000
  0.466667  0.400000  0.000000     24.000000
  0.466667  0.466667  0.000000     12.000000
  0.066667  0.066667  0.066667      8.000000
  0.133333  0.066667  0.066667     24.000000
  0.200000  0.066667  0.066667     24.000000
  0.266667  0.066667  0.066667     24.000000
  0.333333  0.066667  0.066667     24.000000
  0.400000  0.066667  0.066667     24.000000
  0.466667  0.066667  0.066667     24.000000
  0.133333  0.133333  0.066667     24.000000
  0.200000  0.133333  0.066667     48.000000
  0.266667  0.133333  0.066667     48.000000
  0.333333  0.133333  0.066667     48.000000
  0.400000  0.133333  0.066667     48.000000
  0.466667  0.133333  0.066667     48.000000
  0.200000  0.200000  0.066667     24.000000
  0.266667  0.200000  0.066667     48.000000
  0.333333  0.200000  0.066667     48.000000
  0.400000  0.200000  0.066667     48.000000
  0.466667  0.200000  0.066667     48.000000
  0.266667  0.266667  0.066667     24.000000
  0.333333  0.266667  0.066667     48.000000
  0.400000  0.266667  0.066667     48.000000
  0.466667  0.266667  0.066667     48.000000
  0.333333  0.333333  0.066667     24.000000
  0.400000  0.333333  0.066667     48.000000
  0.466667  0.333333  0.066667     48.000000
  0.400000  0.400000  0.066667     24.000000
  0.466667  0.400000  0.066667     48.000000
  0.466667  0.466667  0.066667     24.000000
  0.133333  0.133333  0.133333      8.000000
  0.200000  0.133333  0.133333     24.000000
  0.266667  0.133333  0.133333     24.000000
  0.333333  0.133333  0.133333     24.000000
  0.400000  0.133333  0.133333     24.000000
  0.466667  0.133333  0.133333     24.000000
  0.200000  0.200000  0.133333     24.000000
  0.266667  0.200000  0.133333     48.000000
  0.333333  0.200000  0.133333     48.000000
  0.400000  0.200000  0.133333     48.000000
  0.466667  0.200000  0.133333     48.000000
  0.266667  0.266667  0.133333     24.000000
  0.333333  0.266667  0.133333     48.000000
  0.400000  0.266667  0.133333     48.000000
  0.466667  0.266667  0.133333     48.000000
  0.333333  0.333333  0.133333     24.000000
  0.400000  0.333333  0.133333     48.000000
  0.466667  0.333333  0.133333     48.000000
  0.400000  0.400000  0.133333     24.000000
  0.466667  0.400000  0.133333     48.000000
  0.466667  0.466667  0.133333     24.000000
  0.200000  0.200000  0.200000      8.000000
  0.266667  0.200000  0.200000     24.000000
  0.333333  0.200000  0.200000     24.000000
  0.400000  0.200000  0.200000     24.000000
  0.466667  0.200000  0.200000     24.000000
  0.266667  0.266667  0.200000     24.000000
  0.333333  0.266667  0.200000     48.000000
  0.400000  0.266667  0.200000     48.000000
  0.466667  0.266667  0.200000     48.000000
  0.333333  0.333333  0.200000     24.000000
  0.400000  0.333333  0.200000     48.000000
  0.466667  0.333333  0.200000     48.000000
  0.400000  0.400000  0.200000     24.000000
  0.466667  0.400000  0.200000     48.000000
  0.466667  0.466667  0.200000     24.000000
  0.266667  0.266667  0.266667      8.000000
  0.333333  0.266667  0.266667     24.000000
  0.400000  0.266667  0.266667     24.000000
  0.466667  0.266667  0.266667     24.000000
  0.333333  0.333333  0.266667     24.000000
  0.400000  0.333333  0.266667     48.000000
  0.466667  0.333333  0.266667     48.000000
  0.400000  0.400000  0.266667     24.000000
  0.466667  0.400000  0.266667     48.000000
  0.466667  0.466667  0.266667     24.000000
  0.333333  0.333333  0.333333      8.000000
  0.400000  0.333333  0.333333     24.000000
  0.466667  0.333333  0.333333     24.000000
  0.400000  0.400000  0.333333     24.000000
  0.466667  0.400000  0.333333     48.000000
  0.466667  0.466667  0.333333     24.000000
  0.400000  0.400000  0.400000      8.000000
  0.466667  0.400000  0.400000     24.000000
  0.466667  0.466667  0.400000     24.000000
  0.466667  0.466667  0.466667      8.000000
 
 Following cartesian coordinates:
            Coordinates               Weight
  0.000000  0.000000  0.000000      1.000000
  0.023285 -0.000000  0.000000      6.000000
  0.046571 -0.000000  0.000000      6.000000
  0.069856 -0.000000  0.000000      6.000000
  0.093141 -0.000000  0.000000      6.000000
  0.116427 -0.000000  0.000000      6.000000
  0.139712 -0.000000  0.000000      6.000000
  0.162997 -0.000000  0.000000      6.000000
  0.023285  0.023285  0.000000     12.000000
  0.046571  0.023285  0.000000     24.000000
  0.069856  0.023285  0.000000     24.000000
  0.093141  0.023285  0.000000     24.000000
  0.116427  0.023285  0.000000     24.000000
  0.139712  0.023285  0.000000     24.000000
  0.162997  0.023285  0.000000     24.000000
  0.046571  0.046571  0.000000     12.000000
  0.069856  0.046571  0.000000     24.000000
  0.093141  0.046571  0.000000     24.000000
  0.116427  0.046571  0.000000     24.000000
  0.139712  0.046571  0.000000     24.000000
  0.162997  0.046571  0.000000     24.000000
  0.069856  0.069856  0.000000     12.000000
  0.093141  0.069856  0.000000     24.000000
  0.116427  0.069856  0.000000     24.000000
  0.139712  0.069856  0.000000     24.000000
  0.162997  0.069856  0.000000     24.000000
  0.093141  0.093141  0.000000     12.000000
  0.116427  0.093141  0.000000     24.000000
  0.139712  0.093141  0.000000     24.000000
  0.162997  0.093141  0.000000     24.000000
  0.116427  0.116427  0.000000     12.000000
  0.139712  0.116427  0.000000     24.000000
  0.162997  0.116427  0.000000     24.000000
  0.139712  0.139712  0.000000     12.000000
  0.162997  0.139712  0.000000     24.000000
  0.162997  0.162997  0.000000     12.000000
  0.023285  0.023285  0.023285      8.000000
  0.046571  0.023285  0.023285     24.000000
  0.069856  0.023285  0.023285     24.000000
  0.093141  0.023285  0.023285     24.000000
  0.116427  0.023285  0.023285     24.000000
  0.139712  0.023285  0.023285     24.000000
  0.162997  0.023285  0.023285     24.000000
  0.046571  0.046571  0.023285     24.000000
  0.069856  0.046571  0.023285     48.000000
  0.093141  0.046571  0.023285     48.000000
  0.116427  0.046571  0.023285     48.000000
  0.139712  0.046571  0.023285     48.000000
  0.162997  0.046571  0.023285     48.000000
  0.069856  0.069856  0.023285     24.000000
  0.093141  0.069856  0.023285     48.000000
  0.116427  0.069856  0.023285     48.000000
  0.139712  0.069856  0.023285     48.000000
  0.162997  0.069856  0.023285     48.000000
  0.093141  0.093141  0.023285     24.000000
  0.116427  0.093141  0.023285     48.000000
  0.139712  0.093141  0.023285     48.000000
  0.162997  0.093141  0.023285     48.000000
  0.116427  0.116427  0.023285     24.000000
  0.139712  0.116427  0.023285     48.000000
  0.162997  0.116427  0.023285     48.000000
  0.139712  0.139712  0.023285     24.000000
  0.162997  0.139712  0.023285     48.000000
  0.162997  0.162997  0.023285     24.000000
  0.046571  0.046571  0.046571      8.000000
  0.069856  0.046571  0.046571     24.000000
  0.093141  0.046571  0.046571     24.000000
  0.116427  0.046571  0.046571     24.000000
  0.139712  0.046571  0.046571     24.000000
  0.162997  0.046571  0.046571     24.000000
  0.069856  0.069856  0.046571     24.000000
  0.093141  0.069856  0.046571     48.000000
  0.116427  0.069856  0.046571     48.000000
  0.139712  0.069856  0.046571     48.000000
  0.162997  0.069856  0.046571     48.000000
  0.093141  0.093141  0.046571     24.000000
  0.116427  0.093141  0.046571     48.000000
  0.139712  0.093141  0.046571     48.000000
  0.162997  0.093141  0.046571     48.000000
  0.116427  0.116427  0.046571     24.000000
  0.139712  0.116427  0.046571     48.000000
  0.162997  0.116427  0.046571     48.000000
  0.139712  0.139712  0.046571     24.000000
  0.162997  0.139712  0.046571     48.000000
  0.162997  0.162997  0.046571     24.000000
  0.069856  0.069856  0.069856      8.000000
  0.093141  0.069856  0.069856     24.000000
  0.116427  0.069856  0.069856     24.000000
  0.139712  0.069856  0.069856     24.000000
  0.162997  0.069856  0.069856     24.000000
  0.093141  0.093141  0.069856     24.000000
  0.116427  0.093141  0.069856     48.000000
  0.139712  0.093141  0.069856     48.000000
  0.162997  0.093141  0.069856     48.000000
  0.116427  0.116427  0.069856     24.000000
  0.139712  0.116427  0.069856     48.000000
  0.162997  0.116427  0.069856     48.000000
  0.139712  0.139712  0.069856     24.000000
  0.162997  0.139712  0.069856     48.000000
  0.162997  0.162997  0.069856     24.000000
  0.093141  0.093141  0.093141      8.000000
  0.116427  0.093141  0.093141     24.000000
  0.139712  0.093141  0.093141     24.000000
  0.162997  0.093141  0.093141     24.000000
  0.116427  0.116427  0.093141     24.000000
  0.139712  0.116427  0.093141     48.000000
  0.162997  0.116427  0.093141     48.000000
  0.139712  0.139712  0.093141     24.000000
  0.162997  0.139712  0.093141     48.000000
  0.162997  0.162997  0.093141     24.000000
  0.116427  0.116427  0.116427      8.000000
  0.139712  0.116427  0.116427     24.000000
  0.162997  0.116427  0.116427     24.000000
  0.139712  0.139712  0.116427     24.000000
  0.162997  0.139712  0.116427     48.000000
  0.162997  0.162997  0.116427     24.000000
  0.139712  0.139712  0.139712      8.000000
  0.162997  0.139712  0.139712     24.000000
  0.162997  0.162997  0.139712     24.000000
  0.162997  0.162997  0.162997      8.000000
 


--------------------------------------------------------------------------------------------------------




 Dimension of arrays:
   k-points           NKPTS =    120   k-points in BZ     NKDIM =    120   number of bands    NBANDS=     20
   number of dos      NEDOS =    301   number of ions     NIONS =      2
   non local maximal  LDIM  =      6   non local SUM 2l+1 LMDIM =     18
   total plane-waves  NPLWV =   2744
   max r-space proj   IRMAX =      1   max aug-charges    IRDMAX=  33516
   dimension x,y,z NGX =    14 NGY =   14 NGZ =   14
   dimension x,y,z NGXF=    28 NGYF=   28 NGZF=   28
   support grid    NGXF=    56 NGYF=   56 NGZF=   56
   ions per type =               2
   NGX,Y,Z   is equivalent  to a cutoff of   8.13,  8.13,  8.13 a.u.
   NGXF,Y,Z  is equivalent  to a cutoff of  16.26, 16.26, 16.26 a.u.

 SYSTEM =  unknown system                          
 POSCAR =  Fe2                                     

 Startparameter for this run:
   NWRITE =      2    write-flag & timer
   PREC   = accura    normal or accurate (medium, high low for compatibility)
   ISTART =      0    job   : 0-new  1-cont  2-samecut
   ICHARG =      2    charge: 1-file 2-atom 10-const
   ISPIN  =      2    spin polarized calculation?
   LNONCOLLINEAR =      F non collinear calculations
   LSORBIT =      F    spin-orbit coupling
   INIWAV =      1    electr: 0-lowe 1-rand  2-diag
   LASPH  =      T    aspherical Exc in radial PAW
   METAGGA=      F    non-selfconsistent MetaGGA calc.

 Electronic Relaxation 1
   ENCUT  =  200.0 eV  14.70 Ry    3.83 a.u.   3.30  3.30  3.30*2*pi/ulx,y,z
   ENINI  =  200.0     initial cutoff
   ENAUG  =  511.4 eV  augmentation charge cutoff
   NELM   =     90;   NELMIN=  6; NELMDL= -5     # of ELM steps 
   EDIFF  = 0.1E-05   stopping-criterion for ELM
   LREAL  =      F    real-space projection
   NLSPLINE    = F    spline interpolate recip. space projectors
   LCOMPAT=      F    compatible to vasp.4.4
   GGA_COMPAT  = F    GGA compatible to vasp.4.4-vasp.4.6
   LMAXPAW     = -100 max onsite density
   LMAXMIX     =    4 max onsite mixed and CHGCAR
   VOSKOWN=      1    Vosko Wilk Nusair interpolation
   ROPT   =    0.00000
 Ionic relaxation
   EDIFFG = -.2E-02   stopping-criterion for IOM
   NSW    =    100    number of steps for IOM
   NBLOCK =      1;   KBLOCK =    100    inner block; outer block 
   IBRION =      2    ionic relax: 0-MD 1-quasi-New 2-CG
   NFREE  =      1    steps in history (QN), initial steepest desc. (CG)
   ISIF   =      3    stress and relaxation
   IWAVPR =     11    prediction:  0-non 1-charg 2-wave 3-comb
   ISYM   =      2    0-nonsym 1-usesym 2-fastsym
   LCORR  =      T    Harris-Foulkes like correction to forces

   POTIM  = 0.5000    time-step for ionic-motion
   TEIN   =    0.0    initial temperature
   TEBEG  =    0.0;   TEEND  =   0.0 temperature during run
   SMASS  =  -3.00    Nose mass-parameter (am)
   estimated Nose-frequenzy (Omega)   =  0.10E-29 period in steps = 0.13E+47 mass=  -0.187E-27a.u.
   SCALEE = 1.0000    scale energy and forces
   NPACO  =    256;   APACO  = 16.0  distance and # of slots for P.C.
   PSTRESS=    0.0 pullay stress

  Mass of Ions in am
   POMASS =  55.85
  Ionic Valenz
   ZVAL   =   8.00
  Atomic Wigner-Seitz radii
   RWIGS  =  -1.00
  virtual crystal weights 
   VCA    =   1.00
   NELECT =      16.0000    total number of electrons
   NUPDOWN=      -1.0000    fix difference up-down

 DOS related values:
   EMIN   =  10.00;   EMAX   =-10.00  energy-range for DOS
   EFERMI =   0.00
   ISMEAR =     1;   SIGMA  =   0.20  broadening in eV -4-tet -1-fermi 0-gaus

 Electronic relaxation 2 (details)
   IALGO  =     38    algorithm
   LDIAG  =      T    sub-space diagonalisation (order eigenvalues)
   LSUBROT=      F    optimize rotation matrix (better conditioning)
   TURBO    =      0    0=normal 1=particle mesh
   IRESTART =      0    0=no restart 2=restart with 2 vectors
   NREBOOT  =      0    no. of reboots
   NMIN     =      0    reboot dimension
   EREF     =   0.00    reference energy to select bands
   IMIX   =      4    mixing-type and parameters
     AMIX     =   0.40;   BMIX     =  1.00
     AMIX_MAG =   1.60;   BMIX_MAG =  1.00
     AMIN     =   0.10
     WC   =   100.;   INIMIX=   1;  MIXPRE=   1;  MAXMIX= -45

 Intra band minimization:
   WEIMIN = 0.0010     energy-eigenvalue tresh-hold
   EBREAK =  0.12E-07  absolut break condition
   DEPER  =   0.30     relativ break condition  

   TIME   =   0.40     timestep for ELM

  volume/ion in A,a.u.               =      11.73        79.19
  Fermi-wavevector in a.u.,A,eV,Ry     =   1.440859  2.722828 28.246703  2.076074
  Thomas-Fermi vector in A             =   2.559556
 
 Write flags
   LWAVE        =      T    write WAVECAR
   LDOWNSAMPLE  =      F    k-point downsampling of WAVECAR
   LCHARG       =      T    write CHGCAR
   LVTOT        =      F    write LOCPOT, total local potential
   LVHAR        =      F    write LOCPOT, Hartree potential only
   LELF         =      F    write electronic localiz. function (ELF)
   LORBIT       =     11    0 simple, 1 ext, 2 COOP (PROOUT), +10 PAW based schemes


 Dipole corrections
   LMONO  =      F    monopole corrections only (constant potential shift)
   LDIPOL =      F    correct potential (dipole corrections)
   IDIPOL =      0    1-x, 2-y, 3-z, 4-all directions 
   EPSILON=  1.0000000 bulk dielectric constant

 Exchange correlation treatment:
   GGA     =    --    GGA type
   LEXCH   =     8    internal setting for exchange type
   VOSKOWN=      1    Vosko Wilk Nusair interpolation
   LHFCALC =     F    Hartree Fock is set to
   LHFONE  =     F    Hartree Fock one center treatment
   AEXX    =    0.0000 exact exchange contribution

 Linear response parameters
   LEPSILON=     F    determine dielectric tensor
   LRPA    =     F    only Hartree local field effects (RPA)
   LNABLA  =     F    use nabla operator in PAW spheres
   LVEL    =     F    velocity operator in full k-point grid
   LINTERFAST=   F  fast interpolation
   KINTER  =     0    interpolate to denser k-point grid
   CSHIFT  =0.1000    complex shift for real part using Kramers Kronig
   OMEGAMAX=  -1.0    maximum frequency
   DEG_THRESHOLD= 0.2000000E-02 threshold for treating states as degnerate
   RTIME   =   -0.100 relaxation time in fs
  (WPLASMAI=    0.000 imaginary part of plasma frequency in eV, 0.658/RTIME)
   DFIELD  = 0.0000000 0.0000000 0.0000000 field for delta impulse in time
 
 Orbital magnetization related:
   ORBITALMAG=     F  switch on orbital magnetization
   LCHIMAG   =     F  perturbation theory with respect to B field
   DQ        =  0.001000  dq finite difference perturbation B field
   LLRAUG    =     F  two centre corrections for induced B field



--------------------------------------------------------------------------------------------------------


 conjugate gradient relaxation of ions
 charge density and potential will be updated during run
 spin polarized calculation
 Variant of blocked Davidson
 Davidson routine will perform the subspace rotation
 perform sub-space diagonalisation
    after iterative eigenvector-optimisation
 modified Broyden-mixing scheme, WC =      100.0
 initial mixing is a Kerker type mixing with AMIX =  0.4000 and BMIX =      1.0000
 Hartree-type preconditioning will be used
 using additional bands           12
 reciprocal scheme for non local part
 use partial core corrections
 calculate Harris-corrections to forces 
   (improved forces if not selfconsistent)
 use gradient corrections 
 use of overlap-Matrix (Vanderbilt PP)
 Methfessel and Paxton  Order N= 1 SIGMA  =   0.20


--------------------------------------------------------------------------------------------------------


  energy-cutoff  :      200.00
  volume of cell :       23.47
      direct lattice vectors                 reciprocal lattice vectors
     2.863035499  0.000000000  0.000000000     0.349279637 -0.000000000  0.000000000
     0.000000000  2.863035499  0.000000000     0.000000000  0.349279637  0.000000000
     0.000000000  0.000000000  2.863035499    -0.000000000 -0.000000000  0.349279637

  length of vectors
     2.863035499  2.863035499  2.863035499     0.349279637  0.349279637  0.349279637


 
 k-points in units of 2pi/SCALE and weight: Automatic                               
   0.00000000  0.00000000  0.00000000       0.000
   0.02328531 -0.00000000  0.00000000       0.002
   0.04657062 -0.00000000  0.00000000       0.002
   0.06985593 -0.00000000  0.00000000       0.002
   0.09314124 -0.00000000  0.00000000       0.002
   0.11642655 -0.00000000  0.00000000       0.002
   0.13971185 -0.00000000  0.00000000       0.002
   0.16299716 -0.00000000  0.00000000       0.002
   0.02328531  0.02328531  0.00000000       0.004
   0.04657062  0.02328531  0.00000000       0.007
   0.06985593  0.02328531  0.00000000       0.007
   0.09314124  0.02328531  0.00000000       0.007
   0.11642655  0.02328531  0.00000000       0.007
   0.13971185  0.02328531  0.00000000       0.007
   0.16299716  0.02328531  0.00000000       0.007
   0.04657062  0.04657062  0.00000000       0.004
   0.06985593  0.04657062  0.00000000       0.007
   0.09314124  0.04657062  0.00000000       0.007
   0.11642655  0.04657062  0.00000000       0.007
   0.13971185  0.04657062  0.00000000       0.007
   0.16299716  0.04657062  0.00000000       0.007
   0.06985593  0.06985593  0.00000000       0.004
   0.09314124  0.06985593  0.00000000       0.007
   0.11642655  0.06985593  0.00000000       0.007
   0.13971185  0.06985593  0.00000000       0.007
   0.16299716  0.06985593  0.00000000       0.007
   0.09314124  0.09314124  0.00000000       0.004
   0.11642655  0.09314124  0.00000000       0.007
   0.13971185  0.09314124  0.00000000       0.007
   0.16299716  0.09314124  0.00000000       0.007
   0.11642655  0.11642655  0.00000000       0.004
   0.13971185  0.11642655  0.00000000       0.007
   0.16299716  0.11642655  0.00000000       0.007
   0.13971185  0.13971185  0.00000000       0.004
   0.16299716  0.13971185  0.00000000       0.007
   0.16299716  0.16299716  0.00000000       0.004
   0.02328531  0.02328531  0.02328531       0.002
   0.04657062  0.02328531  0.02328531       0.007
   0.06985593  0.02328531  0.02328531       0.007
   0.09314124  0.02328531  0.02328531       0.007
   0.11642655  0.02328531  0.02328531       0.007
   0.13971185  0.02328531  0.02328531       0.007
   0.16299716  0.02328531  0.02328531       0.007
   0.04657062  0.04657062  0.02328531       0.007
   0.06985593  0.04657062  0.02328531       0.014
   0.09314124  0.04657062  0.02328531       0.014
   0.11642655  0.04657062  0.02328531       0.014
   0.13971185  0.04657062  0.02328531       0.014
   0.16299716  0.04657062  0.02328531       0.014
   0.06985593  0.06985593  0.02328531       0.007
   0.09314124  0.06985593  0.02328531       0.014
   0.11642655  0.06985593  0.02328531       0.014
   0.13971185  0.06985593  0.02328531       0.014
   0.16299716  0.06985593  0.02328531       0.014
   0.09314124  0.09314124  0.02328531       0.007
   0.11642655  0.09314124  0.02328531       0.014
   0.13971185  0.09314124  0.02328531       0.014
   0.16299716  0.09314124  0.02328531       0.014
   0.11642655  0.11642655  0.02328531       0.007
   0.13971185  0.11642655  0.02328531       0.014
   0.16299716  0.11642655  0.02328531       0.014
   0.13971185  0.13971185  0.02328531       0.007
   0.16299716  0.13971185  0.02328531       0.014
   0.16299716  0.16299716  0.02328531       0.007
   0.04657062  0.04657062  0.04657062       0.002
   0.06985593  0.04657062  0.04657062       0.007
   0.09314124  0.04657062  0.04657062       0.007
   0.11642655  0.04657062  0.04657062       0.007
   0.13971185  0.04657062  0.04657062       0.007
   0.16299716  0.04657062  0.04657062       0.007
   0.06985593  0.06985593  0.04657062       0.007
   0.09314124  0.06985593  0.04657062       0.014
   0.11642655  0.06985593  0.04657062       0.014
   0.13971185  0.06985593  0.04657062       0.014
   0.16299716  0.06985593  0.04657062       0.014
   0.09314124  0.09314124  0.04657062       0.007
   0.11642655  0.09314124  0.04657062       0.014
   0.13971185  0.09314124  0.04657062       0.014
   0.16299716  0.09314124  0.04657062       0.014
   0.11642655  0.11642655  0.04657062       0.007
   0.13971185  0.11642655  0.04657062       0.014
   0.16299716  0.11642655  0.04657062       0.014
   0.13971185  0.13971185  0.04657062       0.007
   0.16299716  0.13971185  0.04657062       0.014
   0.16299716  0.16299716  0.04657062       0.007
   0.06985593  0.06985593  0.06985593       0.002
   0.09314124  0.06985593  0.06985593       0.007
   0.11642655  0.06985593  0.06985593       0.007
   0.13971185  0.06985593  0.06985593       0.007
   0.16299716  0.06985593  0.06985593       0.007
   0.09314124  0.09314124  0.06985593       0.007
   0.11642655  0.09314124  0.06985593       0.014
   0.13971185  0.09314124  0.06985593       0.014
   0.16299716  0.09314124  0.06985593       0.014
   0.11642655  0.11642655  0.06985593       0.007
   0.13971185  0.11642655  0.06985593       0.014
   0.16299716  0.11642655  0.06985593       0.014
   0.13971185  0.13971185  0.06985593       0.007
   0.16299716  0.13971185  0.06985593       0.014
   0.16299716  0.16299716  0.06985593       0.007
   0.09314124  0.09314124  0.09314124       0.002
   0.11642655  0.09314124  0.09314124       0.007
   0.13971185  0.09314124  0.09314124       0.007
   0.16299716  0.09314124  0.09314124       0.007
   0.11642655  0.11642655  0.09314124       0.007
   0.13971185  0.11642655  0.09314124       0.014
   0.16299716  0.11642655  0.09314124       0.014
   0.13971185  0.13971185  0.09314124       0.007
   0.16299716  0.13971185  0.09314124       0.014
   0.16299716  0.16299716  0.09314124       0.007
   0.11642655  0.11642655  0.11642655       0.002
   0.13971185  0.11642655  0.11642655       0.007
   0.16299716  0.11642655  0.11642655       0.007
   0.13971185  0.13971185  0.11642655       0.007
   0.16299716  0.13971185  0.11642655       0.014
   0.16299716  0.16299716  0.11642655       0.007
   0.13971185  0.13971185  0.13971185       0.002
   0.16299716  0.13971185  0.13971185       0.007
   0.16299716  0.16299716  0.13971185       0.007
   0.16299716  0.16299716  0.16299716       0.002
 
 k-points in reciprocal lattice and weights: Automatic                               
   0.00000000  0.00000000  0.00000000       0.000
   0.06666667  0.00000000  0.00000000       0.002
   0.13333333  0.00000000  0.00000000       0.002
   0.20000000 -0.00000000  0.00000000       0.002
   0.26666667  0.00000000  0.00000000       0.002
   0.33333333  0.00000000  0.00000000       0.002
   0.40000000  0.00000000  0.00000000       0.002
   0.46666667 -0.00000000  0.00000000       0.002
   0.06666667  0.06666667  0.00000000       0.004
   0.13333333  0.06666667  0.00000000       0.007
   0.20000000  0.06666667  0.00000000       0.007
   0.26666667  0.06666667  0.00000000       0.007
   0.33333333  0.06666667  0.00000000       0.007
   0.40000000  0.06666667  0.00000000       0.007
   0.46666667  0.06666667  0.00000000       0.007
   0.13333333  0.13333333  0.00000000       0.004
   0.20000000  0.13333333  0.00000000       0.007
   0.26666667  0.13333333  0.00000000       0.007
   0.33333333  0.13333333  0.00000000       0.007
   0.40000000  0.13333333  0.00000000       0.007
   0.46666667  0.13333333  0.00000000       0.007
   0.20000000  0.20000000  0.00000000       0.004
   0.26666667  0.20000000  0.00000000       0.007
   0.33333333  0.20000000  0.00000000       0.007
   0.40000000  0.20000000  0.00000000       0.007
   0.46666667  0.20000000  0.00000000       0.007
   0.26666667  0.26666667  0.00000000       0.004
   0.33333333  0.26666667  0.00000000       0.007
   0.40000000  0.26666667  0.00000000       0.007
   0.46666667  0.26666667  0.00000000       0.007
   0.33333333  0.33333333  0.00000000       0.004
   0.40000000  0.33333333  0.00000000       0.007
   0.46666667  0.33333333  0.00000000       0.007
   0.40000000  0.40000000  0.00000000       0.004
   0.46666667  0.40000000  0.00000000       0.007
   0.46666667  0.46666667  0.00000000       0.004
   0.06666667  0.06666667  0.06666667       0.002
   0.13333333  0.06666667  0.06666667       0.007
   0.20000000  0.06666667  0.06666667       0.007
   0.26666667  0.06666667  0.06666667       0.007
   0.33333333  0.06666667  0.06666667       0.007
   0.40000000  0.06666667  0.06666667       0.007
   0.46666667  0.06666667  0.06666667       0.007
   0.13333333  0.13333333  0.06666667       0.007
   0.20000000  0.13333333  0.06666667       0.014
   0.26666667  0.13333333  0.06666667       0.014
   0.33333333  0.13333333  0.06666667       0.014
   0.40000000  0.13333333  0.06666667       0.014
   0.46666667  0.13333333  0.06666667       0.014
   0.20000000  0.20000000  0.06666667       0.007
   0.26666667  0.20000000  0.06666667       0.014
   0.33333333  0.20000000  0.06666667       0.014
   0.40000000  0.20000000  0.06666667       0.014
   0.46666667  0.20000000  0.06666667       0.014
   0.26666667  0.26666667  0.06666667       0.007
   0.33333333  0.26666667  0.06666667       0.014
   0.40000000  0.26666667  0.06666667       0.014
   0.46666667  0.26666667  0.06666667       0.014
   0.33333333  0.33333333  0.06666667       0.007
   0.40000000  0.33333333  0.06666667       0.014
   0.46666667  0.33333333  0.06666667       0.014
   0.40000000  0.40000000  0.06666667       0.007
   0.46666667  0.40000000  0.06666667       0.014
   0.46666667  0.46666667  0.06666667       0.007
   0.13333333  0.13333333  0.13333333       0.002
   0.20000000  0.13333333  0.13333333       0.007
   0.26666667  0.13333333  0.13333333       0.007
   0.33333333  0.13333333  0.13333333       0.007
   0.40000000  0.13333333  0.13333333       0.007
   0.46666667  0.13333333  0.13333333       0.007
   0.20000000  0.20000000  0.13333333       0.007
   0.26666667  0.20000000  0.13333333       0.014
   0.33333333  0.20000000  0.13333333       0.014
   0.40000000  0.20000000  0.13333333       0.014
   0.46666667  0.20000000  0.13333333       0.014
   0.26666667  0.26666667  0.13333333       0.007
   0.33333333  0.26666667  0.13333333       0.014
   0.40000000  0.26666667  0.13333333       0.014
   0.46666667  0.26666667  0.13333333       0.014
   0.33333333  0.33333333  0.13333333       0.007
   0.40000000  0.33333333  0.13333333       0.014
   0.46666667  0.33333333  0.13333333       0.014
   0.40000000  0.40000000  0.13333333       0.007
   0.46666667  0.40000000  0.13333333       0.014
   0.46666667  0.46666667  0.13333333       0.007
   0.20000000  0.20000000  0.20000000       0.002
   0.26666667  0.20000000  0.20000000       0.007
   0.33333333  0.20000000  0.20000000       0.007
   0.40000000  0.20000000  0.20000000       0.007
   0.46666667  0.20000000  0.20000000       0.007
   0.26666667  0.26666667  0.20000000       0.007
   0.33333333  0.26666667  0.20000000       0.014
   0.40000000  0.26666667  0.20000000       0.014
   0.46666667  0.26666667  0.20000000       0.014
   0.33333333  0.33333333  0.20000000       0.007
   0.40000000  0.33333333  0.20000000       0.014
   0.46666667  0.33333333  0.20000000       0.014
   0.40000000  0.40000000  0.20000000       0.007
   0.46666667  0.40000000  0.20000000       0.014
   0.46666667  0.46666667  0.20000000       0.007
   0.26666667  0.26666667  0.26666667       0.002
   0.33333333  0.26666667  0.26666667       0.007
   0.40000000  0.26666667  0.26666667       0.007
   0.46666667  0.26666667  0.26666667       0.007
   0.33333333  0.33333333  0.26666667       0.007
   0.40000000  0.33333333  0.26666667       0.014
   0.46666667  0.33333333  0.26666667       0.014
   0.40000000  0.40000000  0.26666667       0.007
   0.46666667  0.40000000  0.26666667       0.014
   0.46666667  0.46666667  0.26666667       0.007
   0.33333333  0.33333333  0.33333333       0.002
   0.40000000  0.33333333  0.33333333       0.007
   0.46666667  0.33333333  0.33333333       0.007
   0.40000000  0.40000000  0.33333333       0.007
   0.46666667  0.40000000  0.33333333       0.014
   0.46666667  0.46666667  0.33333333       0.007
   0.40000000  0.40000000  0.40000000       0.002
   0.46666667  0.40000000  0.40000000       0.007
   0.46666667  0.46666667  0.40000000       0.007
   0.46666667  0.46666667  0.46666667       0.002
 
 position of ions in fractional coordinates (direct lattice) 
   0.00000000  0.00000000  0.00000000
   0.50000000  0.50000000  0.50000000
 
 position of ions in cartesian coordinates  (Angst):
   0.00000000  0.00000000  0.00000000
   1.43151775  1.43151775  1.43151775
 


--------------------------------------------------------------------------------------------------------


 k-point   1 :   0.0000 0.0000 0.0000  plane waves:     147
 k-point   2 :   0.0667 0.0000 0.0000  plane waves:     159
 k-point   3 :   0.1333 0.0000 0.0000  plane waves:     159
 k-point   4 :   0.2000-0.0000 0.0000  plane waves:     155
 k-point   5 :   0.2667 0.0000 0.0000  plane waves:     155
 k-point   6 :   0.3333 0.0000 0.0000  plane waves:     158
 k-point   7 :   0.4000 0.0000 0.0000  plane waves:     158
 k-point   8 :   0.4667-0.0000 0.0000  plane waves:     150
 k-point   9 :   0.0667 0.0667 0.0000  plane waves:     157
 k-point  10 :   0.1333 0.0667 0.0000  plane waves:     158
 k-point  11 :   0.2000 0.0667 0.0000  plane waves:     153
 k-point  12 :   0.2667 0.0667 0.0000  plane waves:     154
 k-point  13 :   0.3333 0.0667 0.0000  plane waves:     156
 k-point  14 :   0.4000 0.0667 0.0000  plane waves:     156
 k-point  15 :   0.4667 0.0667 0.0000  plane waves:     153
 k-point  16 :   0.1333 0.1333 0.0000  plane waves:     155
 k-point  17 :   0.2000 0.1333 0.0000  plane waves:     154
 k-point  18 :   0.2667 0.1333 0.0000  plane waves:     156
 k-point  19 :   0.3333 0.1333 0.0000  plane waves:     150
 k-point  20 :   0.4000 0.1333 0.0000  plane waves:     149
 k-point  21 :   0.4667 0.1333 0.0000  plane waves:     149
 k-point  22 :   0.2000 0.2000 0.0000  plane waves:     153
 k-point  23 :   0.2667 0.2000 0.0000  plane waves:     152
 k-point  24 :   0.3333 0.2000 0.0000  plane waves:     153
 k-point  25 :   0.4000 0.2000 0.0000  plane waves:     151
 k-point  26 :   0.4667 0.2000 0.0000  plane waves:     148
 k-point  27 :   0.2667 0.2667 0.0000  plane waves:     151
 k-point  28 :   0.3333 0.2667 0.0000  plane waves:     146
 k-point  29 :   0.4000 0.2667 0.0000  plane waves:     148
 k-point  30 :   0.4667 0.2667 0.0000  plane waves:     151
 k-point  31 :   0.3333 0.3333 0.0000  plane waves:     149
 k-point  32 :   0.4000 0.3333 0.0000  plane waves:     146
 k-point  33 :   0.4667 0.3333 0.0000  plane waves:     148
 k-point  34 :   0.4000 0.4000 0.0000  plane waves:     144
 k-point  35 :   0.4667 0.4000 0.0000  plane waves:     148
 k-point  36 :   0.4667 0.4667 0.0000  plane waves:     152
 k-point  37 :   0.0667 0.0667 0.0667  plane waves:     159
 k-point  38 :   0.1333 0.0667 0.0667  plane waves:     155
 k-point  39 :   0.2000 0.0667 0.0667  plane waves:     152
 k-point  40 :   0.2667 0.0667 0.0667  plane waves:     152
 k-point  41 :   0.3333 0.0667 0.0667  plane waves:     155
 k-point  42 :   0.4000 0.0667 0.0667  plane waves:     151
 k-point  43 :   0.4667 0.0667 0.0667  plane waves:     154
 k-point  44 :   0.1333 0.1333 0.0667  plane waves:     155
 k-point  45 :   0.2000 0.1333 0.0667  plane waves:     154
 k-point  46 :   0.2667 0.1333 0.0667  plane waves:     152
 k-point  47 :   0.3333 0.1333 0.0667  plane waves:     151
 k-point  48 :   0.4000 0.1333 0.0667  plane waves:     151
 k-point  49 :   0.4667 0.1333 0.0667  plane waves:     148
 k-point  50 :   0.2000 0.2000 0.0667  plane waves:     155
 k-point  51 :   0.2667 0.2000 0.0667  plane waves:     153
 k-point  52 :   0.3333 0.2000 0.0667  plane waves:     150
 k-point  53 :   0.4000 0.2000 0.0667  plane waves:     148
 k-point  54 :   0.4667 0.2000 0.0667  plane waves:     149
 k-point  55 :   0.2667 0.2667 0.0667  plane waves:     149
 k-point  56 :   0.3333 0.2667 0.0667  plane waves:     147
 k-point  57 :   0.4000 0.2667 0.0667  plane waves:     147
 k-point  58 :   0.4667 0.2667 0.0667  plane waves:     150
 k-point  59 :   0.3333 0.3333 0.0667  plane waves:     147
 k-point  60 :   0.4000 0.3333 0.0667  plane waves:     148
 k-point  61 :   0.4667 0.3333 0.0667  plane waves:     150
 k-point  62 :   0.4000 0.4000 0.0667  plane waves:     150
 k-point  63 :   0.4667 0.4000 0.0667  plane waves:     151
 k-point  64 :   0.4667 0.4667 0.0667  plane waves:     148
 k-point  65 :   0.1333 0.1333 0.1333  plane waves:     154
 k-point  66 :   0.2000 0.1333 0.1333  plane waves:     150
 k-point  67 :   0.2667 0.1333 0.1333  plane waves:     148
 k-point  68 :   0.3333 0.1333 0.1333  plane waves:     151
 k-point  69 :   0.4000 0.1333 0.1333  plane waves:     148
 k-point  70 :   0.4667 0.1333 0.1333  plane waves:     152
 k-point  71 :   0.2000 0.2000 0.1333  plane waves:     150
 k-point  72 :   0.2667 0.2000 0.1333  plane waves:     150
 k-point  73 :   0.3333 0.2000 0.1333  plane waves:     148
 k-point  74 :   0.4000 0.2000 0.1333  plane waves:     152
 k-point  75 :   0.4667 0.2000 0.1333  plane waves:     149
 k-point  76 :   0.2667 0.2667 0.1333  plane waves:     149
 k-point  77 :   0.3333 0.2667 0.1333  plane waves:     150
 k-point  78 :   0.4000 0.2667 0.1333  plane waves:     152
 k-point  79 :   0.4667 0.2667 0.1333  plane waves:     148
 k-point  80 :   0.3333 0.3333 0.1333  plane waves:     150
 k-point  81 :   0.4000 0.3333 0.1333  plane waves:     152
 k-point  82 :   0.4667 0.3333 0.1333  plane waves:     152
 k-point  83 :   0.4000 0.4000 0.1333  plane waves:     152
 k-point  84 :   0.4667 0.4000 0.1333  plane waves:     152
 k-point  85 :   0.4667 0.4667 0.1333  plane waves:     154
 k-point  86 :   0.2000 0.2000 0.2000  plane waves:     145
 k-point  87 :   0.2667 0.2000 0.2000  plane waves:     151
 k-point  88 :   0.3333 0.2000 0.2000  plane waves:     148
 k-point  89 :   0.4000 0.2000 0.2000  plane waves:     150
 k-point  90 :   0.4667 0.2000 0.2000  plane waves:     150
 k-point  91 :   0.2667 0.2667 0.2000  plane waves:     150
 k-point  92 :   0.3333 0.2667 0.2000  plane waves:     153
 k-point  93 :   0.4000 0.2667 0.2000  plane waves:     150
 k-point  94 :   0.4667 0.2667 0.2000  plane waves:     148
 k-point  95 :   0.3333 0.3333 0.2000  plane waves:     153
 k-point  96 :   0.4000 0.3333 0.2000  plane waves:     153
 k-point  97 :   0.4667 0.3333 0.2000  plane waves:     151
 k-point  98 :   0.4000 0.4000 0.2000  plane waves:     153
 k-point  99 :   0.4667 0.4000 0.2000  plane waves:     154
 k-point 100 :   0.4667 0.4667 0.2000  plane waves:     152
 k-point 101 :   0.2667 0.2667 0.2667  plane waves:     151
 k-point 102 :   0.3333 0.2667 0.2667  plane waves:     152
 k-point 103 :   0.4000 0.2667 0.2667  plane waves:     150
 k-point 104 :   0.4667 0.2667 0.2667  plane waves:     150
 k-point 105 :   0.3333 0.3333 0.2667  plane waves:     151
 k-point 106 :   0.4000 0.3333 0.2667  plane waves:     149
 k-point 107 :   0.4667 0.3333 0.2667  plane waves:     152
 k-point 108 :   0.4000 0.4000 0.2667  plane waves:     148
 k-point 109 :   0.4667 0.4000 0.2667  plane waves:     148
 k-point 110 :   0.4667 0.4667 0.2667  plane waves:     148
 k-point 111 :   0.3333 0.3333 0.3333  plane waves:     148
 k-point 112 :   0.4000 0.3333 0.3333  plane waves:     150
 k-point 113 :   0.4667 0.3333 0.3333  plane waves:     148
 k-point 114 :   0.4000 0.4000 0.3333  plane waves:     148
 k-point 115 :   0.4667 0.4000 0.3333  plane waves:     151
 k-point 116 :   0.4667 0.4667 0.3333  plane waves:     148
 k-point 117 :   0.4000 0.4000 0.4000  plane waves:     151
 k-point 118 :   0.4667 0.4000 0.4000  plane waves:     150
 k-point 119 :   0.4667 0.4667 0.4000  plane waves:     150
 k-point 120 :   0.4667 0.4667 0.4667  plane waves:     151

 maximum and minimum number of plane-waves per node :       159      144

 maximum number of plane-waves:       159
 maximum index in each direction: 
   IXMAX=    3   IYMAX=    3   IZMAX=    3
   IXMIN=   -3   IYMIN=   -3   IZMIN=   -3


 serial   3D FFT for wavefunctions
 parallel 3D FFT for charge:
    minimum data exchange during FFTs selected (reduces bandwidth)


 total amount of memory used by VASP MPI-rank0    38076. kBytes
=======================================================================

   base      :      30000. kBytes
   nonl-proj :       2769. kBytes
   fftplans  :        840. kBytes
   grid      :        642. kBytes
   one-center:         62. kBytes
   wavefun   :       3763. kBytes
 
     INWAV:  cpu time    0.0000: real time    0.0007
 Broyden mixing: mesh for mixing (old mesh)
   NGX =  7   NGY =  7   NGZ =  7
  (NGX  = 28   NGY  = 28   NGZ  = 28)
  gives a total of    343 points

 initial charge density was supplied:
 charge density of overlapping atoms calculated
 number of electron      16.0000000 magnetization      10.0000000
 keeping initial charge density in first step


--------------------------------------------------------------------------------------------------------


 Maximum index for augmentation-charges         8057 (set IRDMAX)


--------------------------------------------------------------------------------------------------------


 First call to EWALD:  gamma=   0.619
 Maximum number of real-space cells 3x 3x 3
 Maximum number of reciprocal cells 3x 3x 3

    FEWALD:  cpu time    0.0030: real time    0.0035


--------------------------------------- Iteration      1(   1)  ---------------------------------------


    POTLOK:  cpu time    0.0170: real time    0.0211
    SETDIJ:  cpu time    1.5258: real time    1.5250
     EDDAV:  cpu time    2.1897: real time    2.1925
       DOS:  cpu time    0.0090: real time    0.0107
    --------------------------------------------
      LOOP:  cpu time    3.7424: real time    3.7497

 eigenvalue-minimisations  : 10764
 total energy-change (2. order) : 0.3300032E+02  (-0.4409799E+03)
 number of electron      16.0000000 magnetization      10.0000000
 augmentation part       16.0000000 magnetization      10.0000000

 Free energy of the ion-electron system (eV)
  ---------------------------------------------------
  alpha Z        PSCENC =       117.79976220
  Ewald energy   TEWEN  =     -1171.43779597
  -Hartree energ DENC   =      -228.04061709
  -exchange      EXHF   =         0.00000000
  -V(xc)+E(xc)   XCENC  =        14.27155142
  PAW double counting   =      1103.49540010    -1119.11610375
  entropy T*S    EENTRO =        -0.00037301
  eigenvalues    EBANDS =       128.73233473
  atomic energy  EATOM  =      1187.29615887
  Solvation  Ediel_sol  =         0.00000000
  ---------------------------------------------------
  free energy    TOTEN  =        33.00031749 eV

  energy without entropy =       33.00069050  energy(sigma->0) =       33.00044183


--------------------------------------------------------------------------------------------------------




--------------------------------------- Iteration      1(   2)  ---------------------------------------


     EDDAV:  cpu time    2.1007: real time    2.1167
       DOS:  cpu time    0.0100: real time    0.0108
    --------------------------------------------
      LOOP:  cpu time    2.1097: real time    2.1275

 eigenvalue-minimisations  : 10260
 total energy-change (2. order) :-0.4793731E+02  (-0.4322038E+02)
 number of electron      16.0000000 magnetization      10.0000000
 augmentation part       16.0000000 magnetization      10.0000000

 Free energy of the ion-electron system (eV)
  ---------------------------------------------------
  alpha Z        PSCENC =       117.79976220
  Ewald energy   TEWEN  =     -1171.43779597
  -Hartree energ DENC   =      -228.04061709
  -exchange      EXHF   =         0.00000000
  -V(xc)+E(xc)   XCENC  =        14.27155142
  PAW double counting   =      1103.49540010    -1119.11610375
  entropy T*S    EENTRO =         0.00027955
  eigenvalues    EBANDS =        80.79436769
  atomic energy  EATOM  =      1187.29615887
  Solvation  Ediel_sol  =         0.00000000
  ---------------------------------------------------
  free energy    TOTEN  =       -14.93699699 eV

  energy without entropy =      -14.93727654  energy(sigma->0) =      -14.93709017


--------------------------------------------------------------------------------------------------------




--------------------------------------- Iteration      1(   3)  ---------------------------------------


     EDDAV:  cpu time    2.1517: real time    2.1713
       DOS:  cpu time    0.0110: real time    0.0107
    --------------------------------------------
      LOOP:  cpu time    2.1627: real time    2.1820

 eigenvalue-minimisations  : 10696
 total energy-change (2. order) :-0.9283149E+00  (-0.9220441E+00)
 number of electron      16.0000000 magnetization      10.0000000
 augmentation part       16.0000000 magnetization      10.0000000

 Free energy of the ion-electron system (eV)
  ---------------------------------------------------
  alpha Z        PSCENC =       117.79976220
  Ewald energy   TEWEN  =     -1171.43779597
  -Hartree energ DENC   =      -228.04061709
  -exchange      EXHF   =         0.00000000
  -V(xc)+E(xc)   XCENC  =        14.27155142
  PAW double counting   =      1103.49540010    -1119.11610375
  entropy T*S    EENTRO =         0.00130305
  eigenvalues    EBANDS =        79.86502926
  atomic energy  EATOM  =      1187.29615887
  Solvation  Ediel_sol  =         0.00000000
  ---------------------------------------------------
  free energy    TOTEN  =       -15.86531192 eV

  energy without entropy =      -15.86661497  energy(sigma->0) =      -15.86574627


--------------------------------------------------------------------------------------------------------




--------------------------------------- Iteration      1(   4)  ---------------------------------------


     EDDAV:  cpu time    2.0917: real time    2.1107
       DOS:  cpu time    0.0100: real time    0.0111
    --------------------------------------------
      LOOP:  cpu time    2.1027: real time    2.1218

 eigenvalue-minimisations  : 10240
 total energy-change (2. order) :-0.2409228E-02  (-0.2409118E-02)
 number of electron      16.0000000 magnetization      10.0000000
 augmentation part       16.0000000 magnetization      10.0000000

 Free energy of the ion-electron system (eV)
  ---------------------------------------------------
  alpha Z        PSCENC =       117.79976220
  Ewald energy   TEWEN  =     -1171.43779597
  -Hartree energ DENC   =      -228.04061709
  -exchange      EXHF   =         0.00000000
  -V(xc)+E(xc)   XCENC  =        14.27155142
  PAW double counting   =      1103.49540010    -1119.11610375
  entropy T*S    EENTRO =         0.00130751
  eigenvalues    EBANDS =        79.86261557
  atomic energy  EATOM  =      1187.29615887
  Solvation  Ediel_sol  =         0.00000000
  ---------------------------------------------------
  free energy    TOTEN  =       -15.86772115 eV

  energy without entropy =      -15.86902866  energy(sigma->0) =      -15.86815699


--------------------------------------------------------------------------------------------------------




--------------------------------------- Iteration      1(   5)  ---------------------------------------


     EDDAV:  cpu time    2.1507: real time    2.1700
       DOS:  cpu time    0.0110: real time    0.0110
    CHARGE:  cpu time    0.0700: real time    0.0701
    MIXING:  cpu time    0.0010: real time    0.0007
    --------------------------------------------
      LOOP:  cpu time    2.2317: real time    2.2518

 eigenvalue-minimisations  : 10624
 total energy-change (2. order) :-0.1051729E-04  (-0.1051721E-04)
 number of electron      15.9999995 magnetization       4.3408446
 augmentation part        7.1617796 magnetization       2.5849648

 Broyden mixing:
  rms(total) = 0.21898E+01    rms(broyden)= 0.21894E+01
  rms(prec ) = 0.39296E+01
  weight for this iteration     100.00

 Free energy of the ion-electron system (eV)
  ---------------------------------------------------
  alpha Z        PSCENC =       117.79976220
  Ewald energy   TEWEN  =     -1171.43779597
  -Hartree energ DENC   =      -228.04061709
  -exchange      EXHF   =         0.00000000
  -V(xc)+E(xc)   XCENC  =        14.27155142
  PAW double counting   =      1103.49540010    -1119.11610375
  entropy T*S    EENTRO =         0.00130752
  eigenvalues    EBANDS =        79.86260503
  atomic energy  EATOM  =      1187.29615887
  Solvation  Ediel_sol  =         0.00000000
  ---------------------------------------------------
  free energy    TOTEN  =       -15.86773167 eV

  energy without entropy =      -15.86903919  energy(sigma->0) =      -15.86816751


--------------------------------------------------------------------------------------------------------




--------------------------------------- Iteration      1(   6)  ---------------------------------------


    POTLOK:  cpu time    0.0180: real time    0.0354
    SETDIJ:  cpu time    1.5168: real time    1.5172
     EDDAV:  cpu time    2.0757: real time    2.0773
       DOS:  cpu time    0.0100: real time    0.0117
    CHARGE:  cpu time    0.0630: real time    0.0629
    MIXING:  cpu time    0.0010: real time    0.0008
    --------------------------------------------
      LOOP:  cpu time    3.6844: real time    3.7054

 eigenvalue-minimisations  : 10204
 total energy-change (2. order) : 0.4155526E+00  (-0.6113012E+00)
 number of electron      15.9999995 magnetization       4.6390017
 augmentation part        8.3741338 magnetization       3.7172450

 Broyden mixing:
  rms(total) = 0.41881E+00    rms(broyden)= 0.41544E+00
  rms(prec ) = 0.52646E+00
  weight for this iteration     100.00

 eigenvalues of (default mixing * dielectric matrix)
  average eigenvalue GAMMA=   0.8533
  0.8533

 Free energy of the ion-electron system (eV)
  ---------------------------------------------------
  alpha Z        PSCENC =       117.79976220
  Ewald energy   TEWEN  =     -1171.43779597
  -Hartree energ DENC   =      -193.65397922
  -exchange      EXHF   =         0.00000000
  -V(xc)+E(xc)   XCENC  =         7.92399624
  PAW double counting   =      1226.92719964    -1237.32644530
  entropy T*S    EENTRO =         0.00295773
  eigenvalues    EBANDS =        47.01596673
  atomic energy  EATOM  =      1187.29615887
  Solvation  Ediel_sol  =         0.00000000
  ---------------------------------------------------
  free energy    TOTEN  =       -15.45217909 eV

  energy without entropy =      -15.45513682  energy(sigma->0) =      -15.45316500


--------------------------------------------------------------------------------------------------------




--------------------------------------- Iteration      1(   7)  ---------------------------------------


    POTLOK:  cpu time    0.0180: real time    0.0353
    SETDIJ:  cpu time    1.5138: real time    1.5137
     EDDAV:  cpu time    2.0707: real time    2.0732
       DOS:  cpu time    0.0110: real time    0.0115
    CHARGE:  cpu time    0.0630: real time    0.0630
    MIXING:  cpu time    0.0000: real time    0.0007
    --------------------------------------------
      LOOP:  cpu time    3.6774: real time    3.6974

 eigenvalue-minimisations  : 10208
 total energy-change (2. order) : 0.1519094E-01  (-0.2733619E-01)
 number of electron      15.9999995 magnetization       4.5499619
 augmentation part        8.1917605 magnetization       3.6681429

 Broyden mixing:
  rms(total) = 0.28511E+00    rms(broyden)= 0.28463E+00
  rms(prec ) = 0.32255E+00
  weight for this iteration     100.00

 eigenvalues of (default mixing * dielectric matrix)
  average eigenvalue GAMMA=   0.7798
  0.9979  0.5617

 Free energy of the ion-electron system (eV)
  ---------------------------------------------------
  alpha Z        PSCENC =       117.79976220
  Ewald energy   TEWEN  =     -1171.43779597
  -Hartree energ DENC   =      -196.52821684
  -exchange      EXHF   =         0.00000000
  -V(xc)+E(xc)   XCENC  =         8.63111148
  PAW double counting   =      1293.99742204    -1306.38674621
  entropy T*S    EENTRO =         0.00028123
  eigenvalues    EBANDS =        51.19103505
  atomic energy  EATOM  =      1187.29615887
  Solvation  Ediel_sol  =         0.00000000
  ---------------------------------------------------
  free energy    TOTEN  =       -15.43698815 eV

  energy without entropy =      -15.43726938  energy(sigma->0) =      -15.43708189


--------------------------------------------------------------------------------------------------------




--------------------------------------- Iteration      1(   8)  ---------------------------------------


    POTLOK:  cpu time    0.0190: real time    0.0347
    SETDIJ:  cpu time    1.5148: real time    1.5150
     EDDAV:  cpu time    2.0637: real time    2.0663
       DOS:  cpu time    0.0110: real time    0.0118
    CHARGE:  cpu time    0.0630: real time    0.0629
    MIXING:  cpu time    0.0010: real time    0.0007
    --------------------------------------------
      LOOP:  cpu time    3.6714: real time    3.6914

 eigenvalue-minimisations  : 10164
 total energy-change (2. order) : 0.5747803E-02  (-0.5783101E-03)
 number of electron      15.9999995 magnetization       4.4996350
 augmentation part        8.2028567 magnetization       3.6180982

 Broyden mixing:
  rms(total) = 0.10625E+00    rms(broyden)= 0.10614E+00
  rms(prec ) = 0.14539E+00
  weight for this iteration     100.00

 eigenvalues of (default mixing * dielectric matrix)
  average eigenvalue GAMMA=   0.9980
  1.5485  0.8406  0.6047

 Free energy of the ion-electron system (eV)
  ---------------------------------------------------
  alpha Z        PSCENC =       117.79976220
  Ewald energy   TEWEN  =     -1171.43779597
  -Hartree energ DENC   =      -195.69970254
  -exchange      EXHF   =         0.00000000
  -V(xc)+E(xc)   XCENC  =         8.45286509
  PAW double counting   =      1326.55225916    -1339.34644769
  entropy T*S    EENTRO =         0.00033234
  eigenvalues    EBANDS =        50.95132821
  atomic energy  EATOM  =      1187.29615887
  Solvation  Ediel_sol  =         0.00000000
  ---------------------------------------------------
  free energy    TOTEN  =       -15.43124034 eV

  energy without entropy =      -15.43157268  energy(sigma->0) =      -15.43135112


--------------------------------------------------------------------------------------------------------




--------------------------------------- Iteration      1(   9)  ---------------------------------------


    POTLOK:  cpu time    0.0230: real time    0.0469
    SETDIJ:  cpu time    1.5178: real time    1.5184
     EDDAV:  cpu time    2.5686: real time    2.5716
       DOS:  cpu time    0.0110: real time    0.0112
    CHARGE:  cpu time    0.0630: real time    0.0628
    MIXING:  cpu time    0.0000: real time    0.0007
    --------------------------------------------
      LOOP:  cpu time    4.1834: real time    4.2117

 eigenvalue-minimisations  : 13060
 total energy-change (2. order) : 0.5140286E-02  (-0.1687565E-03)
 number of electron      15.9999995 magnetization       4.5205494
 augmentation part        8.2289076 magnetization       3.6389112

 Broyden mixing:
  rms(total) = 0.28779E-01    rms(broyden)= 0.28684E-01
  rms(prec ) = 0.35822E-01
  weight for this iteration     100.00

 eigenvalues of (default mixing * dielectric matrix)
  average eigenvalue GAMMA=   1.2169
  2.4131  1.0318  0.7825  0.6400

 Free energy of the ion-electron system (eV)
  ---------------------------------------------------
  alpha Z        PSCENC =       117.79976220
  Ewald energy   TEWEN  =     -1171.43779597
  -Hartree energ DENC   =      -194.26103154
  -exchange      EXHF   =         0.00000000
  -V(xc)+E(xc)   XCENC  =         8.34080048
  PAW double counting   =      1387.60689890    -1401.20800034
  entropy T*S    EENTRO =         0.00028703
  eigenvalues    EBANDS =        50.43682031
  atomic energy  EATOM  =      1187.29615887
  Solvation  Ediel_sol  =         0.00000000
  ---------------------------------------------------
  free energy    TOTEN  =       -15.42610006 eV

  energy without entropy =      -15.42638709  energy(sigma->0) =      -15.42619573


--------------------------------------------------------------------------------------------------------




--------------------------------------- Iteration      1(  10)  ---------------------------------------


    POTLOK:  cpu time    0.0190: real time    0.0355
    SETDIJ:  cpu time    1.5168: real time    1.5170
     EDDAV:  cpu time    2.0397: real time    2.0418
       DOS:  cpu time    0.0100: real time    0.0117
    CHARGE:  cpu time    0.0630: real time    0.0628
    MIXING:  cpu time    0.0010: real time    0.0009
    --------------------------------------------
      LOOP:  cpu time    3.6494: real time    3.6695

 eigenvalue-minimisations  :  9984
 total energy-change (2. order) :-0.7249809E-04  (-0.1177441E-03)
 number of electron      15.9999995 magnetization       4.5269238
 augmentation part        8.2197946 magnetization       3.6412305

 Broyden mixing:
  rms(total) = 0.60797E-02    rms(broyden)= 0.60792E-02
  rms(prec ) = 0.63565E-02
  weight for this iteration     100.00

 eigenvalues of (default mixing * dielectric matrix)
  average eigenvalue GAMMA=   1.1451
  2.5878  1.0459  0.7334  0.7334  0.6250

 Free energy of the ion-electron system (eV)
  ---------------------------------------------------
  alpha Z        PSCENC =       117.79976220
  Ewald energy   TEWEN  =     -1171.43779597
  -Hartree energ DENC   =      -194.19757818
  -exchange      EXHF   =         0.00000000
  -V(xc)+E(xc)   XCENC  =         8.35394474
  PAW double counting   =      1409.44356066    -1423.39162737
  entropy T*S    EENTRO =         0.00041265
  eigenvalues    EBANDS =        50.70698985
  atomic energy  EATOM  =      1187.29615887
  Solvation  Ediel_sol  =         0.00000000
  ---------------------------------------------------
  free energy    TOTEN  =       -15.42617256 eV

  energy without entropy =      -15.42658520  energy(sigma->0) =      -15.42631011


--------------------------------------------------------------------------------------------------------




--------------------------------------- Iteration      1(  11)  ---------------------------------------


    POTLOK:  cpu time    0.0190: real time    0.0348
    SETDIJ:  cpu time    1.5158: real time    1.5164
     EDDAV:  cpu time    2.0757: real time    2.0781
       DOS:  cpu time    0.0110: real time    0.0116
    CHARGE:  cpu time    0.0630: real time    0.0629
    MIXING:  cpu time    0.0000: real time    0.0008
    --------------------------------------------
      LOOP:  cpu time    3.6854: real time    3.7046

 eigenvalue-minimisations  : 10200
 total energy-change (2. order) : 0.2260441E-04  (-0.2127887E-05)
 number of electron      15.9999995 magnetization       4.5274464
 augmentation part        8.2209120 magnetization       3.6421132

 Broyden mixing:
  rms(total) = 0.25176E-02    rms(broyden)= 0.25140E-02
  rms(prec ) = 0.37916E-02
  weight for this iteration     100.00

 eigenvalues of (default mixing * dielectric matrix)
  average eigenvalue GAMMA=   1.0922
  2.5384  1.1065  0.9242  0.7660  0.6431  0.5750

 Free energy of the ion-electron system (eV)
  ---------------------------------------------------
  alpha Z        PSCENC =       117.79976220
  Ewald energy   TEWEN  =     -1171.43779597
  -Hartree energ DENC   =      -194.18195813
  -exchange      EXHF   =         0.00000000
  -V(xc)+E(xc)   XCENC  =         8.36150088
  PAW double counting   =      1410.38386547    -1424.32858895
  entropy T*S    EENTRO =         0.00038373
  eigenvalues    EBANDS =        50.68052195
  atomic energy  EATOM  =      1187.29615887
  Solvation  Ediel_sol  =         0.00000000
  ---------------------------------------------------
  free energy    TOTEN  =       -15.42614995 eV

  energy without entropy =      -15.42653369  energy(sigma->0) =      -15.42627786


--------------------------------------------------------------------------------------------------------




--------------------------------------- Iteration      1(  12)  ---------------------------------------


    POTLOK:  cpu time    0.0190: real time    0.0348
    SETDIJ:  cpu time    1.5118: real time    1.5121
     EDDAV:  cpu time    2.1237: real time    2.1254
       DOS:  cpu time    0.0110: real time    0.0118
    CHARGE:  cpu time    0.0630: real time    0.0635
    MIXING:  cpu time    0.0010: real time    0.0009
    --------------------------------------------
      LOOP:  cpu time    3.7284: real time    3.7485

 eigenvalue-minimisations  : 10360
 total energy-change (2. order) : 0.8426559E-05  (-0.2776697E-06)
 number of electron      15.9999995 magnetization       4.5260471
 augmentation part        8.2206570 magnetization       3.6408596

 Broyden mixing:
  rms(total) = 0.11162E-02    rms(broyden)= 0.11130E-02
  rms(prec ) = 0.15728E-02
  weight for this iteration     100.00

 eigenvalues of (default mixing * dielectric matrix)
  average eigenvalue GAMMA=   1.2725
  2.5160  2.5160  1.0548  0.8199  0.7407  0.6367  0.6234

 Free energy of the ion-electron system (eV)
  ---------------------------------------------------
  alpha Z        PSCENC =       117.79976220
  Ewald energy   TEWEN  =     -1171.43779597
  -Hartree energ DENC   =      -194.21720527
  -exchange      EXHF   =         0.00000000
  -V(xc)+E(xc)   XCENC  =         8.36348065
  PAW double counting   =      1409.66447044    -1423.57738971
  entropy T*S    EENTRO =         0.00037852
  eigenvalues    EBANDS =        50.68199875
  atomic energy  EATOM  =      1187.29615887
  Solvation  Ediel_sol  =         0.00000000
  ---------------------------------------------------
  free energy    TOTEN  =       -15.42614153 eV

  energy without entropy =      -15.42652004  energy(sigma->0) =      -15.42626770


--------------------------------------------------------------------------------------------------------




--------------------------------------- Iteration      1(  13)  ---------------------------------------


    POTLOK:  cpu time    0.0180: real time    0.0353
    SETDIJ:  cpu time    1.5138: real time    1.5134
     EDDAV:  cpu time    1.6288: real time    1.6313
       DOS:  cpu time    0.0110: real time    0.0113
    CHARGE:  cpu time    0.0630: real time    0.0630
    MIXING:  cpu time    0.0000: real time    0.0009
    --------------------------------------------
      LOOP:  cpu time    3.2355: real time    3.2553

 eigenvalue-minimisations  :  6920
 total energy-change (2. order) : 0.3661519E-05  (-0.6627743E-07)
 number of electron      15.9999995 magnetization       4.5261588
 augmentation part        8.2207010 magnetization       3.6410807

 Broyden mixing:
  rms(total) = 0.34181E-03    rms(broyden)= 0.34132E-03
  rms(prec ) = 0.37466E-03
  weight for this iteration     100.00

 eigenvalues of (default mixing * dielectric matrix)
  average eigenvalue GAMMA=   1.2192
  2.5498  2.5498  1.0435  0.8974  0.7639  0.7279  0.6412  0.5798

 Free energy of the ion-electron system (eV)
  ---------------------------------------------------
  alpha Z        PSCENC =       117.79976220
  Ewald energy   TEWEN  =     -1171.43779597
  -Hartree energ DENC   =      -194.23938710
  -exchange      EXHF   =         0.00000000
  -V(xc)+E(xc)   XCENC  =         8.36363659
  PAW double counting   =      1409.44627195    -1423.33459492
  entropy T*S    EENTRO =         0.00037558
  eigenvalues    EBANDS =        50.67943495
  atomic energy  EATOM  =      1187.29615887
  Solvation  Ediel_sol  =         0.00000000
  ---------------------------------------------------
  free energy    TOTEN  =       -15.42613786 eV

  energy without entropy =      -15.42651344  energy(sigma->0) =      -15.42626306


--------------------------------------------------------------------------------------------------------




--------------------------------------- Iteration      1(  14)  ---------------------------------------


    POTLOK:  cpu time    0.0190: real time    0.0352
    SETDIJ:  cpu time    1.5298: real time    1.5306
     EDDAV:  cpu time    1.3898: real time    1.3907
       DOS:  cpu time    0.0110: real time    0.0115
    --------------------------------------------
      LOOP:  cpu time    2.9486: real time    2.9680

 eigenvalue-minimisations  :  5088
 total energy-change (2. order) :-0.3455552E-06  (-0.6013718E-08)
 number of electron      15.9999995 magnetization       4.5261588
 augmentation part        8.2207010 magnetization       3.6410807

 Free energy of the ion-electron system (eV)
  ---------------------------------------------------
  alpha Z        PSCENC =       117.79976220
  Ewald energy   TEWEN  =     -1171.43779597
  -Hartree energ DENC   =      -194.23902555
  -exchange      EXHF   =         0.00000000
  -V(xc)+E(xc)   XCENC  =         8.36348097
  PAW double counting   =      1409.53627330    -1423.42678611
  entropy T*S    EENTRO =         0.00037567
  eigenvalues    EBANDS =        50.68141841
  atomic energy  EATOM  =      1187.29615887
  Solvation  Ediel_sol  =         0.00000000
  ---------------------------------------------------
  free energy    TOTEN  =       -15.42613821 eV

  energy without entropy =      -15.42651388  energy(sigma->0) =      -15.42626343


--------------------------------------------------------------------------------------------------------




 average (electrostatic) potential at core
  the test charge radii are     1.0103
  (the norm of the test charge is              1.0000)
       1 -44.0762       2 -44.0762
 
 
 
 E-fermi :   5.2759     XC(G=0): -12.9070     alpha+bet :-13.2097

 Fermi energy:         5.2758775103

 spin component 1

 k-point     1 :       0.0000    0.0000    0.0000
  band No.  band energies     occupation 
      1      -2.7539      1.00000
      2       0.9316      1.00000
      3       0.9316      1.00000
      4       3.0117      1.00000
      5       3.0117      1.00000
      6       3.0117      1.00000
      7       4.0123      1.00000
      8       4.0123      1.00000
      9       5.5014     -0.03380
     10       5.5014     -0.03380
     11       5.5014     -0.03380
     12      15.1837      0.00000
     13      15.1837      0.00000
     14      15.1837      0.00000
     15      21.6652      0.00000
     16      21.6652      0.00000
     17      25.3751      0.00000
     18      30.2766      0.00000
     19      30.2766      0.00000
     20      30.2766      0.00000

 k-point     2 :       0.0667    0.0000    0.0000
  band No.  band energies     occupation 
      1      -2.6640      1.00000
      2       0.7355      1.00000
      3       0.7479      1.00000
      4       3.0142      1.00000
      5       3.0142      1.00000
      6       3.0383      1.00000
      7       3.9762      1.00000
      8       4.0284      1.00000
      9       5.2277      0.69732
     10       5.2277      0.69732
     11       5.2691      0.52870
     12      14.5318      0.00000
     13      15.3521      0.00000
     14      15.3521      0.00000
     15      21.1429      0.00000
     16      21.5710      0.00000
     17      25.6775      0.00000
     18      29.6391      0.00000
     19      30.2106      0.00000
     20      30.2106      0.00000

 k-point     3 :       0.1333    0.0000    0.0000
  band No.  band energies     occupation 
      1      -2.3979      1.00000
      2       0.8255      1.00000
      3       0.8476      1.00000
      4       3.0239      1.00000
      5       3.0239      1.00000
      6       3.1173      1.00000
      7       3.8691      1.00000
      8       4.0760      1.00000
      9       5.0266      1.03539
     10       5.0266      1.03539
     11       5.1764      0.86858
     12      13.0739      0.00000
     13      15.8398      0.00000
     14      15.8398      0.00000
     15      21.2029      0.00000
     16      22.3468      0.00000
     17      26.7358      0.00000
     18      28.3718      0.00000
     19      29.8813      0.00000
     20      29.8813      0.00000

 k-point     4 :       0.2000   -0.0000    0.0000
  band No.  band energies     occupation 
      1      -1.9654      1.00000
      2       0.9715      1.00000
      3       1.0189      1.00000
      4       3.0814      1.00000
      5       3.0814      1.00000
      6       3.2463      1.00000
      7       3.6963      1.00000
      8       4.3385      1.00000
[...]
   0.140E-12 -.562E-12 0.328E-13   -.124E-14 0.535E-15 -.380E-15   -.335E-25 0.517E-25 0.155E-24   0.833E-14 0.143E-15 -.250E-13
 
 
 POSITION                                       TOTAL-FORCE (eV/Angst)
 -----------------------------------------------------------------------------------
      0.00000      0.00000      0.00000        -0.000000     -0.000000     -0.000000
      1.43152      1.43152      1.43152         0.000000      0.000000      0.000000
 -----------------------------------------------------------------------------------
    total drift:                                0.000000     -0.000000      0.000000


--------------------------------------------------------------------------------------------------------



  FREE ENERGIE OF THE ION-ELECTRON SYSTEM (eV)
  ---------------------------------------------------
  free  energy   TOTEN  =       -15.42613821 eV

  energy  without entropy=      -15.42651388  energy(sigma->0) =      -15.42626343
 


--------------------------------------------------------------------------------------------------------


    POTLOK:  cpu time    1.5318: real time    1.5411


--------------------------------------------------------------------------------------------------------




--------------------------------------------------------------------------------------------------------


    WAVPRE:  cpu time    0.3030: real time    0.6744
    FEWALD:  cpu time    0.0010: real time    0.0003
    GENKIN:  cpu time    0.0120: real time    0.0135
    ORTHCH:  cpu time    0.0780: real time    0.0781
     LOOP+:  cpu time   49.3395: real time   50.3695


--------------------------------------- Iteration      2(   1)  ---------------------------------------


    POTLOK:  cpu time    0.0170: real time    0.0210
    SETDIJ:  cpu time    1.5748: real time    1.5752
     EDDAV:  cpu time    2.4836: real time    2.4854
       DOS:  cpu time    0.0070: real time    0.0087
    CHARGE:  cpu time    0.1250: real time    0.1245
    MIXING:  cpu time    0.0010: real time    0.0007
    --------------------------------------------
      LOOP:  cpu time    4.2084: real time    4.2157

 eigenvalue-minimisations  : 12392
 total energy-change (2. order) :-0.3505165E+02  (-0.5654429E+02)
 number of electron      16.0000000 magnetization      -0.9353520
 augmentation part        6.7185879 magnetization      -0.7235592

 Broyden mixing:
  rms(total) = 0.34649E+02    rms(broyden)= 0.34648E+02
  rms(prec ) = 0.42080E+02
  weight for this iteration     100.00

 Free energy of the ion-electron system (eV)
  ---------------------------------------------------
  alpha Z        PSCENC =       530.38365250
  Ewald energy   TEWEN  =     -1934.34738604
  -Hartree energ DENC   =      -320.73916853
  -exchange      EXHF   =         0.00000000
  -V(xc)+E(xc)   XCENC  =        45.82935294
  PAW double counting   =      1409.53243577    -1423.42303084
  entropy T*S    EENTRO =         0.00158046
  eigenvalues    EBANDS =       454.98861211
  atomic energy  EATOM  =      1187.29615887
  Solvation  Ediel_sol  =         0.00000000
  ---------------------------------------------------
  free energy    TOTEN  =       -50.47779276 eV

  energy without entropy =      -50.47937322  energy(sigma->0) =      -50.47831958


--------------------------------------------------------------------------------------------------------




--------------------------------------- Iteration      2(   2)  ---------------------------------------


    POTLOK:  cpu time    0.0190: real time    0.0352
    SETDIJ:  cpu time    1.5668: real time    1.5675
     EDDAV:  cpu time    2.7106: real time    2.7132
       DOS:  cpu time    0.0080: real time    0.0089
    CHARGE:  cpu time    0.1130: real time    0.1129
    MIXING:  cpu time    0.0010: real time    0.0008
    --------------------------------------------
      LOOP:  cpu time    4.4183: real time    4.4384

 eigenvalue-minimisations  : 13656
 total energy-change (2. order) : 0.9484949E+02  (-0.8309582E+01)
 number of electron      16.0000001 magnetization       0.7454613
 augmentation part        8.6182099 magnetization       0.6777707

 Broyden mixing:
  rms(total) = 0.13857E+02    rms(broyden)= 0.13857E+02
  rms(prec ) = 0.18056E+02
  weight for this iteration     100.00

 eigenvalues of (default mixing * dielectric matrix)
  average eigenvalue GAMMA=   1.3055
  1.3055

 Free energy of the ion-electron system (eV)
  ---------------------------------------------------
  alpha Z        PSCENC =       530.38365250
  Ewald energy   TEWEN  =     -1934.34738604
  -Hartree energ DENC   =      -152.88861378
  -exchange      EXHF   =         0.00000000
  -V(xc)+E(xc)   XCENC  =        29.72101798
  PAW double counting   =      7727.59509539    -7772.97623710
  entropy T*S    EENTRO =         0.00084918
  eigenvalues    EBANDS =       429.58716392
  atomic energy  EATOM  =      1187.29615887
  Solvation  Ediel_sol  =         0.00000000
  ---------------------------------------------------
  free energy    TOTEN  =        44.37170092 eV

  energy without entropy =       44.37085174  energy(sigma->0) =       44.37141786


--------------------------------------------------------------------------------------------------------




--------------------------------------- Iteration      2(   3)  ---------------------------------------


    POTLOK:  cpu time    0.0210: real time    0.0368
    SETDIJ:  cpu time    1.5678: real time    1.5691
     EDDAV:  cpu time    2.7016: real time    2.7039
       DOS:  cpu time    0.0080: real time    0.0090
    CHARGE:  cpu time    0.1150: real time    0.1147
    MIXING:  cpu time    0.0000: real time    0.0008
    --------------------------------------------
      LOOP:  cpu time    4.4143: real time    4.4344

 eigenvalue-minimisations  : 13456
 total energy-change (2. order) : 0.3087526E+02  (-0.1364533E+01)
 number of electron      16.0000001 magnetization       0.4036468
 augmentation part       10.2912847 magnetization       0.4846724

 Broyden mixing:
  rms(total) = 0.42404E+01    rms(broyden)= 0.42404E+01
  rms(prec ) = 0.47414E+01
  weight for this iteration     100.00

 eigenvalues of (default mixing * dielectric matrix)
  average eigenvalue GAMMA=   1.1197
  1.5797  0.6597

 Free energy of the ion-electron system (eV)
  ---------------------------------------------------
  alpha Z        PSCENC =       530.38365250
  Ewald energy   TEWEN  =     -1934.34738604
  -Hartree energ DENC   =       -66.07139213
  -exchange      EXHF   =         0.00000000
  -V(xc)+E(xc)   XCENC  =        23.54406672
  PAW double counting   =     13528.78969186   -13596.63911491
  entropy T*S    EENTRO =        -0.00137507
  eigenvalues    EBANDS =       402.29265934
  atomic energy  EATOM  =      1187.29615887
  Solvation  Ediel_sol  =         0.00000000
  ---------------------------------------------------
  free energy    TOTEN  =        75.24696115 eV

  energy without entropy =       75.24833621  energy(sigma->0) =       75.24741950


--------------------------------------------------------------------------------------------------------




--------------------------------------- Iteration      2(   4)  ---------------------------------------


    POTLOK:  cpu time    0.0190: real time    0.0354
    SETDIJ:  cpu time    1.5638: real time    1.5638
     EDDAV:  cpu time    2.2437: real time    2.2467
       DOS:  cpu time    0.0080: real time    0.0089
    CHARGE:  cpu time    0.1150: real time    0.1144
    MIXING:  cpu time    0.0000: real time    0.0008
    --------------------------------------------
      LOOP:  cpu time    3.9494: real time    3.9699

 eigenvalue-minimisations  : 11160
 total energy-change (2. order) :-0.4249148E+01  (-0.1737272E+00)
 number of electron      16.0000000 magnetization      -0.2956293
 augmentation part       10.4277788 magnetization      -0.2988297

 Broyden mixing:
  rms(total) = 0.16982E+01    rms(broyden)= 0.16982E+01
  rms(prec ) = 0.22037E+01
  weight for this iteration     100.00

 eigenvalues of (default mixing * dielectric matrix)
  average eigenvalue GAMMA=   0.9973
  1.4962  0.8101  0.6857

 Free energy of the ion-electron system (eV)
  ---------------------------------------------------
  alpha Z        PSCENC =       530.38365250
  Ewald energy   TEWEN  =     -1934.34738604
  -Hartree energ DENC   =       -62.42631506
  -exchange      EXHF   =         0.00000000
  -V(xc)+E(xc)   XCENC  =        21.59408911
  PAW double counting   =     12935.64432302   -13005.95203460
  entropy T*S    EENTRO =         0.00077247
  eigenvalues    EBANDS =       398.80455311
  atomic energy  EATOM  =      1187.29615887
  Solvation  Ediel_sol  =         0.00000000
  ---------------------------------------------------
  free energy    TOTEN  =        70.99781337 eV

  energy without entropy =       70.99704090  energy(sigma->0) =       70.99755588


--------------------------------------------------------------------------------------------------------




--------------------------------------- Iteration      2(   5)  ---------------------------------------


    POTLOK:  cpu time    0.0190: real time    0.0346
    SETDIJ:  cpu time    1.5668: real time    1.5674
     EDDAV:  cpu time    2.3856: real time    2.3882
       DOS:  cpu time    0.0070: real time    0.0074
    CHARGE:  cpu time    0.1140: real time    0.1139
    MIXING:  cpu time    0.0010: real time    0.0009
    --------------------------------------------
      LOOP:  cpu time    4.0924: real time    4.1124

 eigenvalue-minimisations  : 11936
 total energy-change (2. order) :-0.2423497E+02  (-0.1492259E+02)
 number of electron      16.0000763 magnetization      -0.1175340
 augmentation part       10.4362220 magnetization      -0.1379605

 Broyden mixing:
  rms(total) = 0.63121E+00    rms(broyden)= 0.63121E+00
  rms(prec ) = 0.93864E+00
  weight for this iteration     100.00

 eigenvalues of (default mixing * dielectric matrix)
  average eigenvalue GAMMA=   1.2842
  1.8625  1.8625  0.7519  0.6599

 Free energy of the ion-electron system (eV)
  ---------------------------------------------------
  alpha Z        PSCENC =       530.38365250
  Ewald energy   TEWEN  =     -1934.34738604
  -Hartree energ DENC   =       -63.07146724
  -exchange      EXHF   =         0.00000000
  -V(xc)+E(xc)   XCENC  =        21.54066912
  PAW double counting   =     11449.79972438   -11521.14580966
  entropy T*S    EENTRO =         0.00102260
  eigenvalues    EBANDS =       376.30628359
  atomic energy  EATOM  =      1187.29615887
  Solvation  Ediel_sol  =         0.00000000
  ---------------------------------------------------
  free energy    TOTEN  =        46.76284813 eV

  energy without entropy =       46.76182552  energy(sigma->0) =       46.76250726


--------------------------------------------------------------------------------------------------------




--------------------------------------- Iteration      2(   6)  ---------------------------------------


    POTLOK:  cpu time    0.0190: real time    0.0347
    SETDIJ:  cpu time    1.5608: real time    1.5626
     EDDAV:  cpu time    2.7006: real time    2.7026
       DOS:  cpu time    0.0080: real time    0.0084
    CHARGE:  cpu time    0.1150: real time    0.1161
    MIXING:  cpu time    0.0010: real time    0.0010
    --------------------------------------------
      LOOP:  cpu time    4.4053: real time    4.4254

 eigenvalue-minimisations  : 13452
 total energy-change (2. order) :-0.1889127E+05  (-0.1667971E+05)
 number of electron      15.9997063 magnetization      -0.2067616
 augmentation part       10.3526070 magnetization      -0.3441940

 Broyden mixing:
  rms(total) = 0.14842E+01    rms(broyden)= 0.14841E+01
  rms(prec ) = 0.15032E+01
  weight for this iteration     100.00

 eigenvalues of (default mixing * dielectric matrix)
  average eigenvalue GAMMA=   1.1164
  1.9673  1.9673  0.7806  0.6467  0.2201

 Free energy of the ion-electron system (eV)
  ---------------------------------------------------
  alpha Z        PSCENC =       530.38365250
  Ewald energy   TEWEN  =     -1934.34738604
  -Hartree energ DENC   =       -62.24792219
  -exchange      EXHF   =         0.00000000
  -V(xc)+E(xc)   XCENC  =        21.43753186
  PAW double counting   =     10630.40189677   -10701.40333539
  entropy T*S    EENTRO =        -0.00052064
  eigenvalues    EBANDS =    -18516.03106936
  atomic energy  EATOM  =      1187.29615887
  Solvation  Ediel_sol  =         0.00000000
  ---------------------------------------------------
  free energy    TOTEN  =    -18844.51099362 eV

  energy without entropy =   -18844.51047297  energy(sigma->0) =   -18844.51082007


--------------------------------------------------------------------------------------------------------




--------------------------------------- Iteration      2(   7)  ---------------------------------------


    POTLOK:  cpu time    0.0190: real time    0.0351
    SETDIJ:  cpu time    1.5628: real time    1.5637
     EDDAV:  cpu time    2.1447: real time    2.1471
       DOS:  cpu time    0.0090: real time    0.0087
    CHARGE:  cpu time    0.1150: real time    0.1161
    MIXING:  cpu time    0.0010: real time    0.0010
    --------------------------------------------
      LOOP:  cpu time    3.8514: real time    3.8717

 eigenvalue-minimisations  : 10464
 total energy-change (2. order) :-0.3635320E+08  (-0.3635995E+08)
 number of electron      16.0001260 magnetization      -0.2094275
 augmentation part       10.2396113 magnetization      -0.4363624

 Broyden mixing:
  rms(total) = 0.32509E+01    rms(broyden)= 0.32509E+01
  rms(prec ) = 0.32812E+01
  weight for this iteration     100.00

 eigenvalues of (default mixing * dielectric matrix)
  average eigenvalue GAMMA=   1.0443
  2.0967  2.0967  0.7766  0.6342  0.3308  0.3308

 Free energy of the ion-electron system (eV)
  ---------------------------------------------------
  alpha Z        PSCENC =       530.38365250
  Ewald energy   TEWEN  =     -1934.34738604
  -Hartree energ DENC   =       -62.95537384
  -exchange      EXHF   =         0.00000000
  -V(xc)+E(xc)   XCENC  =        21.49050250
  PAW double counting   =     10291.61160290   -10362.89802093
  entropy T*S    EENTRO =         0.00127286
  eigenvalues    EBANDS = -36371714.97048720
  atomic energy  EATOM  =      1187.29615887
  Solvation  Ediel_sol  =         0.00000000
  ---------------------------------------------------
  free energy    TOTEN  = -36372044.38807838 eV

  energy without entropy =-36372044.38935124  energy(sigma->0) =-36372044.38850266


--------------------------------------------------------------------------------------------------------




--------------------------------------- Iteration      2(   8)  ---------------------------------------


    POTLOK:  cpu time    0.0190: real time    0.0348
    SETDIJ:  cpu time    1.5598: real time    1.5607
     EDDAV:  cpu time    2.5326: real time    2.5357
       DOS:  cpu time    0.0090: real time    0.0087
    CHARGE:  cpu time    0.1160: real time    0.1158
    MIXING:  cpu time    0.0000: real time    0.0010
    --------------------------------------------
      LOOP:  cpu time    4.2364: real time    4.2567

 eigenvalue-minimisations  : 12576
 total energy-change (2. order) :-0.7578258E+08  (-0.1119026E+09)
 number of electron      15.9999931 magnetization      -0.1842278
 augmentation part        9.9632653 magnetization      -0.4038706

 Broyden mixing:
  rms(total) = 0.44645E+01    rms(broyden)= 0.44645E+01
  rms(prec ) = 0.45408E+01
  weight for this iteration     100.00

 eigenvalues of (default mixing * dielectric matrix)
  average eigenvalue GAMMA=   0.9403
  2.0906  1.7948  0.7856  0.6319  0.5504  0.5504  0.1783

 Free energy of the ion-electron system (eV)
  ---------------------------------------------------
  alpha Z        PSCENC =       530.38365250
  Ewald energy   TEWEN  =     -1934.34738604
  -Hartree energ DENC   =       -63.08280767
  -exchange      EXHF   =         0.00000000
  -V(xc)+E(xc)   XCENC  =        21.50234429
  PAW double counting   =     10280.28118534   -10351.19277472
  entropy T*S    EENTRO =        -0.00097004
  eigenvalues    EBANDS = ******************
  atomic energy  EATOM  =      1187.29615887
  Solvation  Ediel_sol  =         0.00000000
  ---------------------------------------------------
  free energy    TOTEN  = ****************** eV

  energy without entropy =******************  energy(sigma->0) =******************


--------------------------------------------------------------------------------------------------------




--------------------------------------- Iteration      2(   9)  ---------------------------------------


    POTLOK:  cpu time    0.0190: real time    0.0345
    SETDIJ:  cpu time    1.5578: real time    1.5589
     EDDAV:  cpu time    2.4376: real time    2.4395
       DOS:  cpu time    0.0090: real time    0.0090
    CHARGE:  cpu time    0.1160: real time    0.1169
    MIXING:  cpu time    0.0010: real time    0.0010
    --------------------------------------------
      LOOP:  cpu time    4.1394: real time    4.1598

 eigenvalue-minimisations  : 12192
 total energy-change (2. order) :-0.1409402E+09  (-0.2530941E+09)
 number of electron      15.9999844 magnetization      -0.1679115
 augmentation part        9.7596794 magnetization      -0.2072693

 Broyden mixing:
  rms(total) = 0.99835E+01    rms(broyden)= 0.99835E+01
  rms(prec ) = 0.10025E+02
  weight for this iteration     100.00

 eigenvalues of (default mixing * dielectric matrix)
  average eigenvalue GAMMA=   0.7833
  2.3453  1.5954  0.7906  0.6323  0.2849  0.2849  0.2232  0.1100

 Free energy of the ion-electron system (eV)
  ---------------------------------------------------
  alpha Z        PSCENC =       530.38365250
  Ewald energy   TEWEN  =     -1934.34738604
  -Hartree energ DENC   =       -62.06716403
  -exchange      EXHF   =         0.00000000
  -V(xc)+E(xc)   XCENC  =        21.42406367
  PAW double counting   =     10721.15768746   -10791.53101196
  entropy T*S    EENTRO =        -0.00164824
  eigenvalues    EBANDS = ******************
  atomic energy  EATOM  =      1187.29615887
  Solvation  Ediel_sol  =         0.00000000
  ---------------------------------------------------
  free energy    TOTEN  = ****************** eV

  energy without entropy =******************  energy(sigma->0) =******************


--------------------------------------------------------------------------------------------------------




--------------------------------------- Iteration      2(  10)  ---------------------------------------


    POTLOK:  cpu time    0.0180: real time    0.0347
    SETDIJ:  cpu time    1.5658: real time    1.5660
 -----------------------------------------------------------------------------
|                                                                             |
|     EEEEEEE  RRRRRR   RRRRRR   OOOOOOO  RRRRRR      ###     ###     ###     |
|     E        R     R  R     R  O     O  R     R     ###     ###     ###     |
|     E        R     R  R     R  O     O  R     R     ###     ###     ###     |
|     EEEEE    RRRRRR   RRRRRR   O     O  RRRRRR       #       #       #      |
|     E        R   R    R   R    O     O  R   R                               |
|     E        R    R   R    R   O     O  R    R      ###     ###     ###     |
|     EEEEEEE  R     R  R     R  OOOOOOO  R     R     ###     ###     ###     |
|                                                                             |
|     Error EDDDAV: Call to ZHEGV failed. Returncode = 11 2 16                |
|                                                                             |
|       ---->  I REFUSE TO CONTINUE WITH THIS SICK JOB ... BYE!!! <----       |
|                                                                             |
 -----------------------------------------------------------------------------

