   1   1   0   0
  0.1386300E+02  0.2621157E-09  0.2621157E-09  0.2621157E-09  0.5000000E-15
  1.000000000000000E-004
  CAR 
 unknown system                          
     36.20045294     -6.24487794  301      9.87800246      1.00000000
     -6.245  0.0000E+00  0.0000E+00
     -6.103  0.0000E+00  0.0000E+00
     -5.962  0.0000E+00  0.0000E+00
     -5.820  0.0000E+00  0.0000E+00
     -5.679  0.0000E+00  0.0000E+00
     -5.537  0.0000E+00  0.0000E+00
     -5.396  0.0000E+00  0.0000E+00
     -5.254  0.0000E+00  0.0000E+00
     -5.113  0.0000E+00  0.0000E+00
     -4.972  0.0000E+00  0.0000E+00
     -4.830  0.0000E+00  0.0000E+00
     -4.689  0.0000E+00  0.0000E+00
     -4.547  0.1218E-14  0.1723E-15
     -4.406  0.2278E-06  0.3223E-07
     -4.264  0.4279E-04  0.6087E-05
     -4.123  0.4775E-03  0.7365E-04
     -3.981  0.2843E-03  0.1139E-03
     -3.840  0.9824E-03  0.2529E-03
     -3.698  0.5465E-03  0.3302E-03
     -3.557  0.9812E-03  0.4690E-03
     -3.415  0.4814E-03  0.5371E-03
     -3.274  0.1874E-02  0.8023E-03
     -3.132  0.4448E-03  0.8652E-03
     -2.991  0.1479E-02  0.1074E-02
     -2.849  0.1058E-02  0.1224E-02
     -2.708  0.1065E-02  0.1375E-02
     -2.566  0.1790E-02  0.1628E-02
     -2.425  0.1937E-02  0.1902E-02
     -2.283  0.1012E-02  0.2045E-02
     -2.142  0.1291E-02  0.2228E-02
     -2.000  0.1524E-02  0.2444E-02
     -1.859  0.1606E-02  0.2671E-02
     -1.717  0.2712E-02  0.3055E-02
     -1.576  0.1497E-02  0.3266E-02
     -1.434  0.1940E-02  0.3541E-02
     -1.293  0.1169E-02  0.3706E-02
     -1.151  0.1972E-02  0.3985E-02
     -1.010  0.5129E-03  0.4058E-02
     -0.868  0.3410E-02  0.4540E-02
     -0.727  0.1276E-02  0.4721E-02
     -0.586  0.3947E-02  0.5279E-02
     -0.444  0.1979E-02  0.5559E-02
     -0.303  0.8727E-03  0.5683E-02
     -0.161  0.1066E-02  0.5834E-02
     -0.020  0.3040E-02  0.6264E-02
      0.122  0.1908E-02  0.6534E-02
      0.263  0.3334E-02  0.7005E-02
      0.405  0.2207E-02  0.7318E-02
      0.546  0.1837E-02  0.7578E-02
      0.688  0.4398E-02  0.8200E-02
      0.829  0.1929E-02  0.8473E-02
      0.971  0.1965E-02  0.8751E-02
      1.112  0.1155E-02  0.8914E-02
      1.254  0.2023E-02  0.9200E-02
      1.395  0.2242E-02  0.9518E-02
      1.537  0.4844E-02  0.1020E-01
      1.678  0.1639E-02  0.1043E-01
      1.820  0.4351E-02  0.1105E-01
      1.961  0.1156E-02  0.1121E-01
      2.103  0.3251E-02  0.1167E-01
      2.244  0.2965E-02  0.1209E-01
      2.386  0.3051E-02  0.1253E-01
      2.527  0.1899E-02  0.1279E-01
      2.669  0.3048E-02  0.1323E-01
      2.810  0.3160E-02  0.1367E-01
      2.952  0.1646E-02  0.1391E-01
      3.093  0.6183E-02  0.1478E-01
      3.235  0.9876E-03  0.1492E-01
      3.376  0.2780E-02  0.1531E-01
      3.518  0.3912E-02  0.1587E-01
      3.659  0.2575E-02  0.1623E-01
      3.801  0.3718E-02  0.1676E-01
      3.942  0.3747E-02  0.1729E-01
      4.083  0.2447E-02  0.1763E-01
      4.225  0.1118E-02  0.1779E-01
      4.366  0.3561E-02  0.1830E-01
      4.508  0.3190E-02  0.1875E-01
      4.649  0.5072E-02  0.1946E-01
      4.791  0.4779E-02  0.2014E-01
      4.932  0.1157E-02  0.2030E-01
      5.074  0.3975E-02  0.2087E-01
      5.215  0.1360E-02  0.2106E-01
      5.357  0.3578E-02  0.2157E-01
      5.498  0.5994E-02  0.2241E-01
      5.640  0.2540E-02  0.2277E-01
      5.781  0.5544E-02  0.2356E-01
      5.923  0.2977E-02  0.2398E-01
      6.064  0.1910E-02  0.2425E-01
      6.206  0.4101E-02  0.2483E-01
      6.347  0.2542E-02  0.2519E-01
      6.489  0.8565E-03  0.2531E-01
      6.630  0.7007E-02  0.2630E-01
      6.772  0.3318E-02  0.2677E-01
      6.913  0.5162E-02  0.2750E-01
      7.055  0.5265E-02  0.2825E-01
      7.196  0.2536E-02  0.2860E-01
      7.338  0.3618E-02  0.2912E-01
      7.479  0.3113E-02  0.2956E-01
      7.621  0.4837E-02  0.3024E-01
      7.762  0.4539E-02  0.3088E-01
      7.904  0.5124E-02  0.3161E-01
      8.045  0.2805E-02  0.3201E-01
      8.187  0.1293E-02  0.3219E-01
      8.328  0.2000E-02  0.3247E-01
      8.470  0.7751E-02  0.3357E-01
      8.611  0.5012E-02  0.3428E-01
      8.752  0.3687E-02  0.3480E-01
      8.894  0.4514E-02  0.3544E-01
      9.035  0.4229E-02  0.3604E-01
      9.177  0.5131E-02  0.3676E-01
      9.318  0.4893E-02  0.3745E-01
      9.460  0.4506E-02  0.3809E-01
      9.601  0.5200E-02  0.3883E-01
      9.743  0.5303E-02  0.3958E-01
      9.884  0.3162E-02  0.4002E-01
     10.026  0.4743E-02  0.4070E-01
     10.167  0.2532E-02  0.4105E-01
     10.309  0.3952E-02  0.4161E-01
     10.450  0.4532E-02  0.4225E-01
     10.592  0.4922E-02  0.4295E-01
     10.733  0.5202E-02  0.4369E-01
     10.875  0.5571E-02  0.4447E-01
     11.016  0.6969E-02  0.4546E-01
     11.158  0.2033E-02  0.4575E-01
     11.299  0.2938E-02  0.4616E-01
     11.441  0.2357E-02  0.4650E-01
     11.582  0.6331E-02  0.4739E-01
     11.724  0.6656E-02  0.4834E-01
     11.865  0.2489E-02  0.4869E-01
     12.007  0.6515E-02  0.4961E-01
     12.148  0.4296E-02  0.5022E-01
     12.290  0.2019E-02  0.5050E-01
     12.431  0.4087E-02  0.5108E-01
     12.573  0.1598E-02  0.5131E-01
     12.714  0.5591E-02  0.5210E-01
     12.856  0.3096E-02  0.5254E-01
     12.997  0.7493E-02  0.5360E-01
     13.138  0.4827E-02  0.5428E-01
     13.280  0.4388E-02  0.5490E-01
     13.421  0.8646E-02  0.5612E-01
     13.563  0.4218E-02  0.5672E-01
     13.704  0.4908E-02  0.5741E-01
     13.846  0.3460E-02  0.5790E-01
     13.987  0.4446E-02  0.5853E-01
     14.129  0.4490E-02  0.5917E-01
     14.270  0.3678E-02  0.5969E-01
     14.412  0.5604E-02  0.6048E-01
     14.553  0.8439E-02  0.6168E-01
     14.695  0.2039E-02  0.6196E-01
     14.836  0.5074E-02  0.6268E-01
     14.978  0.2664E-02  0.6306E-01
     15.119  0.6957E-02  0.6404E-01
     15.261  0.4706E-02  0.6471E-01
     15.402  0.5530E-02  0.6549E-01
     15.544  0.7147E-02  0.6650E-01
     15.685  0.4336E-02  0.6712E-01
     15.827  0.5772E-02  0.6793E-01
     15.968  0.5483E-02  0.6871E-01
     16.110  0.8545E-02  0.6992E-01
     16.251  0.5762E-02  0.7073E-01
     16.393  0.2013E-02  0.7102E-01
     16.534  0.7332E-02  0.7205E-01
     16.676  0.3244E-02  0.7251E-01
     16.817  0.2333E-02  0.7284E-01
     16.959  0.3735E-02  0.7337E-01
     17.100  0.6069E-02  0.7423E-01
     17.242  0.8921E-02  0.7549E-01
     17.383  0.1285E-01  0.7731E-01
     17.525  0.7827E-02  0.7842E-01
     17.666  0.4164E-02  0.7901E-01
     17.807  0.3904E-02  0.7956E-01
     17.949  0.4398E-02  0.8018E-01
     18.090  0.6935E-02  0.8116E-01
     18.232  0.4834E-02  0.8185E-01
     18.373  0.3240E-02  0.8231E-01
     18.515  0.1975E-02  0.8258E-01
     18.656  0.3952E-02  0.8314E-01
     18.798  0.3858E-02  0.8369E-01
     18.939  0.1112E-02  0.8385E-01
     19.081  0.5105E-02  0.8457E-01
     19.222  0.6564E-02  0.8550E-01
     19.364  0.4487E-02  0.8613E-01
     19.505  0.4927E-02  0.8683E-01
     19.647  0.6922E-02  0.8781E-01
     19.788  0.6973E-02  0.8880E-01
     19.930  0.3738E-02  0.8933E-01
     20.071  0.2189E-02  0.8963E-01
     20.213  0.1033E-01  0.9110E-01
     20.354  0.4719E-02  0.9176E-01
     20.496  0.2561E-02  0.9213E-01
     20.637  0.7070E-02  0.9313E-01
     20.779  0.3812E-02  0.9367E-01
     20.920  0.6583E-02  0.9460E-01
     21.062  0.7543E-02  0.9567E-01
     21.203  0.4599E-02  0.9632E-01
     21.345  0.4885E-02  0.9701E-01
     21.486  0.6310E-02  0.9790E-01
     21.628  0.8457E-02  0.9910E-01
     21.769  0.9167E-02  0.1004E+00
     21.911  0.1410E-01  0.1024E+00
     22.052  0.6846E-02  0.1034E+00
     22.193  0.7288E-02  0.1044E+00
     22.335  0.8774E-02  0.1056E+00
     22.476  0.6223E-02  0.1065E+00
     22.618  0.2183E-02  0.1068E+00
     22.759  0.1672E-02  0.1071E+00
     22.901  0.2703E-02  0.1074E+00
     23.042  0.8122E-02  0.1086E+00
     23.184  0.8137E-02  0.1097E+00
     23.325  0.9510E-02  0.1111E+00
     23.467  0.4420E-02  0.1117E+00
     23.608  0.6165E-02  0.1126E+00
     23.750  0.5190E-02  0.1133E+00
     23.891  0.4997E-02  0.1140E+00
     24.033  0.4838E-02  0.1147E+00
     24.174  0.2298E-02  0.1150E+00
     24.316  0.6901E-02  0.1160E+00
     24.457  0.5223E-02  0.1167E+00
     24.599  0.1140E-01  0.1184E+00
     24.740  0.6972E-02  0.1193E+00
     24.882  0.4914E-02  0.1200E+00
     25.023  0.4354E-02  0.1207E+00
     25.165  0.6694E-02  0.1216E+00
     25.306  0.6115E-02  0.1225E+00
     25.448  0.5522E-02  0.1233E+00
     25.589  0.8071E-02  0.1244E+00
     25.731  0.3515E-02  0.1249E+00
     25.872  0.6982E-02  0.1259E+00
     26.014  0.4603E-02  0.1265E+00
     26.155  0.6458E-02  0.1274E+00
     26.297  0.6294E-02  0.1283E+00
     26.438  0.7957E-02  0.1295E+00
     26.580  0.7333E-02  0.1305E+00
     26.721  0.4853E-02  0.1312E+00
     26.862  0.9444E-02  0.1325E+00
     27.004  0.4617E-02  0.1332E+00
     27.145  0.7373E-02  0.1342E+00
     27.287  0.5594E-02  0.1350E+00
     27.428  0.6163E-02  0.1359E+00
     27.570  0.2717E-02  0.1363E+00
     27.711  0.5997E-02  0.1371E+00
     27.853  0.6120E-02  0.1380E+00
     27.994  0.7366E-02  0.1390E+00
     28.136  0.5946E-02  0.1399E+00
     28.277  0.4711E-02  0.1405E+00
     28.419  0.5825E-02  0.1414E+00
     28.560  0.6379E-02  0.1423E+00
     28.702  0.9652E-02  0.1436E+00
     28.843  0.6850E-02  0.1446E+00
     28.985  0.1242E-01  0.1463E+00
     29.126  0.7277E-02  0.1474E+00
     29.268  0.2680E-02  0.1478E+00
     29.409  0.6424E-02  0.1487E+00
     29.551  0.4955E-02  0.1494E+00
     29.692  0.5484E-02  0.1501E+00
     29.834  0.8342E-02  0.1513E+00
     29.975  0.8895E-02  0.1526E+00
     30.117  0.6237E-02  0.1535E+00
     30.258  0.2037E-02  0.1538E+00
     30.400  0.6119E-02  0.1546E+00
     30.541  0.4858E-02  0.1553E+00
     30.683  0.8233E-02  0.1565E+00
     30.824  0.5177E-02  0.1572E+00
     30.966  0.1748E-02  0.1574E+00
     31.107  0.4298E-02  0.1581E+00
     31.248  0.1970E-02  0.1583E+00
     31.390  0.3280E-03  0.1584E+00
     31.531  0.1760E-02  0.1586E+00
     31.673  0.2101E-02  0.1589E+00
     31.814  0.1313E-02  0.1591E+00
     31.956  0.1501E-03  0.1591E+00
     32.097  0.1615E-03  0.1592E+00
     32.239  0.3678E-03  0.1592E+00
     32.380  0.1009E-02  0.1594E+00
     32.522  0.1277E-03  0.1594E+00
     32.663  0.1030E-02  0.1595E+00
     32.805  0.5052E-03  0.1596E+00
     32.946  0.1207E-02  0.1598E+00
     33.088  0.5482E-03  0.1598E+00
     33.229  0.3177E-03  0.1599E+00
     33.371  0.4153E-05  0.1599E+00
     33.512  0.7035E-13  0.1599E+00
     33.654  0.0000E+00  0.1599E+00
     33.795  0.1712E-15  0.1599E+00
     33.937  0.2549E-06  0.1599E+00
     34.078  0.2067E-03  0.1599E+00
     34.220  0.2950E-03  0.1600E+00
     34.361  0.3339E-03  0.1600E+00
     34.503  0.1822E-05  0.1600E+00
     34.644  0.9745E-14  0.1600E+00
     34.786  0.0000E+00  0.1600E+00
     34.927  0.0000E+00  0.1600E+00
     35.069  0.0000E+00  0.1600E+00
     35.210  0.0000E+00  0.1600E+00
     35.352  0.0000E+00  0.1600E+00
     35.493  0.0000E+00  0.1600E+00
     35.635  0.0000E+00  0.1600E+00
     35.776  0.0000E+00  0.1600E+00
     35.917  0.0000E+00  0.1600E+00
     36.059  0.0000E+00  0.1600E+00
     36.200  0.0000E+00  0.1600E+00
