    1    1  100    1
  0.1386300E+02  0.2621157E-09  0.2621157E-09  0.2621157E-09  0.5000000E-15
  1.000000000000000E-004
  CAR 
 unknown system                          
      4    120      8
 
  0.0000000E+00  0.0000000E+00  0.0000000E+00  0.2962963E-03
    1       -4.315545   1.000000
    2       21.292755   0.000000
    3       21.292755   0.000000
    4       21.292755   0.000000
    5       22.449410   0.000000
    6       22.449410   0.000000
    7       22.449410   0.000000
    8       26.143784   0.000000
 
  0.6666667E-01  0.0000000E+00  0.0000000E+00  0.3555556E-02
    1       -4.179455   1.000000
    2       19.686045   0.000000
    3       20.162740   0.000000
    4       21.101070   0.000000
    5       22.002783   0.000000
    6       23.212280   0.000000
    7       23.810015   0.000000
    8       25.235547   0.000000
 
  0.1333333E+00  0.0000000E+00  0.0000000E+00  0.3555556E-02
    1       -3.771730   1.000000
    2       17.073028   0.000000
    3       18.825074   0.000000
    4       20.582390   0.000000
    5       21.026322   0.000000
    6       22.978569   0.000000
    7       25.157313   0.000000
    8       25.827302   0.000000
 
  0.2000000E+00  0.0000000E+00  0.0000000E+00  0.3555556E-02
    1       -3.094003   1.000000
    2       14.252556   0.000000
    3       17.688831   0.000000
    4       19.896819   0.000000
    5       19.969662   0.000000
    6       22.030791   0.000000
    7       26.023910   0.000000
    8       26.203579   0.000000
 
  0.2666667E+00  0.0000000E+00  0.0000000E+00  0.3555556E-02
    1       -2.148970   1.000000
    2       11.478932   0.000000
    3       16.776619   0.000000
    4       19.036251   0.000000
    5       19.214902   0.000000
    6       21.169884   0.000000
    7       26.828513   0.000000
    8       27.098260   0.000000
 
  0.3333333E+00  0.0000000E+00  0.0000000E+00  0.3555556E-02
    1       -0.940555   1.000000
    2        8.856821   1.000000
    3       16.091958   0.000000
    4       18.302101   0.000000
    5       18.645263   0.000000
    6       20.493620   0.000000
    7       27.730706   0.000000
    8       28.308622   0.000000
 
  0.4000000E+00  0.0000000E+00  0.0000000E+00  0.3555556E-02
    1        0.525530   1.000000
    2        6.433884   1.000000
    3       15.635780   0.000000
    4       17.802269   0.000000
    5       18.244228   0.000000
    6       20.030224   0.000000
    7       28.836915   0.000000
    8       29.577983   0.000000
 
  0.4666667E+00  0.0000000E+00  0.0000000E+00  0.3555556E-02
    1        2.234141   1.000000
    2        4.243270   1.000000
    3       15.407836   0.000000
    4       17.551029   0.000000
    5       18.038475   0.000000
    6       19.794644   0.000000
    7       29.914328   0.000000
    8       30.600190   0.000000
 
  0.6666667E-01  0.6666667E-01  0.0000000E+00  0.7111111E-02
    1       -3.907559   1.000000
    2       18.190881   0.000000
    3       18.737514   0.000000
    4       20.086419   0.000000
    5       22.158504   0.000000
    6       23.514244   0.000000
    7       24.471801   0.000000
    8       25.012176   0.000000
 
  0.1333333E+00  0.6666667E-01 -0.6938894E-17  0.1422222E-01
    1       -3.364837   1.000000
    2       15.718358   0.000000
    3       17.281124   0.000000
    4       19.116920   0.000000
    5       21.678828   0.000000
    6       23.068763   0.000000
    7       24.782542   0.000000
    8       26.404760   0.000000
 
  0.2000000E+00  0.6666667E-01 -0.6938894E-17  0.1422222E-01
    1       -2.553431   1.000000
    2       12.934920   0.000000
    3       16.216469   0.000000
    4       18.202335   0.000000
    5       20.947313   0.000000
    6       22.406949   0.000000
    7       25.339300   0.000000
    8       27.664278   0.000000
 
  0.2666667E+00  0.6666667E-01  0.6938894E-17  0.1422222E-01
    1       -1.476645   1.000000
    2       10.236980   0.000000
    3       15.391011   0.000000
    4       17.432633   0.000000
    5       20.243662   0.000000
    6       21.818088   0.000000
    7       26.134311   0.000000
    8       28.813353   0.000000
 
  0.3333333E+00  0.6666667E-01 -0.2081668E-16  0.1422222E-01
    1       -0.139120   1.000000
    2        7.713567   1.000000
    3       14.799713   0.000000
    4       16.861897   0.000000
    5       19.698346   0.000000
    6       21.350589   0.000000
    7       27.196551   0.000000
    8       29.925863   0.000000
 
  0.4000000E+00  0.6666667E-01  0.6938894E-17  0.1422222E-01
    1        1.451343   1.000000
    2        5.403284   1.000000
    3       14.444024   0.000000
    4       16.513064   0.000000
    5       19.359348   0.000000
    6       21.052521   0.000000
    7       28.459884   0.000000
    8       30.538275   0.000000
 
  0.4666667E+00  0.6666667E-01  0.6938894E-17  0.7111111E-02
    1        3.106486   1.000000
    2        3.507033   1.000000
    3       14.325309   0.000000
    4       16.395450   0.000000
    5       19.244225   0.000000
    6       20.950400   0.000000
    7       29.610291   0.000000
    8       29.969574   0.000000
 
  0.1333333E+00  0.1333333E+00  0.0000000E+00  0.7111111E-02
    1       -2.688421   1.000000
    2       14.355967   0.000000
    3       14.821288   0.000000
    4       18.058908   0.000000
    5       21.888756   0.000000
    6       22.988114   0.000000
    7       25.466761   0.000000
    8       26.772378   0.000000
 
  0.2000000E+00  0.1333333E+00  0.1387779E-16  0.1422222E-01
    1       -1.745206   1.000000
    2       11.826294   0.000000
    3       13.649772   0.000000
    4       17.195395   0.000000
    5       21.538311   0.000000
    6       23.040512   0.000000
    7       25.773570   0.000000
    8       28.201957   0.000000
 
  0.2666667E+00  0.1333333E+00  0.0000000E+00  0.1422222E-01
    1       -0.539092   1.000000
    2        9.229994   1.000000
    3       12.906838   0.000000
    4       16.521263   0.000000
    5       20.984342   0.000000
    6       23.272934   0.000000
    7       26.033576   0.000000
    8       29.798149   0.000000
 
  0.3333333E+00  0.1333333E+00  0.0000000E+00  0.1422222E-01
    1        0.924221   1.000000
    2        6.817356   1.000000
    3       12.413607   0.000000
    4       16.061399   0.000000
    5       20.558718   0.000000
    6       23.317211   0.000000
    7       26.822938   0.000000
    8       30.338321   0.000000
 
  0.4000000E+00  0.1333333E+00  0.0000000E+00  0.1422222E-01
    1        2.630003   1.000000
    2        4.632299   1.000000
    3       12.166706   0.000000
    4       15.829047   0.000000
    5       20.336977   0.000000
    6       23.276694   0.000000
    7       28.007538   0.000000
    8       29.444066   0.000000
 
  0.2000000E+00  0.2000000E+00  0.0000000E+00  0.7111111E-02
    1       -0.672607   1.000000
    2       10.804671   0.000000
    3       11.155970   0.000000
    4       16.425622   0.000000
    5       22.054002   0.000000
    6       22.941991   0.000000
    7       27.339402   0.000000
    8       28.270589   0.000000
 
  0.2666667E+00  0.2000000E+00  0.1387779E-16  0.1422222E-01
    1        0.659719   1.000000
    2        8.464565   1.000000
    3       10.369565   0.000000
    4       15.860068   0.000000
    5       21.908511   0.000000
    6       23.587354   0.000000
    7       27.474074   0.000000
    8       29.419057   0.000000
 
  0.3333333E+00  0.2000000E+00  0.1387779E-16  0.1422222E-01
    1        2.244060   1.000000
    2        6.174163   1.000000
    3        9.986125   0.001114
    4       15.514511   0.000000
    5       21.645575   0.000000
    6       24.494783   0.000000
    7       27.308555   0.000000
    8       29.362228   0.000000
 
  0.4000000E+00  0.2000000E+00  0.1387779E-16  0.7111111E-02
    1        3.900533   1.000000
    2        4.279799   1.000000
    3        9.859198   0.702593
    4       15.398478   0.000000
    5       21.547686   0.000000
    6       24.954755   0.000000
    7       27.280510   0.000000
    8       28.932580   0.000000
 
  0.2666667E+00  0.2666667E+00  0.0000000E+00  0.7111111E-02
    1        2.113926   1.000000
    2        7.815360   1.000000
    3        8.124251   1.000000
    4       15.408279   0.000000
    5       22.778059   0.000000
    6       23.677656   0.000000
    7       27.870796   0.000000
    8       29.731041   0.000000
 
  0.3333333E+00  0.2666667E+00  0.0000000E+00  0.1422222E-01
    1        3.808824   1.000000
    2        5.788582   1.000000
    3        7.728375   1.000000
    4       15.178814   0.000000
    5       22.901652   0.000000
    6       24.684382   0.000000
    7       26.538707   0.000000
    8       30.552205   0.000000
 
  0.3333333E+00  0.3333333E+00  0.0000000E+00  0.2370370E-02
    1        5.318725   1.000000
    2        5.822213   1.000000
    3        5.822213   1.000000
    4       15.065558   0.000000
    5       23.714427   0.000000
    6       25.153331   0.000000
    7       25.153331   0.000000
    8       32.549172   0.000000
 
  0.6666667E-01  0.6666667E-01  0.6666667E-01  0.2370370E-02
    1       -3.500387   1.000000
    2       16.722260   0.000000
    3       17.710965   0.000000
    4       17.710965   0.000000
    5       23.374752   0.000000
    6       23.374752   0.000000
    7       25.512620   0.000000
    8       25.512620   0.000000
 
  0.1333333E+00  0.6666667E-01  0.6666667E-01  0.7111111E-02
    1       -2.823545   1.000000
    2       14.438946   0.000000
    3       15.995962   0.000000
    4       16.649741   0.000000
    5       23.075182   0.000000
    6       23.740049   0.000000
    7       25.843141   0.000000
    8       26.320186   0.000000
 
  0.2000000E+00  0.6666667E-01  0.6666667E-01  0.7111111E-02
    1       -1.879733   1.000000
    2       11.719367   0.000000
    3       14.994799   0.000000
    4       15.731806   0.000000
    5       22.630383   0.000000
    6       23.179479   0.000000
    7       27.057891   0.000000
    8       27.060745   0.000000
 
  0.2666667E+00  0.6666667E-01  0.6666667E-01  0.7111111E-02
    1       -0.672823   1.000000
    2        9.109079   1.000000
    3       14.271790   0.000000
    4       15.017808   0.000000
    5       22.176148   0.000000
    6       22.614017   0.000000
    7       27.965987   0.000000
    8       28.379816   0.000000
 
  0.3333333E+00  0.6666667E-01  0.6666667E-01  0.7111111E-02
    1        0.791491   1.000000
    2        6.691207   1.000000
    3       13.792172   0.000000
    4       14.532855   0.000000
    5       21.825444   0.000000
    6       22.205772   0.000000
    7       29.048629   0.000000
    8       29.694768   0.000000
 
  0.4000000E+00  0.6666667E-01  0.6666667E-01  0.7111111E-02
    1        2.498343   1.000000
    2        4.503487   1.000000
    3       13.552386   0.000000
    4       14.288175   0.000000
    5       21.638387   0.000000
    6       21.994236   0.000000
    7       30.072644   0.000000
    8       30.725769   0.000000
 
 -0.6666667E-01  0.6666667E-01  0.6666667E-01  0.1777778E-02
    1       -4.043461   1.000000
    2       19.238378   0.000000
    3       19.238378   0.000000
    4       20.258373   0.000000
    5       22.718275   0.000000
    6       23.658606   0.000000
    7       23.797043   0.000000
    8       23.797043   0.000000
 
  0.1333333E+00  0.1333333E+00  0.6666667E-01  0.7111111E-02
    1       -2.014262   1.000000
    2       13.169161   0.000000
    3       13.681701   0.000000
    4       15.332870   0.000000
    5       23.668848   0.000000
    6       24.544372   0.000000
    7       26.159748   0.000000
    8       27.129343   0.000000
 
  0.2000000E+00  0.1333333E+00  0.6666667E-01  0.1422222E-01
    1       -0.940251   1.000000
    2       10.723418   0.000000
    3       12.595708   0.000000
    4       14.488892   0.000000
    5       23.595650   0.000000
    6       24.628285   0.000000
    7       26.966964   0.000000
    8       28.366349   0.000000
 
  0.2666667E+00  0.1333333E+00  0.6666667E-01  0.1422222E-01
    1        0.393934   1.000000
    2        8.221733   1.000000
    3       11.967146   0.000000
    4       13.884694   0.000000
    5       23.279402   0.000000
    6       24.548041   0.000000
    7       27.857275   0.000000
    8       29.801334   0.000000
 
  0.3333333E+00  0.1333333E+00  0.6666667E-01  0.1422222E-01
    1        1.980607   1.000000
    2        5.920306   1.000000
    3       11.593281   0.000000
    4       13.519795   0.000000
    5       23.027206   0.000000
    6       24.433464   0.000000
    7       28.972770   0.000000
    8       30.667919   0.000000
 
  0.4000000E+00  0.1333333E+00  0.6666667E-01  0.7111111E-02
    1        3.636609   1.000000
    2        4.024473   1.000000
    3       11.468724   0.000000
    4       13.397767   0.000000
    5       22.936536   0.000000
    6       24.383131   0.000000
    7       29.911785   0.000000
    8       30.419052   0.000000
 
 -0.1333333E+00  0.1333333E+00  0.6666667E-01  0.7111111E-02
    1       -3.635995   1.000000
    2       17.075567   0.000000
    3       17.938512   0.000000
    4       19.718868   0.000000
    5       22.095597   0.000000
    6       22.388356   0.000000
    7       24.256166   0.000000
    8       25.424796   0.000000
 
  0.2000000E+00  0.2000000E+00  0.6666667E-01  0.7111111E-02
    1        0.261178   1.000000
    2        9.816957   0.957884
    3       10.175634   0.000000
    4       13.754754   0.000000
    5       24.229606   0.000000
    6       25.232605   0.000000
    7       28.102572   0.000000
    8       28.938936   0.000000
 
  0.2666667E+00  0.2000000E+00  0.6666667E-01  0.1422222E-01
    1        1.718891   1.000000
    2        7.579525   1.000000
    3        9.507706   1.000000
    4       13.268620   0.000000
    5       24.320452   0.000000
    6       25.824152   0.000000
    7       28.605491   0.000000
    8       30.053858   0.000000
 
  0.3333333E+00  0.2000000E+00  0.6666667E-01  0.1422222E-01
    1        3.418519   1.000000
    2        5.409159   1.000000
    3        9.248608   1.000000
    4       13.024869   0.000000
    5       24.231471   0.000000
    6       26.345969   0.000000
    7       28.916178   0.000000
    8       30.267845   0.000000
 
 -0.2000000E+00  0.2000000E+00  0.6666667E-01  0.7111111E-02
    1       -2.958680   1.000000
    2       14.339440   0.000000
    3       16.793631   0.000000
    4       19.093852   0.000000
    5       21.092030   0.000000
    6       21.844929   0.000000
    7       24.309096   0.000000
    8       27.658397   0.000000
 
 -0.1333333E+00  0.2000000E+00  0.6666667E-01  0.7111111E-02
    1       -3.093941   1.000000
    2       15.679878   0.000000
    3       15.996119   0.000000
    4       19.125165   0.000000
    5       21.342035   0.000000
    6       21.843991   0.000000
    7       25.142612   0.000000
    8       26.056525   0.000000
 
  0.2666667E+00  0.2666667E+00  0.6666667E-01  0.7111111E-02
    1        3.293780   1.000000
    2        7.054179   1.000000
    3        7.369876   1.000000
    4       12.903378   0.000000
    5       25.181676   0.000000
    6       26.348581   0.000000
    7       28.860043   0.000000
    8       30.625300   0.000000
 
  0.3333333E+00  0.2666667E+00  0.6666667E-01  0.7111111E-02
    1        4.936547   1.000000
    2        5.313868   1.000000
    3        7.102167   1.000000
    4       12.781479   0.000000
    5       25.397046   0.000000
    6       27.047960   0.000000
    7       28.029108   0.000000
    8       31.410112   0.000000
 
 -0.2666667E+00  0.2666667E+00  0.6666667E-01  0.7111111E-02
    1       -2.014239   1.000000
    2       11.590984   0.000000
    3       15.862983   0.000000
    4       18.364246   0.000000
    5       20.189083   0.000000
    6       21.547950   0.000000
    7       24.555262   0.000000
    8       29.393099   0.000000
 
 -0.2000000E+00  0.2666667E+00  0.6666667E-01  0.1422222E-01
    1       -2.283574   1.000000
    2       13.130425   0.000000
    3       14.797512   0.000000
    4       18.603353   0.000000
    5       20.794555   0.000000
    6       21.428013   0.000000
    7       25.154842   0.000000
    8       27.824647   0.000000
 
 -0.3333333E+00  0.3333333E+00  0.6666667E-01  0.7111111E-02
    1       -0.806595   1.000000
    2        8.978745   1.000000
    3       15.159683   0.000000
    4       17.735226   0.000000
    5       19.479961   0.000000
    6       21.226584   0.000000
    7       25.261839   0.000000
    8       30.300495   0.000000
 
 -0.2666667E+00  0.3333333E+00  0.6666667E-01  0.1422222E-01
    1       -1.208180   1.000000
    2       10.470448   0.000000
    3       13.950869   0.000000
    4       17.981591   0.000000
    5       20.103271   0.000000
    6       21.730447   0.000000
    7       24.918664   0.000000
    8       29.686746   0.000000
 
 -0.2000000E+00  0.3333333E+00  0.6666667E-01  0.7111111E-02
    1       -1.342209   1.000000
    2       12.005676   0.000000
    3       12.333910   0.000000
    4       18.366520   0.000000
    5       20.697795   0.000000
    6       20.849911   0.000000
    7       26.798887   0.000000
    8       27.695352   0.000000
 
 -0.4000000E+00  0.4000000E+00  0.6666667E-01  0.7111111E-02
    1        0.658509   1.000000
    2        6.560457   1.000000
    3       14.688781   0.000000
    4       17.291653   0.000000
    5       18.996038   0.000000
    6       20.940885   0.000000
    7       26.353077   0.000000
    8       30.345503   0.000000
 
 -0.3333333E+00  0.4000000E+00  0.6666667E-01  0.1422222E-01
    1        0.127568   1.000000
    2        7.961848   1.000000
    3       13.344734   0.000000
    4       17.466977   0.000000
    5       19.536733   0.000000
    6       22.117173   0.000000
    7       25.092553   0.000000
    8       29.928858   0.000000
 
 -0.2666667E+00  0.4000000E+00  0.6666667E-01  0.1422222E-01
    1       -0.138505   1.000000
    2        9.586297   1.000000
    3       11.441662   0.000000
    4       17.952887   0.000000
    5       20.160087   0.000000
    6       21.414785   0.000000
    7       26.688357   0.000000
    8       28.872664   0.000000
 
 -0.4666667E+00  0.4666667E+00  0.6666667E-01  0.7111111E-02
    1        2.366095   1.000000
    2        4.372293   1.000000
    3       14.453028   0.000000
    4       17.064630   0.000000
    5       18.751007   0.000000
    6       20.778398   0.000000
    7       27.701653   0.000000
    8       29.201485   0.000000
 
 -0.4000000E+00  0.4666667E+00  0.6666667E-01  0.1422222E-01
    1        1.715886   1.000000
    2        5.658937   1.000000
    3       12.979986   0.000000
    4       17.141783   0.000000
    5       19.182922   0.000000
    6       22.283985   0.000000
    7       25.886126   0.000000
    8       28.749215   0.000000
 
 -0.3333333E+00  0.4666667E+00  0.6666667E-01  0.1422222E-01
    1        1.321755   1.000000
    2        7.193759   1.000000
    3       10.937796   0.000000
    4       17.589716   0.000000
    5       19.708286   0.000000
    6       22.407885   0.000000
    7       26.176060   0.000000
    8       28.620520   0.000000
 
 -0.2666667E+00  0.4666667E+00  0.6666667E-01  0.7111111E-02
    1        1.189989   1.000000
    2        8.819466   1.000000
    3        9.116018   1.000000
    4       17.699250   0.000000
    5       20.836012   0.000000
    6       21.077776   0.000000
    7       27.068574   0.000000
    8       28.988724   0.000000
 
 -0.4666667E+00 -0.4666667E+00  0.6666667E-01  0.7111111E-02
    1        3.372625   1.000000
    2        3.762514   1.000000
    3       12.858128   0.000000
    4       17.031251   0.000000
    5       19.062244   0.000000
    6       22.310500   0.000000
    7       26.865810   0.000000
    8       27.572741   0.000000
 
 -0.4000000E+00 -0.4666667E+00  0.6666667E-01  0.1422222E-01
    1        3.024118   1.000000
    2        5.017660   1.000000
    3       10.686830   0.000000
    4       17.392156   0.000000
    5       19.473496   0.000000
    6       23.370324   0.000000
    7       25.623690   0.000000
    8       27.915894   0.000000
 
 -0.3333333E+00 -0.4666667E+00  0.6666667E-01  0.1422222E-01
    1        2.769366   1.000000
    2        6.676668   1.000000
    3        8.599300   1.000000
    4       17.458882   0.000000
    5       20.617384   0.000000
    6       22.200760   0.000000
    7       25.509150   0.000000
    8       29.715071   0.000000
 
 -0.4000000E+00 -0.4000000E+00  0.6666667E-01  0.7111111E-02
    1        4.425081   1.000000
    2        4.789141   1.000000
    3        8.468439   1.000000
    4       17.369067   0.000000
    5       20.510518   0.000000
    6       23.307424   0.000000
    7       24.253971   0.000000
    8       29.802114   0.000000
 
 -0.3333333E+00 -0.4000000E+00  0.6666667E-01  0.7111111E-02
    1        4.452474   1.000000
    2        6.294765   1.000000
    3        6.580258   1.000000
    4       17.324337   0.000000
    5       21.717521   0.000000
    6       22.287219   0.000000
    7       23.810581   0.000000
    8       31.683238   0.000000
 
  0.1333333E+00  0.1333333E+00  0.1333333E+00  0.2370370E-02
    1       -1.074166   1.000000
    2       12.054362   0.000000
    3       12.721799   0.000000
    4       12.721799   0.000000
    5       25.324647   0.000000
    6       25.324647   0.000000
    7       27.363547   0.000000
    8       27.363547   0.000000
 
  0.2000000E+00  0.1333333E+00  0.1333333E+00  0.7111111E-02
    1        0.128117   1.000000
    2        9.845623   0.820121
    3       11.585616   0.000000
    4       11.985211   0.000000
    5       25.564893   0.000000
    6       25.898575   0.000000
    7       28.401494   0.000000
    8       28.541909   0.000000
 
  0.2666667E+00  0.1333333E+00  0.1333333E+00  0.7111111E-02
    1        1.586949   1.000000
    2        7.457815   1.000000
    3       11.068248   0.000000
    4       11.488323   0.000000
    5       25.577263   0.000000
    6       25.805937   0.000000
    7       29.609912   0.000000
    8       29.890925   0.000000
 
  0.3333333E+00  0.1333333E+00  0.1333333E+00  0.7111111E-02
    1        3.287965   1.000000
    2        5.281661   1.000000
    3       10.815761   0.000000
    4       11.238411   0.000000
    5       25.539260   0.000000
    6       25.694937   0.000000
    7       30.478024   0.000000
    8       31.022043   0.000000
 
 -0.1333333E+00  0.1333333E+00  0.1333333E+00  0.1777778E-02
    1       -3.229296   1.000000
    2       16.635963   0.000000
    3       16.635963   0.000000
    4       18.265435   0.000000
    5       20.523068   0.000000
    6       23.514111   0.000000
    7       25.041442   0.000000
    8       25.041442   0.000000
 
  0.2000000E+00  0.2000000E+00  0.1333333E+00  0.7111111E-02
    1        1.455331   1.000000
    2        9.057431   1.000000
    3        9.427641   1.000000
    4       11.183758   0.000000
    5       26.476643   0.000000
    6       27.189793   0.000000
    7       29.112128   0.000000
    8       29.588406   0.000000
 
  0.2666667E+00  0.2000000E+00  0.1333333E+00  0.1422222E-01
    1        3.033614   1.000000
    2        6.942301   1.000000
    3        8.878887   1.000000
    4       10.803194   0.000000
    5       26.790396   0.000000
    6       27.727981   0.000000
    7       30.006015   0.000000
    8       30.660848   0.000000
 
  0.3333333E+00  0.2000000E+00  0.1333333E+00  0.7111111E-02
    1        4.684511   1.000000
    2        5.059020   1.000000
    3        8.746505   1.000000
    4       10.677294   0.000000
    5       26.834829   0.000000
    6       27.895401   0.000000
    7       30.393258   0.000000
    8       31.177398   0.000000
 
 -0.2000000E+00  0.2000000E+00  0.1333333E+00  0.7111111E-02
    1       -2.553273   1.000000
    2       14.539842   0.000000
    3       15.476468   0.000000
    4       17.670822   0.000000
    5       19.641861   0.000000
    6       23.059124   0.000000
    7       25.232467   0.000000
    8       26.787945   0.000000
 
  0.2666667E+00  0.2666667E+00  0.1333333E+00  0.7111111E-02
    1        4.715269   1.000000
    2        6.553477   1.000000
    3        6.863414   1.000000
    4       10.546872   0.000000
    5       27.580838   0.000000
    6       28.836660   0.000000
    7       29.922204   0.000000
    8       31.496262   0.000000
 
 -0.2666667E+00  0.2666667E+00  0.1333333E+00  0.7111111E-02
    1       -1.610647   1.000000
    2       11.913783   0.000000
    3       14.530841   0.000000
    4       17.033339   0.000000
    5       19.838567   0.000000
    6       22.232571   0.000000
    7       24.907307   0.000000
    8       29.254336   0.000000
 
 -0.2000000E+00  0.2666667E+00  0.1333333E+00  0.7111111E-02
    1       -1.744965   1.000000
    2       13.354627   0.000000
    3       13.583950   0.000000
    4       17.290654   0.000000
    5       18.772536   0.000000
    6       22.884304   0.000000
    7       26.474796   0.000000
    8       27.165926   0.000000
 
 -0.3333333E+00  0.3333333E+00  0.1333333E+00  0.7111111E-02
    1       -0.405378   1.000000
    2        9.340070   1.000000
    3       13.815506   0.000000
    4       16.390877   0.000000
    5       20.509239   0.000000
    6       21.552379   0.000000
    7       24.591513   0.000000
    8       29.486847   0.000000
 
 -0.2666667E+00  0.3333333E+00  0.1333333E+00  0.1422222E-01
    1       -0.672371   1.000000
    2       10.918677   0.000000
    3       12.630891   0.000000
    4       16.930659   0.000000
    5       18.976982   0.000000
    6       22.264045   0.000000
    7       26.225904   0.000000
    8       28.481777   0.000000
 
 -0.4000000E+00  0.4000000E+00  0.1333333E+00  0.7111111E-02
    1        1.056751   1.000000
    2        6.938440   1.000000
    3       13.336704   0.000000
    4       15.927089   0.000000
    5       21.084436   0.000000
    6       21.221257   0.000000
    7       24.600528   0.000000
    8       28.256285   0.000000
 
 -0.3333333E+00  0.4000000E+00  0.1333333E+00  0.1422222E-01
    1        0.659731   1.000000
    2        8.452233   1.000000
    3       12.014883   0.000000
    4       16.437231   0.000000
    5       19.792457   0.000000
    6       21.828240   0.000000
    7       25.490028   0.000000
    8       28.091561   0.000000
 
 -0.2666667E+00  0.4000000E+00  0.1333333E+00  0.7111111E-02
    1        0.527165   1.000000
    2       10.044456   0.000001
    3       10.315753   0.000000
    4       17.352575   0.000000
    5       18.684786   0.000000
    6       21.805101   0.000000
    7       26.486915   0.000000
    8       28.444747   0.000000
 
 -0.4666667E+00  0.4666667E+00  0.1333333E+00  0.7111111E-02
    1        2.761133   1.000000
    2        4.758509   1.000000
    3       13.096768   0.000000
    4       15.688879   0.000000
    5       20.847103   0.000000
    6       21.644799   0.000000
    7       25.086108   0.000000
    8       26.928673   0.000000
 
 -0.4000000E+00  0.4666667E+00  0.1333333E+00  0.1422222E-01
    1        2.243507   1.000000
    2        6.167414   1.000000
    3       11.645185   0.000000
    4       16.102607   0.000000
    5       20.508125   0.000000
    6       21.921031   0.000000
    7       24.535860   0.000000
    8       27.312050   0.000000
 
 -0.3333333E+00  0.4666667E+00  0.1333333E+00  0.1422222E-01
    1        1.982003   1.000000
    2        7.811353   1.000000
    3        9.688588   1.000000
    4       17.271208   0.000000
    5       19.363550   0.000000
    6       21.515510   0.000000
    7       24.800321   0.000000
    8       29.059967   0.000000
 
 -0.4666667E+00 -0.4666667E+00  0.1333333E+00  0.7111111E-02
    1        3.902516   1.000000
    2        4.272358   1.000000
    3       11.521807   0.000000
    4       15.987676   0.000000
    5       20.669297   0.000000
    6       22.445253   0.000000
    7       23.787174   0.000000
    8       27.023324   0.000000
 
 -0.4000000E+00 -0.4666667E+00  0.1333333E+00  0.1422222E-01
    1        3.677879   1.000000
    2        5.655789   1.000000
    3        9.432747   1.000000
    4       17.109201   0.000000
    5       20.114055   0.000000
    6       21.838341   0.000000
    7       23.117304   0.000000
    8       29.087664   0.000000
 
 -0.3333333E+00 -0.4666667E+00  0.1333333E+00  0.7111111E-02
    1        3.552767   1.000000
    2        7.301001   1.000000
    3        7.578761   1.000000
    4       17.932074   0.000000
    5       19.587357   0.000000
    6       21.263973   0.000000
    7       23.065009   0.000000
    8       30.958886   0.000000
 
 -0.4000000E+00 -0.4000000E+00  0.1333333E+00  0.7111111E-02
    1        5.200508   1.000000
    2        5.549204   1.000000
    3        7.327219   1.000000
    4       18.061344   0.000000
    5       20.175800   0.000000
    6       21.313754   0.000000
    7       21.893292   0.000000
    8       31.562695   0.000000
 
  0.2000000E+00  0.2000000E+00  0.2000000E+00  0.2370370E-02
    1        2.903929   1.000000
    2        8.419588   1.000000
    3        8.924535   1.000000
    4        8.924535   1.000000
    5       28.407706   0.000000
    6       28.407706   0.000000
    7       30.201605   0.000000
    8       30.201605   0.000000
 
  0.2666667E+00  0.2000000E+00  0.2000000E+00  0.7111111E-02
    1        4.591249   1.000000
    2        6.560080   1.000000
    3        8.366959   1.000000
    4        8.671916   1.000000
    5       28.945064   0.000000
    6       29.280919   0.000000
    7       30.898916   0.000000
    8       31.174585   0.000000
 
 -0.2000000E+00  0.2000000E+00  0.2000000E+00  0.1777778E-02
    1       -1.879386   1.000000
    2       14.305345   0.000000
    3       14.305346   0.000000
    4       16.218997   0.000000
    5       17.820682   0.000000
    6       24.834711   0.000000
    7       26.366022   0.000000
    8       26.366022   0.000000
 