 running on    4 total cores
 distrk:  each k-point on    4 cores,    1 groups
 distr:  one band on    1 cores,    4 groups
 vasp.6.2.0 18Jan21 (build Aug 12 2022 13:00:08) complex                        
  
 POSCAR found type information on POSCAR Si
 POSCAR found :  1 types and       1 ions
 scaLAPACK will be used
 LDA part: xc-table for Pade appr. of Perdew
 POSCAR, INCAR and KPOINTS ok, starting setup
 FFT: planning ...
 WAVECAR not read
 entering main loop
       N       E                     dE             d eps       ncg     rms          rms(c)
DAV:   1    -0.298140270932E+01   -0.29814E+01   -0.15847E+03  2080   0.305E+02
DAV:   2    -0.490279629163E+01   -0.19214E+01   -0.18194E+01  2880   0.261E+01
DAV:   3    -0.491323779734E+01   -0.10442E-01   -0.10432E-01  2152   0.193E+00
DAV:   4    -0.491324708488E+01   -0.92875E-05   -0.92865E-05  3080   0.578E-02
DAV:   5    -0.491324708681E+01   -0.19379E-08   -0.20216E-08  2184   0.545E-04    0.285E+00
DAV:   6    -0.490177375183E+01    0.11473E-01   -0.35983E-03  2024   0.266E-01    0.158E+00
DAV:   7    -0.489519206985E+01    0.65817E-02   -0.72532E-03  2072   0.378E-01    0.135E-01
DAV:   8    -0.489517080564E+01    0.21264E-04   -0.33316E-05  2776   0.443E-02    0.119E-02
DAV:   9    -0.489517139850E+01   -0.59286E-06   -0.44879E-07  2240   0.379E-03
   1 F= -.48951714E+01 E0= -.48948564E+01  d E =-.489517E+01
 curvature:   0.00 expect dE= 0.000E+00 dE for cont linesearch  0.000E+00
 trial: gam= 0.00000 g(F)=  0.348E-64 g(S)=  0.340E-01 ort = 0.000E+00 (trialstep = 0.100E+01)
 search vector abs. value=  0.340E-01
 bond charge predicted
       N       E                     dE             d eps       ncg     rms          rms(c)
DAV:   1    -0.491547886747E+01   -0.20308E-01   -0.49535E-01  1960   0.281E+00    0.663E-01
DAV:   2    -0.491013855171E+01    0.53403E-02   -0.29284E-03  2136   0.417E-01    0.381E-01
DAV:   3    -0.490697772135E+01    0.31608E-02   -0.34982E-03  2056   0.251E-01    0.114E-01
DAV:   4    -0.490697463024E+01    0.30911E-05   -0.67949E-06  2512   0.234E-02    0.957E-02
DAV:   5    -0.490696258786E+01    0.12042E-04   -0.12394E-06  2376   0.760E-03    0.171E-02
DAV:   6    -0.490696301354E+01   -0.42568E-06   -0.24777E-08  1048   0.128E-03
   2 F= -.49069630E+01 E0= -.49067315E+01  d E =-.117916E-01
 trial-energy change:   -0.011792  1 .order   -0.012358   -0.034036    0.009320
 step:   0.7712(harm=  0.7850)  dis= 0.00000  next Energy=    -4.908036 (dE=-0.129E-01)
 bond charge predicted
       N       E                     dE             d eps       ncg     rms          rms(c)
DAV:   1    -0.490845516387E+01   -0.14926E-02   -0.26608E-02  1952   0.662E-01    0.151E-01
DAV:   2    -0.490817124498E+01    0.28392E-03   -0.15314E-04  2160   0.965E-02    0.862E-02
DAV:   3    -0.490800565623E+01    0.16559E-03   -0.18486E-04  2064   0.579E-02    0.282E-02
DAV:   4    -0.490800572177E+01   -0.65538E-07   -0.34545E-07  2416   0.528E-03    0.242E-02
DAV:   5    -0.490800645447E+01   -0.73271E-06   -0.69164E-08  1096   0.188E-03    0.468E-03
DAV:   6    -0.490800630535E+01    0.14912E-06   -0.28638E-09   984   0.473E-04
   3 F= -.49080063E+01 E0= -.49077617E+01  d E =-.128349E-01
 curvature:  -0.39 expect dE=-0.111E-06 dE for cont linesearch -0.111E-06
 trial: gam=-0.00288 g(F)=  0.165E-64 g(S)=  0.284E-06 ort = 0.983E-04 (trialstep = 0.954E+00)
 search vector abs. value=  0.102E-09
 reached required accuracy - stopping structural energy minimisation
