   2   2   0   0
  0.2016476E+02  0.3849278E-09  0.3849279E-09  0.3849278E-09  0.5000000E-15
  1.000000000000000E-004
  CAR 
 unknown system                          
     16.08071635     -7.20469327  301      5.76236921      1.00000000
     -7.205  0.0000E+00  0.0000E+00
     -7.127  0.0000E+00  0.0000E+00
     -7.049  0.0000E+00  0.0000E+00
     -6.972  0.0000E+00  0.0000E+00
     -6.894  0.0000E+00  0.0000E+00
     -6.817  0.0000E+00  0.0000E+00
     -6.739  0.0000E+00  0.0000E+00
     -6.661  0.0000E+00  0.0000E+00
     -6.584  0.0000E+00  0.0000E+00
     -6.506  0.0000E+00  0.0000E+00
     -6.429  0.7264E-18  0.5638E-19
     -6.351  0.3589E-11  0.2786E-12
     -6.273  0.1649E-06  0.1280E-07
     -6.196  0.8156E-04  0.6344E-05
     -6.118  0.7153E-03  0.6186E-04
     -6.040  0.8526E-03  0.1280E-03
     -5.963  0.2162E-02  0.2958E-03
     -5.885  0.1541E-02  0.4154E-03
     -5.808  0.1801E-02  0.5552E-03
     -5.730  0.2634E-02  0.7597E-03
     -5.652  0.2192E-02  0.9298E-03
     -5.575  0.4425E-02  0.1273E-02
     -5.497  0.1936E-02  0.1424E-02
     -5.419  0.1915E-02  0.1572E-02
     -5.342  0.3698E-02  0.1859E-02
     -5.264  0.3623E-02  0.2140E-02
     -5.187  0.6581E-02  0.2651E-02
     -5.109  0.2388E-02  0.2837E-02
     -5.031  0.2197E-02  0.3007E-02
     -4.954  0.4981E-02  0.3394E-02
     -4.876  0.4092E-02  0.3711E-02
     -4.799  0.5739E-02  0.4157E-02
     -4.721  0.3105E-02  0.4398E-02
     -4.643  0.6162E-02  0.4876E-02
     -4.566  0.6169E-02  0.5355E-02
     -4.488  0.5411E-02  0.5775E-02
     -4.410  0.5434E-02  0.6197E-02
     -4.333  0.6042E-02  0.6666E-02
     -4.255  0.1993E-02  0.6820E-02
     -4.178  0.5102E-02  0.7216E-02
     -4.100  0.1032E-01  0.8017E-02
     -4.022  0.9961E-02  0.8791E-02
     -3.945  0.7577E-02  0.9379E-02
     -3.867  0.7391E-02  0.9952E-02
     -3.789  0.8042E-02  0.1058E-01
     -3.712  0.9036E-02  0.1128E-01
     -3.634  0.7586E-02  0.1187E-01
     -3.557  0.1213E-01  0.1281E-01
     -3.479  0.2312E-02  0.1299E-01
     -3.401  0.3754E-02  0.1328E-01
     -3.324  0.9493E-02  0.1402E-01
     -3.246  0.9563E-02  0.1476E-01
     -3.169  0.1262E-01  0.1574E-01
     -3.091  0.7726E-02  0.1634E-01
     -3.013  0.3017E-02  0.1657E-01
     -2.936  0.5146E-02  0.1697E-01
     -2.858  0.2675E-02  0.1718E-01
     -2.780  0.2838E-02  0.1740E-01
     -2.703  0.3265E-02  0.1765E-01
     -2.625  0.3084E-02  0.1789E-01
     -2.548  0.8242E-02  0.1853E-01
     -2.470  0.7902E-02  0.1914E-01
     -2.392  0.6895E-02  0.1968E-01
     -2.315  0.3952E-02  0.1999E-01
     -2.237  0.1724E-03  0.2000E-01
     -2.160  0.1250E-06  0.2000E-01
     -2.082  0.9288E-12  0.2000E-01
     -2.004  0.0000E+00  0.2000E-01
     -1.927  0.3352E-18  0.2000E-01
     -1.849  0.2711E-11  0.2000E-01
     -1.771  0.2404E-06  0.2000E-01
     -1.694  0.2833E-03  0.2002E-01
     -1.616  0.8487E-02  0.2068E-01
     -1.539  0.1401E-01  0.2177E-01
     -1.461  0.3889E-02  0.2207E-01
     -1.383  0.3385E-02  0.2233E-01
     -1.306  0.1019E-02  0.2241E-01
     -1.228  0.5604E-02  0.2285E-01
     -1.150  0.6871E-02  0.2338E-01
     -1.073  0.1525E-01  0.2456E-01
     -0.995  0.1411E-01  0.2566E-01
     -0.918  0.8437E-02  0.2631E-01
     -0.840  0.1522E-01  0.2750E-01
     -0.762  0.1492E-01  0.2865E-01
     -0.685  0.5367E-02  0.2907E-01
     -0.607  0.4244E-02  0.2940E-01
     -0.530  0.2071E-02  0.2956E-01
     -0.452  0.1138E-01  0.3044E-01
     -0.374  0.1285E-01  0.3144E-01
     -0.297  0.1564E-02  0.3156E-01
     -0.219  0.8409E-05  0.3156E-01
     -0.141  0.7251E-03  0.3162E-01
     -0.064  0.5223E-02  0.3202E-01
      0.014  0.3561E-02  0.3230E-01
      0.091  0.9130E-02  0.3301E-01
      0.169  0.8506E-02  0.3367E-01
      0.247  0.4509E-02  0.3402E-01
      0.324  0.1577E-02  0.3414E-01
      0.402  0.1371E-02  0.3425E-01
      0.479  0.1575E-02  0.3437E-01
      0.557  0.5385E-03  0.3441E-01
      0.635  0.5391E-02  0.3483E-01
      0.712  0.9536E-02  0.3557E-01
      0.790  0.3641E-02  0.3585E-01
      0.868  0.7025E-04  0.3586E-01
      0.945  0.3085E-07  0.3586E-01
      1.023  0.3839E-04  0.3586E-01
      1.100  0.2278E-02  0.3604E-01
      1.178  0.3550E-02  0.3631E-01
      1.256  0.5445E-03  0.3636E-01
      1.333  0.5184E-02  0.3676E-01
      1.411  0.8951E-02  0.3745E-01
      1.489  0.1324E-01  0.3848E-01
      1.566  0.8363E-02  0.3913E-01
      1.644  0.5262E-02  0.3954E-01
      1.721  0.9204E-02  0.4025E-01
      1.799  0.1144E-01  0.4114E-01
      1.877  0.1573E-01  0.4236E-01
      1.954  0.8578E-02  0.4303E-01
      2.032  0.1271E-01  0.4402E-01
      2.109  0.1237E-01  0.4498E-01
      2.187  0.6251E-02  0.4546E-01
      2.265  0.1587E-01  0.4669E-01
      2.342  0.7060E-02  0.4724E-01
      2.420  0.9689E-02  0.4799E-01
      2.498  0.1208E-01  0.4893E-01
      2.575  0.8944E-02  0.4962E-01
      2.653  0.8766E-02  0.5030E-01
      2.730  0.1818E-01  0.5172E-01
      2.808  0.2273E-01  0.5348E-01
      2.886  0.1440E-01  0.5460E-01
      2.963  0.7653E-02  0.5519E-01
      3.041  0.9485E-02  0.5593E-01
      3.119  0.2343E-01  0.5775E-01
      3.196  0.1211E-01  0.5869E-01
      3.274  0.2000E-01  0.6024E-01
      3.351  0.7317E-02  0.6081E-01
      3.429  0.7733E-02  0.6141E-01
      3.507  0.1462E-01  0.6254E-01
      3.584  0.2588E-01  0.6455E-01
      3.662  0.1816E-01  0.6596E-01
      3.739  0.1189E-01  0.6688E-01
      3.817  0.8580E-02  0.6755E-01
      3.895  0.3977E-02  0.6786E-01
      3.972  0.9059E-02  0.6856E-01
      4.050  0.1709E-01  0.6989E-01
      4.128  0.1594E-01  0.7112E-01
      4.205  0.1800E-01  0.7252E-01
      4.283  0.1062E-01  0.7335E-01
      4.360  0.9049E-02  0.7405E-01
      4.438  0.9918E-02  0.7482E-01
      4.516  0.2972E-02  0.7505E-01
      4.593  0.1075E-01  0.7588E-01
      4.671  0.1448E-01  0.7701E-01
      4.748  0.7952E-02  0.7762E-01
      4.826  0.2607E-02  0.7783E-01
      4.904  0.1884E-02  0.7797E-01
      4.981  0.2191E-02  0.7814E-01
      5.059  0.5229E-02  0.7855E-01
      5.137  0.8276E-02  0.7919E-01
      5.214  0.2477E-02  0.7938E-01
      5.292  0.1950E-02  0.7953E-01
      5.369  0.1139E-02  0.7962E-01
      5.447  0.2074E-02  0.7978E-01
      5.525  0.1414E-02  0.7989E-01
      5.602  0.1289E-02  0.7999E-01
      5.680  0.8387E-04  0.8000E-01
      5.758  0.8673E-07  0.8000E-01
      5.835  0.9305E-12  0.8000E-01
      5.913  0.0000E+00  0.8000E-01
      5.990  0.0000E+00  0.8000E-01
      6.068  0.0000E+00  0.8000E-01
      6.146  0.4339E-14  0.8000E-01
      6.223  0.3062E-08  0.8000E-01
      6.301  0.2109E-04  0.8000E-01
      6.378  0.1829E-02  0.8014E-01
      6.456  0.3968E-02  0.8045E-01
      6.534  0.1871E-02  0.8060E-01
      6.611  0.1491E-02  0.8071E-01
      6.689  0.2139E-02  0.8088E-01
      6.767  0.3899E-02  0.8118E-01
      6.844  0.9203E-02  0.8190E-01
      6.922  0.6162E-02  0.8237E-01
      6.999  0.2598E-02  0.8258E-01
      7.077  0.2991E-02  0.8281E-01
      7.155  0.1329E-01  0.8384E-01
      7.232  0.8322E-02  0.8448E-01
      7.310  0.4289E-02  0.8482E-01
      7.387  0.8316E-02  0.8546E-01
      7.465  0.7613E-02  0.8605E-01
      7.543  0.8697E-02  0.8673E-01
      7.620  0.1352E-01  0.8778E-01
      7.698  0.7702E-02  0.8838E-01
      7.776  0.1687E-01  0.8969E-01
      7.853  0.2577E-01  0.9169E-01
      7.931  0.1919E-01  0.9318E-01
      8.008  0.1075E-01  0.9401E-01
      8.086  0.1410E-01  0.9511E-01
      8.164  0.1111E-01  0.9597E-01
      8.241  0.9235E-02  0.9668E-01
      8.319  0.1677E-01  0.9799E-01
      8.397  0.1915E-01  0.9947E-01
      8.474  0.6534E-02  0.9998E-01
      8.552  0.7298E-02  0.1005E+00
      8.629  0.1326E-01  0.1016E+00
      8.707  0.7825E-02  0.1022E+00
      8.785  0.7808E-02  0.1028E+00
      8.862  0.2077E-01  0.1044E+00
      8.940  0.2924E-01  0.1067E+00
      9.017  0.2428E-01  0.1086E+00
      9.095  0.1874E-01  0.1100E+00
      9.173  0.1775E-01  0.1114E+00
      9.250  0.7346E-02  0.1120E+00
      9.328  0.1706E-01  0.1133E+00
      9.406  0.1899E-01  0.1148E+00
      9.483  0.1615E-01  0.1160E+00
      9.561  0.1544E-01  0.1172E+00
      9.638  0.1634E-01  0.1185E+00
      9.716  0.7474E-02  0.1191E+00
      9.794  0.1205E-01  0.1200E+00
      9.871  0.1469E-01  0.1211E+00
      9.949  0.1772E-01  0.1225E+00
     10.027  0.9768E-02  0.1233E+00
     10.104  0.9602E-02  0.1240E+00
     10.182  0.1332E-01  0.1250E+00
     10.259  0.1203E-01  0.1260E+00
     10.337  0.1313E-01  0.1270E+00
     10.415  0.1280E-01  0.1280E+00
     10.492  0.9532E-02  0.1287E+00
     10.570  0.1980E-01  0.1303E+00
     10.647  0.2023E-01  0.1318E+00
     10.725  0.1379E-01  0.1329E+00
     10.803  0.9865E-02  0.1337E+00
     10.880  0.7715E-02  0.1343E+00
     10.958  0.5025E-02  0.1347E+00
     11.036  0.1257E-01  0.1356E+00
     11.113  0.7813E-02  0.1362E+00
     11.191  0.4324E-02  0.1366E+00
     11.268  0.8899E-02  0.1373E+00
     11.346  0.1554E-01  0.1385E+00
     11.424  0.1947E-01  0.1400E+00
     11.501  0.1465E-01  0.1411E+00
     11.579  0.1656E-01  0.1424E+00
     11.656  0.1742E-01  0.1438E+00
     11.734  0.9062E-02  0.1445E+00
     11.812  0.6792E-02  0.1450E+00
     11.889  0.1515E-02  0.1451E+00
     11.967  0.5065E-02  0.1455E+00
     12.045  0.7676E-02  0.1461E+00
     12.122  0.1404E-01  0.1472E+00
     12.200  0.5736E-02  0.1476E+00
     12.277  0.4875E-02  0.1480E+00
     12.355  0.3481E-02  0.1483E+00
     12.433  0.3834E-02  0.1486E+00
     12.510  0.5411E-02  0.1490E+00
     12.588  0.1634E-01  0.1503E+00
     12.666  0.2245E-01  0.1520E+00
     12.743  0.1333E-01  0.1530E+00
     12.821  0.1024E-01  0.1538E+00
     12.898  0.4646E-02  0.1542E+00
     12.976  0.2247E-03  0.1542E+00
     13.054  0.2363E-04  0.1542E+00
     13.131  0.2914E-02  0.1544E+00
     13.209  0.9192E-02  0.1552E+00
     13.286  0.5900E-02  0.1556E+00
     13.364  0.1752E-02  0.1558E+00
     13.442  0.3873E-02  0.1561E+00
     13.519  0.5805E-02  0.1565E+00
     13.597  0.3908E-02  0.1568E+00
     13.675  0.4469E-02  0.1572E+00
     13.752  0.3140E-02  0.1574E+00
     13.830  0.5757E-02  0.1578E+00
     13.907  0.1284E-01  0.1588E+00
     13.985  0.2815E-02  0.1591E+00
     14.063  0.1590E-04  0.1591E+00
     14.140  0.1179E-08  0.1591E+00
     14.218  0.8800E-15  0.1591E+00
     14.296  0.0000E+00  0.1591E+00
     14.373  0.6403E-16  0.1591E+00
     14.451  0.1543E-09  0.1591E+00
     14.528  0.3459E-05  0.1591E+00
     14.606  0.8741E-03  0.1591E+00
     14.684  0.4392E-02  0.1595E+00
     14.761  0.7670E-03  0.1595E+00
     14.839  0.5113E-05  0.1595E+00
     14.916  0.5202E-03  0.1596E+00
     14.994  0.2818E-02  0.1598E+00
     15.072  0.2452E-02  0.1600E+00
     15.149  0.2456E-03  0.1600E+00
     15.227  0.4947E-06  0.1600E+00
     15.305  0.1077E-10  0.1600E+00
     15.382  0.2011E-17  0.1600E+00
     15.460  0.0000E+00  0.1600E+00
     15.537  0.0000E+00  0.1600E+00
     15.615  0.0000E+00  0.1600E+00
     15.693  0.0000E+00  0.1600E+00
     15.770  0.0000E+00  0.1600E+00
     15.848  0.0000E+00  0.1600E+00
     15.925  0.0000E+00  0.1600E+00
     16.003  0.0000E+00  0.1600E+00
     16.081  0.0000E+00  0.1600E+00
