    2    2  100    1
  0.2016476E+02  0.3849278E-09  0.3849279E-09  0.3849278E-09  0.5000000E-15
  1.000000000000000E-004
  CAR 
 unknown system                          
      8     60      8
 
  0.6250000E-01  0.6250000E-01  0.6250000E-01  0.3906250E-02
    1       -6.146266   1.000000
    2        5.092466   1.000000
    3        5.541074   1.000000
    4        5.541076   1.000000
    5        8.222025   0.000000
    6        8.302636   0.000000
    7        8.302643   0.000000
    8        9.169524   0.000000
 
  0.1875000E+00  0.6250000E-01  0.6250000E-01  0.1171875E-01
    1       -5.879786   1.000000
    2        3.592452   1.000000
    3        4.739491   1.000000
    4        5.424196   1.000000
    5        8.275501   0.000000
    6        8.546114   0.000000
    7        8.836155   0.000000
    8       10.637286   0.000000
 
  0.3125000E+00  0.6250000E-01  0.6250000E-01  0.1171875E-01
    1       -5.236783   1.000000
    2        1.378781   1.000000
    3        4.254347   1.000000
    4        4.964979   1.000000
    5        7.828976   0.000000
    6        9.035872   0.000000
    7        9.320264   0.000000
    8       12.171900   0.000000
 
  0.4375000E+00  0.6250000E-01  0.6250000E-01  0.1171875E-01
    1       -4.340206   1.000000
    2       -0.496749   1.000000
    3        4.039134   1.000000
    4        4.560543   1.000000
    5        7.514816   0.000000
    6        9.097181   0.000000
    7        9.110721   0.000000
    8       13.412840   0.000000
 
 -0.4375000E+00  0.6250000E-01  0.6250000E-01  0.1171875E-01
    1       -3.895180   1.000000
    2       -1.192564   1.000000
    3        4.088460   1.000000
    4        4.343680   1.000000
    5        7.434924   0.000000
    6        8.904166   0.000000
    7        9.173451   0.000000
    8       13.483729   0.000000
 
 -0.3125000E+00  0.6250000E-01  0.6250000E-01  0.1171875E-01
    1       -4.647206   1.000000
    2        0.057761   1.000000
    3        4.364133   1.000000
    4        4.373391   1.000000
    5        7.600865   0.000000
    6        8.911679   0.000000
    7        9.431039   0.000000
    8       12.531206   0.000000
 
 -0.1875000E+00  0.6250000E-01  0.6250000E-01  0.1171875E-01
    1       -5.488857   1.000000
    2        2.104667   1.000000
    3        4.638513   1.000000
    4        4.835191   1.000000
    5        7.955613   0.000000
    6        8.775864   0.000000
    7        9.489347   0.000000
    8       11.350258   0.000000
 
 -0.6250000E-01  0.6250000E-01  0.6250000E-01  0.1171875E-01
    1       -6.012329   1.000000
    2        4.342893   1.000000
    3        5.117392   1.000000
    4        5.275316   1.000000
    5        8.018084   0.000000
    6        8.589844   0.000000
    7        8.880018   0.000000
    8        9.905735   0.000000
 
  0.1875000E+00  0.1875000E+00  0.6250000E-01  0.1171875E-01
    1       -5.745694   1.000000
    2        3.450874   1.000000
    3        4.563011   1.000000
    4        4.645986   1.000000
    5        7.599043   0.000000
    6        9.346082   0.000000
    7        9.734301   0.000000
    8       10.248480   0.000000
 
  0.3125000E+00  0.1875000E+00  0.6250000E-01  0.2343750E-01
    1       -5.224333   1.000000
    2        1.956520   1.000000
    3        3.598630   1.000000
    4        4.388817   1.000000
    5        7.766801   0.000000
    6        9.456386   0.000000
    7       10.068749   0.000000
    8       10.526925   0.000000
 
  0.4375000E+00  0.1875000E+00  0.6250000E-01  0.2343750E-01
    1       -4.384599   1.000000
    2        0.109269   1.000000
    3        3.105765   1.000000
    4        3.980831   1.000000
    5        7.960025   0.000000
    6        9.381357   0.000000
    7       10.554662   0.000000
    8       10.818514   0.000000
 
 -0.4375000E+00  0.1875000E+00  0.6250000E-01  0.2343750E-01
    1       -3.628106   1.000000
    2       -1.092305   1.000000
    3        2.818372   1.000000
    4        3.888344   1.000000
    5        8.029816   0.000000
    6        9.075255   0.000000
    7       10.400245   0.000000
    8       12.835017   0.000000
 
 -0.3125000E+00  0.1875000E+00  0.6250000E-01  0.2343750E-01
    1       -4.082831   1.000000
    2       -0.406818   1.000000
    3        2.745645   1.000000
    4        4.171453   1.000000
    5        8.309798   0.000000
    6        8.987579   0.000000
    7       10.346345   0.000000
    8       12.087240   0.000000
 
 -0.1875000E+00  0.1875000E+00  0.6250000E-01  0.2343750E-01
    1       -4.977889   1.000000
    2        1.310365   1.000000
    3        3.045984   1.000000
    4        4.676165   1.000000
    5        8.620951   0.000000
    6        8.924926   0.000000
    7       10.224793   0.000000
    8       10.695328   0.000000
 
 -0.6250000E-01  0.1875000E+00  0.6250000E-01  0.2343750E-01
    1       -5.616107   1.000000
    2        2.779167   1.000000
    3        4.165886   1.000000
    4        5.047261   1.000000
    5        8.161032   0.000000
    6        8.826732   0.000000
    7        9.546999   0.000000
    8       10.772530   0.000000
 
  0.3125000E+00  0.3125000E+00  0.6250000E-01  0.1171875E-01
    1       -4.826135   1.000000
    2        1.454011   1.000000
    3        3.457955   1.000000
    4        3.579124   1.000000
    5        6.791757   0.000000
    6        8.443809   0.000000
    7       11.587923   0.000000
    8       11.730422   0.000000
 
  0.4375000E+00  0.3125000E+00  0.6250000E-01  0.2343750E-01
    1       -4.078885   1.000000
    2        0.223664   1.000000
    3        2.675566   1.000000
    4        3.234280   1.000000
    5        7.104244   0.000000
    6        8.282913   0.000000
    7       11.549301   0.000000
    8       12.718755   0.000000
 
 -0.4375000E+00  0.3125000E+00  0.6250000E-01  0.2343750E-01
    1       -3.186582   1.000000
    2       -0.966509   1.000000
    3        1.840178   1.000000
    4        3.202976   1.000000
    5        7.338026   0.000000
    6        9.936986   0.000000
    7       11.125498   0.000000
    8       12.632562   0.000000
 
 -0.3125000E+00  0.3125000E+00  0.6250000E-01  0.2343750E-01
    1       -3.257555   1.000000
    2       -0.873097   1.000000
    3        1.489297   1.000000
    4        3.545310   1.000000
    5        7.739059   0.000000
    6       10.666979   0.000000
    7       11.969074   0.000000
    8       12.252935   0.000000
 
 -0.1875000E+00  0.3125000E+00  0.6250000E-01  0.2343750E-01
    1       -4.148310   1.000000
    2        0.074578   1.000000
    3        2.089908   1.000000
    4        4.127265   1.000000
    5        8.368565   0.000000
    6        9.567185   0.000000
    7       10.994212   0.000000
    8       11.263994   0.000000
 
 -0.6250000E-01  0.3125000E+00  0.6250000E-01  0.2343750E-01
    1       -4.865376   1.000000
    2        0.709125   1.000000
    3        3.713841   1.000000
    4        4.577597   1.000000
    5        8.087199   0.000000
    6        8.938969   0.000000
    7        9.790629   0.000000
    8       11.468132   0.000000
 
  0.4375000E+00  0.4375000E+00  0.6250000E-01  0.1171875E-01
    1       -3.429169   1.000000
    2       -0.634569   1.000000
    3        2.773381   1.000000
    4        2.989395   1.000000
    5        6.398552   0.000000
    6        7.105726   0.000000
    7       13.876075   0.000000
    8       13.882954   0.000000
 
 -0.4375000E+00  0.4375000E+00  0.6250000E-01  0.2343750E-01
    1       -2.524481   1.000000
    2       -1.618474   1.000000
    3        2.218658   1.000000
    4        2.747167   1.000000
    5        6.827966   0.000000
    6        7.554326   0.000000
    7       13.624788   0.000000
    8       14.643335   0.000000
 
 -0.3125000E+00  0.4375000E+00  0.6250000E-01  0.2343750E-01
    1       -2.621153   1.000000
    2       -1.453586   1.000000
    3        1.493337   1.000000
    4        3.060348   1.000000
    5        7.191206   0.000000
    6        9.781965   0.000000
    7       12.103956   0.000000
    8       13.248063   0.000000
 
 -0.1875000E+00  0.4375000E+00  0.6250000E-01  0.2343750E-01
    1       -3.373705   1.000000
    2       -1.047449   1.000000
    3        2.042458   1.000000
    4        3.658133   1.000000
    5        7.859160   0.000000
    6        9.817998   0.000000
    7       11.353561   0.000000
    8       12.587796   0.000000
 
 -0.6250000E-01  0.4375000E+00  0.6250000E-01  0.2343750E-01
    1       -3.979071   1.000000
    2       -0.897586   1.000000
    3        3.540175   1.000000
    4        4.243713   1.000000
    5        7.887328   0.000000
    6        8.837234   0.000000
    7        9.611377   0.000000
    8       13.153657   0.000000
 
 -0.4375000E+00 -0.4375000E+00  0.6250000E-01  0.1171875E-01
    1       -2.575562   1.000000
    2       -1.635904   1.000000
    3        2.636427   1.000000
    4        2.868948   1.000000
    5        6.394233   0.000000
    6        6.752741   0.000000
    7       14.949937   0.000000
    8       15.022289   0.000000
 
 -0.3125000E+00 -0.4375000E+00  0.6250000E-01  0.2343750E-01
    1       -3.344123   1.000000
    2       -0.697946   1.000000
    3        2.375184   1.000000
    4        2.905804   1.000000
    5        6.915639   0.000000
    6        7.803994   0.000000
    7       12.558717   0.000000
    8       13.876272   0.000000
 
 -0.1875000E+00 -0.4375000E+00  0.6250000E-01  0.2343750E-01
    1       -3.812647   1.000000
    2       -0.437632   1.000000
    3        2.435876   1.000000
    4        3.501555   1.000000
    5        7.614595   0.000000
    6       10.121003   0.000000
    7       10.347042   0.000000
    8       11.564355   0.000000
 
 -0.3125000E+00 -0.3125000E+00  0.6250000E-01  0.1171875E-01
    1       -4.183350   1.000000
    2        0.405377   1.000000
    3        3.047405   1.000000
    4        3.227981   1.000000
    5        6.529562   0.000000
    6        7.680709   0.000000
    7       12.715392   0.000000
    8       12.791737   0.000000
 
 -0.1875000E+00 -0.3125000E+00  0.6250000E-01  0.2343750E-01
    1       -4.709418   1.000000
    2        1.110911   1.000000
    3        3.093007   1.000000
    4        3.740941   1.000000
    5        7.394566   0.000000
    6        8.957903   0.000000
    7       10.608628   0.000000
    8       11.592232   0.000000
 
 -0.1875000E+00 -0.1875000E+00  0.6250000E-01  0.1171875E-01
    1       -5.348931   1.000000
    2        2.479349   1.000000
    3        4.000294   1.000000
    4        4.031764   1.000000
    5        7.162612   0.000000
    6        9.306293   0.000000
    7       10.542021   0.000000
    8       10.704374   0.000000
 
  0.1875000E+00  0.1875000E+00  0.1875000E+00  0.3906250E-02
    1       -5.748891   1.000000
    2        2.871832   1.000000
    3        5.102671   1.000000
    4        5.102674   1.000000
    5        7.829025   0.000000
    6        8.917060   0.000000
    7        8.917067   0.000000
    8       11.283459   0.000000
 
  0.3125000E+00  0.1875000E+00  0.1875000E+00  0.1171875E-01
    1       -5.358826   1.000000
    2        2.035425   1.000000
    3        3.596192   1.000000
    4        5.121357   1.000000
    5        8.481988   0.000000
    6        9.038907   0.000000
    7        9.329975   0.000000
    8       11.332126   0.000000
 
  0.4375000E+00  0.1875000E+00  0.1875000E+00  0.1171875E-01
    1       -4.615666   1.000000
    2        0.672793   1.000000
    3        2.520278   1.000000
    4        4.618822   1.000000
    5        8.327404   0.000000
    6        9.792419   0.000000
    7        9.996497   0.000000
    8       11.616152   0.000000
 
 -0.4375000E+00  0.1875000E+00  0.1875000E+00  0.1171875E-01
    1       -3.726073   1.000000
    2       -0.808443   1.000000
    3        2.368930   1.000000
    4        4.090187   1.000000
    5        7.828122   0.000000
    6        9.971896   0.000000
    7       10.178308   0.000000
    8       13.464173   0.000000
 
 -0.3125000E+00  0.1875000E+00  0.1875000E+00  0.1171875E-01
    1       -3.710606   1.000000
    2       -0.836499   1.000000
    3        2.667040   1.000000
    4        3.773615   1.000000
    5        7.550378   0.000000
    6       10.045250   0.000000
    7       10.521793   0.000000
    8       11.508831   0.000000
 
 -0.1875000E+00  0.1875000E+00  0.1875000E+00  0.1171875E-01
    1       -4.598888   1.000000
    2        0.669225   1.000000
    3        3.276673   1.000000
    4        3.749603   1.000000
    5        7.482677   0.000000
    6        9.669797   0.000000
    7       10.319865   0.000000
    8       10.895926   0.000000
 
  0.3125000E+00  0.3125000E+00  0.1875000E+00  0.1171875E-01
    1       -5.103374   1.000000
    2        1.372679   1.000000
    3        4.100771   1.000000
    4        4.165910   1.000000
    5        7.876648   0.000000
    6        9.250932   0.000000
    7       10.156458   0.000000
    8       10.519187   0.000000
 
  0.4375000E+00  0.3125000E+00  0.1875000E+00  0.2343750E-01
    1       -4.480254   1.000000
    2        0.606879   1.000000
    3        2.576841   1.000000
    4        3.971407   1.000000
    5        8.365616   0.000000
    6        9.410652   0.000000
    7        9.888129   0.000000
    8       11.412240   0.000000
 
 -0.4375000E+00  0.3125000E+00  0.1875000E+00  0.2343750E-01
    1       -3.593709   1.000000
    2       -0.489504   1.000000
    3        1.790807   1.000000
    4        3.405723   1.000000
    5        8.817597   0.000000
    6        9.301209   0.000000
    7       10.578283   0.000000
    8       12.502190   0.000000
 
 -0.3125000E+00  0.3125000E+00  0.1875000E+00  0.2343750E-01
    1       -3.108689   1.000000
    2       -1.100230   1.000000
    3        1.794626   1.000000
    4        3.094284   1.000000
    5        8.347305   0.000000
    6        9.629693   0.000000
    7       11.356972   0.000000
    8       12.652061   0.000000
 
 -0.1875000E+00  0.3125000E+00  0.1875000E+00  0.2343750E-01
    1       -3.877013   1.000000
    2       -0.099746   1.000000
    3        2.214813   1.000000
    4        3.272676   1.000000
    5        8.079164   0.000000
    6        9.287031   0.000000
    7       10.164017   0.000000
    8       12.631588   0.000000
 
  0.4375000E+00  0.4375000E+00  0.1875000E+00  0.1171875E-01
    1       -3.985893   1.000000
    2       -0.043235   1.000000
    3        2.547752   1.000000
    4        3.420553   1.000000
    5        7.101696   0.000000
    6        9.124061   0.000000
    7       11.400758   0.000000
    8       11.714383   0.000000
 
 -0.4375000E+00  0.4375000E+00  0.1875000E+00  0.2343750E-01
    1       -3.186108   1.000000
    2       -0.837378   1.000000
    3        1.972278   1.000000
    4        2.738146   1.000000
    5        7.874629   0.000000
    6        8.883516   0.000000
    7       11.051007   0.000000
    8       13.853416   0.000000
 
 -0.3125000E+00  0.4375000E+00  0.1875000E+00  0.2343750E-01
    1       -2.382080   1.000000
    2       -1.588933   1.000000
    3        1.654821   1.000000
    4        2.238581   1.000000
    5        8.991872   0.000000
    6        9.913921   0.000000
    7       10.606673   0.000000
    8       11.604348   0.000000
 
 -0.1875000E+00  0.4375000E+00  0.1875000E+00  0.2343750E-01
    1       -2.982042   1.000000
    2       -1.043550   1.000000
    3        1.647389   1.000000
    4        2.712293   1.000000
    5        9.088095   0.000000
    6        9.514678   0.000000
    7       10.283412   0.000000
    8       12.760574   0.000000
 
 -0.4375000E+00 -0.4375000E+00  0.1875000E+00  0.1171875E-01
    1       -2.544874   1.000000
    2       -1.568516   1.000000
    3        1.759137   1.000000
    4        3.080062   1.000000
    5        6.669265   0.000000
    6        8.567287   0.000000
    7       13.537382   0.000000
    8       13.748765   0.000000
 
 -0.3125000E+00 -0.4375000E+00  0.1875000E+00  0.2343750E-01
    1       -2.444990   1.000000
    2       -1.598279   1.000000
    3        1.852563   1.000000
    4        2.453233   1.000000
    5        7.769404   0.000000
    6        8.681942   0.000000
    7       12.049220   0.000000
    8       13.158183   0.000000
 
 -0.3125000E+00 -0.3125000E+00  0.1875000E+00  0.1171875E-01
    1       -3.283106   1.000000
    2       -0.800029   1.000000
    3        2.024671   1.000000
    4        3.194730   1.000000
    5        6.818609   0.000000
    6        8.750794   0.000000
    7       12.560311   0.000000
    8       12.617097   0.000000
 
  0.3125000E+00  0.3125000E+00  0.3125000E+00  0.3906250E-02
    1       -4.996558   1.000000
    2        0.678334   1.000000
    3        4.691493   1.000000
    4        4.691496   1.000000
    5        7.377295   0.000000
    6        9.145787   0.000000
    7        9.145794   0.000000
    8       13.263873   0.000000
 
  0.4375000E+00  0.3125000E+00  0.3125000E+00  0.1171875E-01
    1       -4.519343   1.000000
    2        0.103598   1.000000
    3        3.232126   1.000000
    4        4.604536   1.000000
    5        8.092751   0.000000
    6        9.369132   0.000000
    7        9.415082   0.000000
    8       12.625232   0.000000
 
 -0.4375000E+00  0.3125000E+00  0.3125000E+00  0.1171875E-01
    1       -3.730980   1.000000
    2       -0.425558   1.000000
    3        1.711102   1.000000
    4        4.026273   1.000000
    5        7.751324   0.000000
    6       10.810286   0.000000
    7       10.982843   0.000000
    8       12.385314   0.000000
 
 -0.3125000E+00  0.3125000E+00  0.3125000E+00  0.1171875E-01
    1       -2.913582   1.000000
    2       -1.203397   1.000000
    3        1.374099   1.000000
    4        3.482154   1.000000
    5        7.135450   0.000000
    6       11.013087   0.000000
    7       12.077329   0.000000
    8       12.356404   0.000000
 
  0.4375000E+00  0.4375000E+00  0.3125000E+00  0.1171875E-01
    1       -4.206615   1.000000
    2       -0.451900   1.000000
    3        3.567310   1.000000
    4        4.043606   1.000000
    5        7.802425   0.000000
    6        9.151321   0.000000
    7        9.895088   0.000000
    8       11.931188   0.000000
 
 -0.4375000E+00  0.4375000E+00  0.3125000E+00  0.2343750E-01
    1       -3.589782   1.000000
    2       -0.809254   1.000000
    3        2.263458   1.000000
    4        3.569776   1.000000
    5        8.570259   0.000000
    6        8.914569   0.000000
    7       11.454275   0.000000
    8       11.670435   0.000000
 
 -0.3125000E+00  0.4375000E+00  0.3125000E+00  0.2343750E-01
    1       -2.776098   1.000000
    2       -1.268238   1.000000
    3        1.465683   1.000000
    4        2.859411   1.000000
    5        8.218768   0.000000
    6       10.457818   0.000000
    7       11.249224   0.000000
    8       11.778511   0.000000
 
 -0.4375000E+00 -0.4375000E+00  0.3125000E+00  0.1171875E-01
    1       -3.232905   1.000000
    2       -1.087141   1.000000
    3        1.871861   1.000000
    4        3.581532   1.000000
    5        7.283671   0.000000
    6       10.974383   0.000000
    7       11.284282   0.000000
    8       11.391149   0.000000
 
  0.4375000E+00  0.4375000E+00  0.4375000E+00  0.3906250E-02
    1       -4.111617   1.000000
    2       -0.958363   1.000000
    3        4.471786   1.000000
    4        4.471789   1.000000
    5        7.125523   0.000000
    6        9.004862   0.000000
    7        9.004869   0.000000
    8       13.373106   0.000000
 
 -0.4375000E+00  0.4375000E+00  0.4375000E+00  0.1171875E-01
    1       -3.762479   1.000000
    2       -1.132978   1.000000
    3        3.251954   1.000000
    4        4.204857   1.000000
    5        7.834466   0.000000
    6        9.140921   0.000000
    7        9.582437   0.000000
    8       13.764764   0.000000
