 vasp.6.2.0 18Jan21 (build Aug 12 2022 13:00:08) complex                        
  
 executed on             LinuxIFC date 2024.11.03  21:53:37
 running on    4 total cores
 distrk:  each k-point on    4 cores,    1 groups
 distr:  one band on NCORE=   1 cores,    4 groups


--------------------------------------------------------------------------------------------------------


 INCAR:
   ISTART = 0            (Read existing wavefunction, if there)
   ISPIN = 1            (Non-Spin polarised DFT)
   LREAL = .FALSE.       (Projection operators: automatic)
   LWAVE = .FALSE.        (Write WAVECAR or not)
   LCHARG = .FALSE.        (Write CHGCAR or not)
   ADDGRID = .TRUE.        (Increase grid, helps GGA convergence)
   LASPH = .TRUE.        (Give more accurate total energies and band structure calculations)
   PREC = Accurate      (Accurate strictly avoids any aliasing or wrap around errors)
   ENCUT = 350          (Cut-off energy for plane wave basis set, in eV)
   ISMEAR = 0            (Gaussian smearing, metals:1)
   SIGMA = 0.05         (Smearing value in eV, metals:0.2)
   NELM = 90           (Max electronic SCF steps)
   NELMIN = 6            (Min electronic SCF steps)
   EDIFF = 1E-06        (SCF energy convergence, in eV)
   NSW = 100          (Max ionic steps)
   IBRION = 2            (Algorithm: 0-MD, 1-Quasi-New, 2-CG)
   ISIF = 3            (Stress/relaxation: 2-Ions, 3-Shape/Ions/V, 4-Shape/Ions)
   EDIFFG = -2E-03        (Ionic convergence, eV/AA)
   ISYM = 2              (Symmetry: 0\=none, 2\=GGA, 3\=hybrids)

 POTCAR:    PAW_PBE Si 05Jan2001                  
 POTCAR:    PAW_PBE Si 05Jan2001                  
   VRHFIN =Si: s2p2                                                                                 
   LEXCH  = PE                                                                                      
   EATOM  =   103.0669 eV,    7.5752 Ry                                                             
                                                                                                    
   TITEL  = PAW_PBE Si 05Jan2001                                                                    
   LULTRA =        F    use ultrasoft PP ?                                                          
   IUNSCR =        1    unscreen: 0-lin 1-nonlin 2-no                                               
   RPACOR =    1.500    partial core radius                                                         
   POMASS =   28.085; ZVAL   =    4.000    mass and valenz                                          
   RCORE  =    1.900    outmost cutoff radius                                                       
   RWIGS  =    2.480; RWIGS  =    1.312    wigner-seitz radius (au A)                               
   ENMAX  =  245.345; ENMIN  =  184.009 eV                                                          
   ICORE  =        2    local potential                                                             
   LCOR   =        T    correct aug charges                                                         
   LPAW   =        T    paw PP                                                                      
   EAUG   =  322.069                                                                                
   DEXC   =    0.000                                                                                
   RMAX   =    1.950    core radius for proj-oper                                                   
   RAUG   =    1.300    factor for augmentation sphere                                              
   RDEP   =    1.993    radius for radial grids                                                     
   RDEPT  =    1.837    core radius for aug-charge                                                  
                                                                                                    
   Atomic configuration                                                                             
    6 entries                                                                                       
     n  l   j            E        occ.                                                              
     1  0  0.50     -1785.8828   2.0000                                                             
     2  0  0.50      -139.4969   2.0000                                                             
     2  1  1.50       -95.5546   6.0000                                                             
     3  0  0.50       -10.8127   2.0000                                                             
     3  1  0.50        -4.0811   2.0000                                                             
     3  2  1.50        -4.0817   0.0000                                                             
   Description                                                                                      
     l       E           TYP  RCUT    TYP  RCUT                                                     
     0    -10.8127223     23  1.900                                                                 
     0     -7.6451159     23  1.900                                                                 
     1     -4.0811372     23  1.900                                                                 
     1      2.4879257     23  1.900                                                                 
     2     -4.0817478      7  1.900                                                                 
  local pseudopotential read in
  partial core-charges read in
  partial kinetic energy density read in
  atomic valenz-charges read in
  non local Contribution for L=           0  read in
    real space projection operators read in
  non local Contribution for L=           0  read in
    real space projection operators read in
  non local Contribution for L=           1  read in
    real space projection operators read in
  non local Contribution for L=           1  read in
    real space projection operators read in
    PAW grid and wavefunctions read in
 
   number of l-projection  operators is LMAX  =           4
   number of lm-projection operators is LMMAX =           8
 
  PAW_PBE Si 05Jan2001                  :
 energy of atom  1       EATOM= -103.0669
 kinetic energy error for atom=    0.0013 (will be added to EATOM!!)
 
 
 POSCAR: Si2
  positions in direct lattice
  No initial velocities read in
 exchange correlation table for  LEXCH =        8
   RHO(1)=    0.500       N(1)  =     2000
   RHO(2)=  100.500       N(2)  =     4000
 


--------------------------------------------------------------------------------------------------------


 ion  position               nearest neighbor table
   1  0.875  0.875  0.875-   2 2.36   2 2.36   2 2.36   2 2.36
   2  0.125  0.125  0.125-   1 2.36   1 2.36   1 2.36   1 2.36
 
  LATTYP: Found a face centered cubic cell.
 ALAT       =     5.4437031493
  
  Lattice vectors:
  
 A1 = (   3.3335730000,   0.0000000000,   1.9246390000)
 A2 = (   1.1111910000,   3.1429240000,   1.9246390000)
 A3 = (   0.0000000000,   0.0000000000,   3.8492780000)


Analysis of symmetry for initial positions (statically):
=====================================================================
 Subroutine PRICEL returns:
 Original cell was already a primitive cell.
 

 Routine SETGRP: Setting up the symmetry group for a 
 face centered cubic supercell.


 Subroutine GETGRP returns: Found 48 space group operations
 (whereof 12 operations were pure point group operations)
 out of a pool of 48 trial point group operations.


The static configuration has the point symmetry D_3d.
 The point group associated with its full space group is O_h .


Analysis of symmetry for dynamics (positions and initial velocities):
=====================================================================
 Subroutine PRICEL returns:
 Original cell was already a primitive cell.
 

 Routine SETGRP: Setting up the symmetry group for a 
 face centered cubic supercell.


 Subroutine GETGRP returns: Found 48 space group operations
 (whereof 12 operations were pure point group operations)
 out of a pool of 48 trial point group operations.


The dynamic configuration has the point symmetry D_3d.
 The point group associated with its full space group is O_h .


 Subroutine INISYM returns: Found 48 space group operations
 (whereof 12 operations are pure point group operations),
 and found     1 'primitive' translations


----------------------------------------------------------------------------------------

                                     Primitive cell                                     

  volume of cell :      40.3295

  direct lattice vectors                    reciprocal lattice vectors
     3.333573000  0.000000000  1.924639000     0.299978432 -0.106058350  0.000000000
     1.111191000  3.142924000  1.924639000     0.000000000  0.318175050  0.000000000
     0.000000000  0.000000000  3.849278000    -0.149989216 -0.106058350  0.259788979

  length of vectors
     3.849278403  3.849279412  3.849278000     0.318175161  0.318175050  0.318175190

  position of ions in fractional coordinates (direct lattice)
     0.875000000  0.875000000  0.875000000
     0.125000000  0.125000000  0.125000000

  ion indices of the primitive-cell ions
   primitive index   ion index
                 1           1
                 2           2

----------------------------------------------------------------------------------------

 
 
 KPOINTS: Automatic                               

Automatic generation of k-mesh.
 Grid dimensions read from file:
 generate k-points for:    8    8    8

 Generating k-lattice:

  Cartesian coordinates                     Fractional coordinates (reciprocal lattice)
     0.037497304 -0.013257294  0.000000000     0.125000000  0.000000000  0.000000000
     0.000000000  0.039771881  0.000000000     0.000000000  0.125000000  0.000000000
    -0.018748652 -0.013257294  0.032473622     0.000000000  0.000000000  0.125000000

  Length of vectors
     0.039771895  0.039771881  0.039771899

  Shift w.r.t. Gamma in fractional coordinates (k-lattice)
     0.500000000  0.500000000  0.500000000

 
 Subroutine IBZKPT returns following result:
 ===========================================
 
 Found     60 irreducible k-points:
 
 Following reciprocal coordinates:
            Coordinates               Weight
  0.062500  0.062500  0.062500      8.000000
  0.187500  0.062500  0.062500     24.000000
  0.312500  0.062500  0.062500     24.000000
  0.437500  0.062500  0.062500     24.000000
 -0.437500  0.062500  0.062500     24.000000
 -0.312500  0.062500  0.062500     24.000000
 -0.187500  0.062500  0.062500     24.000000
 -0.062500  0.062500  0.062500     24.000000
  0.187500  0.187500  0.062500     24.000000
  0.312500  0.187500  0.062500     48.000000
  0.437500  0.187500  0.062500     48.000000
 -0.437500  0.187500  0.062500     48.000000
 -0.312500  0.187500  0.062500     48.000000
 -0.187500  0.187500  0.062500     48.000000
 -0.062500  0.187500  0.062500     48.000000
  0.312500  0.312500  0.062500     24.000000
  0.437500  0.312500  0.062500     48.000000
 -0.437500  0.312500  0.062500     48.000000
 -0.312500  0.312500  0.062500     48.000000
 -0.187500  0.312500  0.062500     48.000000
 -0.062500  0.312500  0.062500     48.000000
  0.437500  0.437500  0.062500     24.000000
 -0.437500  0.437500  0.062500     48.000000
 -0.312500  0.437500  0.062500     48.000000
 -0.187500  0.437500  0.062500     48.000000
 -0.062500  0.437500  0.062500     48.000000
 -0.437500 -0.437500  0.062500     24.000000
 -0.312500 -0.437500  0.062500     48.000000
 -0.187500 -0.437500  0.062500     48.000000
 -0.312500 -0.312500  0.062500     24.000000
 -0.187500 -0.312500  0.062500     48.000000
 -0.187500 -0.187500  0.062500     24.000000
  0.187500  0.187500  0.187500      8.000000
  0.312500  0.187500  0.187500     24.000000
  0.437500  0.187500  0.187500     24.000000
 -0.437500  0.187500  0.187500     24.000000
 -0.312500  0.187500  0.187500     24.000000
 -0.187500  0.187500  0.187500     24.000000
  0.312500  0.312500  0.187500     24.000000
  0.437500  0.312500  0.187500     48.000000
 -0.437500  0.312500  0.187500     48.000000
 -0.312500  0.312500  0.187500     48.000000
 -0.187500  0.312500  0.187500     48.000000
  0.437500  0.437500  0.187500     24.000000
 -0.437500  0.437500  0.187500     48.000000
 -0.312500  0.437500  0.187500     48.000000
 -0.187500  0.437500  0.187500     48.000000
 -0.437500 -0.437500  0.187500     24.000000
 -0.312500 -0.437500  0.187500     48.000000
 -0.312500 -0.312500  0.187500     24.000000
  0.312500  0.312500  0.312500      8.000000
  0.437500  0.312500  0.312500     24.000000
 -0.437500  0.312500  0.312500     24.000000
 -0.312500  0.312500  0.312500     24.000000
  0.437500  0.437500  0.312500     24.000000
 -0.437500  0.437500  0.312500     48.000000
 -0.312500  0.437500  0.312500     48.000000
 -0.437500 -0.437500  0.312500     24.000000
  0.437500  0.437500  0.437500      8.000000
 -0.437500  0.437500  0.437500     24.000000
 
 Following cartesian coordinates:
            Coordinates               Weight
  0.009374  0.006629  0.016237      8.000000
  0.046872 -0.006629  0.016237     24.000000
  0.084369 -0.019886  0.016237     24.000000
  0.121866 -0.033143  0.016237     24.000000
 -0.140615  0.059658  0.016237     24.000000
 -0.103118  0.046401  0.016237     24.000000
 -0.065620  0.033143  0.016237     24.000000
 -0.028123  0.019886  0.016237     24.000000
  0.046872  0.033143  0.016237     24.000000
  0.084369  0.019886  0.016237     48.000000
  0.121866  0.006629  0.016237     48.000000
 -0.140615  0.099430  0.016237     48.000000
 -0.103118  0.086172  0.016237     48.000000
 -0.065620  0.072915  0.016237     48.000000
 -0.028123  0.059658  0.016237     48.000000
  0.084369  0.059658  0.016237     24.000000
  0.121866  0.046401  0.016237     48.000000
 -0.140615  0.139202  0.016237     48.000000
 -0.103118  0.125944  0.016237     48.000000
 -0.065620  0.112687  0.016237     48.000000
 -0.028123  0.099430  0.016237     48.000000
  0.121866  0.086172  0.016237     24.000000
 -0.140615  0.178973  0.016237     48.000000
 -0.103118  0.165716  0.016237     48.000000
 -0.065620  0.152459  0.016237     48.000000
 -0.028123  0.139202  0.016237     48.000000
 -0.140615 -0.099430  0.016237     24.000000
 -0.103118 -0.112687  0.016237     48.000000
 -0.065620 -0.125944  0.016237     48.000000
 -0.103118 -0.072915  0.016237     24.000000
 -0.065620 -0.086172  0.016237     48.000000
 -0.065620 -0.046401  0.016237     24.000000
  0.028123  0.019886  0.048710      8.000000
  0.065620  0.006629  0.048710     24.000000
  0.103118 -0.006629  0.048710     24.000000
 -0.159364  0.086172  0.048710     24.000000
 -0.121866  0.072915  0.048710     24.000000
 -0.084369  0.059658  0.048710     24.000000
  0.065620  0.046401  0.048710     24.000000
  0.103118  0.033143  0.048710     48.000000
 -0.159364  0.125944  0.048710     48.000000
 -0.121866  0.112687  0.048710     48.000000
 -0.084369  0.099430  0.048710     48.000000
  0.103118  0.072915  0.048710     24.000000
 -0.159364  0.165716  0.048710     48.000000
 -0.121866  0.152459  0.048710     48.000000
 -0.084369  0.139202  0.048710     48.000000
 -0.159364 -0.112687  0.048710     24.000000
 -0.121866 -0.125944  0.048710     48.000000
 -0.121866 -0.086172  0.048710     24.000000
  0.046872  0.033143  0.081184      8.000000
  0.084369  0.019886  0.081184     24.000000
 -0.178112  0.112687  0.081184     24.000000
 -0.140615  0.099430  0.081184     24.000000
  0.084369  0.059658  0.081184     24.000000
 -0.178112  0.152459  0.081184     48.000000
 -0.140615  0.139202  0.081184     48.000000
 -0.178112 -0.125944  0.081184     24.000000
  0.065620  0.046401  0.113658      8.000000
 -0.196861  0.139202  0.113658     24.000000
 


--------------------------------------------------------------------------------------------------------




 Dimension of arrays:
   k-points           NKPTS =     60   k-points in BZ     NKDIM =     60   number of bands    NBANDS=      8
   number of dos      NEDOS =    301   number of ions     NIONS =      2
   non local maximal  LDIM  =      4   non local SUM 2l+1 LMDIM =      8
   total plane-waves  NPLWV =  13824
   max r-space proj   IRMAX =      1   max aug-charges    IRDMAX=  91874
   dimension x,y,z NGX =    24 NGY =   24 NGZ =   24
   dimension x,y,z NGXF=    48 NGYF=   48 NGZF=   48
   support grid    NGXF=    96 NGYF=   96 NGZF=   96
   ions per type =               2
   NGX,Y,Z   is equivalent  to a cutoff of  10.37, 10.37, 10.37 a.u.
   NGXF,Y,Z  is equivalent  to a cutoff of  20.73, 20.73, 20.73 a.u.

 SYSTEM =  unknown system                          
 POSCAR =  Si2                                     

 Startparameter for this run:
   NWRITE =      2    write-flag & timer
   PREC   = accura    normal or accurate (medium, high low for compatibility)
   ISTART =      0    job   : 0-new  1-cont  2-samecut
   ICHARG =      2    charge: 1-file 2-atom 10-const
   ISPIN  =      1    spin polarized calculation?
   LNONCOLLINEAR =      F non collinear calculations
   LSORBIT =      F    spin-orbit coupling
   INIWAV =      1    electr: 0-lowe 1-rand  2-diag
   LASPH  =      T    aspherical Exc in radial PAW
   METAGGA=      F    non-selfconsistent MetaGGA calc.

 Electronic Relaxation 1
   ENCUT  =  350.0 eV  25.72 Ry    5.07 a.u.   5.87  5.87  5.87*2*pi/ulx,y,z
   ENINI  =  350.0     initial cutoff
   ENAUG  =  322.1 eV  augmentation charge cutoff
   NELM   =     90;   NELMIN=  6; NELMDL= -5     # of ELM steps 
   EDIFF  = 0.1E-05   stopping-criterion for ELM
   LREAL  =      F    real-space projection
   NLSPLINE    = F    spline interpolate recip. space projectors
   LCOMPAT=      F    compatible to vasp.4.4
   GGA_COMPAT  = T    GGA compatible to vasp.4.4-vasp.4.6
   LMAXPAW     = -100 max onsite density
   LMAXMIX     =    2 max onsite mixed and CHGCAR
   VOSKOWN=      0    Vosko Wilk Nusair interpolation
   ROPT   =    0.00000
 Ionic relaxation
   EDIFFG = -.2E-02   stopping-criterion for IOM
   NSW    =    100    number of steps for IOM
   NBLOCK =      1;   KBLOCK =    100    inner block; outer block 
   IBRION =      2    ionic relax: 0-MD 1-quasi-New 2-CG
   NFREE  =      1    steps in history (QN), initial steepest desc. (CG)
   ISIF   =      3    stress and relaxation
   IWAVPR =     11    prediction:  0-non 1-charg 2-wave 3-comb
   ISYM   =      2    0-nonsym 1-usesym 2-fastsym
   LCORR  =      T    Harris-Foulkes like correction to forces

   POTIM  = 0.5000    time-step for ionic-motion
   TEIN   =    0.0    initial temperature
   TEBEG  =    0.0;   TEEND  =   0.0 temperature during run
   SMASS  =  -3.00    Nose mass-parameter (am)
   estimated Nose-frequenzy (Omega)   =  0.10E-29 period in steps = 0.13E+47 mass=  -0.339E-27a.u.
   SCALEE = 1.0000    scale energy and forces
   NPACO  =    256;   APACO  = 16.0  distance and # of slots for P.C.
   PSTRESS=    0.0 pullay stress

  Mass of Ions in am
   POMASS =  28.09
  Ionic Valenz
   ZVAL   =   4.00
  Atomic Wigner-Seitz radii
   RWIGS  =  -1.00
  virtual crystal weights 
   VCA    =   1.00
   NELECT =       8.0000    total number of electrons
   NUPDOWN=      -1.0000    fix difference up-down

 DOS related values:
   EMIN   =  10.00;   EMAX   =-10.00  energy-range for DOS
   EFERMI =   0.00
   ISMEAR =     0;   SIGMA  =   0.05  broadening in eV -4-tet -1-fermi 0-gaus

 Electronic relaxation 2 (details)
   IALGO  =     38    algorithm
   LDIAG  =      T    sub-space diagonalisation (order eigenvalues)
   LSUBROT=      F    optimize rotation matrix (better conditioning)
   TURBO    =      0    0=normal 1=particle mesh
   IRESTART =      0    0=no restart 2=restart with 2 vectors
   NREBOOT  =      0    no. of reboots
   NMIN     =      0    reboot dimension
   EREF     =   0.00    reference energy to select bands
   IMIX   =      4    mixing-type and parameters
     AMIX     =   0.40;   BMIX     =  1.00
     AMIX_MAG =   1.60;   BMIX_MAG =  1.00
     AMIN     =   0.10
     WC   =   100.;   INIMIX=   1;  MIXPRE=   1;  MAXMIX= -45

 Intra band minimization:
   WEIMIN = 0.0010     energy-eigenvalue tresh-hold
   EBREAK =  0.31E-07  absolut break condition
   DEPER  =   0.30     relativ break condition  

   TIME   =   0.40     timestep for ELM

  volume/ion in A,a.u.               =      20.16       136.08
  Fermi-wavevector in a.u.,A,eV,Ry     =   0.954766  1.804247 12.402783  0.911579
  Thomas-Fermi vector in A             =   2.083543
 
 Write flags
   LWAVE        =      F    write WAVECAR
   LDOWNSAMPLE  =      F    k-point downsampling of WAVECAR
   LCHARG       =      F    write CHGCAR
   LVTOT        =      F    write LOCPOT, total local potential
   LVHAR        =      F    write LOCPOT, Hartree potential only
   LELF         =      F    write electronic localiz. function (ELF)
   LORBIT       =      0    0 simple, 1 ext, 2 COOP (PROOUT), +10 PAW based schemes


 Dipole corrections
   LMONO  =      F    monopole corrections only (constant potential shift)
   LDIPOL =      F    correct potential (dipole corrections)
   IDIPOL =      0    1-x, 2-y, 3-z, 4-all directions 
   EPSILON=  1.0000000 bulk dielectric constant

 Exchange correlation treatment:
   GGA     =    --    GGA type
   LEXCH   =     8    internal setting for exchange type
   VOSKOWN=      0    Vosko Wilk Nusair interpolation
   LHFCALC =     F    Hartree Fock is set to
   LHFONE  =     F    Hartree Fock one center treatment
   AEXX    =    0.0000 exact exchange contribution

 Linear response parameters
   LEPSILON=     F    determine dielectric tensor
   LRPA    =     F    only Hartree local field effects (RPA)
   LNABLA  =     F    use nabla operator in PAW spheres
   LVEL    =     F    velocity operator in full k-point grid
   LINTERFAST=   F  fast interpolation
   KINTER  =     0    interpolate to denser k-point grid
   CSHIFT  =0.1000    complex shift for real part using Kramers Kronig
   OMEGAMAX=  -1.0    maximum frequency
   DEG_THRESHOLD= 0.2000000E-02 threshold for treating states as degnerate
   RTIME   =   -0.100 relaxation time in fs
  (WPLASMAI=    0.000 imaginary part of plasma frequency in eV, 0.658/RTIME)
   DFIELD  = 0.0000000 0.0000000 0.0000000 field for delta impulse in time
 
 Orbital magnetization related:
   ORBITALMAG=     F  switch on orbital magnetization
   LCHIMAG   =     F  perturbation theory with respect to B field
   DQ        =  0.001000  dq finite difference perturbation B field
   LLRAUG    =     F  two centre corrections for induced B field



--------------------------------------------------------------------------------------------------------


 conjugate gradient relaxation of ions
 charge density and potential will be updated during run
 non-spin polarized calculation
 Variant of blocked Davidson
 Davidson routine will perform the subspace rotation
 perform sub-space diagonalisation
    after iterative eigenvector-optimisation
 modified Broyden-mixing scheme, WC =      100.0
 initial mixing is a Kerker type mixing with AMIX =  0.4000 and BMIX =      1.0000
 Hartree-type preconditioning will be used
 using additional bands            4
 reciprocal scheme for non local part
 use partial core corrections
 calculate Harris-corrections to forces 
   (improved forces if not selfconsistent)
 use gradient corrections 
 use of overlap-Matrix (Vanderbilt PP)
 Gauss-broadening in eV      SIGMA  =   0.05


--------------------------------------------------------------------------------------------------------


  energy-cutoff  :      350.00
  volume of cell :       40.33
      direct lattice vectors                 reciprocal lattice vectors
     3.333573000  0.000000000  1.924639000     0.299978432 -0.106058350  0.000000000
     1.111191000  3.142924000  1.924639000     0.000000000  0.318175050  0.000000000
     0.000000000  0.000000000  3.849278000    -0.149989216 -0.106058350  0.259788979

  length of vectors
     3.849278403  3.849279412  3.849278000     0.318175161  0.318175050  0.318175190


 
 k-points in units of 2pi/SCALE and weight: Automatic                               
   0.00937433  0.00662865  0.01623681       0.004
   0.04687163 -0.00662865  0.01623681       0.012
   0.08436893 -0.01988594  0.01623681       0.012
   0.12186624 -0.03314323  0.01623681       0.012
  -0.14061489  0.05965782  0.01623681       0.012
  -0.10311759  0.04640053  0.01623681       0.012
  -0.06562028  0.03314323  0.01623681       0.012
  -0.02812298  0.01988594  0.01623681       0.012
   0.04687163  0.03314323  0.01623681       0.012
   0.08436893  0.01988594  0.01623681       0.023
   0.12186624  0.00662865  0.01623681       0.023
  -0.14061489  0.09942970  0.01623681       0.023
  -0.10311759  0.08617241  0.01623681       0.023
  -0.06562028  0.07291512  0.01623681       0.023
  -0.02812298  0.05965782  0.01623681       0.023
   0.08436893  0.05965782  0.01623681       0.012
   0.12186624  0.04640053  0.01623681       0.023
  -0.14061489  0.13920158  0.01623681       0.023
  -0.10311759  0.12594429  0.01623681       0.023
  -0.06562028  0.11268700  0.01623681       0.023
  -0.02812298  0.09942970  0.01623681       0.023
   0.12186624  0.08617241  0.01623681       0.012
  -0.14061489  0.17897347  0.01623681       0.023
  -0.10311759  0.16571617  0.01623681       0.023
  -0.06562028  0.15245888  0.01623681       0.023
  -0.02812298  0.13920158  0.01623681       0.023
  -0.14061489 -0.09942970  0.01623681       0.012
  -0.10311759 -0.11268700  0.01623681       0.023
  -0.06562028 -0.12594429  0.01623681       0.023
  -0.10311759 -0.07291512  0.01623681       0.012
  -0.06562028 -0.08617241  0.01623681       0.023
  -0.06562028 -0.04640053  0.01623681       0.012
   0.02812298  0.01988594  0.04871043       0.004
   0.06562028  0.00662865  0.04871043       0.012
   0.10311759 -0.00662865  0.04871043       0.012
  -0.15936354  0.08617241  0.04871043       0.012
  -0.12186624  0.07291512  0.04871043       0.012
  -0.08436893  0.05965782  0.04871043       0.012
   0.06562028  0.04640053  0.04871043       0.012
   0.10311759  0.03314323  0.04871043       0.023
  -0.15936354  0.12594429  0.04871043       0.023
  -0.12186624  0.11268700  0.04871043       0.023
  -0.08436893  0.09942970  0.04871043       0.023
   0.10311759  0.07291512  0.04871043       0.012
  -0.15936354  0.16571617  0.04871043       0.023
  -0.12186624  0.15245888  0.04871043       0.023
  -0.08436893  0.13920158  0.04871043       0.023
  -0.15936354 -0.11268700  0.04871043       0.012
  -0.12186624 -0.12594429  0.04871043       0.023
  -0.12186624 -0.08617241  0.04871043       0.012
   0.04687163  0.03314323  0.08118406       0.004
   0.08436893  0.01988594  0.08118406       0.012
  -0.17811219  0.11268700  0.08118406       0.012
  -0.14061489  0.09942970  0.08118406       0.012
   0.08436893  0.05965782  0.08118406       0.012
  -0.17811219  0.15245888  0.08118406       0.023
  -0.14061489  0.13920158  0.08118406       0.023
  -0.17811219 -0.12594429  0.08118406       0.012
   0.06562028  0.04640053  0.11365768       0.004
  -0.19686085  0.13920158  0.11365768       0.012
 
 k-points in reciprocal lattice and weights: Automatic                               
   0.06250000  0.06250000  0.06250000       0.004
   0.18750000  0.06250000  0.06250000       0.012
   0.31250000  0.06250000  0.06250000       0.012
   0.43750000  0.06250000  0.06250000       0.012
  -0.43750000  0.06250000  0.06250000       0.012
  -0.31250000  0.06250000  0.06250000       0.012
  -0.18750000  0.06250000  0.06250000       0.012
  -0.06250000  0.06250000  0.06250000       0.012
   0.18750000  0.18750000  0.06250000       0.012
   0.31250000  0.18750000  0.06250000       0.023
   0.43750000  0.18750000  0.06250000       0.023
  -0.43750000  0.18750000  0.06250000       0.023
  -0.31250000  0.18750000  0.06250000       0.023
  -0.18750000  0.18750000  0.06250000       0.023
  -0.06250000  0.18750000  0.06250000       0.023
   0.31250000  0.31250000  0.06250000       0.012
   0.43750000  0.31250000  0.06250000       0.023
  -0.43750000  0.31250000  0.06250000       0.023
  -0.31250000  0.31250000  0.06250000       0.023
  -0.18750000  0.31250000  0.06250000       0.023
  -0.06250000  0.31250000  0.06250000       0.023
   0.43750000  0.43750000  0.06250000       0.012
  -0.43750000  0.43750000  0.06250000       0.023
  -0.31250000  0.43750000  0.06250000       0.023
  -0.18750000  0.43750000  0.06250000       0.023
  -0.06250000  0.43750000  0.06250000       0.023
  -0.43750000 -0.43750000  0.06250000       0.012
  -0.31250000 -0.43750000  0.06250000       0.023
  -0.18750000 -0.43750000  0.06250000       0.023
  -0.31250000 -0.31250000  0.06250000       0.012
  -0.18750000 -0.31250000  0.06250000       0.023
  -0.18750000 -0.18750000  0.06250000       0.012
   0.18750000  0.18750000  0.18750000       0.004
   0.31250000  0.18750000  0.18750000       0.012
   0.43750000  0.18750000  0.18750000       0.012
  -0.43750000  0.18750000  0.18750000       0.012
  -0.31250000  0.18750000  0.18750000       0.012
  -0.18750000  0.18750000  0.18750000       0.012
   0.31250000  0.31250000  0.18750000       0.012
   0.43750000  0.31250000  0.18750000       0.023
  -0.43750000  0.31250000  0.18750000       0.023
  -0.31250000  0.31250000  0.18750000       0.023
  -0.18750000  0.31250000  0.18750000       0.023
   0.43750000  0.43750000  0.18750000       0.012
  -0.43750000  0.43750000  0.18750000       0.023
  -0.31250000  0.43750000  0.18750000       0.023
  -0.18750000  0.43750000  0.18750000       0.023
  -0.43750000 -0.43750000  0.18750000       0.012
  -0.31250000 -0.43750000  0.18750000       0.023
  -0.31250000 -0.31250000  0.18750000       0.012
   0.31250000  0.31250000  0.31250000       0.004
   0.43750000  0.31250000  0.31250000       0.012
  -0.43750000  0.31250000  0.31250000       0.012
  -0.31250000  0.31250000  0.31250000       0.012
   0.43750000  0.43750000  0.31250000       0.012
  -0.43750000  0.43750000  0.31250000       0.023
  -0.31250000  0.43750000  0.31250000       0.023
  -0.43750000 -0.43750000  0.31250000       0.012
   0.43750000  0.43750000  0.43750000       0.004
  -0.43750000  0.43750000  0.43750000       0.012
 
 position of ions in fractional coordinates (direct lattice) 
   0.87500000  0.87500000  0.87500000
   0.12500000  0.12500000  0.12500000
 
 position of ions in cartesian coordinates  (Angst):
   3.88916850  2.75005850  6.73623650
   0.55559550  0.39286550  0.96231950
 


--------------------------------------------------------------------------------------------------------


 k-point   1 :   0.0625 0.0625 0.0625  plane waves:     600
 k-point   2 :   0.1875 0.0625 0.0625  plane waves:     591
 k-point   3 :   0.3125 0.0625 0.0625  plane waves:     596
 k-point   4 :   0.4375 0.0625 0.0625  plane waves:     599
 k-point   5 :  -0.4375 0.0625 0.0625  plane waves:     598
 k-point   6 :  -0.3125 0.0625 0.0625  plane waves:     604
 k-point   7 :  -0.1875 0.0625 0.0625  plane waves:     589
 k-point   8 :  -0.0625 0.0625 0.0625  plane waves:     587
 k-point   9 :   0.1875 0.1875 0.0625  plane waves:     586
 k-point  10 :   0.3125 0.1875 0.0625  plane waves:     594
 k-point  11 :   0.4375 0.1875 0.0625  plane waves:     603
 k-point  12 :  -0.4375 0.1875 0.0625  plane waves:     597
 k-point  13 :  -0.3125 0.1875 0.0625  plane waves:     596
 k-point  14 :  -0.1875 0.1875 0.0625  plane waves:     598
 k-point  15 :  -0.0625 0.1875 0.0625  plane waves:     590
 k-point  16 :   0.3125 0.3125 0.0625  plane waves:     597
 k-point  17 :   0.4375 0.3125 0.0625  plane waves:     601
 k-point  18 :  -0.4375 0.3125 0.0625  plane waves:     602
 k-point  19 :  -0.3125 0.3125 0.0625  plane waves:     599
 k-point  20 :  -0.1875 0.3125 0.0625  plane waves:     601
 k-point  21 :  -0.0625 0.3125 0.0625  plane waves:     599
 k-point  22 :   0.4375 0.4375 0.0625  plane waves:     609
 k-point  23 :  -0.4375 0.4375 0.0625  plane waves:     606
 k-point  24 :  -0.3125 0.4375 0.0625  plane waves:     605
 k-point  25 :  -0.1875 0.4375 0.0625  plane waves:     600
 k-point  26 :  -0.0625 0.4375 0.0625  plane waves:     597
 k-point  27 :  -0.4375-0.4375 0.0625  plane waves:     606
 k-point  28 :  -0.3125-0.4375 0.0625  plane waves:     603
 k-point  29 :  -0.1875-0.4375 0.0625  plane waves:     604
 k-point  30 :  -0.3125-0.3125 0.0625  plane waves:     599
 k-point  31 :  -0.1875-0.3125 0.0625  plane waves:     601
 k-point  32 :  -0.1875-0.1875 0.0625  plane waves:     590
 k-point  33 :   0.1875 0.1875 0.1875  plane waves:     585
 k-point  34 :   0.3125 0.1875 0.1875  plane waves:     598
 k-point  35 :   0.4375 0.1875 0.1875  plane waves:     599
 k-point  36 :  -0.4375 0.1875 0.1875  plane waves:     597
 k-point  37 :  -0.3125 0.1875 0.1875  plane waves:     598
 k-point  38 :  -0.1875 0.1875 0.1875  plane waves:     600
 k-point  39 :   0.3125 0.3125 0.1875  plane waves:     600
 k-point  40 :   0.4375 0.3125 0.1875  plane waves:     600
 k-point  41 :  -0.4375 0.3125 0.1875  plane waves:     600
 k-point  42 :  -0.3125 0.3125 0.1875  plane waves:     601
 k-point  43 :  -0.1875 0.3125 0.1875  plane waves:     601
 k-point  44 :   0.4375 0.4375 0.1875  plane waves:     604
 k-point  45 :  -0.4375 0.4375 0.1875  plane waves:     597
 k-point  46 :  -0.3125 0.4375 0.1875  plane waves:     610
 k-point  47 :  -0.1875 0.4375 0.1875  plane waves:     604
 k-point  48 :  -0.4375-0.4375 0.1875  plane waves:     608
 k-point  49 :  -0.3125-0.4375 0.1875  plane waves:     603
 k-point  50 :  -0.3125-0.3125 0.1875  plane waves:     601
 k-point  51 :   0.3125 0.3125 0.3125  plane waves:     601
 k-point  52 :   0.4375 0.3125 0.3125  plane waves:     600
 k-point  53 :  -0.4375 0.3125 0.3125  plane waves:     599
 k-point  54 :  -0.3125 0.3125 0.3125  plane waves:     604
 k-point  55 :   0.4375 0.4375 0.3125  plane waves:     596
 k-point  56 :  -0.4375 0.4375 0.3125  plane waves:     600
 k-point  57 :  -0.3125 0.4375 0.3125  plane waves:     602
 k-point  58 :  -0.4375-0.4375 0.3125  plane waves:     597
 k-point  59 :   0.4375 0.4375 0.4375  plane waves:     595
 k-point  60 :  -0.4375 0.4375 0.4375  plane waves:     596

 maximum and minimum number of plane-waves per node :       610      585

 maximum number of plane-waves:       610
 maximum index in each direction: 
   IXMAX=    6   IYMAX=    6   IZMAX=    5
   IXMIN=   -6   IYMIN=   -6   IZMIN=   -6


 serial   3D FFT for wavefunctions
 parallel 3D FFT for charge:
    minimum data exchange during FFTs selected (reduces bandwidth)


 total amount of memory used by VASP MPI-rank0    39683. kBytes
=======================================================================

   base      :      30000. kBytes
   nonl-proj :       2369. kBytes
   fftplans  :       4177. kBytes
   grid      :       1926. kBytes
   one-center:          6. kBytes
   wavefun   :       1205. kBytes
 
     INWAV:  cpu time    0.0000: real time    0.0005
 Broyden mixing: mesh for mixing (old mesh)
   NGX = 11   NGY = 11   NGZ = 11
  (NGX  = 48   NGY  = 48   NGZ  = 48)
  gives a total of   1331 points

 initial charge density was supplied:
 charge density of overlapping atoms calculated
 number of electron       8.0000000 magnetization 
 keeping initial charge density in first step


--------------------------------------------------------------------------------------------------------


 Maximum index for augmentation-charges        22271 (set IRDMAX)


--------------------------------------------------------------------------------------------------------


 First call to EWALD:  gamma=   0.517
 Maximum number of real-space cells 3x 3x 3
 Maximum number of reciprocal cells 3x 3x 3

    FEWALD:  cpu time    0.0030: real time    0.0035


--------------------------------------- Iteration      1(   1)  ---------------------------------------


    POTLOK:  cpu time    0.0320: real time    0.0356
    SETDIJ:  cpu time    0.1770: real time    0.1782
     EDDAV:  cpu time    0.4839: real time    0.4842
       DOS:  cpu time    0.0010: real time    0.0024
    --------------------------------------------
      LOOP:  cpu time    0.6949: real time    0.7014

 eigenvalue-minimisations  :   960
 total energy-change (2. order) : 0.1074931E+01  (-0.2592271E+03)
 number of electron       8.0000000 magnetization 
 augmentation part        8.0000000 magnetization 

 Free energy of the ion-electron system (eV)
  ---------------------------------------------------
  alpha Z        PSCENC =         3.33880741
  Ewald energy   TEWEN  =      -227.98820643
  -Hartree energ DENC   =       -11.11484531
  -exchange      EXHF   =         0.00000000
  -V(xc)+E(xc)   XCENC  =       -18.63153637
  PAW double counting   =       176.24759923     -141.06103558
  entropy T*S    EENTRO =        -0.00129248
  eigenvalues    EBANDS =        14.15418645
  atomic energy  EATOM  =       206.13125414
  Solvation  Ediel_sol  =         0.00000000
  ---------------------------------------------------
  free energy    TOTEN  =         1.07493106 eV

  energy without entropy =        1.07622354  energy(sigma->0) =        1.07557730


--------------------------------------------------------------------------------------------------------




--------------------------------------- Iteration      1(   2)  ---------------------------------------


     EDDAV:  cpu time    0.7039: real time    0.7167
       DOS:  cpu time    0.0000: real time    0.0009
    --------------------------------------------
      LOOP:  cpu time    0.7039: real time    0.7168

 eigenvalue-minimisations  :  1488
 total energy-change (2. order) :-0.1195345E+02  (-0.1144848E+02)
 number of electron       8.0000000 magnetization 
 augmentation part        8.0000000 magnetization 

 Free energy of the ion-electron system (eV)
  ---------------------------------------------------
  alpha Z        PSCENC =         3.33880741
  Ewald energy   TEWEN  =      -227.98820643
  -Hartree energ DENC   =       -11.11484531
  -exchange      EXHF   =         0.00000000
  -V(xc)+E(xc)   XCENC  =       -18.63153637
  PAW double counting   =       176.24759923     -141.06103558
  entropy T*S    EENTRO =        -0.00000000
  eigenvalues    EBANDS =         2.19943909
  atomic energy  EATOM  =       206.13125414
  Solvation  Ediel_sol  =         0.00000000
  ---------------------------------------------------
  free energy    TOTEN  =       -10.87852383 eV

  energy without entropy =      -10.87852383  energy(sigma->0) =      -10.87852383


--------------------------------------------------------------------------------------------------------




--------------------------------------- Iteration      1(   3)  ---------------------------------------


     EDDAV:  cpu time    0.6039: real time    0.6129
       DOS:  cpu time    0.0010: real time    0.0009
    --------------------------------------------
      LOOP:  cpu time    0.6039: real time    0.6139

 eigenvalue-minimisations  :  1240
 total energy-change (2. order) :-0.1424328E+00  (-0.1424328E+00)
 number of electron       8.0000000 magnetization 
 augmentation part        8.0000000 magnetization 

 Free energy of the ion-electron system (eV)
  ---------------------------------------------------
  alpha Z        PSCENC =         3.33880741
  Ewald energy   TEWEN  =      -227.98820643
  -Hartree energ DENC   =       -11.11484531
  -exchange      EXHF   =         0.00000000
  -V(xc)+E(xc)   XCENC  =       -18.63153637
  PAW double counting   =       176.24759923     -141.06103558
  entropy T*S    EENTRO =        -0.00000000
  eigenvalues    EBANDS =         2.05700626
  atomic energy  EATOM  =       206.13125414
  Solvation  Ediel_sol  =         0.00000000
  ---------------------------------------------------
  free energy    TOTEN  =       -11.02095666 eV

  energy without entropy =      -11.02095666  energy(sigma->0) =      -11.02095666


--------------------------------------------------------------------------------------------------------




--------------------------------------- Iteration      1(   4)  ---------------------------------------


     EDDAV:  cpu time    0.7029: real time    0.7123
       DOS:  cpu time    0.0010: real time    0.0012
    --------------------------------------------
      LOOP:  cpu time    0.7049: real time    0.7134

 eigenvalue-minimisations  :  1488
 total energy-change (2. order) :-0.4981235E-03  (-0.4981236E-03)
 number of electron       8.0000000 magnetization 
 augmentation part        8.0000000 magnetization 

 Free energy of the ion-electron system (eV)
  ---------------------------------------------------
  alpha Z        PSCENC =         3.33880741
  Ewald energy   TEWEN  =      -227.98820643
  -Hartree energ DENC   =       -11.11484531
  -exchange      EXHF   =         0.00000000
  -V(xc)+E(xc)   XCENC  =       -18.63153637
  PAW double counting   =       176.24759923     -141.06103558
  entropy T*S    EENTRO =        -0.00000000
  eigenvalues    EBANDS =         2.05650813
  atomic energy  EATOM  =       206.13125414
  Solvation  Ediel_sol  =         0.00000000
  ---------------------------------------------------
  free energy    TOTEN  =       -11.02145478 eV

  energy without entropy =      -11.02145478  energy(sigma->0) =      -11.02145478


--------------------------------------------------------------------------------------------------------




--------------------------------------- Iteration      1(   5)  ---------------------------------------


     EDDAV:  cpu time    0.6289: real time    0.6371
       DOS:  cpu time    0.0000: real time    0.0011
    CHARGE:  cpu time    0.0560: real time    0.0561
    MIXING:  cpu time    0.0020: real time    0.0014
    --------------------------------------------
      LOOP:  cpu time    0.6859: real time    0.6959

 eigenvalue-minimisations  :  1304
 total energy-change (2. order) :-0.3575654E-06  (-0.3575654E-06)
 number of electron       8.0000000 magnetization 
 augmentation part       -0.4703858 magnetization 

 Broyden mixing:
  rms(total) = 0.48588E+00    rms(broyden)= 0.48587E+00
  rms(prec ) = 0.94656E+00
  weight for this iteration     100.00

 Free energy of the ion-electron system (eV)
  ---------------------------------------------------
  alpha Z        PSCENC =         3.33880741
  Ewald energy   TEWEN  =      -227.98820643
  -Hartree energ DENC   =       -11.11484531
  -exchange      EXHF   =         0.00000000
  -V(xc)+E(xc)   XCENC  =       -18.63153637
  PAW double counting   =       176.24759923     -141.06103558
  entropy T*S    EENTRO =        -0.00000000
  eigenvalues    EBANDS =         2.05650777
  atomic energy  EATOM  =       206.13125414
  Solvation  Ediel_sol  =         0.00000000
  ---------------------------------------------------
  free energy    TOTEN  =       -11.02145514 eV

  energy without entropy =      -11.02145514  energy(sigma->0) =      -11.02145514


--------------------------------------------------------------------------------------------------------




--------------------------------------- Iteration      1(   6)  ---------------------------------------


    POTLOK:  cpu time    0.0310: real time    0.0414
    SETDIJ:  cpu time    0.1740: real time    0.1742
     EDDAV:  cpu time    0.5689: real time    0.5697
       DOS:  cpu time    0.0010: real time    0.0010
    CHARGE:  cpu time    0.0500: real time    0.0501
    MIXING:  cpu time    0.0010: real time    0.0013
    --------------------------------------------
      LOOP:  cpu time    0.8269: real time    0.8373

 eigenvalue-minimisations  :  1160
 total energy-change (2. order) : 0.1215053E+00  (-0.8002687E-02)
 number of electron       8.0000000 magnetization 
 augmentation part       -0.4646321 magnetization 

 Broyden mixing:
  rms(total) = 0.29720E+00    rms(broyden)= 0.29720E+00
  rms(prec ) = 0.56295E+00
  weight for this iteration     100.00

 eigenvalues of (default mixing * dielectric matrix)
  average eigenvalue GAMMA=   2.5658
  2.5658

 Free energy of the ion-electron system (eV)
  ---------------------------------------------------
  alpha Z        PSCENC =         3.33880741
  Ewald energy   TEWEN  =      -227.98820643
  -Hartree energ DENC   =       -12.59999831
  -exchange      EXHF   =         0.00000000
  -V(xc)+E(xc)   XCENC  =       -18.39630719
  PAW double counting   =       378.73550981     -343.65699280
  entropy T*S    EENTRO =        -0.00000000
  eigenvalues    EBANDS =         3.53598353
  atomic energy  EATOM  =       206.13125414
  Solvation  Ediel_sol  =         0.00000000
  ---------------------------------------------------
  free energy    TOTEN  =       -10.89994984 eV

  energy without entropy =      -10.89994984  energy(sigma->0) =      -10.89994984


--------------------------------------------------------------------------------------------------------




--------------------------------------- Iteration      1(   7)  ---------------------------------------


    POTLOK:  cpu time    0.0330: real time    0.0409
    SETDIJ:  cpu time    0.1740: real time    0.1735
     EDDAV:  cpu time    0.5849: real time    0.5865
       DOS:  cpu time    0.0010: real time    0.0012
    CHARGE:  cpu time    0.0500: real time    0.0495
    MIXING:  cpu time    0.0000: real time    0.0015
    --------------------------------------------
      LOOP:  cpu time    0.8429: real time    0.8531

 eigenvalue-minimisations  :  1208
 total energy-change (2. order) : 0.5554944E-01  (-0.1519764E-01)
 number of electron       8.0000000 magnetization 
 augmentation part       -0.4576213 magnetization 

 Broyden mixing:
  rms(total) = 0.18657E-01    rms(broyden)= 0.18657E-01
  rms(prec ) = 0.41297E-01
  weight for this iteration     100.00

 eigenvalues of (default mixing * dielectric matrix)
  average eigenvalue GAMMA=   2.0778
  1.7752  2.3804

 Free energy of the ion-electron system (eV)
  ---------------------------------------------------
  alpha Z        PSCENC =         3.33880741
  Ewald energy   TEWEN  =      -227.98820643
  -Hartree energ DENC   =       -15.02697718
  -exchange      EXHF   =         0.00000000
  -V(xc)+E(xc)   XCENC  =       -18.00435767
  PAW double counting   =       862.69154019     -827.75277666
  entropy T*S    EENTRO =        -0.00000000
  eigenvalues    EBANDS =         5.76631579
  atomic energy  EATOM  =       206.13125414
  Solvation  Ediel_sol  =         0.00000000
  ---------------------------------------------------
  free energy    TOTEN  =       -10.84440040 eV

  energy without entropy =      -10.84440040  energy(sigma->0) =      -10.84440040


--------------------------------------------------------------------------------------------------------




--------------------------------------- Iteration      1(   8)  ---------------------------------------


    POTLOK:  cpu time    0.0330: real time    0.0490
    SETDIJ:  cpu time    0.1740: real time    0.1739
     EDDAV:  cpu time    0.5459: real time    0.5467
       DOS:  cpu time    0.0010: real time    0.0010
    CHARGE:  cpu time    0.0490: real time    0.0490
    MIXING:  cpu time    0.0010: real time    0.0015
    --------------------------------------------
      LOOP:  cpu time    0.8039: real time    0.8210

 eigenvalue-minimisations  :  1096
 total energy-change (2. order) :-0.1068510E-02  (-0.3901449E-03)
 number of electron       8.0000000 magnetization 
 augmentation part       -0.4585974 magnetization 

 Broyden mixing:
  rms(total) = 0.74563E-02    rms(broyden)= 0.74560E-02
  rms(prec ) = 0.13068E-01
  weight for this iteration     100.00

 eigenvalues of (default mixing * dielectric matrix)
  average eigenvalue GAMMA=   2.2733
  2.8492  1.9854  1.9854

 Free energy of the ion-electron system (eV)
  ---------------------------------------------------
  alpha Z        PSCENC =         3.33880741
  Ewald energy   TEWEN  =      -227.98820643
  -Hartree energ DENC   =       -14.95499686
  -exchange      EXHF   =         0.00000000
  -V(xc)+E(xc)   XCENC  =       -18.00430051
  PAW double counting   =       872.84600598     -837.88032908
  entropy T*S    EENTRO =        -0.00000000
  eigenvalues    EBANDS =         5.66629644
  atomic energy  EATOM  =       206.13125414
  Solvation  Ediel_sol  =         0.00000000
  ---------------------------------------------------
  free energy    TOTEN  =       -10.84546891 eV

  energy without entropy =      -10.84546891  energy(sigma->0) =      -10.84546891


--------------------------------------------------------------------------------------------------------




--------------------------------------- Iteration      1(   9)  ---------------------------------------


    POTLOK:  cpu time    0.0320: real time    0.0391
    SETDIJ:  cpu time    0.1730: real time    0.1732
     EDDAV:  cpu time    0.7009: real time    0.7011
       DOS:  cpu time    0.0000: real time    0.0012
    CHARGE:  cpu time    0.0500: real time    0.0500
    MIXING:  cpu time    0.0010: real time    0.0013
    --------------------------------------------
      LOOP:  cpu time    0.9559: real time    0.9658

 eigenvalue-minimisations  :  1472
 total energy-change (2. order) :-0.1868304E-03  (-0.1807993E-04)
 number of electron       8.0000000 magnetization 
 augmentation part       -0.4587064 magnetization 

 Broyden mixing:
  rms(total) = 0.56531E-02    rms(broyden)= 0.56531E-02
  rms(prec ) = 0.65540E-02
  weight for this iteration     100.00

 eigenvalues of (default mixing * dielectric matrix)
  average eigenvalue GAMMA=   2.1218
  0.9460  2.5977  2.5977  2.3459

 Free energy of the ion-electron system (eV)
  ---------------------------------------------------
  alpha Z        PSCENC =         3.33880741
  Ewald energy   TEWEN  =      -227.98820643
  -Hartree energ DENC   =       -14.99791720
  -exchange      EXHF   =         0.00000000
  -V(xc)+E(xc)   XCENC  =       -17.99602845
  PAW double counting   =       874.83803597     -839.87026260
  entropy T*S    EENTRO =        -0.00000000
  eigenvalues    EBANDS =         5.69866142
  atomic energy  EATOM  =       206.13125414
  Solvation  Ediel_sol  =         0.00000000
  ---------------------------------------------------
  free energy    TOTEN  =       -10.84565574 eV

  energy without entropy =      -10.84565574  energy(sigma->0) =      -10.84565574


--------------------------------------------------------------------------------------------------------




--------------------------------------- Iteration      1(  10)  ---------------------------------------


    POTLOK:  cpu time    0.0320: real time    0.0429
    SETDIJ:  cpu time    0.1730: real time    0.1735
     EDDAV:  cpu time    0.5519: real time    0.5528
       DOS:  cpu time    0.0010: real time    0.0009
    CHARGE:  cpu time    0.0490: real time    0.0496
    MIXING:  cpu time    0.0010: real time    0.0014
    --------------------------------------------
      LOOP:  cpu time    0.8089: real time    0.8211

 eigenvalue-minimisations  :  1120
 total energy-change (2. order) :-0.2679987E-04  (-0.3242595E-05)
 number of electron       8.0000000 magnetization 
 augmentation part       -0.4586860 magnetization 

 Broyden mixing:
  rms(total) = 0.10210E-02    rms(broyden)= 0.10210E-02
  rms(prec ) = 0.11012E-02
  weight for this iteration     100.00

 eigenvalues of (default mixing * dielectric matrix)
  average eigenvalue GAMMA=   1.9082
  2.8972  2.4296  2.0688  1.0728  1.0728

 Free energy of the ion-electron system (eV)
  ---------------------------------------------------
  alpha Z        PSCENC =         3.33880741
  Ewald energy   TEWEN  =      -227.98820643
  -Hartree energ DENC   =       -15.00574508
  -exchange      EXHF   =         0.00000000
  -V(xc)+E(xc)   XCENC  =       -17.99566916
  PAW double counting   =       863.27619748     -828.30819884
  entropy T*S    EENTRO =        -0.00000000
  eigenvalues    EBANDS =         5.70587794
  atomic energy  EATOM  =       206.13125414
  Solvation  Ediel_sol  =         0.00000000
  ---------------------------------------------------
  free energy    TOTEN  =       -10.84568254 eV

  energy without entropy =      -10.84568254  energy(sigma->0) =      -10.84568254


--------------------------------------------------------------------------------------------------------




--------------------------------------- Iteration      1(  11)  ---------------------------------------


    POTLOK:  cpu time    0.0320: real time    0.0415
    SETDIJ:  cpu time    0.1720: real time    0.1727
     EDDAV:  cpu time    0.6469: real time    0.6470
       DOS:  cpu time    0.0010: real time    0.0010
    --------------------------------------------
      LOOP:  cpu time    0.8509: real time    0.8622

 eigenvalue-minimisations  :  1304
 total energy-change (2. order) : 0.3391789E-06  (-0.5334101E-07)
 number of electron       8.0000000 magnetization 
 augmentation part       -0.4586860 magnetization 

 Free energy of the ion-electron system (eV)
  ---------------------------------------------------
  alpha Z        PSCENC =         3.33880741
  Ewald energy   TEWEN  =      -227.98820643
  -Hartree energ DENC   =       -15.00440001
  -exchange      EXHF   =         0.00000000
  -V(xc)+E(xc)   XCENC  =       -17.99570716
  PAW double counting   =       864.80919579     -829.84074864
  entropy T*S    EENTRO =        -0.00000000
  eigenvalues    EBANDS =         5.70412270
  atomic energy  EATOM  =       206.13125414
  Solvation  Ediel_sol  =         0.00000000
  ---------------------------------------------------
  free energy    TOTEN  =       -10.84568220 eV

  energy without entropy =      -10.84568220  energy(sigma->0) =      -10.84568220


--------------------------------------------------------------------------------------------------------




 average (electrostatic) potential at core
  the test charge radii are     0.9892
  (the norm of the test charge is              1.0000)
       1 -83.3298       2 -83.3298
 
 
 
 E-fermi :   5.9034     XC(G=0):  -9.3816     alpha+bet :-11.8943

 Fermi energy:         5.9034368204

 k-point     1 :       0.0625    0.0625    0.0625
  band No.  band energies     occupation 
      1      -6.1042      2.00000
      2       5.2239      2.00000
      3       5.6702      2.00000
      4       5.6702      2.00000
      5       8.3737      0.00000
      6       8.4404      0.00000
      7       8.4404      0.00000
      8       9.4312      0.00000

 k-point     2 :       0.1875    0.0625    0.0625
  band No.  band energies     occupation 
      1      -5.8346      2.00000
      2       3.7189      2.00000
      3       4.8577      2.00000
      4       5.5533      2.00000
      5       8.4462      0.00000
      6       8.6857      0.00000
      7       8.9868      0.00000
      8      10.8707      0.00000

 k-point     3 :       0.3125    0.0625    0.0625
  band No.  band energies     occupation 
      1      -5.1838      2.00000
      2       1.4835      2.00000
      3       4.3698      2.00000
      4       5.0894      2.00000
      5       8.0047      0.00000
      6       9.1744      0.00000
      7       9.4621      0.00000
      8      12.3657      0.00000

 k-point     4 :       0.4375    0.0625    0.0625
  band No.  band energies     occupation 
      1      -4.2745      2.00000
      2      -0.4141      2.00000
      3       4.1545      2.00000
      4       4.6807      2.00000
      5       7.6904      0.00000
      6       9.2262      0.00000
      7       9.2396      0.00000
      8      13.5810      0.00000

 k-point     5 :      -0.4375    0.0625    0.0625
  band No.  band energies     occupation 
      1      -3.8210      2.00000
      2      -1.1208      2.00000
      3       4.2058      2.00000
      4       4.4608      2.00000
      5       7.6097      0.00000
      6       9.0288      0.00000
      7       9.3013      0.00000
      8      13.6394      0.00000

 k-point     6 :      -0.3125    0.0625    0.0625
  band No.  band energies     occupation 
      1      -4.5863      2.00000
      2       0.1476      2.00000
      3       4.4801      2.00000
      4       4.4941      2.00000
      5       7.7745      0.00000
      6       9.0423      0.00000
      7       9.5668      0.00000
      8      12.6926      0.00000

 k-point     7 :      -0.1875    0.0625    0.0625
  band No.  band energies     occupation 
      1      -5.4391      2.00000
      2       2.2168      2.00000
      3       4.7561      2.00000
      4       4.9601      2.00000
      5       8.1235      0.00000
      6       8.9227      0.00000
      7       9.6372      0.00000
      8      11.5182      0.00000

 k-point     8 :      -0.0625    0.0625    0.0625
  band No.  band energies     occupation 
      1      -5.9687      2.00000
      2       4.4749      2.00000
      3       5.2399      2.00000
      4       5.4039      2.00000
      5       8.1535      0.00000
      6       8.7552      0.00000
      7       9.0258      0.00000
      8      10.1495      0.00000

 k-point     9 :       0.1875    0.1875    0.0625
  band No.  band energies     occupation 
      1      -5.6990      2.00000
      2       3.5840      2.00000
      3       4.6783      2.00000
      4       4.7671      2.00000
      5       7.7283      0.00000
      6       9.5262      0.00000
      7       9.8900      0.00000
      8      10.4244      0.00000

 k-point    10 :       0.3125    0.1875    0.0625
  band No.  band energies     occupation 
      1      -5.1715      2.00000
      2       2.0777      2.00000
      3       3.7031      2.00000
      4       4.5064      2.00000
      5       7.8982      0.00000
      6       9.6412      0.00000
      7      10.1963      0.00000
      8      10.6886      0.00000

 k-point    11 :       0.4375    0.1875    0.0625
  band No.  band energies     occupation 
      1      -4.3208      2.00000
      2       0.2063      2.00000
      3       3.2105      2.00000
      4       4.0916      2.00000
      5       8.0967      0.00000
      6       9.5396      0.00000
      7      10.7172      0.00000
      8      10.9617      0.00000

 k-point    12 :      -0.4375    0.1875    0.0625
  band No.  band energies     occupation 
      1      -3.5511      2.00000
      2      -1.0140      2.00000
      3       2.9216      2.00000
      4       3.9973      2.00000
      5       8.1738      0.00000
      6       9.2168      0.00000
      7      10.5539      0.00000
      8      13.0080      0.00000

 k-point    13 :      -0.3125    0.1875    0.0625
  band No.  band energies     occupation 
      1      -4.0143      2.00000
      2      -0.3172      2.00000
      3       2.8455      2.00000
      4       4.2850      2.00000
      5       8.4682      0.00000
      6       9.1186      0.00000
      7      10.5023      0.00000
      8      12.2493      0.00000

 k-point    14 :      -0.1875    0.1875    0.0625
  band No.  band energies     occupation 
      1      -4.9219      2.00000
      2       1.4235      2.00000
      3       3.1434      2.00000
      4       4.7971      2.00000
      5       8.7774      0.00000
      6       9.0776      0.00000
      7      10.3832      0.00000
      8      10.8408      0.00000

 k-point    15 :      -0.0625    0.1875    0.0625
  band No.  band energies     occupation 
      1      -5.5679      2.00000
      2       2.9024      2.00000
      3       4.2771      2.00000
      4       5.1735      2.00000
      5       8.3012      0.00000
      6       9.0030      0.00000
      7       9.6997      0.00000
      8      10.9410      0.00000

 k-point    16 :       0.3125    0.3125    0.0625
  band No.  band energies     occupation 
      1      -4.7688      2.00000
      2       1.5802      2.00000
      3       3.5606      2.00000
      4       3.6833      2.00000
      5       6.9097      0.00000
      6       8.5672      0.00000
      7      11.7685      0.00000
      8      11.9050      0.00000

 k-point    17 :       0.4375    0.3125    0.0625
  band No.  band energies     occupation 
      1      -4.0124      2.00000
      2       0.3376      2.00000
      3       2.7671      2.00000
      4       3.3334      2.00000
      5       7.2238      0.00000
      6       8.4058      0.00000
      7      11.7275      0.00000
      8      12.9042      0.00000

 k-point    18 :      -0.4375    0.3125    0.0625
  band No.  band energies     occupation 
      1      -3.1067      2.00000
      2      -0.8697      2.00000
      3       1.9206      2.00000
      4       3.3020      2.00000
      5       7.4572      0.00000
      6      10.0765      0.00000
      7      11.2995      0.00000
      8      12.8186      0.00000

 k-point    19 :      -0.3125    0.3125    0.0625
  band No.  band energies     occupation 
      1      -3.1777      2.00000
      2      -0.7758      2.00000
      3       1.5634      2.00000
      4       3.6493      2.00000
      5       7.8654      0.00000
      6      10.8225      0.00000
      7      12.1472      0.00000
      8      12.4037      0.00000

 k-point    20 :      -0.1875    0.3125    0.0625
  band No.  band energies     occupation 
      1      -4.0815      2.00000
      2       0.1787      2.00000
      3       2.1745      2.00000
      4       4.2398      2.00000
      5       8.5122      0.00000
      6       9.7143      0.00000
      7      11.1647      0.00000
      8      11.4180      0.00000

 k-point    21 :      -0.0625    0.3125    0.0625
  band No.  band energies     occupation 
      1      -4.8078      2.00000
      2       0.8089      2.00000
      3       3.8245      2.00000
      4       4.6978      2.00000
      5       8.2530      0.00000
      6       9.0798      0.00000
      7       9.9360      0.00000
      8      11.6202      0.00000

 k-point    22 :       0.4375    0.4375    0.0625
  band No.  band energies     occupation 
      1      -3.3555      2.00000
      2      -0.5284      2.00000
      3       2.8670      2.00000
      4       3.0874      2.00000
      5       6.5079      0.00000
      6       7.2154      0.00000
      7      14.0772      0.00000
      8      14.0798      0.00000

 k-point    23 :      -0.4375    0.4375    0.0625
  band No.  band energies     occupation 
      1      -2.4392      2.00000
      2      -1.5228      2.00000
      3       2.3022      2.00000
      4       2.8405      2.00000
      5       6.9397      0.00000
      6       7.6743      0.00000
      7      13.8186      0.00000
      8      14.8637      0.00000

 k-point    24 :      -0.3125    0.4375    0.0625
  band No.  band energies     occupation 
      1      -2.5333      2.00000
      2      -1.3586      2.00000
      3       1.5646      2.00000
      4       3.1577      2.00000
      5       7.3080      0.00000
      6       9.9224      0.00000
      7      12.2826      0.00000
      8      13.4442      0.00000

 k-point    25 :      -0.1875    0.4375    0.0625
  band No.  band energies     occupation 
      1      -3.2940      2.00000
      2      -0.9620      2.00000
      3       2.1313      2.00000
      4       3.7636      2.00000
      5       7.9895      0.00000
      6       9.9692      0.00000
      7      11.5211      0.00000
      8      12.7595      0.00000

 k-point    26 :      -0.0625    0.4375    0.0625
  band No.  band energies     occupation 
      1      -3.9076      2.00000
      2      -0.8193      2.00000
      3       3.6520      2.00000
      4       4.3589      2.00000
      5       8.0581      0.00000
      6       8.9610      0.00000
      7       9.7498      0.00000
      8      13.3245      0.00000

 k-point    27 :      -0.4375   -0.4375    0.0625
  band No.  band energies     occupation 
      1      -2.4918      2.00000
      2      -1.5411      2.00000
      3       2.7284      2.00000
      4       2.9657      2.00000
      5       6.5003      0.00000
      6       6.8620      0.00000
      7      15.1635      0.00000
      8      15.2447      0.00000

 k-point    28 :      -0.3125   -0.4375    0.0625
  band No.  band energies     occupation 
      1      -3.2688      2.00000
      2      -0.5921      2.00000
      3       2.4615      2.00000
      4       3.0008      2.00000
      5       7.0305      0.00000
      6       7.9241      0.00000
      7      12.7435      0.00000
      8      14.0758      0.00000

 k-point    29 :      -0.1875   -0.4375    0.0625
  band No.  band energies     occupation 
      1      -3.7413      2.00000
      2      -0.3411      2.00000
      3       2.5298      2.00000
      4       3.6045      2.00000
      5       7.7394      0.00000
      6      10.2592      0.00000
      7      10.5206      0.00000
      8      11.7341      0.00000

 k-point    30 :      -0.3125   -0.3125    0.0625
  band No.  band energies     occupation 
      1      -4.1186      2.00000
      2       0.5225      2.00000
      3       3.1444      2.00000
      4       3.3285      2.00000
      5       6.6428      0.00000
      6       7.7944      0.00000
      7      12.9074      0.00000
      8      12.9754      0.00000

 k-point    31 :      -0.1875   -0.3125    0.0625
  band No.  band energies     occupation 
      1      -4.6505      2.00000
      2       1.2298      2.00000
      3       3.1909      2.00000
      4       3.8480      2.00000
      5       7.5197      0.00000
      6       9.0906      0.00000
      7      10.7787      0.00000
      8      11.7655      0.00000

 k-point    32 :      -0.1875   -0.1875    0.0625
  band No.  band energies     occupation 
      1      -5.2977      2.00000
      2       2.6111      2.00000
      3       4.1112      2.00000
      4       4.1409      2.00000
      5       7.2860      0.00000
      6       9.4546      0.00000
      7      10.7060      0.00000
      8      10.8698      0.00000

 k-point    33 :       0.1875    0.1875    0.1875
  band No.  band energies     occupation 
      1      -5.7022      2.00000
      2       2.9895      2.00000
      3       5.2267      2.00000
      4       5.2267      2.00000
      5       8.0034      0.00000
      6       9.0606      0.00000
      7       9.0606      0.00000
      8      11.5250      0.00000

 k-point    34 :       0.3125    0.1875    0.1875
  band No.  band energies     occupation 
      1      -5.3075      2.00000
      2       2.1526      2.00000
      3       3.7003      2.00000
      4       5.2479      2.00000
      5       8.6570      0.00000
      6       9.1821      0.00000
      7       9.4794      0.00000
      8      11.5204      0.00000

 k-point    35 :       0.4375    0.1875    0.1875
  band No.  band energies     occupation 
      1      -4.5550      2.00000
      2       0.7804      2.00000
      3       2.6109      2.00000
      4       4.7388      2.00000
      5       8.4804      0.00000
      6       9.9414      0.00000
      7      10.1532      0.00000
      8      11.8051      0.00000

 k-point    36 :      -0.4375    0.1875    0.1875
  band No.  band energies     occupation 
      1      -3.6518      2.00000
      2      -0.7231      2.00000
      3       2.4634      2.00000
      4       4.2030      2.00000
      5       7.9645      0.00000
      6      10.1358      0.00000
      7      10.3209      0.00000
      8      13.6580      0.00000

 k-point    37 :      -0.3125    0.1875    0.1875
  band No.  band energies     occupation 
      1      -3.6363      2.00000
      2      -0.7513      2.00000
      3       2.7670      2.00000
      4       3.8818      2.00000
      5       7.6777      0.00000
      6      10.2144      0.00000
      7      10.6669      0.00000
      8      11.6727      0.00000

 k-point    38 :      -0.1875    0.1875    0.1875
  band No.  band energies     occupation 
      1      -4.5383      2.00000
      2       0.7766      2.00000
      3       3.3828      2.00000
      4       3.8564      2.00000
      5       7.6083      0.00000
      6       9.8174      0.00000
      7      10.4888      0.00000
      8      11.0522      0.00000

 k-point    39 :       0.3125    0.3125    0.1875
  band No.  band energies     occupation 
      1      -5.0490      2.00000
      2       1.4815      2.00000
      3       4.2193      2.00000
      4       4.2776      2.00000
      5       8.0156      0.00000
      6       9.4272      0.00000
      7      10.3083      0.00000
      8      10.6546      0.00000

 k-point    40 :       0.4375    0.3125    0.1875
  band No.  band energies     occupation 
      1      -4.4181      2.00000
      2       0.7175      2.00000
      3       2.6681      2.00000
      4       4.0815      2.00000
      5       8.5025      0.00000
      6       9.5726      0.00000
      7      10.0267      0.00000
      8      11.5816      0.00000

 k-point    41 :      -0.4375    0.3125    0.1875
  band No.  band energies     occupation 
      1      -3.5194      2.00000
      2      -0.3874      2.00000
      3       1.8703      2.00000
      4       3.5062      2.00000
      5       8.9566      0.00000
      6       9.4457      0.00000
      7      10.7355      0.00000
      8      12.6791      0.00000

 k-point    42 :      -0.3125    0.3125    0.1875
  band No.  band energies     occupation 
      1      -3.0262      2.00000
      2      -1.0085      2.00000
      3       1.8769      2.00000
      4       3.1895      2.00000
      5       8.4788      0.00000
      6       9.7772      0.00000
      7      11.5195      0.00000
      8      12.8441      0.00000

 k-point    43 :      -0.1875    0.3125    0.1875
  band No.  band energies     occupation 
      1      -3.8073      2.00000
      2       0.0085      2.00000
      3       2.3004      2.00000
      4       3.3710      2.00000
      5       8.2095      0.00000
      6       9.4188      0.00000
      7      10.3310      0.00000
      8      12.8146      0.00000

 k-point    44 :       0.4375    0.4375    0.1875
  band No.  band energies     occupation 
      1      -3.9178      2.00000
      2       0.0630      2.00000
      3       2.6398      2.00000
      4       3.5237      2.00000
      5       7.2189      0.00000
      6       9.2577      0.00000
      7      11.5905      0.00000
      8      11.8766      0.00000

 k-point    45 :      -0.4375    0.4375    0.1875
  band No.  band energies     occupation 
      1      -3.1077      2.00000
      2      -0.7334      2.00000
      3       2.0527      2.00000
      4       2.8280      2.00000
      5       8.0004      0.00000
      6       9.0149      0.00000
      7      11.2217      0.00000
      8      14.0578      0.00000

 k-point    46 :      -0.3125    0.4375    0.1875
  band No.  band energies     occupation 
      1      -2.2919      2.00000
      2      -1.4917      2.00000
      3       1.7281      2.00000
      4       2.3201      2.00000
      5       9.1257      0.00000
      6      10.0482      0.00000
      7      10.7786      0.00000
      8      11.7771      0.00000

 k-point    47 :      -0.1875    0.4375    0.1875
  band No.  band energies     occupation 
      1      -2.8995      2.00000
      2      -0.9432      2.00000
      3       1.7229      2.00000
      4       2.8010      2.00000
      5       9.2215      0.00000
      6       9.6575      0.00000
      7      10.4453      0.00000
      8      12.9400      0.00000

 k-point    48 :      -0.4375   -0.4375    0.1875
  band No.  band energies     occupation 
      1      -2.4580      2.00000
      2      -1.4734      2.00000
      3       1.8345      2.00000
      4       3.1794      2.00000
      5       6.7784      0.00000
      6       8.6979      0.00000
      7      13.7245      0.00000
      8      13.9580      0.00000

 k-point    49 :      -0.3125   -0.4375    0.1875
  band No.  band energies     occupation 
      1      -2.3570      2.00000
      2      -1.5015      2.00000
      3       1.9293      2.00000
      4       2.5397      2.00000
      5       7.8926      0.00000
      6       8.8134      0.00000
      7      12.2264      0.00000
      8      13.3451      0.00000

 k-point    50 :      -0.3125   -0.3125    0.1875
  band No.  band energies     occupation 
      1      -3.2061      2.00000
      2      -0.6974      2.00000
      3       2.1056      2.00000
      4       3.2953      2.00000
      5       6.9304      0.00000
      6       8.8821      0.00000
      7      12.7604      0.00000
      8      12.7879      0.00000

 k-point    51 :       0.3125    0.3125    0.3125
  band No.  band energies     occupation 
      1      -4.9404      2.00000
      2       0.7743      2.00000
      3       4.8120      2.00000
      4       4.8121      2.00000
      5       7.5534      0.00000
      6       9.2812      0.00000
      7       9.2812      0.00000
      8      13.4707      0.00000

 k-point    52 :       0.4375    0.3125    0.3125
  band No.  band energies     occupation 
      1      -4.4570      2.00000
      2       0.1970      2.00000
      3       3.3374      2.00000
      4       4.7247      2.00000
      5       8.2602      0.00000
      6       9.5092      0.00000
      7       9.5520      0.00000
      8      12.8140      0.00000

 k-point    53 :      -0.4375    0.3125    0.3125
  band No.  band energies     occupation 
      1      -3.6581      2.00000
      2      -0.3259      2.00000
      3       1.7898      2.00000
      4       4.1380      2.00000
      5       7.8815      0.00000
      6      10.9680      0.00000
      7      11.1503      0.00000
      8      12.5843      0.00000

 k-point    54 :      -0.3125    0.3125    0.3125
  band No.  band energies     occupation 
      1      -2.8286      2.00000
      2      -1.1085      2.00000
      3       1.4448      2.00000
      4       3.5866      2.00000
      5       7.2523      0.00000
      6      11.1584      0.00000
      7      12.2473      0.00000
      8      12.5583      0.00000

 k-point    55 :       0.4375    0.4375    0.3125
  band No.  band energies     occupation 
      1      -4.1395      2.00000
      2      -0.3659      2.00000
      3       3.6805      2.00000
      4       4.1553      2.00000
      5       7.9495      0.00000
      6       9.3042      0.00000
      7      10.0342      0.00000
      8      12.0918      0.00000

 k-point    56 :      -0.4375    0.4375    0.3125
  band No.  band energies     occupation 
      1      -3.5141      2.00000
      2      -0.7204      2.00000
      3       2.3564      2.00000
      4       3.6728      2.00000
      5       8.7138      0.00000
      6       9.0524      0.00000
      7      11.6352      0.00000
      8      11.8219      0.00000

 k-point    57 :      -0.3125    0.4375    0.3125
  band No.  band energies     occupation 
      1      -2.6898      2.00000
      2      -1.1715      2.00000
      3       1.5375      2.00000
      4       2.9515      2.00000
      5       8.3479      0.00000
      6      10.6037      0.00000
      7      11.4149      0.00000
      8      11.9554      0.00000

 k-point    58 :      -0.4375   -0.4375    0.3125
  band No.  band energies     occupation 
      1      -3.1518      2.00000
      2      -0.9986      2.00000
      3       1.9559      2.00000
      4       3.6872      2.00000
      5       7.4034      0.00000
      6      11.1196      0.00000
      7      11.4384      0.00000
      8      11.5886      0.00000

 k-point    59 :       0.4375    0.4375    0.4375
  band No.  band energies     occupation 
      1      -4.0415      2.00000
      2      -0.8833      2.00000
      3       4.5909      2.00000
      4       4.5909      2.00000
      5       7.3018      0.00000
      6       9.1310      0.00000
      7       9.1310      0.00000
      8      13.5221      0.00000

 k-point    60 :      -0.4375    0.4375    0.4375
  band No.  band energies     occupation 
      1      -3.6869      2.00000
      2      -1.0580      2.00000
      3       3.3604      2.00000
      4       4.3196      2.00000
      5       7.9907      0.00000
      6       9.2837      0.00000
      7       9.7158      0.00000
      8      13.9430      0.00000


--------------------------------------------------------------------------------------------------------


 soft charge-density along one line, spin component           1
         0         1         2         3         4         5         6         7         8         9
 total charge-density along one line
 
 pseudopotential strength for first ion, spin component:           1
 18.422  25.702   0.000   0.000   0.000   0.000   0.000   0.000
 25.702  35.863   0.000   0.000   0.000   0.000   0.000   0.000
  0.000   0.000   4.179  -0.000  -0.000   7.788  -0.000  -0.000
  0.000   0.000  -0.000   4.179  -0.000  -0.000   7.788  -0.000
  0.000   0.000  -0.000  -0.000   4.179  -0.000  -0.000   7.788
  0.000   0.000   7.788  -0.000  -0.000  14.523  -0.000  -0.000
  0.000   0.000  -0.000   7.788  -0.000  -0.000  14.523  -0.000
  0.000   0.000  -0.000  -0.000   7.788  -0.000  -0.000  14.523
 total augmentation occupancy for first ion, spin component:           1
  5.642  -2.126   0.000  -0.000   0.000   0.000   0.000   0.000
 -2.126   0.917  -0.000   0.000  -0.000  -0.000  -0.000   0.000
 -0.000   0.000   2.988   0.000   0.000  -0.677  -0.000  -0.000
 -0.000  -0.000   0.000   2.988   0.000  -0.000  -0.677  -0.000
  0.000   0.000   0.000   0.000   2.988  -0.000  -0.000  -0.677
  0.000  -0.000  -0.677  -0.000  -0.000   0.162   0.000   0.000
  0.000  -0.000  -0.000  -0.677  -0.000   0.000   0.162   0.000
 -0.000  -0.000  -0.000  -0.000  -0.677   0.000   0.000   0.162


------------------------ aborting loop because EDIFF is reached ----------------------------------------


    CHARGE:  cpu time    0.0510: real time    0.0516
    FORLOC:  cpu time    0.0010: real time    0.0017
    FORNL :  cpu time    0.1140: real time    0.1141
    STRESS:  cpu time    0.7179: real time    0.7188
    FORCOR:  cpu time    0.0360: real time    0.0357
    FORHAR:  cpu time    0.0080: real time    0.0079
    MIXING:  cpu time    0.0020: real time    0.0017
    OFIELD:  cpu time    0.0000: real time    0.0001

  FORCE on cell =-STRESS in cart. coord.  units (eV):
  Direction    XX          YY          ZZ          XY          YZ          ZX
  --------------------------------------------------------------------------------------
  Alpha Z     3.33881     3.33881     3.33881
  Ewald     -75.99608   -75.99616   -75.99607     0.00001     0.00000    -0.00000
  Hartree     5.00204     5.00204     5.00204     0.00000     0.00000     0.00000
  E(xc)     -25.32706   -25.32706   -25.32706    -0.00000    -0.00000    -0.00000
  Local     -29.34109   -29.34107   -29.34107    -0.00000     0.00001     0.00001
  n-local    75.40644    77.81924    79.95502    -0.87109    -1.49316     0.10063
  augment   -11.65238   -11.65238   -11.65239    -0.00000    -0.00001    -0.00001
  Kinetic    55.20040    56.64855    57.81411    -0.05432     0.52623    -1.10580
  Fock        0.00000     0.00000     0.00000     0.00000     0.00000     0.00000
  -------------------------------------------------------------------------------------
  Total       0.30547     0.30547     0.30547     0.00000     0.00000    -0.00000
  in kB      12.13546    12.13547    12.13545     0.00000     0.00000    -0.00000
  external pressure =       12.14 kB  Pullay stress =        0.00 kB


 VOLUME and BASIS-vectors are now :
 -----------------------------------------------------------------------------
  energy-cutoff  :      350.00
  volume of cell :       40.33
      direct lattice vectors                 reciprocal lattice vectors
     3.333573000  0.000000000  1.924639000     0.299978432 -0.106058350  0.000000000
     1.111191000  3.142924000  1.924639000     0.000000000  0.318175050  0.000000000
     0.000000000  0.000000000  3.849278000    -0.149989216 -0.106058350  0.259788979

  length of vectors
     3.849278403  3.849279412  3.849278000     0.318175161  0.318175050  0.318175190


 FORCES acting on ions
[...]
      8      12.5878      0.00000

 k-point    26 :      -0.0625    0.4375    0.0625
  band No.  band energies     occupation 
      1      -3.9791      2.00000
      2      -0.8976      2.00000
      3       3.5402      2.00000
      4       4.2437      2.00000
      5       7.8873      0.00000
      6       8.8372      0.00000
      7       9.6114      0.00000
      8      13.1537      0.00000

 k-point    27 :      -0.4375   -0.4375    0.0625
  band No.  band energies     occupation 
      1      -2.5756      2.00000
      2      -1.6359      2.00000
      3       2.6364      2.00000
      4       2.8689      2.00000
      5       6.3942      0.00000
      6       6.7527      0.00000
      7      14.9499      0.00000
      8      15.0223      0.00000

 k-point    28 :      -0.3125   -0.4375    0.0625
  band No.  band energies     occupation 
      1      -3.3441      2.00000
      2      -0.6979      2.00000
      3       2.3752      2.00000
      4       2.9058      2.00000
      5       6.9156      0.00000
      6       7.8040      0.00000
      7      12.5587      0.00000
      8      13.8763      0.00000

 k-point    29 :      -0.1875   -0.4375    0.0625
  band No.  band energies     occupation 
      1      -3.8126      2.00000
      2      -0.4376      2.00000
      3       2.4359      2.00000
      4       3.5016      2.00000
      5       7.6146      0.00000
      6      10.1210      0.00000
      7      10.3470      0.00000
      8      11.5644      0.00000

 k-point    30 :      -0.3125   -0.3125    0.0625
  band No.  band energies     occupation 
      1      -4.1833      2.00000
      2       0.4054      2.00000
      3       3.0474      2.00000
      4       3.2280      2.00000
      5       6.5296      0.00000
      6       7.6807      0.00000
      7      12.7154      0.00000
      8      12.7917      0.00000

 k-point    31 :      -0.1875   -0.3125    0.0625
  band No.  band energies     occupation 
      1      -4.7094      2.00000
      2       1.1109      2.00000
      3       3.0930      2.00000
      4       3.7409      2.00000
      5       7.3946      0.00000
      6       8.9579      0.00000
      7      10.6086      0.00000
      8      11.5922      0.00000

 k-point    32 :      -0.1875   -0.1875    0.0625
  band No.  band energies     occupation 
      1      -5.3489      2.00000
      2       2.4793      2.00000
      3       4.0003      2.00000
      4       4.0318      2.00000
      5       7.1626      0.00000
      6       9.3063      0.00000
      7      10.5420      0.00000
      8      10.7044      0.00000

 k-point    33 :       0.1875    0.1875    0.1875
  band No.  band energies     occupation 
      1      -5.7489      2.00000
      2       2.8718      2.00000
      3       5.1027      2.00000
      4       5.1027      2.00000
      5       7.8290      0.00000
      6       8.9171      0.00000
      7       8.9171      0.00000
      8      11.2835      0.00000

 k-point    34 :       0.3125    0.1875    0.1875
  band No.  band energies     occupation 
      1      -5.3588      2.00000
      2       2.0354      2.00000
      3       3.5962      2.00000
      4       5.1214      2.00000
      5       8.4820      0.00000
      6       9.0389      0.00000
      7       9.3300      0.00000
      8      11.3321      0.00000

 k-point    35 :       0.4375    0.1875    0.1875
  band No.  band energies     occupation 
      1      -4.6157      2.00000
      2       0.6728      2.00000
      3       2.5203      2.00000
      4       4.6188      2.00000
      5       8.3274      0.00000
      6       9.7924      0.00000
      7       9.9965      0.00000
      8      11.6162      0.00000

 k-point    36 :      -0.4375    0.1875    0.1875
  band No.  band energies     occupation 
      1      -3.7261      2.00000
      2      -0.8084      2.00000
      3       2.3689      2.00000
      4       4.0902      2.00000
      5       7.8281      0.00000
      6       9.9719      0.00000
      7      10.1783      0.00000
      8      13.4642      0.00000

 k-point    37 :      -0.3125    0.1875    0.1875
  band No.  band energies     occupation 
      1      -3.7106      2.00000
      2      -0.8365      2.00000
      3       2.6670      2.00000
      4       3.7736      2.00000
      5       7.5504      0.00000
      6      10.0452      0.00000
      7      10.5218      0.00000
      8      11.5088      0.00000

 k-point    38 :      -0.1875    0.1875    0.1875
  band No.  band energies     occupation 
      1      -4.5989      2.00000
      2       0.6692      2.00000
      3       3.2767      2.00000
      4       3.7496      2.00000
      5       7.4827      0.00000
      6       9.6698      0.00000
      7      10.3199      0.00000
      8      10.8959      0.00000

 k-point    39 :       0.3125    0.3125    0.1875
  band No.  band energies     occupation 
      1      -5.1034      2.00000
      2       1.3727      2.00000
      3       4.1008      2.00000
      4       4.1659      2.00000
      5       7.8766      0.00000
      6       9.2509      0.00000
      7      10.1565      0.00000
      8      10.5192      0.00000

 k-point    40 :       0.4375    0.3125    0.1875
  band No.  band energies     occupation 
      1      -4.4803      2.00000
      2       0.6069      2.00000
      3       2.5768      2.00000
      4       3.9714      2.00000
      5       8.3656      0.00000
      6       9.4107      0.00000
      7       9.8881      0.00000
      8      11.4122      0.00000

 k-point    41 :      -0.4375    0.3125    0.1875
  band No.  band energies     occupation 
      1      -3.5937      2.00000
      2      -0.4895      2.00000
      3       1.7908      2.00000
      4       3.4057      2.00000
      5       8.8176      0.00000
      6       9.3012      0.00000
      7      10.5783      0.00000
      8      12.5022      0.00000

 k-point    42 :      -0.3125    0.3125    0.1875
  band No.  band energies     occupation 
      1      -3.1087      2.00000
      2      -1.1002      2.00000
      3       1.7946      2.00000
      4       3.0943      2.00000
      5       8.3473      0.00000
      6       9.6297      0.00000
      7      11.3570      0.00000
      8      12.6521      0.00000

 k-point    43 :      -0.1875    0.3125    0.1875
  band No.  band energies     occupation 
      1      -3.8770      2.00000
      2      -0.0997      2.00000
      3       2.2148      2.00000
      4       3.2727      2.00000
      5       8.0792      0.00000
      6       9.2870      0.00000
      7      10.1640      0.00000
      8      12.6316      0.00000

 k-point    44 :       0.4375    0.4375    0.1875
  band No.  band energies     occupation 
      1      -3.9859      2.00000
      2      -0.0432      2.00000
      3       2.5478      2.00000
      4       3.4206      2.00000
      5       7.1017      0.00000
      6       9.1241      0.00000
      7      11.4008      0.00000
      8      11.7144      0.00000

 k-point    45 :      -0.4375    0.4375    0.1875
  band No.  band energies     occupation 
      1      -3.1861      2.00000
      2      -0.8374      2.00000
      3       1.9723      2.00000
      4       2.7381      2.00000
      5       7.8746      0.00000
      6       8.8835      0.00000
      7      11.0510      0.00000
      8      13.8534      0.00000

 k-point    46 :      -0.3125    0.4375    0.1875
  band No.  band energies     occupation 
      1      -2.3821      2.00000
      2      -1.5889      2.00000
      3       1.6548      2.00000
      4       2.2386      2.00000
      5       8.9919      0.00000
      6       9.9139      0.00000
      7      10.6067      0.00000
      8      11.6043      0.00000

 k-point    47 :      -0.1875    0.4375    0.1875
  band No.  band energies     occupation 
      1      -2.9820      2.00000
      2      -1.0436      2.00000
      3       1.6474      2.00000
      4       2.7123      2.00000
      5       9.0881      0.00000
      6       9.5147      0.00000
      7      10.2834      0.00000
      8      12.7606      0.00000

 k-point    48 :      -0.4375   -0.4375    0.1875
  band No.  band energies     occupation 
      1      -2.5449      2.00000
      2      -1.5685      2.00000
      3       1.7591      2.00000
      4       3.0801      2.00000
      5       6.6693      0.00000
      6       8.5673      0.00000
      7      13.5374      0.00000
      8      13.7488      0.00000

 k-point    49 :      -0.3125   -0.4375    0.1875
  band No.  band energies     occupation 
      1      -2.4450      2.00000
      2      -1.5983      2.00000
      3       1.8526      2.00000
      4       2.4532      2.00000
      5       7.7694      0.00000
      6       8.6819      0.00000
      7      12.0492      0.00000
      8      13.1582      0.00000

 k-point    50 :      -0.3125   -0.3125    0.1875
  band No.  band energies     occupation 
      1      -3.2831      2.00000
      2      -0.8000      2.00000
      3       2.0247      2.00000
      4       3.1947      2.00000
      5       6.8186      0.00000
      6       8.7508      0.00000
      7      12.5603      0.00000
      8      12.6171      0.00000

 k-point    51 :       0.3125    0.3125    0.3125
  band No.  band energies     occupation 
      1      -4.9966      2.00000
      2       0.6783      2.00000
      3       4.6915      2.00000
      4       4.6915      2.00000
      5       7.3773      0.00000
      6       9.1458      0.00000
      7       9.1458      0.00000
      8      13.2639      0.00000

 k-point    52 :       0.4375    0.3125    0.3125
  band No.  band energies     occupation 
      1      -4.5193      2.00000
      2       0.1036      2.00000
      3       3.2321      2.00000
      4       4.6045      2.00000
      5       8.0928      0.00000
      6       9.3691      0.00000
      7       9.4151      0.00000
      8      12.6252      0.00000

 k-point    53 :      -0.4375    0.3125    0.3125
  band No.  band energies     occupation 
      1      -3.7310      2.00000
      2      -0.4256      2.00000
      3       1.7111      2.00000
      4       4.0263      2.00000
      5       7.7513      0.00000
      6      10.8103      0.00000
      7      10.9828      0.00000
      8      12.3853      0.00000

 k-point    54 :      -0.3125    0.3125    0.3125
  band No.  band energies     occupation 
      1      -2.9136      2.00000
      2      -1.2034      2.00000
      3       1.3741      2.00000
      4       3.4822      2.00000
      5       7.1355      0.00000
      6      11.0131      0.00000
      7      12.0773      0.00000
      8      12.3564      0.00000

 k-point    55 :       0.4375    0.4375    0.3125
  band No.  band energies     occupation 
      1      -4.2066      2.00000
      2      -0.4519      2.00000
      3       3.5673      2.00000
      4       4.0436      2.00000
      5       7.8024      0.00000
      6       9.1513      0.00000
      7       9.8951      0.00000
      8      11.9312      0.00000

 k-point    56 :      -0.4375    0.4375    0.3125
  band No.  band energies     occupation 
      1      -3.5898      2.00000
      2      -0.8093      2.00000
      3       2.2635      2.00000
      4       3.5698      2.00000
      5       8.5703      0.00000
      6       8.9146      0.00000
      7      11.4543      0.00000
      8      11.6704      0.00000

 k-point    57 :      -0.3125    0.4375    0.3125
  band No.  band energies     occupation 
      1      -2.7761      2.00000
      2      -1.2682      2.00000
      3       1.4657      2.00000
      4       2.8594      2.00000
      5       8.2188      0.00000
      6      10.4578      0.00000
      7      11.2492      0.00000
      8      11.7785      0.00000

 k-point    58 :      -0.4375   -0.4375    0.3125
  band No.  band energies     occupation 
      1      -3.2329      2.00000
      2      -1.0871      2.00000
      3       1.8719      2.00000
      4       3.5815      2.00000
      5       7.2837      0.00000
      6      10.9744      0.00000
      7      11.2843      0.00000
      8      11.3911      0.00000

 k-point    59 :       0.4375    0.4375    0.4375
  band No.  band energies     occupation 
      1      -4.1116      2.00000
      2      -0.9584      2.00000
      3       4.4718      2.00000
      4       4.4718      2.00000
      5       7.1255      0.00000
      6       9.0049      0.00000
      7       9.0049      0.00000
      8      13.3731      0.00000

 k-point    60 :      -0.4375    0.4375    0.4375
  band No.  band energies     occupation 
      1      -3.7625      2.00000
      2      -1.1330      2.00000
      3       3.2520      2.00000
      4       4.2049      2.00000
      5       7.8345      0.00000
      6       9.1409      0.00000
      7       9.5824      0.00000
      8      13.7648      0.00000


--------------------------------------------------------------------------------------------------------


 soft charge-density along one line, spin component           1
         0         1         2         3         4         5         6         7         8         9
 total charge-density along one line
 
 pseudopotential strength for first ion, spin component:           1
 18.437  25.722   0.000  -0.000   0.000   0.000  -0.000   0.000
 25.722  35.892   0.000  -0.000   0.000   0.000  -0.000   0.000
  0.000   0.000   4.181  -0.000  -0.000   7.791  -0.000  -0.000
 -0.000  -0.000  -0.000   4.181  -0.000  -0.000   7.791  -0.000
  0.000   0.000  -0.000  -0.000   4.181  -0.000  -0.000   7.791
  0.000   0.000   7.791  -0.000  -0.000  14.528  -0.000  -0.000
 -0.000  -0.000  -0.000   7.791  -0.000  -0.000  14.528  -0.000
  0.000   0.000  -0.000  -0.000   7.791  -0.000  -0.000  14.528
 total augmentation occupancy for first ion, spin component:           1
  5.531  -2.065   0.000   0.000  -0.000   0.000  -0.000   0.000
 -2.065   0.887  -0.000  -0.000  -0.000  -0.000   0.000  -0.000
 -0.000   0.000   2.942   0.000  -0.000  -0.663  -0.000   0.000
 -0.000  -0.000   0.000   2.942   0.000  -0.000  -0.663  -0.000
 -0.000  -0.000  -0.000   0.000   2.942   0.000  -0.000  -0.663
  0.000   0.000  -0.663  -0.000   0.000   0.158   0.000  -0.000
 -0.000   0.000  -0.000  -0.663  -0.000   0.000   0.158   0.000
 -0.000   0.000   0.000  -0.000  -0.663  -0.000   0.000   0.158


------------------------ aborting loop because EDIFF is reached ----------------------------------------


    CHARGE:  cpu time    0.0490: real time    0.0493
    FORLOC:  cpu time    0.0020: real time    0.0017
    FORNL :  cpu time    0.1120: real time    0.1128
    STRESS:  cpu time    0.6359: real time    0.6364
    FORCOR:  cpu time    0.0310: real time    0.0313
    FORHAR:  cpu time    0.0060: real time    0.0060
    MIXING:  cpu time    0.0000: real time    0.0012
    OFIELD:  cpu time    0.0010: real time    0.0002

  FORCE on cell =-STRESS in cart. coord.  units (eV):
  Direction    XX          YY          ZZ          XY          YZ          ZX
  --------------------------------------------------------------------------------------
  Alpha Z     3.29544     3.29544     3.29544
  Ewald     -75.66560   -75.66567   -75.66559     0.00001    -0.00000     0.00000
  Hartree     5.05399     5.05398     5.05399     0.00000     0.00000     0.00000
  E(xc)     -25.25216   -25.25216   -25.25216    -0.00000    -0.00000    -0.00000
  Local     -29.52420   -29.52418   -29.52418    -0.00000     0.00001     0.00001
  n-local    75.18663    77.58019    79.69832    -0.87578    -1.48598     0.10788
  augment   -11.64878   -11.64878   -11.64879    -0.00000    -0.00001    -0.00001
  Kinetic    54.85220    56.34912    57.56280    -0.09644     0.46277    -1.07137
  Fock        0.00000     0.00000     0.00000     0.00000     0.00000     0.00000
  -------------------------------------------------------------------------------------
  Total       0.00176     0.00176     0.00176     0.00000     0.00000     0.00000
  in kB       0.06902     0.06902     0.06902     0.00000     0.00000     0.00000
  external pressure =        0.07 kB  Pullay stress =        0.00 kB


 VOLUME and BASIS-vectors are now :
 -----------------------------------------------------------------------------
  energy-cutoff  :      350.00
  volume of cell :       40.86
      direct lattice vectors                 reciprocal lattice vectors
     3.348132925  0.000000000  1.933045173     0.298673924 -0.105597137  0.000000000
     1.116044308  3.156651245  1.933045173    -0.000000000  0.316791410 -0.000000000
    -0.000000000  0.000000000  3.866090347    -0.149336962 -0.105597137  0.258659242

  length of vectors
     3.866090755  3.866091777  3.866090347     0.316791522  0.316791410  0.316791552


 FORCES acting on ions
    electron-ion (+dipol)            ewald-force                    non-local-force                 convergence-correction
 -----------------------------------------------------------------------------------------------
   0.525E-05 0.245E-04 0.590E-07   -.892E-05 -.418E-04 0.566E-14   -.120E-16 0.184E-16 -.347E-17   -.456E-07 -.320E-07 -.791E-07
   -.525E-05 -.245E-04 -.590E-07   0.892E-05 0.418E-04 -.552E-14   0.796E-17 -.184E-16 0.347E-17   0.456E-07 0.320E-07 0.791E-07
 -----------------------------------------------------------------------------------------------
   0.468E-13 -.484E-13 0.123E-12   -.530E-15 -.361E-16 0.147E-15   -.401E-17 0.000E+00 0.000E+00   -.164E-14 0.831E-15 0.767E-15
 
 
 POSITION                                       TOTAL-FORCE (eV/Angst)
 -----------------------------------------------------------------------------------
      3.90616      2.76207      6.76566         0.000000      0.000000      0.000000
      0.55802      0.39458      0.96652        -0.000000     -0.000000     -0.000000
 -----------------------------------------------------------------------------------
    total drift:                                0.000000     -0.000000      0.000000


--------------------------------------------------------------------------------------------------------



  FREE ENERGIE OF THE ION-ELECTRON SYSTEM (eV)
  ---------------------------------------------------
  free  energy   TOTEN  =       -10.84765888 eV

  energy  without entropy=      -10.84765888  energy(sigma->0) =      -10.84765888
 
 d Force = 0.0000000E+00[ 0.000E+00, 0.000E+00]  d Energy = 0.8989546E-03-0.899E-03
 d Force = 0.0000000E+00[ 0.000E+00, 0.000E+00]  d Ewald  = 0.6761625E+00-0.676E+00


--------------------------------------------------------------------------------------------------------


    POTLOK:  cpu time    0.2060: real time    0.2146


--------------------------------------------------------------------------------------------------------




--------------------------------------------------------------------------------------------------------


  
 reached required accuracy - stopping structural energy minimisation
     LOOP+:  cpu time    6.0991: real time    6.2680
    4ORBIT:  cpu time    0.0000: real time    0.0000

 total amount of memory used by VASP MPI-rank0    39683. kBytes
=======================================================================

   base      :      30000. kBytes
   nonl-proj :       2369. kBytes
   fftplans  :       4177. kBytes
   grid      :       1926. kBytes
   one-center:          6. kBytes
   wavefun   :       1205. kBytes
 
  
  
 General timing and accounting informations for this job:
 ========================================================
  
                  Total CPU time used (sec):       23.287
                            User time (sec):       22.864
                          System time (sec):        0.424
                         Elapsed time (sec):       24.494
  
                   Maximum memory used (kb):       63744.
                   Average memory used (kb):          N/A
  
                          Minor page faults:        14241
                          Major page faults:            1
                 Voluntary context switches:        15149
