<?xml version="1.0" encoding="ISO-8859-1"?>
<modeling>
 <generator>
  <i name="program" type="string">vasp </i>
  <i name="version" type="string">6.2.0  </i>
  <i name="subversion" type="string">18Jan21 (build Aug 12 2022 13:00:08) complex                          parallel </i>
  <i name="platform" type="string">LinuxIFC </i>
  <i name="date" type="string">2024 11 03 </i>
  <i name="time" type="string">21:53:37 </i>
 </generator>
 <incar>
  <i type="int" name="ISTART">     0</i>
  <i type="string" name="PREC">Accurate      (Accurate strictly avoids</i>
  <i type="logical" name="ADDGRID"> T  </i>
  <i type="int" name="ISPIN">     1</i>
  <i type="int" name="NELM">    90</i>
  <i type="int" name="NELMIN">     6</i>
  <i type="int" name="IBRION">     2</i>
  <i name="EDIFF">      0.00000100</i>
  <i name="EDIFFG">     -0.00200000</i>
  <i type="int" name="NSW">   100</i>
  <i type="int" name="ISIF">     3</i>
  <i type="int" name="ISYM">     2</i>
  <i name="ENCUT">    350.00000000</i>
  <i type="logical" name="LREAL"> F  </i>
  <i type="int" name="ISMEAR">     0</i>
  <i name="SIGMA">      0.05000000</i>
  <i type="logical" name="LWAVE"> F  </i>
  <i type="logical" name="LCHARG"> F  </i>
  <i type="logical" name="LASPH"> T  </i>
 </incar>
 <primitive_cell>
  <structure name="primitive_cell" >
   <crystal>
    <varray name="basis" >
     <v>       3.33357300       0.00000000       1.92463900 </v>
     <v>       1.11119100       3.14292400       1.92463900 </v>
     <v>       0.00000000       0.00000000       3.84927800 </v>
    </varray>
    <i name="volume">     40.32952685 </i>
    <varray name="rec_basis" >
     <v>       0.29997843      -0.10605835       0.00000000 </v>
     <v>       0.00000000       0.31817505       0.00000000 </v>
     <v>      -0.14998922      -0.10605835       0.25978898 </v>
    </varray>
   </crystal>
   <varray name="positions" >
    <v>       0.87500000       0.87500000       0.87500000 </v>
    <v>       0.12500000       0.12500000       0.12500000 </v>
   </varray>
  </structure>
  <varray name="primitive_index" >
   <v type="int" >        1 </v>
   <v type="int" >        2 </v>
  </varray>
 </primitive_cell>
 <kpoints>
  <generation param="Monkhorst-Pack">
   <v type="int" name="divisions">       8        8        8 </v>
   <v name="usershift">      0.00000000       0.00000000       0.00000000 </v>
   <v name="genvec1">      0.12500000       0.00000000       0.00000000 </v>
   <v name="genvec2">      0.00000000       0.12500000       0.00000000 </v>
   <v name="genvec3">      0.00000000       0.00000000       0.12500000 </v>
   <v name="shift">      0.50000000       0.50000000       0.50000000 </v>
  </generation>
  <varray name="kpointlist" >
   <v>       0.06250000       0.06250000       0.06250000 </v>
   <v>       0.18750000       0.06250000       0.06250000 </v>
   <v>       0.31250000       0.06250000       0.06250000 </v>
   <v>       0.43750000       0.06250000       0.06250000 </v>
   <v>      -0.43750000       0.06250000       0.06250000 </v>
   <v>      -0.31250000       0.06250000       0.06250000 </v>
   <v>      -0.18750000       0.06250000       0.06250000 </v>
   <v>      -0.06250000       0.06250000       0.06250000 </v>
   <v>       0.18750000       0.18750000       0.06250000 </v>
   <v>       0.31250000       0.18750000       0.06250000 </v>
   <v>       0.43750000       0.18750000       0.06250000 </v>
   <v>      -0.43750000       0.18750000       0.06250000 </v>
   <v>      -0.31250000       0.18750000       0.06250000 </v>
   <v>      -0.18750000       0.18750000       0.06250000 </v>
   <v>      -0.06250000       0.18750000       0.06250000 </v>
   <v>       0.31250000       0.31250000       0.06250000 </v>
   <v>       0.43750000       0.31250000       0.06250000 </v>
   <v>      -0.43750000       0.31250000       0.06250000 </v>
   <v>      -0.31250000       0.31250000       0.06250000 </v>
   <v>      -0.18750000       0.31250000       0.06250000 </v>
   <v>      -0.06250000       0.31250000       0.06250000 </v>
   <v>       0.43750000       0.43750000       0.06250000 </v>
   <v>      -0.43750000       0.43750000       0.06250000 </v>
   <v>      -0.31250000       0.43750000       0.06250000 </v>
   <v>      -0.18750000       0.43750000       0.06250000 </v>
   <v>      -0.06250000       0.43750000       0.06250000 </v>
   <v>      -0.43750000      -0.43750000       0.06250000 </v>
   <v>      -0.31250000      -0.43750000       0.06250000 </v>
   <v>      -0.18750000      -0.43750000       0.06250000 </v>
   <v>      -0.31250000      -0.31250000       0.06250000 </v>
   <v>      -0.18750000      -0.31250000       0.06250000 </v>
   <v>      -0.18750000      -0.18750000       0.06250000 </v>
   <v>       0.18750000       0.18750000       0.18750000 </v>
   <v>       0.31250000       0.18750000       0.18750000 </v>
   <v>       0.43750000       0.18750000       0.18750000 </v>
   <v>      -0.43750000       0.18750000       0.18750000 </v>
   <v>      -0.31250000       0.18750000       0.18750000 </v>
   <v>      -0.18750000       0.18750000       0.18750000 </v>
   <v>       0.31250000       0.31250000       0.18750000 </v>
   <v>       0.43750000       0.31250000       0.18750000 </v>
   <v>      -0.43750000       0.31250000       0.18750000 </v>
   <v>      -0.31250000       0.31250000       0.18750000 </v>
   <v>      -0.18750000       0.31250000       0.18750000 </v>
   <v>       0.43750000       0.43750000       0.18750000 </v>
   <v>      -0.43750000       0.43750000       0.18750000 </v>
   <v>      -0.31250000       0.43750000       0.18750000 </v>
   <v>      -0.18750000       0.43750000       0.18750000 </v>
   <v>      -0.43750000      -0.43750000       0.18750000 </v>
   <v>      -0.31250000      -0.43750000       0.18750000 </v>
   <v>      -0.31250000      -0.31250000       0.18750000 </v>
   <v>       0.31250000       0.31250000       0.31250000 </v>
   <v>       0.43750000       0.31250000       0.31250000 </v>
   <v>      -0.43750000       0.31250000       0.31250000 </v>
   <v>      -0.31250000       0.31250000       0.31250000 </v>
   <v>       0.43750000       0.43750000       0.31250000 </v>
   <v>      -0.43750000       0.43750000       0.31250000 </v>
   <v>      -0.31250000       0.43750000       0.31250000 </v>
   <v>      -0.43750000      -0.43750000       0.31250000 </v>
   <v>       0.43750000       0.43750000       0.43750000 </v>
   <v>      -0.43750000       0.43750000       0.43750000 </v>
  </varray>
  <varray name="weights" >
   <v>       0.00390625 </v>
   <v>       0.01171875 </v>
   <v>       0.01171875 </v>
   <v>       0.01171875 </v>
   <v>       0.01171875 </v>
   <v>       0.01171875 </v>
   <v>       0.01171875 </v>
   <v>       0.01171875 </v>
   <v>       0.01171875 </v>
   <v>       0.02343750 </v>
   <v>       0.02343750 </v>
   <v>       0.02343750 </v>
   <v>       0.02343750 </v>
   <v>       0.02343750 </v>
   <v>       0.02343750 </v>
   <v>       0.01171875 </v>
   <v>       0.02343750 </v>
   <v>       0.02343750 </v>
   <v>       0.02343750 </v>
   <v>       0.02343750 </v>
   <v>       0.02343750 </v>
   <v>       0.01171875 </v>
   <v>       0.02343750 </v>
   <v>       0.02343750 </v>
   <v>       0.02343750 </v>
   <v>       0.02343750 </v>
   <v>       0.01171875 </v>
   <v>       0.02343750 </v>
   <v>       0.02343750 </v>
   <v>       0.01171875 </v>
   <v>       0.02343750 </v>
   <v>       0.01171875 </v>
   <v>       0.00390625 </v>
   <v>       0.01171875 </v>
   <v>       0.01171875 </v>
   <v>       0.01171875 </v>
   <v>       0.01171875 </v>
   <v>       0.01171875 </v>
   <v>       0.01171875 </v>
   <v>       0.02343750 </v>
   <v>       0.02343750 </v>
   <v>       0.02343750 </v>
   <v>       0.02343750 </v>
   <v>       0.01171875 </v>
   <v>       0.02343750 </v>
   <v>       0.02343750 </v>
   <v>       0.02343750 </v>
   <v>       0.01171875 </v>
   <v>       0.02343750 </v>
   <v>       0.01171875 </v>
   <v>       0.00390625 </v>
   <v>       0.01171875 </v>
   <v>       0.01171875 </v>
   <v>       0.01171875 </v>
   <v>       0.01171875 </v>
   <v>       0.02343750 </v>
   <v>       0.02343750 </v>
   <v>       0.01171875 </v>
   <v>       0.00390625 </v>
   <v>       0.01171875 </v>
  </varray>
 </kpoints>
 <parameters>
  <separator name="general" >
   <i type="string" name="SYSTEM">unknown system</i>
   <i type="logical" name="LCOMPAT"> F  </i>
  </separator>
  <separator name="electronic" >
   <i type="string" name="PREC">accura</i>
   <i name="ENMAX">    350.00000000</i>
   <i name="ENAUG">    322.06900000</i>
   <i name="EDIFF">      0.00000100</i>
   <i type="int" name="IALGO">    38</i>
   <i type="int" name="IWAVPR">    11</i>
   <i type="int" name="NBANDS">     8</i>
   <i type="int" name="NBANDSLOW">    -1</i>
   <i type="int" name="NBANDSHIGH">    -1</i>
   <i name="NELECT">      8.00000000</i>
   <i type="int" name="TURBO">     0</i>
   <i type="int" name="IRESTART">     0</i>
   <i type="int" name="NREBOOT">     0</i>
   <i type="int" name="NMIN">     0</i>
   <i name="EREF">      0.00000000</i>
   <separator name="electronic smearing" >
    <i type="int" name="ISMEAR">     0</i>
    <i name="SIGMA">      0.05000000</i>
    <i name="KSPACING">      0.50000000</i>
    <i type="logical" name="KGAMMA"> T  </i>
    <i type="logical" name="KBLOWUP"> T  </i>
   </separator>
   <separator name="electronic projectors" >
    <i type="logical" name="LREAL"> F  </i>
    <v name="ROPT">      0.00000000</v>
    <i type="int" name="LMAXPAW">  -100</i>
    <i type="int" name="LMAXMIX">     2</i>
    <i type="logical" name="NLSPLINE"> F  </i>
   </separator>
   <separator name="electronic startup" >
    <i type="int" name="ISTART">     0</i>
    <i type="int" name="ICHARG">     2</i>
    <i type="int" name="INIWAV">     1</i>
   </separator>
   <separator name="electronic spin" >
    <i type="int" name="ISPIN">     1</i>
    <i type="logical" name="LNONCOLLINEAR"> F  </i>
    <v name="MAGMOM">      1.00000000      1.00000000</v>
    <i name="NUPDOWN">     -1.00000000</i>
    <i type="logical" name="LSORBIT"> F  </i>
    <v name="SAXIS">      0.00000000      0.00000000      1.00000000</v>
    <i type="logical" name="LSPIRAL"> F  </i>
    <v name="QSPIRAL">      0.00000000      0.00000000      0.00000000</v>
    <i type="logical" name="LZEROZ"> F  </i>
   </separator>
   <separator name="electronic exchange-correlation" >
    <i type="logical" name="LASPH"> T  </i>
    <i type="logical" name="LMETAGGA"> F  </i>
   </separator>
   <separator name="electronic convergence" >
    <i type="int" name="NELM">    90</i>
    <i type="int" name="NELMDL">    -5</i>
    <i type="int" name="NELMIN">     6</i>
    <i name="ENINI">    350.00000000</i>
    <separator name="electronic convergence detail" >
     <i type="logical" name="LDIAG"> T  </i>
     <i type="logical" name="LSUBROT"> F  </i>
     <i name="WEIMIN">      0.00100000</i>
     <i name="EBREAK">      0.00000003</i>
     <i name="DEPER">      0.30000000</i>
     <i type="int" name="NRMM">     4</i>
     <i name="TIME">      0.40000000</i>
    </separator>
   </separator>
   <separator name="electronic mixer" >
    <i name="AMIX">      0.40000000</i>
    <i name="BMIX">      1.00000000</i>
    <i name="AMIN">      0.10000000</i>
    <i name="AMIX_MAG">      1.60000000</i>
    <i name="BMIX_MAG">      1.00000000</i>
    <separator name="electronic mixer details" >
     <i type="int" name="IMIX">     4</i>
     <i type="logical" name="MIXFIRST"> F  </i>
     <i type="int" name="MAXMIX">   -45</i>
     <i name="WC">    100.00000000</i>
     <i type="int" name="INIMIX">     1</i>
     <i type="int" name="MIXPRE">     1</i>
     <i type="int" name="MREMOVE">     5</i>
    </separator>
   </separator>
   <separator name="electronic dipolcorrection" >
    <i type="logical" name="LDIPOL"> F  </i>
    <i type="logical" name="LMONO"> F  </i>
    <i type="int" name="IDIPOL">     0</i>
    <i name="EPSILON">      1.00000000</i>
    <v name="DIPOL">   -100.00000000   -100.00000000   -100.00000000</v>
    <i name="EFIELD">      0.00000000</i>
   </separator>
  </separator>
  <separator name="grids" >
   <i type="int" name="NGX">    24</i>
   <i type="int" name="NGY">    24</i>
   <i type="int" name="NGZ">    24</i>
   <i type="int" name="NGXF">    48</i>
   <i type="int" name="NGYF">    48</i>
   <i type="int" name="NGZF">    48</i>
   <i type="logical" name="ADDGRID"> T  </i>
  </separator>
  <separator name="ionic" >
   <i type="int" name="NSW">   100</i>
   <i type="int" name="IBRION">     2</i>
   <i type="int" name="MDALGO">     0</i>
   <i type="int" name="ISIF">     3</i>
   <i name="PSTRESS">      0.00000000</i>
   <i name="EDIFFG">     -0.00200000</i>
   <i type="int" name="NFREE">     1</i>
   <i name="POTIM">      0.50000000</i>
   <i name="SMASS">     -3.00000000</i>
   <i name="SCALEE">      1.00000000</i>
  </separator>
  <separator name="ionic md" >
   <i name="TEBEG">      0.00010000</i>
   <i name="TEEND">      0.00010000</i>
   <i type="int" name="NBLOCK">     1</i>
   <i type="int" name="KBLOCK">   100</i>
   <i type="int" name="NPACO">   256</i>
   <i name="APACO">     16.00000000</i>
  </separator>
  <separator name="symmetry" >
   <i type="int" name="ISYM">     2</i>
   <i name="SYMPREC">      0.00001000</i>
  </separator>
  <separator name="dos" >
   <i type="int" name="LORBIT">     0</i>
   <v name="RWIGS">     -1.00000000</v>
   <i type="int" name="NEDOS">   301</i>
   <i name="EMIN">     10.00000000</i>
   <i name="EMAX">    -10.00000000</i>
   <i name="EFERMI">      0.00000000</i>
  </separator>
  <separator name="writing" >
   <i type="int" name="NWRITE">     2</i>
   <i type="logical" name="LWAVE"> F  </i>
   <i type="logical" name="LDOWNSAMPLE"> F  </i>
   <i type="logical" name="LCHARG"> F  </i>
   <i type="logical" name="LPARD"> F  </i>
   <i type="logical" name="LVTOT"> F  </i>
   <i type="logical" name="LVHAR"> F  </i>
   <i type="logical" name="LELF"> F  </i>
   <i type="logical" name="LOPTICS"> F  </i>
   <v name="STM">      0.00000000      0.00000000      0.00000000      0.00000000      0.00000000      0.00000000      0.00000000</v>
  </separator>
  <separator name="performance" >
   <i type="int" name="NPAR">     4</i>
   <i type="int" name="NSIM">     4</i>
   <i type="int" name="NBLK">    -1</i>
   <i type="logical" name="LPLANE"> T  </i>
   <i type="logical" name="LSCALAPACK"> T  </i>
   <i type="logical" name="LSCAAWARE"> F  </i>
   <i type="logical" name="LSCALU"> F  </i>
   <i type="logical" name="LASYNC"> F  </i>
   <i type="logical" name="LORBITALREAL"> F  </i>
  </separator>
  <separator name="miscellaneous" >
   <i type="int" name="IDIOT">     3</i>
   <i type="int" name="PHON_NSTRUCT">    -1</i>
   <i type="logical" name="LMUSIC"> F  </i>
   <v name="POMASS">     28.08500000</v>
   <v name="DARWINR">      0.00000000</v>
   <v name="DARWINV">      1.00000000</v>
   <i type="logical" name="LCORR"> T  </i>
  </separator>
  <i type="logical" name="GGA_COMPAT"> T  </i>
  <i type="logical" name="LBERRY"> F  </i>
  <i type="int" name="ICORELEVEL">     0</i>
  <i type="logical" name="LDAU"> F  </i>
  <i type="int" name="I_CONSTRAINED_M">     0</i>
  <separator name="electronic exchange-correlation" >
   <i type="string" name="GGA">--</i>
   <i type="int" name="VOSKOWN">     0</i>
   <i type="logical" name="LHFCALC"> F  </i>
   <i type="string" name="PRECFOCK"></i>
   <i type="logical" name="LSYMGRAD"> F  </i>
   <i type="logical" name="LHFONE"> F  </i>
   <i type="logical" name="LRHFCALC"> F  </i>
   <i type="logical" name="LTHOMAS"> F  </i>
   <i type="logical" name="LMODELHF"> F  </i>
   <i type="logical" name="LFOCKACE"> F  </i>
   <i name="ENCUT4O">     -1.00000000</i>
   <i type="int" name="EXXOEP">     0</i>
   <i type="int" name="FOURORBIT">     0</i>
   <i name="AEXX">      0.00000000</i>
   <i name="HFALPHA">      0.00000000</i>
   <i name="MCALPHA">      0.00000000</i>
   <i name="ALDAX">      1.00000000</i>
   <i name="AGGAX">      1.00000000</i>
   <i name="ALDAC">      1.00000000</i>
   <i name="AGGAC">      1.00000000</i>
   <i type="int" name="NKREDX">     1</i>
   <i type="int" name="NKREDY">     1</i>
   <i type="int" name="NKREDZ">     1</i>
   <i type="logical" name="SHIFTRED"> F  </i>
   <i type="logical" name="ODDONLY"> F  </i>
   <i type="logical" name="EVENONLY"> F  </i>
   <i type="int" name="LMAXFOCK">     0</i>
   <i type="int" name="NMAXFOCKAE">     0</i>
   <i type="logical" name="LFOCKAEDFT"> F  </i>
   <i name="HFSCREEN">      0.00000000</i>
   <i name="HFSCREENC">      0.00000000</i>
   <i type="int" name="NBANDSGWLOW">     0</i>
  </separator>
  <separator name="vdW DFT" >
   <i type="logical" name="LUSE_VDW"> F  </i>
   <i name="Zab_VDW">     -0.84910000</i>
   <i name="PARAM1">      0.12340000</i>
   <i name="PARAM2">      1.00000000</i>
   <i name="PARAM3">      0.00000000</i>
  </separator>
  <separator name="model GW" >
   <i type="int" name="MODEL_GW">     0</i>
   <i name="MODEL_EPS0">     12.09885805</i>
   <i name="MODEL_ALPHA">      1.00000000</i>
  </separator>
  <separator name="linear response parameters" >
   <i type="logical" name="LEPSILON"> F  </i>
   <i type="logical" name="LRPA"> F  </i>
   <i type="logical" name="LNABLA"> F  </i>
   <i type="logical" name="LVEL"> F  </i>
   <i type="int" name="KINTER">     0</i>
   <i name="CSHIFT">      0.10000000</i>
   <i name="OMEGAMAX">     -1.00000000</i>
   <i name="DEG_THRESHOLD">      0.00200000</i>
   <i name="RTIME">     -0.10000000</i>
   <i name="WPLASMAI">      0.00000000</i>
   <v name="DFIELD">      0.00000000      0.00000000      0.00000000</v>
   <v name="WPLASMA">      0.00000000      0.00000000      0.00000000      0.00000000      0.00000000      0.00000000      0.00000000      0.00000000      0.00000000</v>
  </separator>
  <separator name="orbital magnetization" >
   <i type="logical" name="NUCIND"> F  </i>
   <v name="MAGPOS">      0.00000000      0.00000000      0.00000000</v>
   <i type="logical" name="LNICSALL"> T  </i>
   <i type="logical" name="ORBITALMAG"> F  </i>
   <i type="logical" name="LMAGBLOCH"> F  </i>
   <i type="logical" name="LCHIMAG"> F  </i>
   <i type="logical" name="LGAUGE"> T  </i>
   <i type="int" name="MAGATOM">     0</i>
   <v name="MAGDIPOL">      0.00000000      0.00000000      0.00000000</v>
   <v name="AVECCONST">      0.00000000      0.00000000      0.00000000</v>
  </separator>
  <separator name="response functions" >
   <i type="logical" name="LFINITE_TEMPERATURE"> F  </i>
   <i type="logical" name="LADDER"> F  </i>
   <i type="logical" name="LRPAFORCE"> F  </i>
   <i type="logical" name="LFXC"> F  </i>
   <i type="logical" name="LHARTREE"> T  </i>
   <i type="int" name="IBSE">     0</i>
   <v type="int" name="KPOINT">    -1     0     0     0</v>
   <i type="logical" name="LTCTC"> F  </i>
   <i type="logical" name="LTCTE"> F  </i>
   <i type="logical" name="LTETE"> F  </i>
   <i type="logical" name="LTRIPLET"> F  </i>
   <i type="logical" name="LFXCEPS"> F  </i>
   <i type="logical" name="LFXHEG"> F  </i>
   <i type="int" name="NATURALO">     2</i>
   <i type="logical" name="LHOLEGF"> F  </i>
   <i type="logical" name="L2ORDER"> F  </i>
   <i type="logical" name="LDMP1"> F  </i>
   <i type="logical" name="LMP2LT"> F  </i>
   <i type="logical" name="LSMP2LT"> F  </i>
   <i type="logical" name="LGWLF"> F  </i>
   <i name="ENCUTGW">     -2.00000000</i>
   <i name="ENCUTGWSOFT">     -2.00000000</i>
   <i name="ENCUTLF">     -1.00000000</i>
   <i type="logical" name="LESF_SPLINES"> F  </i>
   <i type="int" name="LMAXMP2">    -1</i>
   <i name="SCISSOR">      0.00000000</i>
   <i type="int" name="NOMEGA">     0</i>
   <i type="int" name="NOMEGAR">     0</i>
   <i type="int" name="NBANDSGW">    -1</i>
   <i type="int" name="NBANDSO">    -1</i>
   <i type="int" name="NBANDSV">    -1</i>
   <i type="int" name="NELM">    90</i>
   <i type="int" name="NELMHF">     1</i>
   <i type="int" name="DIM">     3</i>
   <i type="int" name="IESPILON">     4</i>
   <i type="int" name="ANTIRES">     0</i>
   <i name="OMEGAMAX">    -30.00000000</i>
   <i name="OMEGAMIN">    -30.00000000</i>
   <i name="OMEGATL">   -200.00000000</i>
   <i type="int" name="OMEGAGRID">     0</i>
   <i name="CSHIFT">     -0.10000000</i>
   <i type="logical" name="LSELFENERGY"> F  </i>
   <i type="logical" name="LSPECTRAL"> F  </i>
   <i type="logical" name="LSPECTRALGW"> F  </i>
   <i type="logical" name="LSINGLES"> F  </i>
   <i type="logical" name="LFERMIGW"> F  </i>
   <i type="logical" name="ODDONLYGW"> F  </i>
   <i type="logical" name="EVENONLYGW"> F  </i>
   <i type="int" name="NKREDLFX">     1</i>
   <i type="int" name="NKREDLFY">     1</i>
   <i type="int" name="NKREDLFZ">     1</i>
   <i type="int" name="MAXMEM">  2800</i>
   <i type="int" name="TELESCOPE">     0</i>
   <i type="int" name="NTAUPAR">    -1</i>
   <i type="int" name="NOMEGAPAR">    -1</i>
   <i name="DAMP_NEWTON">      0.80000001</i>
   <i name="LAMBDA">      1.00000000</i>
  </separator>
  <separator name="External order field" >
   <i name="OFIELD_KAPPA">      0.00000000</i>
   <v name="OFIELD_K">      0.00000000      0.00000000      0.00000000</v>
   <i name="OFIELD_Q6_NEAR">      0.00000000</i>
   <i name="OFIELD_Q6_FAR">      0.00000000</i>
   <i name="OFIELD_A">      0.00000000</i>
  </separator>
 </parameters>
 <atominfo>
  <atoms>       2 </atoms>
  <types>       1 </types>
  <array name="atoms" >
   <dimension dim="1">ion</dimension>
   <field type="string">element</field>
   <field type="int">atomtype</field>
   <set>
    <rc><c>Si</c><c>   1</c></rc>
    <rc><c>Si</c><c>   1</c></rc>
   </set>
  </array>
  <array name="atomtypes" >
   <dimension dim="1">type</dimension>
   <field type="int">atomspertype</field>
   <field type="string">element</field>
   <field>mass</field>
   <field>valence</field>
   <field type="string">pseudopotential</field>
   <set>
    <rc><c>   2</c><c>Si</c><c>     28.08500000</c><c>      4.00000000</c><c>  PAW_PBE Si 05Jan2001                  </c></rc>
   </set>
  </array>
 </atominfo>
 <structure name="initialpos" >
  <crystal>
   <varray name="basis" >
    <v>       3.33357300       0.00000000       1.92463900 </v>
    <v>       1.11119100       3.14292400       1.92463900 </v>
    <v>       0.00000000       0.00000000       3.84927800 </v>
   </varray>
   <i name="volume">     40.32952685 </i>
   <varray name="rec_basis" >
    <v>       0.29997843      -0.10605835       0.00000000 </v>
    <v>       0.00000000       0.31817505       0.00000000 </v>
    <v>      -0.14998922      -0.10605835       0.25978898 </v>
   </varray>
  </crystal>
  <varray name="positions" >
   <v>       0.87500000       0.87500000       0.87500000 </v>
   <v>       0.12500000       0.12500000       0.12500000 </v>
  </varray>
 </structure>
 <calculation>
  <scstep>
   <time name="dav">    0.48    0.48</time>
   <time name="total">    0.69    0.70</time>
   <energy>
    <i name="alphaZ">      3.33880741 </i>
    <i name="ewald">   -227.98820643 </i>
    <i name="hartreedc">    -11.11484531 </i>
    <i name="XCdc">    -18.63153637 </i>
    <i name="pawpsdc">    176.24759923 </i>
    <i name="pawaedc">   -141.06103558 </i>
    <i name="eentropy">     -0.00129248 </i>
    <i name="bandstr">     14.15418645 </i>
    <i name="atom">    206.13125414 </i>
    <i name="e_fr_energy">      1.07493106 </i>
    <i name="e_wo_entrp">      1.07622354 </i>
    <i name="e_0_energy">      1.07557730 </i>
   </energy>
  </scstep>
  <scstep>
   <time name="dav">    0.70    0.72</time>
   <time name="total">    0.70    0.72</time>
   <energy>
    <i name="e_fr_energy">    -10.87852383 </i>
    <i name="e_wo_entrp">    -10.87852383 </i>
    <i name="e_0_energy">    -10.87852383 </i>
   </energy>
  </scstep>
  <scstep>
   <time name="dav">    0.60    0.61</time>
   <time name="total">    0.60    0.61</time>
   <energy>
    <i name="e_fr_energy">    -11.02095666 </i>
    <i name="e_wo_entrp">    -11.02095666 </i>
    <i name="e_0_energy">    -11.02095666 </i>
   </energy>
  </scstep>
  <scstep>
   <time name="dav">    0.70    0.71</time>
   <time name="total">    0.70    0.71</time>
   <energy>
    <i name="e_fr_energy">    -11.02145478 </i>
    <i name="e_wo_entrp">    -11.02145478 </i>
    <i name="e_0_energy">    -11.02145478 </i>
   </energy>
  </scstep>
  <scstep>
   <time name="dav">    0.63    0.64</time>
   <time name="total">    0.69    0.70</time>
   <energy>
    <i name="e_fr_energy">    -11.02145514 </i>
    <i name="e_wo_entrp">    -11.02145514 </i>
    <i name="e_0_energy">    -11.02145514 </i>
   </energy>
  </scstep>
  <scstep>
   <time name="dav">    0.57    0.57</time>
   <time name="total">    0.83    0.84</time>
   <energy>
    <i name="e_fr_energy">    -10.89994984 </i>
    <i name="e_wo_entrp">    -10.89994984 </i>
    <i name="e_0_energy">    -10.89994984 </i>
   </energy>
  </scstep>
  <scstep>
   <time name="dav">    0.58    0.59</time>
   <time name="total">    0.84    0.85</time>
   <energy>
    <i name="e_fr_energy">    -10.84440040 </i>
    <i name="e_wo_entrp">    -10.84440040 </i>
    <i name="e_0_energy">    -10.84440040 </i>
   </energy>
  </scstep>
  <scstep>
   <time name="dav">    0.55    0.55</time>
   <time name="total">    0.80    0.82</time>
   <energy>
    <i name="e_fr_energy">    -10.84546891 </i>
    <i name="e_wo_entrp">    -10.84546891 </i>
    <i name="e_0_energy">    -10.84546891 </i>
   </energy>
  </scstep>
  <scstep>
   <time name="dav">    0.70    0.70</time>
   <time name="total">    0.96    0.97</time>
   <energy>
    <i name="e_fr_energy">    -10.84565574 </i>
    <i name="e_wo_entrp">    -10.84565574 </i>
    <i name="e_0_energy">    -10.84565574 </i>
   </energy>
  </scstep>
  <scstep>
   <time name="dav">    0.55    0.55</time>
   <time name="total">    0.81    0.82</time>
   <energy>
    <i name="e_fr_energy">    -10.84568254 </i>
    <i name="e_wo_entrp">    -10.84568254 </i>
    <i name="e_0_energy">    -10.84568254 </i>
   </energy>
  </scstep>
  <scstep>
   <time name="dav">    0.65    0.65</time>
   <time name="total">    0.85    0.86</time>
   <energy>
    <i name="alphaZ">      3.33880741 </i>
    <i name="ewald">   -227.98820643 </i>
    <i name="hartreedc">    -15.00440001 </i>
    <i name="XCdc">    -17.99570716 </i>
    <i name="pawpsdc">    864.80919579 </i>
    <i name="pawaedc">   -829.84074864 </i>
    <i name="eentropy">     -0.00000000 </i>
    <i name="bandstr">      5.70412270 </i>
    <i name="atom">    206.13125414 </i>
    <i name="e_fr_energy">    -10.84568220 </i>
    <i name="e_wo_entrp">    -10.84568220 </i>
    <i name="e_0_energy">    -10.84568220 </i>
   </energy>
  </scstep>
  <structure>
   <crystal>
    <varray name="basis" >
     <v>       3.33357300       0.00000000       1.92463900 </v>
     <v>       1.11119100       3.14292400       1.92463900 </v>
     <v>       0.00000000       0.00000000       3.84927800 </v>
    </varray>
    <i name="volume">     40.32952685 </i>
    <varray name="rec_basis" >
     <v>       0.29997843      -0.10605835       0.00000000 </v>
     <v>       0.00000000       0.31817505       0.00000000 </v>
     <v>      -0.14998922      -0.10605835       0.25978898 </v>
    </varray>
   </crystal>
   <varray name="positions" >
    <v>       0.87500000       0.87500000       0.87500000 </v>
    <v>       0.12500000       0.12500000       0.12500000 </v>
   </varray>
  </structure>
  <varray name="forces" >
   <v>      -0.00000000       0.00000000      -0.00000000 </v>
   <v>       0.00000000      -0.00000000       0.00000000 </v>
  </varray>
  <varray name="stress" >
   <v>      12.13545650       0.00000000      -0.00000000 </v>
   <v>       0.00000000      12.13546603      -0.00000000 </v>
   <v>      -0.00000000       0.00000000      12.13545311 </v>
  </varray>
  <energy>
   <i name="e_fr_energy">    -10.84568220 </i>
   <i name="e_wo_entrp">    -10.84568220 </i>
   <i name="e_0_energy">    -10.84568220 </i>
  </energy>
  <time name="totalsc">    9.94   10.14</time>
 </calculation>
 <calculation>
  <scstep>
   <time name="dav">    0.63    0.63</time>
   <time name="total">    0.89    0.89</time>
   <energy>
    <i name="alphaZ">      3.26607738 </i>
    <i name="ewald">   -226.32059826 </i>
    <i name="hartreedc">    -14.89624066 </i>
    <i name="XCdc">    -18.10332656 </i>
    <i name="pawpsdc">    864.77495954 </i>
    <i name="pawaedc">   -829.80652054 </i>
    <i name="eentropy">     -0.00000000 </i>
    <i name="bandstr">      4.10493333 </i>
    <i name="atom">    206.13125414 </i>
    <i name="e_fr_energy">    -10.84946162 </i>
    <i name="e_wo_entrp">    -10.84946162 </i>
    <i name="e_0_energy">    -10.84946162 </i>
   </energy>
  </scstep>
  <scstep>
   <time name="dav">    0.65    0.65</time>
   <time name="total">    0.92    0.93</time>
   <energy>
    <i name="e_fr_energy">    -10.84769637 </i>
    <i name="e_wo_entrp">    -10.84769637 </i>
    <i name="e_0_energy">    -10.84769637 </i>
   </energy>
  </scstep>
  <scstep>
   <time name="dav">    0.57    0.57</time>
   <time name="total">    0.84    0.85</time>
   <energy>
    <i name="e_fr_energy">    -10.84676613 </i>
    <i name="e_wo_entrp">    -10.84676613 </i>
    <i name="e_0_energy">    -10.84676613 </i>
   </energy>
  </scstep>
  <scstep>
   <time name="dav">    0.71    0.71</time>
   <time name="total">    0.97    0.99</time>
   <energy>
    <i name="e_fr_energy">    -10.84676610 </i>
    <i name="e_wo_entrp">    -10.84676610 </i>
    <i name="e_0_energy">    -10.84676610 </i>
   </energy>
  </scstep>
  <scstep>
   <time name="dav">    0.56    0.56</time>
   <time name="total">    0.82    0.87</time>
   <energy>
    <i name="e_fr_energy">    -10.84675976 </i>
    <i name="e_wo_entrp">    -10.84675976 </i>
    <i name="e_0_energy">    -10.84675976 </i>
   </energy>
  </scstep>
  <scstep>
   <time name="dav">    0.36    0.36</time>
   <time name="total">    0.57    0.58</time>
   <energy>
    <i name="alphaZ">      3.26607738 </i>
    <i name="ewald">   -226.32059826 </i>
    <i name="hartreedc">    -15.26869052 </i>
    <i name="XCdc">    -18.09607608 </i>
    <i name="pawpsdc">    826.80906952 </i>
    <i name="pawaedc">   -791.82166728 </i>
    <i name="eentropy">     -0.00000000 </i>
    <i name="bandstr">      4.45387116 </i>
    <i name="atom">    206.13125414 </i>
    <i name="e_fr_energy">    -10.84675992 </i>
    <i name="e_wo_entrp">    -10.84675992 </i>
    <i name="e_0_energy">    -10.84675992 </i>
   </energy>
  </scstep>
  <structure>
   <crystal>
    <varray name="basis" >
     <v>       3.35813591       0.00000000       1.93882040 </v>
     <v>       1.11937864       3.16608216       1.93882040 </v>
     <v>      -0.00000000       0.00000000       3.87764079 </v>
    </varray>
    <i name="volume">     41.22759732 </i>
    <varray name="rec_basis" >
     <v>       0.29778425      -0.10528259       0.00000000 </v>
     <v>      -0.00000000       0.31584777      -0.00000000 </v>
     <v>      -0.14889213      -0.10528259       0.25788877 </v>
    </varray>
   </crystal>
   <varray name="positions" >
    <v>       0.87500000       0.87500000       0.87500000 </v>
    <v>       0.12500000       0.12500000       0.12500000 </v>
   </varray>
  </structure>
  <varray name="forces" >
   <v>       0.00000000      -0.00000000       0.00000000 </v>
   <v>      -0.00000000       0.00000000      -0.00000000 </v>
  </varray>
  <varray name="stress" >
   <v>      -7.74801809       0.00000000      -0.00000000 </v>
   <v>       0.00000000      -7.74802426       0.00000000 </v>
   <v>      -0.00000000       0.00000000      -7.74801589 </v>
  </varray>
  <energy>
   <i name="e_fr_energy">    -10.84675992 </i>
   <i name="e_wo_entrp">    -10.84675992 </i>
   <i name="e_0_energy">    -10.84675992 </i>
  </energy>
  <time name="totalsc">    6.39    6.59</time>
 </calculation>
 <calculation>
  <scstep>
   <time name="dav">    0.57    0.57</time>
   <time name="total">    0.83    0.83</time>
   <energy>
    <i name="alphaZ">      3.29543844 </i>
    <i name="ewald">   -226.99676079 </i>
    <i name="hartreedc">    -15.31508851 </i>
    <i name="XCdc">    -18.05260752 </i>
    <i name="pawpsdc">    824.87531590 </i>
    <i name="pawaedc">   -789.88802270 </i>
    <i name="eentropy">     -0.00000000 </i>
    <i name="bandstr">      5.10237597 </i>
    <i name="atom">    206.13125414 </i>
    <i name="e_fr_energy">    -10.84809507 </i>
    <i name="e_wo_entrp">    -10.84809507 </i>
    <i name="e_0_energy">    -10.84809507 </i>
   </energy>
  </scstep>
  <scstep>
   <time name="dav">    0.65    0.65</time>
   <time name="total">    0.91    0.91</time>
   <energy>
    <i name="e_fr_energy">    -10.84780383 </i>
    <i name="e_wo_entrp">    -10.84780383 </i>
    <i name="e_0_energy">    -10.84780383 </i>
   </energy>
  </scstep>
  <scstep>
   <time name="dav">    0.57    0.57</time>
   <time name="total">    0.83    0.85</time>
   <energy>
    <i name="e_fr_energy">    -10.84765657 </i>
    <i name="e_wo_entrp">    -10.84765657 </i>
    <i name="e_0_energy">    -10.84765657 </i>
   </energy>
  </scstep>
  <scstep>
   <time name="dav">    0.68    0.68</time>
   <time name="total">    0.94    0.95</time>
   <energy>
    <i name="e_fr_energy">    -10.84765717 </i>
    <i name="e_wo_entrp">    -10.84765717 </i>
    <i name="e_0_energy">    -10.84765717 </i>
   </energy>
  </scstep>
  <scstep>
   <time name="dav">    0.53    0.53</time>
   <time name="total">    0.79    0.80</time>
   <energy>
    <i name="e_fr_energy">    -10.84765893 </i>
    <i name="e_wo_entrp">    -10.84765893 </i>
    <i name="e_0_energy">    -10.84765893 </i>
   </energy>
  </scstep>
  <scstep>
   <time name="dav">    0.35    0.35</time>
   <time name="total">    0.56    0.57</time>
   <energy>
    <i name="alphaZ">      3.29543844 </i>
    <i name="ewald">   -226.99676079 </i>
    <i name="hartreedc">    -15.16219680 </i>
    <i name="XCdc">    -18.05537274 </i>
    <i name="pawpsdc">    840.67735041 </i>
    <i name="pawaedc">   -805.69764321 </i>
    <i name="eentropy">     -0.00000000 </i>
    <i name="bandstr">      4.96027167 </i>
    <i name="atom">    206.13125414 </i>
    <i name="e_fr_energy">    -10.84765888 </i>
    <i name="e_wo_entrp">    -10.84765888 </i>
    <i name="e_0_energy">    -10.84765888 </i>
   </energy>
  </scstep>
  <structure>
   <crystal>
    <varray name="basis" >
     <v>       3.34813293       0.00000000       1.93304517 </v>
     <v>       1.11604431       3.15665125       1.93304517 </v>
     <v>      -0.00000000       0.00000000       3.86609035 </v>
    </varray>
    <i name="volume">     40.86027575 </i>
    <varray name="rec_basis" >
     <v>       0.29867392      -0.10559714       0.00000000 </v>
     <v>      -0.00000000       0.31679141      -0.00000000 </v>
     <v>      -0.14933696      -0.10559714       0.25865924 </v>
    </varray>
   </crystal>
   <varray name="positions" >
    <v>       0.87500000       0.87500000       0.87500000 </v>
    <v>       0.12500000       0.12500000       0.12500000 </v>
   </varray>
  </structure>
  <varray name="forces" >
   <v>       0.00000000       0.00000000       0.00000000 </v>
   <v>      -0.00000000      -0.00000000      -0.00000000 </v>
  </varray>
  <varray name="stress" >
   <v>       0.06902289      -0.00000000       0.00000000 </v>
   <v>       0.00000000       0.06902294       0.00000000 </v>
   <v>       0.00000000       0.00000000       0.06902287 </v>
  </varray>
  <energy>
   <i name="e_fr_energy">    -10.84765888 </i>
   <i name="e_wo_entrp">    -10.84765888 </i>
   <i name="e_0_energy">    -10.84765888 </i>
  </energy>
  <time name="totalsc">    6.10    6.27</time>
  <eigenvalues>
   <array>
    <dimension dim="1">band</dimension>
    <dimension dim="2">kpoint</dimension>
    <dimension dim="3">spin</dimension>
    <field>eigene</field>
    <field>occ</field>
    <set>
     <set comment="spin 1">
      <set comment="kpoint 1">
       <r>   -6.1463    1.0000 </r>
       <r>    5.0925    1.0000 </r>
       <r>    5.5411    1.0000 </r>
       <r>    5.5411    1.0000 </r>
       <r>    8.2220    0.0000 </r>
       <r>    8.3026    0.0000 </r>
       <r>    8.3026    0.0000 </r>
       <r>    9.1695    0.0000 </r>
      </set>
      <set comment="kpoint 2">
       <r>   -5.8798    1.0000 </r>
       <r>    3.5925    1.0000 </r>
       <r>    4.7395    1.0000 </r>
       <r>    5.4242    1.0000 </r>
       <r>    8.2755    0.0000 </r>
       <r>    8.5461    0.0000 </r>
       <r>    8.8362    0.0000 </r>
       <r>   10.6373    0.0000 </r>
      </set>
      <set comment="kpoint 3">
       <r>   -5.2368    1.0000 </r>
       <r>    1.3788    1.0000 </r>
       <r>    4.2543    1.0000 </r>
       <r>    4.9650    1.0000 </r>
       <r>    7.8290    0.0000 </r>
       <r>    9.0359    0.0000 </r>
       <r>    9.3203    0.0000 </r>
       <r>   12.1719    0.0000 </r>
      </set>
      <set comment="kpoint 4">
       <r>   -4.3402    1.0000 </r>
       <r>   -0.4967    1.0000 </r>
       <r>    4.0391    1.0000 </r>
       <r>    4.5605    1.0000 </r>
       <r>    7.5148    0.0000 </r>
       <r>    9.0972    0.0000 </r>
       <r>    9.1107    0.0000 </r>
       <r>   13.4128    0.0000 </r>
      </set>
      <set comment="kpoint 5">
       <r>   -3.8952    1.0000 </r>
       <r>   -1.1926    1.0000 </r>
       <r>    4.0885    1.0000 </r>
       <r>    4.3437    1.0000 </r>
       <r>    7.4349    0.0000 </r>
       <r>    8.9042    0.0000 </r>
       <r>    9.1735    0.0000 </r>
       <r>   13.4837    0.0000 </r>
      </set>
      <set comment="kpoint 6">
       <r>   -4.6472    1.0000 </r>
       <r>    0.0578    1.0000 </r>
       <r>    4.3641    1.0000 </r>
       <r>    4.3734    1.0000 </r>
       <r>    7.6009    0.0000 </r>
       <r>    8.9117    0.0000 </r>
       <r>    9.4310    0.0000 </r>
       <r>   12.5312    0.0000 </r>
      </set>
      <set comment="kpoint 7">
       <r>   -5.4889    1.0000 </r>
       <r>    2.1047    1.0000 </r>
       <r>    4.6385    1.0000 </r>
       <r>    4.8352    1.0000 </r>
       <r>    7.9556    0.0000 </r>
       <r>    8.7759    0.0000 </r>
       <r>    9.4893    0.0000 </r>
       <r>   11.3503    0.0000 </r>
      </set>
      <set comment="kpoint 8">
       <r>   -6.0123    1.0000 </r>
       <r>    4.3429    1.0000 </r>
       <r>    5.1174    1.0000 </r>
       <r>    5.2753    1.0000 </r>
       <r>    8.0181    0.0000 </r>
       <r>    8.5898    0.0000 </r>
       <r>    8.8800    0.0000 </r>
       <r>    9.9057    0.0000 </r>
      </set>
      <set comment="kpoint 9">
       <r>   -5.7457    1.0000 </r>
       <r>    3.4509    1.0000 </r>
       <r>    4.5630    1.0000 </r>
       <r>    4.6460    1.0000 </r>
       <r>    7.5990    0.0000 </r>
       <r>    9.3461    0.0000 </r>
       <r>    9.7343    0.0000 </r>
       <r>   10.2485    0.0000 </r>
      </set>
      <set comment="kpoint 10">
       <r>   -5.2243    1.0000 </r>
       <r>    1.9565    1.0000 </r>
       <r>    3.5986    1.0000 </r>
       <r>    4.3888    1.0000 </r>
       <r>    7.7668    0.0000 </r>
       <r>    9.4564    0.0000 </r>
       <r>   10.0687    0.0000 </r>
       <r>   10.5269    0.0000 </r>
      </set>
      <set comment="kpoint 11">
       <r>   -4.3846    1.0000 </r>
       <r>    0.1093    1.0000 </r>
       <r>    3.1058    1.0000 </r>
       <r>    3.9808    1.0000 </r>
       <r>    7.9600    0.0000 </r>
       <r>    9.3814    0.0000 </r>
       <r>   10.5547    0.0000 </r>
       <r>   10.8185    0.0000 </r>
      </set>
      <set comment="kpoint 12">
       <r>   -3.6281    1.0000 </r>
       <r>   -1.0923    1.0000 </r>
       <r>    2.8184    1.0000 </r>
       <r>    3.8883    1.0000 </r>
       <r>    8.0298    0.0000 </r>
       <r>    9.0753    0.0000 </r>
       <r>   10.4002    0.0000 </r>
       <r>   12.8350    0.0000 </r>
      </set>
      <set comment="kpoint 13">
       <r>   -4.0828    1.0000 </r>
       <r>   -0.4068    1.0000 </r>
       <r>    2.7456    1.0000 </r>
       <r>    4.1715    1.0000 </r>
       <r>    8.3098    0.0000 </r>
       <r>    8.9876    0.0000 </r>
       <r>   10.3463    0.0000 </r>
       <r>   12.0872    0.0000 </r>
      </set>
      <set comment="kpoint 14">
       <r>   -4.9779    1.0000 </r>
       <r>    1.3104    1.0000 </r>
       <r>    3.0460    1.0000 </r>
       <r>    4.6762    1.0000 </r>
       <r>    8.6210    0.0000 </r>
       <r>    8.9249    0.0000 </r>
       <r>   10.2248    0.0000 </r>
       <r>   10.6953    0.0000 </r>
      </set>
      <set comment="kpoint 15">
       <r>   -5.6161    1.0000 </r>
       <r>    2.7792    1.0000 </r>
       <r>    4.1659    1.0000 </r>
       <r>    5.0473    1.0000 </r>
       <r>    8.1610    0.0000 </r>
       <r>    8.8267    0.0000 </r>
       <r>    9.5470    0.0000 </r>
       <r>   10.7725    0.0000 </r>
      </set>
      <set comment="kpoint 16">
       <r>   -4.8261    1.0000 </r>
       <r>    1.4540    1.0000 </r>
       <r>    3.4580    1.0000 </r>
       <r>    3.5791    1.0000 </r>
       <r>    6.7918    0.0000 </r>
       <r>    8.4438    0.0000 </r>
       <r>   11.5879    0.0000 </r>
       <r>   11.7304    0.0000 </r>
      </set>
      <set comment="kpoint 17">
       <r>   -4.0789    1.0000 </r>
       <r>    0.2237    1.0000 </r>
       <r>    2.6756    1.0000 </r>
       <r>    3.2343    1.0000 </r>
       <r>    7.1042    0.0000 </r>
       <r>    8.2829    0.0000 </r>
       <r>   11.5493    0.0000 </r>
       <r>   12.7188    0.0000 </r>
      </set>
      <set comment="kpoint 18">
       <r>   -3.1866    1.0000 </r>
       <r>   -0.9665    1.0000 </r>
       <r>    1.8402    1.0000 </r>
       <r>    3.2030    1.0000 </r>
       <r>    7.3380    0.0000 </r>
       <r>    9.9370    0.0000 </r>
       <r>   11.1255    0.0000 </r>
       <r>   12.6326    0.0000 </r>
      </set>
      <set comment="kpoint 19">
       <r>   -3.2576    1.0000 </r>
       <r>   -0.8731    1.0000 </r>
       <r>    1.4893    1.0000 </r>
       <r>    3.5453    1.0000 </r>
       <r>    7.7391    0.0000 </r>
       <r>   10.6670    0.0000 </r>
       <r>   11.9691    0.0000 </r>
       <r>   12.2529    0.0000 </r>
      </set>
      <set comment="kpoint 20">
       <r>   -4.1483    1.0000 </r>
       <r>    0.0746    1.0000 </r>
       <r>    2.0899    1.0000 </r>
       <r>    4.1273    1.0000 </r>
       <r>    8.3686    0.0000 </r>
       <r>    9.5672    0.0000 </r>
       <r>   10.9942    0.0000 </r>
       <r>   11.2640    0.0000 </r>
      </set>
      <set comment="kpoint 21">
       <r>   -4.8654    1.0000 </r>
       <r>    0.7091    1.0000 </r>
       <r>    3.7138    1.0000 </r>
       <r>    4.5776    1.0000 </r>
       <r>    8.0872    0.0000 </r>
       <r>    8.9390    0.0000 </r>
       <r>    9.7906    0.0000 </r>
       <r>   11.4681    0.0000 </r>
      </set>
      <set comment="kpoint 22">
       <r>   -3.4292    1.0000 </r>
       <r>   -0.6346    1.0000 </r>
       <r>    2.7734    1.0000 </r>
       <r>    2.9894    1.0000 </r>
       <r>    6.3986    0.0000 </r>
       <r>    7.1057    0.0000 </r>
       <r>   13.8761    0.0000 </r>
       <r>   13.8830    0.0000 </r>
      </set>
      <set comment="kpoint 23">
       <r>   -2.5245    1.0000 </r>
       <r>   -1.6185    1.0000 </r>
       <r>    2.2187    1.0000 </r>
       <r>    2.7472    1.0000 </r>
       <r>    6.8280    0.0000 </r>
       <r>    7.5543    0.0000 </r>
       <r>   13.6248    0.0000 </r>
       <r>   14.6433    0.0000 </r>
      </set>
      <set comment="kpoint 24">
       <r>   -2.6212    1.0000 </r>
       <r>   -1.4536    1.0000 </r>
       <r>    1.4933    1.0000 </r>
       <r>    3.0603    1.0000 </r>
       <r>    7.1912    0.0000 </r>
       <r>    9.7820    0.0000 </r>
       <r>   12.1040    0.0000 </r>
       <r>   13.2481    0.0000 </r>
      </set>
      <set comment="kpoint 25">
       <r>   -3.3737    1.0000 </r>
       <r>   -1.0474    1.0000 </r>
       <r>    2.0425    1.0000 </r>
       <r>    3.6581    1.0000 </r>
       <r>    7.8592    0.0000 </r>
       <r>    9.8180    0.0000 </r>
       <r>   11.3536    0.0000 </r>
       <r>   12.5878    0.0000 </r>
      </set>
      <set comment="kpoint 26">
       <r>   -3.9791    1.0000 </r>
       <r>   -0.8976    1.0000 </r>
       <r>    3.5402    1.0000 </r>
       <r>    4.2437    1.0000 </r>
       <r>    7.8873    0.0000 </r>
       <r>    8.8372    0.0000 </r>
       <r>    9.6114    0.0000 </r>
       <r>   13.1537    0.0000 </r>
      </set>
      <set comment="kpoint 27">
       <r>   -2.5756    1.0000 </r>
       <r>   -1.6359    1.0000 </r>
       <r>    2.6364    1.0000 </r>
       <r>    2.8689    1.0000 </r>
       <r>    6.3942    0.0000 </r>
       <r>    6.7527    0.0000 </r>
       <r>   14.9499    0.0000 </r>
       <r>   15.0223    0.0000 </r>
      </set>
      <set comment="kpoint 28">
       <r>   -3.3441    1.0000 </r>
       <r>   -0.6979    1.0000 </r>
       <r>    2.3752    1.0000 </r>
       <r>    2.9058    1.0000 </r>
       <r>    6.9156    0.0000 </r>
       <r>    7.8040    0.0000 </r>
       <r>   12.5587    0.0000 </r>
       <r>   13.8763    0.0000 </r>
      </set>
      <set comment="kpoint 29">
       <r>   -3.8126    1.0000 </r>
       <r>   -0.4376    1.0000 </r>
       <r>    2.4359    1.0000 </r>
       <r>    3.5016    1.0000 </r>
       <r>    7.6146    0.0000 </r>
       <r>   10.1210    0.0000 </r>
       <r>   10.3470    0.0000 </r>
       <r>   11.5644    0.0000 </r>
      </set>
      <set comment="kpoint 30">
       <r>   -4.1833    1.0000 </r>
       <r>    0.4054    1.0000 </r>
       <r>    3.0474    1.0000 </r>
       <r>    3.2280    1.0000 </r>
       <r>    6.5296    0.0000 </r>
       <r>    7.6807    0.0000 </r>
       <r>   12.7154    0.0000 </r>
       <r>   12.7917    0.0000 </r>
      </set>
      <set comment="kpoint 31">
       <r>   -4.7094    1.0000 </r>
       <r>    1.1109    1.0000 </r>
       <r>    3.0930    1.0000 </r>
       <r>    3.7409    1.0000 </r>
       <r>    7.3946    0.0000 </r>
       <r>    8.9579    0.0000 </r>
       <r>   10.6086    0.0000 </r>
       <r>   11.5922    0.0000 </r>
      </set>
      <set comment="kpoint 32">
       <r>   -5.3489    1.0000 </r>
       <r>    2.4793    1.0000 </r>
       <r>    4.0003    1.0000 </r>
       <r>    4.0318    1.0000 </r>
       <r>    7.1626    0.0000 </r>
       <r>    9.3063    0.0000 </r>
       <r>   10.5420    0.0000 </r>
       <r>   10.7044    0.0000 </r>
      </set>
      <set comment="kpoint 33">
       <r>   -5.7489    1.0000 </r>
       <r>    2.8718    1.0000 </r>
       <r>    5.1027    1.0000 </r>
       <r>    5.1027    1.0000 </r>
       <r>    7.8290    0.0000 </r>
       <r>    8.9171    0.0000 </r>
       <r>    8.9171    0.0000 </r>
       <r>   11.2835    0.0000 </r>
      </set>
      <set comment="kpoint 34">
       <r>   -5.3588    1.0000 </r>
       <r>    2.0354    1.0000 </r>
       <r>    3.5962    1.0000 </r>
       <r>    5.1214    1.0000 </r>
       <r>    8.4820    0.0000 </r>
       <r>    9.0389    0.0000 </r>
       <r>    9.3300    0.0000 </r>
       <r>   11.3321    0.0000 </r>
      </set>
      <set comment="kpoint 35">
       <r>   -4.6157    1.0000 </r>
       <r>    0.6728    1.0000 </r>
       <r>    2.5203    1.0000 </r>
       <r>    4.6188    1.0000 </r>
       <r>    8.3274    0.0000 </r>
       <r>    9.7924    0.0000 </r>
       <r>    9.9965    0.0000 </r>
       <r>   11.6162    0.0000 </r>
      </set>
      <set comment="kpoint 36">
       <r>   -3.7261    1.0000 </r>
       <r>   -0.8084    1.0000 </r>
       <r>    2.3689    1.0000 </r>
       <r>    4.0902    1.0000 </r>
       <r>    7.8281    0.0000 </r>
       <r>    9.9719    0.0000 </r>
       <r>   10.1783    0.0000 </r>
       <r>   13.4642    0.0000 </r>
      </set>
      <set comment="kpoint 37">
       <r>   -3.7106    1.0000 </r>
       <r>   -0.8365    1.0000 </r>
       <r>    2.6670    1.0000 </r>
       <r>    3.7736    1.0000 </r>
       <r>    7.5504    0.0000 </r>
       <r>   10.0452    0.0000 </r>
       <r>   10.5218    0.0000 </r>
       <r>   11.5088    0.0000 </r>
      </set>
      <set comment="kpoint 38">
       <r>   -4.5989    1.0000 </r>
       <r>    0.6692    1.0000 </r>
       <r>    3.2767    1.0000 </r>
       <r>    3.7496    1.0000 </r>
       <r>    7.4827    0.0000 </r>
       <r>    9.6698    0.0000 </r>
       <r>   10.3199    0.0000 </r>
       <r>   10.8959    0.0000 </r>
      </set>
      <set comment="kpoint 39">
       <r>   -5.1034    1.0000 </r>
       <r>    1.3727    1.0000 </r>
       <r>    4.1008    1.0000 </r>
       <r>    4.1659    1.0000 </r>
       <r>    7.8766    0.0000 </r>
       <r>    9.2509    0.0000 </r>
       <r>   10.1565    0.0000 </r>
       <r>   10.5192    0.0000 </r>
      </set>
      <set comment="kpoint 40">
       <r>   -4.4803    1.0000 </r>
       <r>    0.6069    1.0000 </r>
       <r>    2.5768    1.0000 </r>
       <r>    3.9714    1.0000 </r>
       <r>    8.3656    0.0000 </r>
       <r>    9.4107    0.0000 </r>
       <r>    9.8881    0.0000 </r>
       <r>   11.4122    0.0000 </r>
      </set>
      <set comment="kpoint 41">
       <r>   -3.5937    1.0000 </r>
       <r>   -0.4895    1.0000 </r>
       <r>    1.7908    1.0000 </r>
       <r>    3.4057    1.0000 </r>
       <r>    8.8176    0.0000 </r>
       <r>    9.3012    0.0000 </r>
       <r>   10.5783    0.0000 </r>
       <r>   12.5022    0.0000 </r>
      </set>
      <set comment="kpoint 42">
       <r>   -3.1087    1.0000 </r>
       <r>   -1.1002    1.0000 </r>
       <r>    1.7946    1.0000 </r>
       <r>    3.0943    1.0000 </r>
       <r>    8.3473    0.0000 </r>
       <r>    9.6297    0.0000 </r>
       <r>   11.3570    0.0000 </r>
       <r>   12.6521    0.0000 </r>
      </set>
      <set comment="kpoint 43">
       <r>   -3.8770    1.0000 </r>
       <r>   -0.0997    1.0000 </r>
       <r>    2.2148    1.0000 </r>
       <r>    3.2727    1.0000 </r>
       <r>    8.0792    0.0000 </r>
       <r>    9.2870    0.0000 </r>
       <r>   10.1640    0.0000 </r>
       <r>   12.6316    0.0000 </r>
      </set>
      <set comment="kpoint 44">
       <r>   -3.9859    1.0000 </r>
       <r>   -0.0432    1.0000 </r>
       <r>    2.5478    1.0000 </r>
       <r>    3.4206    1.0000 </r>
       <r>    7.1017    0.0000 </r>
       <r>    9.1241    0.0000 </r>
       <r>   11.4008    0.0000 </r>
       <r>   11.7144    0.0000 </r>
      </set>
      <set comment="kpoint 45">
       <r>   -3.1861    1.0000 </r>
       <r>   -0.8374    1.0000 </r>
       <r>    1.9723    1.0000 </r>
       <r>    2.7381    1.0000 </r>
       <r>    7.8746    0.0000 </r>
       <r>    8.8835    0.0000 </r>
       <r>   11.0510    0.0000 </r>
       <r>   13.8534    0.0000 </r>
      </set>
      <set comment="kpoint 46">
       <r>   -2.3821    1.0000 </r>
       <r>   -1.5889    1.0000 </r>
       <r>    1.6548    1.0000 </r>
       <r>    2.2386    1.0000 </r>
       <r>    8.9919    0.0000 </r>
       <r>    9.9139    0.0000 </r>
       <r>   10.6067    0.0000 </r>
       <r>   11.6043    0.0000 </r>
      </set>
      <set comment="kpoint 47">
       <r>   -2.9820    1.0000 </r>
       <r>   -1.0436    1.0000 </r>
       <r>    1.6474    1.0000 </r>
       <r>    2.7123    1.0000 </r>
       <r>    9.0881    0.0000 </r>
       <r>    9.5147    0.0000 </r>
       <r>   10.2834    0.0000 </r>
       <r>   12.7606    0.0000 </r>
      </set>
      <set comment="kpoint 48">
       <r>   -2.5449    1.0000 </r>
       <r>   -1.5685    1.0000 </r>
       <r>    1.7591    1.0000 </r>
       <r>    3.0801    1.0000 </r>
       <r>    6.6693    0.0000 </r>
       <r>    8.5673    0.0000 </r>
       <r>   13.5374    0.0000 </r>
       <r>   13.7488    0.0000 </r>
      </set>
      <set comment="kpoint 49">
       <r>   -2.4450    1.0000 </r>
       <r>   -1.5983    1.0000 </r>
       <r>    1.8526    1.0000 </r>
       <r>    2.4532    1.0000 </r>
       <r>    7.7694    0.0000 </r>
       <r>    8.6819    0.0000 </r>
       <r>   12.0492    0.0000 </r>
       <r>   13.1582    0.0000 </r>
      </set>
      <set comment="kpoint 50">
       <r>   -3.2831    1.0000 </r>
       <r>   -0.8000    1.0000 </r>
       <r>    2.0247    1.0000 </r>
       <r>    3.1947    1.0000 </r>
       <r>    6.8186    0.0000 </r>
       <r>    8.7508    0.0000 </r>
       <r>   12.5603    0.0000 </r>
       <r>   12.6171    0.0000 </r>
      </set>
      <set comment="kpoint 51">
       <r>   -4.9966    1.0000 </r>
       <r>    0.6783    1.0000 </r>
       <r>    4.6915    1.0000 </r>
       <r>    4.6915    1.0000 </r>
       <r>    7.3773    0.0000 </r>
       <r>    9.1458    0.0000 </r>
       <r>    9.1458    0.0000 </r>
       <r>   13.2639    0.0000 </r>
      </set>
      <set comment="kpoint 52">
       <r>   -4.5193    1.0000 </r>
       <r>    0.1036    1.0000 </r>
       <r>    3.2321    1.0000 </r>
       <r>    4.6045    1.0000 </r>
       <r>    8.0928    0.0000 </r>
       <r>    9.3691    0.0000 </r>
       <r>    9.4151    0.0000 </r>
       <r>   12.6252    0.0000 </r>
      </set>
      <set comment="kpoint 53">
       <r>   -3.7310    1.0000 </r>
       <r>   -0.4256    1.0000 </r>
       <r>    1.7111    1.0000 </r>
       <r>    4.0263    1.0000 </r>
       <r>    7.7513    0.0000 </r>
       <r>   10.8103    0.0000 </r>
       <r>   10.9828    0.0000 </r>
       <r>   12.3853    0.0000 </r>
      </set>
      <set comment="kpoint 54">
       <r>   -2.9136    1.0000 </r>
       <r>   -1.2034    1.0000 </r>
       <r>    1.3741    1.0000 </r>
       <r>    3.4822    1.0000 </r>
       <r>    7.1355    0.0000 </r>
       <r>   11.0131    0.0000 </r>
       <r>   12.0773    0.0000 </r>
       <r>   12.3564    0.0000 </r>
      </set>
      <set comment="kpoint 55">
       <r>   -4.2066    1.0000 </r>
       <r>   -0.4519    1.0000 </r>
       <r>    3.5673    1.0000 </r>
       <r>    4.0436    1.0000 </r>
       <r>    7.8024    0.0000 </r>
       <r>    9.1513    0.0000 </r>
       <r>    9.8951    0.0000 </r>
       <r>   11.9312    0.0000 </r>
      </set>
      <set comment="kpoint 56">
       <r>   -3.5898    1.0000 </r>
       <r>   -0.8093    1.0000 </r>
       <r>    2.2635    1.0000 </r>
       <r>    3.5698    1.0000 </r>
       <r>    8.5703    0.0000 </r>
       <r>    8.9146    0.0000 </r>
       <r>   11.4543    0.0000 </r>
       <r>   11.6704    0.0000 </r>
      </set>
      <set comment="kpoint 57">
       <r>   -2.7761    1.0000 </r>
       <r>   -1.2682    1.0000 </r>
       <r>    1.4657    1.0000 </r>
       <r>    2.8594    1.0000 </r>
       <r>    8.2188    0.0000 </r>
       <r>   10.4578    0.0000 </r>
       <r>   11.2492    0.0000 </r>
       <r>   11.7785    0.0000 </r>
      </set>
      <set comment="kpoint 58">
       <r>   -3.2329    1.0000 </r>
       <r>   -1.0871    1.0000 </r>
       <r>    1.8719    1.0000 </r>
       <r>    3.5815    1.0000 </r>
       <r>    7.2837    0.0000 </r>
       <r>   10.9744    0.0000 </r>
       <r>   11.2843    0.0000 </r>
       <r>   11.3911    0.0000 </r>
      </set>
      <set comment="kpoint 59">
       <r>   -4.1116    1.0000 </r>
       <r>   -0.9584    1.0000 </r>
       <r>    4.4718    1.0000 </r>
       <r>    4.4718    1.0000 </r>
       <r>    7.1255    0.0000 </r>
       <r>    9.0049    0.0000 </r>
       <r>    9.0049    0.0000 </r>
       <r>   13.3731    0.0000 </r>
      </set>
      <set comment="kpoint 60">
       <r>   -3.7625    1.0000 </r>
       <r>   -1.1330    1.0000 </r>
       <r>    3.2520    1.0000 </r>
       <r>    4.2049    1.0000 </r>
       <r>    7.8345    0.0000 </r>
       <r>    9.1409    0.0000 </r>
       <r>    9.5824    0.0000 </r>
       <r>   13.7648    0.0000 </r>
      </set>
     </set>
    </set>
   </array>
  </eigenvalues>
  <separator name="orbital magnetization" >
   <v name="MAGDIPOLOUT">      0.00000000      0.00000000      0.00000000</v>
  </separator>
  <dos>
   <i name="efermi">      5.76236921 </i>
   <total>
    <array>
     <dimension dim="1">gridpoints</dimension>
     <dimension dim="2">spin</dimension>
     <field>energy</field>
     <field>total</field>
     <field>integrated</field>
     <set>
      <set comment="spin 1">
       <r>    -7.2047     0.0000     0.0000 </r>
       <r>    -7.1271     0.0000     0.0000 </r>
       <r>    -7.0495     0.0000     0.0000 </r>
       <r>    -6.9718     0.0000     0.0000 </r>
       <r>    -6.8942     0.0000     0.0000 </r>
       <r>    -6.8166     0.0000     0.0000 </r>
       <r>    -6.7390     0.0000     0.0000 </r>
       <r>    -6.6614     0.0000     0.0000 </r>
       <r>    -6.5837     0.0000     0.0000 </r>
       <r>    -6.5061     0.0000     0.0000 </r>
       <r>    -6.4285     0.0000     0.0000 </r>
       <r>    -6.3509     0.0000     0.0000 </r>
       <r>    -6.2733     0.0000     0.0000 </r>
       <r>    -6.1957     0.0082     0.0006 </r>
       <r>    -6.1180     0.0715     0.0062 </r>
       <r>    -6.0404     0.0853     0.0128 </r>
       <r>    -5.9628     0.2162     0.0296 </r>
       <r>    -5.8852     0.1541     0.0415 </r>
       <r>    -5.8076     0.1801     0.0555 </r>
       <r>    -5.7300     0.2634     0.0760 </r>
       <r>    -5.6523     0.2192     0.0930 </r>
       <r>    -5.5747     0.4425     0.1273 </r>
       <r>    -5.4971     0.1936     0.1424 </r>
       <r>    -5.4195     0.1915     0.1572 </r>
       <r>    -5.3419     0.3698     0.1859 </r>
       <r>    -5.2642     0.3623     0.2140 </r>
       <r>    -5.1866     0.6581     0.2651 </r>
       <r>    -5.1090     0.2388     0.2837 </r>
       <r>    -5.0314     0.2197     0.3007 </r>
       <r>    -4.9538     0.4981     0.3394 </r>
       <r>    -4.8762     0.4092     0.3711 </r>
       <r>    -4.7985     0.5739     0.4157 </r>
       <r>    -4.7209     0.3105     0.4398 </r>
       <r>    -4.6433     0.6162     0.4876 </r>
       <r>    -4.5657     0.6169     0.5355 </r>
       <r>    -4.4881     0.5411     0.5775 </r>
       <r>    -4.4104     0.5434     0.6197 </r>
       <r>    -4.3328     0.6042     0.6666 </r>
       <r>    -4.2552     0.1993     0.6820 </r>
       <r>    -4.1776     0.5102     0.7216 </r>
       <r>    -4.1000     1.0322     0.8017 </r>
       <r>    -4.0224     0.9961     0.8791 </r>
       <r>    -3.9447     0.7577     0.9379 </r>
       <r>    -3.8671     0.7391     0.9952 </r>
       <r>    -3.7895     0.8042     1.0577 </r>
       <r>    -3.7119     0.9036     1.1278 </r>
       <r>    -3.6343     0.7586     1.1867 </r>
       <r>    -3.5566     1.2126     1.2808 </r>
       <r>    -3.4790     0.2312     1.2987 </r>
       <r>    -3.4014     0.3754     1.3279 </r>
       <r>    -3.3238     0.9493     1.4016 </r>
       <r>    -3.2462     0.9563     1.4758 </r>
       <r>    -3.1686     1.2623     1.5738 </r>
       <r>    -3.0909     0.7726     1.6337 </r>
       <r>    -3.0133     0.3017     1.6572 </r>
       <r>    -2.9357     0.5146     1.6971 </r>
       <r>    -2.8581     0.2675     1.7179 </r>
       <r>    -2.7805     0.2838     1.7399 </r>
       <r>    -2.7028     0.3265     1.7652 </r>
       <r>    -2.6252     0.3084     1.7892 </r>
       <r>    -2.5476     0.8242     1.8531 </r>
       <r>    -2.4700     0.7902     1.9145 </r>
       <r>    -2.3924     0.6895     1.9680 </r>
       <r>    -2.3148     0.3952     1.9987 </r>
       <r>    -2.2371     0.0172     2.0000 </r>
       <r>    -2.1595     0.0000     2.0000 </r>
       <r>    -2.0819     0.0000     2.0000 </r>
       <r>    -2.0043     0.0000     2.0000 </r>
       <r>    -1.9267     0.0000     2.0000 </r>
       <r>    -1.8490     0.0000     2.0000 </r>
       <r>    -1.7714     0.0000     2.0000 </r>
       <r>    -1.6938     0.0283     2.0022 </r>
       <r>    -1.6162     0.8487     2.0681 </r>
       <r>    -1.5386     1.4013     2.1768 </r>
       <r>    -1.4610     0.3889     2.2070 </r>
       <r>    -1.3833     0.3385     2.2333 </r>
       <r>    -1.3057     0.1019     2.2412 </r>
       <r>    -1.2281     0.5604     2.2847 </r>
       <r>    -1.1505     0.6871     2.3380 </r>
       <r>    -1.0729     1.5247     2.4564 </r>
       <r>    -0.9953     1.4115     2.5659 </r>
       <r>    -0.9176     0.8437     2.6314 </r>
       <r>    -0.8400     1.5218     2.7495 </r>
       <r>    -0.7624     1.4925     2.8654 </r>
       <r>    -0.6848     0.5367     2.9070 </r>
       <r>    -0.6072     0.4244     2.9400 </r>
       <r>    -0.5295     0.2071     2.9561 </r>
       <r>    -0.4519     1.1375     3.0443 </r>
       <r>    -0.3743     1.2847     3.1441 </r>
       <r>    -0.2967     0.1564     3.1562 </r>
       <r>    -0.2191     0.0008     3.1563 </r>
       <r>    -0.1415     0.0725     3.1619 </r>
       <r>    -0.0638     0.5223     3.2024 </r>
       <r>     0.0138     0.3561     3.2301 </r>
       <r>     0.0914     0.9130     3.3009 </r>
       <r>     0.1690     0.8506     3.3670 </r>
       <r>     0.2466     0.4509     3.4020 </r>
       <r>     0.3243     0.1577     3.4142 </r>
       <r>     0.4019     0.1371     3.4249 </r>
       <r>     0.4795     0.1575     3.4371 </r>
       <r>     0.5571     0.0539     3.4413 </r>
       <r>     0.6347     0.5391     3.4831 </r>
       <r>     0.7123     0.9536     3.5571 </r>
       <r>     0.7900     0.3641     3.5854 </r>
       <r>     0.8676     0.0070     3.5859 </r>
       <r>     0.9452     0.0000     3.5859 </r>
       <r>     1.0228     0.0038     3.5862 </r>
       <r>     1.1004     0.2278     3.6039 </r>
       <r>     1.1781     0.3550     3.6315 </r>
       <r>     1.2557     0.0545     3.6357 </r>
       <r>     1.3333     0.5184     3.6759 </r>
       <r>     1.4109     0.8951     3.7454 </r>
       <r>     1.4885     1.3242     3.8482 </r>
       <r>     1.5661     0.8363     3.9131 </r>
       <r>     1.6438     0.5262     3.9539 </r>
       <r>     1.7214     0.9204     4.0254 </r>
       <r>     1.7990     1.1441     4.1142 </r>
       <r>     1.8766     1.5733     4.2363 </r>
       <r>     1.9542     0.8578     4.3029 </r>
       <r>     2.0319     1.2712     4.4016 </r>
       <r>     2.1095     1.2365     4.4975 </r>
       <r>     2.1871     0.6251     4.5461 </r>
       <r>     2.2647     1.5870     4.6692 </r>
       <r>     2.3423     0.7060     4.7240 </r>
       <r>     2.4199     0.9689     4.7992 </r>
       <r>     2.4976     1.2081     4.8930 </r>
       <r>     2.5752     0.8944     4.9624 </r>
       <r>     2.6528     0.8766     5.0305 </r>
       <r>     2.7304     1.8177     5.1716 </r>
       <r>     2.8080     2.2730     5.3480 </r>
       <r>     2.8857     1.4404     5.4598 </r>
       <r>     2.9633     0.7653     5.5192 </r>
       <r>     3.0409     0.9485     5.5928 </r>
       <r>     3.1185     2.3427     5.7746 </r>
       <r>     3.1961     1.2106     5.8686 </r>
       <r>     3.2737     1.9995     6.0238 </r>
       <r>     3.3514     0.7317     6.0806 </r>
       <r>     3.4290     0.7733     6.1406 </r>
       <r>     3.5066     1.4616     6.2541 </r>
       <r>     3.5842     2.5880     6.4550 </r>
       <r>     3.6618     1.8157     6.5959 </r>
       <r>     3.7394     1.1894     6.6882 </r>
       <r>     3.8171     0.8580     6.7548 </r>
       <r>     3.8947     0.3977     6.7857 </r>
       <r>     3.9723     0.9059     6.8560 </r>
       <r>     4.0499     1.7093     6.9887 </r>
       <r>     4.1275     1.5940     7.1124 </r>
       <r>     4.2052     1.8004     7.2521 </r>
       <r>     4.2828     1.0625     7.3346 </r>
       <r>     4.3604     0.9049     7.4048 </r>
       <r>     4.4380     0.9918     7.4818 </r>
       <r>     4.5156     0.2972     7.5049 </r>
       <r>     4.5932     1.0746     7.5883 </r>
       <r>     4.6709     1.4479     7.7007 </r>
       <r>     4.7485     0.7952     7.7624 </r>
       <r>     4.8261     0.2607     7.7826 </r>
       <r>     4.9037     0.1884     7.7972 </r>
       <r>     4.9813     0.2191     7.8142 </r>
       <r>     5.0590     0.5229     7.8548 </r>
       <r>     5.1366     0.8276     7.9191 </r>
       <r>     5.2142     0.2477     7.9383 </r>
       <r>     5.2918     0.1950     7.9534 </r>
       <r>     5.3694     0.1139     7.9623 </r>
       <r>     5.4470     0.2074     7.9784 </r>
       <r>     5.5247     0.1414     7.9893 </r>
       <r>     5.6023     0.1289     7.9993 </r>
       <r>     5.6799     0.0084     8.0000 </r>
       <r>     5.7575     0.0000     8.0000 </r>
       <r>     5.8351     0.0000     8.0000 </r>
       <r>     5.9128     0.0000     8.0000 </r>
       <r>     5.9904     0.0000     8.0000 </r>
       <r>     6.0680     0.0000     8.0000 </r>
       <r>     6.1456     0.0000     8.0000 </r>
       <r>     6.2232     0.0000     8.0000 </r>
       <r>     6.3008     0.0021     8.0002 </r>
       <r>     6.3785     0.1829     8.0144 </r>
       <r>     6.4561     0.3968     8.0452 </r>
       <r>     6.5337     0.1871     8.0597 </r>
       <r>     6.6113     0.1491     8.0713 </r>
       <r>     6.6889     0.2139     8.0879 </r>
       <r>     6.7666     0.3899     8.1181 </r>
       <r>     6.8442     0.9203     8.1896 </r>
       <r>     6.9218     0.6162     8.2374 </r>
       <r>     6.9994     0.2598     8.2575 </r>
       <r>     7.0770     0.2991     8.2808 </r>
       <r>     7.1546     1.3286     8.3839 </r>
       <r>     7.2323     0.8322     8.4485 </r>
       <r>     7.3099     0.4289     8.4818 </r>
       <r>     7.3875     0.8316     8.5463 </r>
       <r>     7.4651     0.7613     8.6054 </r>
       <r>     7.5427     0.8697     8.6729 </r>
       <r>     7.6204     1.3523     8.7779 </r>
       <r>     7.6980     0.7702     8.8377 </r>
       <r>     7.7756     1.6869     8.9686 </r>
       <r>     7.8532     2.5774     9.1686 </r>
       <r>     7.9308     1.9192     9.3176 </r>
       <r>     8.0084     1.0751     9.4011 </r>
       <r>     8.0861     1.4102     9.5105 </r>
       <r>     8.1637     1.1107     9.5967 </r>
       <r>     8.2413     0.9235     9.6684 </r>
       <r>     8.3189     1.6768     9.7986 </r>
       <r>     8.3965     1.9149     9.9472 </r>
       <r>     8.4741     0.6534     9.9979 </r>
       <r>     8.5518     0.7298    10.0546 </r>
       <r>     8.6294     1.3257    10.1574 </r>
       <r>     8.7070     0.7825    10.2182 </r>
       <r>     8.7846     0.7808    10.2788 </r>
       <r>     8.8622     2.0771    10.4400 </r>
       <r>     8.9399     2.9239    10.6669 </r>
       <r>     9.0175     2.4281    10.8554 </r>
       <r>     9.0951     1.8743    11.0009 </r>
       <r>     9.1727     1.7750    11.1387 </r>
       <r>     9.2503     0.7346    11.1957 </r>
       <r>     9.3279     1.7063    11.3281 </r>
       <r>     9.4056     1.8987    11.4755 </r>
       <r>     9.4832     1.6154    11.6009 </r>
       <r>     9.5608     1.5442    11.7208 </r>
       <r>     9.6384     1.6342    11.8476 </r>
       <r>     9.7160     0.7474    11.9056 </r>
       <r>     9.7937     1.2050    11.9991 </r>
       <r>     9.8713     1.4695    12.1132 </r>
       <r>     9.9489     1.7718    12.2507 </r>
       <r>    10.0265     0.9768    12.3265 </r>
       <r>    10.1041     0.9602    12.4011 </r>
       <r>    10.1817     1.3316    12.5044 </r>
       <r>    10.2594     1.2032    12.5978 </r>
       <r>    10.3370     1.3135    12.6998 </r>
       <r>    10.4146     1.2797    12.7991 </r>
       <r>    10.4922     0.9532    12.8731 </r>
       <r>    10.5698     1.9803    13.0268 </r>
       <r>    10.6475     2.0227    13.1838 </r>
       <r>    10.7251     1.3788    13.2908 </r>
       <r>    10.8027     0.9865    13.3674 </r>
       <r>    10.8803     0.7715    13.4273 </r>
       <r>    10.9579     0.5025    13.4663 </r>
       <r>    11.0355     1.2573    13.5639 </r>
       <r>    11.1132     0.7813    13.6245 </r>
       <r>    11.1908     0.4324    13.6581 </r>
       <r>    11.2684     0.8899    13.7271 </r>
       <r>    11.3460     1.5543    13.8478 </r>
       <r>    11.4236     1.9472    13.9989 </r>
       <r>    11.5013     1.4645    14.1126 </r>
       <r>    11.5789     1.6559    14.2411 </r>
       <r>    11.6565     1.7416    14.3763 </r>
       <r>    11.7341     0.9062    14.4466 </r>
       <r>    11.8117     0.6792    14.4994 </r>
       <r>    11.8893     0.1515    14.5111 </r>
       <r>    11.9670     0.5065    14.5504 </r>
       <r>    12.0446     0.7676    14.6100 </r>
       <r>    12.1222     1.4041    14.7190 </r>
       <r>    12.1998     0.5736    14.7635 </r>
       <r>    12.2774     0.4875    14.8013 </r>
       <r>    12.3551     0.3481    14.8284 </r>
       <r>    12.4327     0.3834    14.8581 </r>
       <r>    12.5103     0.5411    14.9001 </r>
       <r>    12.5879     1.6338    15.0269 </r>
       <r>    12.6655     2.2445    15.2012 </r>
       <r>    12.7431     1.3325    15.3046 </r>
       <r>    12.8208     1.0241    15.3841 </r>
       <r>    12.8984     0.4646    15.4201 </r>
       <r>    12.9760     0.0225    15.4219 </r>
       <r>    13.0536     0.0024    15.4221 </r>
       <r>    13.1312     0.2914    15.4447 </r>
       <r>    13.2088     0.9192    15.5160 </r>
       <r>    13.2865     0.5900    15.5618 </r>
       <r>    13.3641     0.1752    15.5754 </r>
       <r>    13.4417     0.3873    15.6055 </r>
       <r>    13.5193     0.5805    15.6505 </r>
       <r>    13.5969     0.3908    15.6809 </r>
       <r>    13.6746     0.4469    15.7156 </r>
       <r>    13.7522     0.3140    15.7399 </r>
       <r>    13.8298     0.5757    15.7846 </r>
       <r>    13.9074     1.2840    15.8843 </r>
       <r>    13.9850     0.2815    15.9061 </r>
       <r>    14.0626     0.0016    15.9062 </r>
       <r>    14.1403     0.0000    15.9062 </r>
       <r>    14.2179     0.0000    15.9062 </r>
       <r>    14.2955     0.0000    15.9062 </r>
       <r>    14.3731     0.0000    15.9062 </r>
       <r>    14.4507     0.0000    15.9063 </r>
       <r>    14.5284     0.0003    15.9063 </r>
       <r>    14.6060     0.0874    15.9131 </r>
       <r>    14.6836     0.4392    15.9472 </r>
       <r>    14.7612     0.0767    15.9531 </r>
       <r>    14.8388     0.0005    15.9531 </r>
       <r>    14.9164     0.0520    15.9572 </r>
       <r>    14.9941     0.2818    15.9791 </r>
       <r>    15.0717     0.2452    15.9981 </r>
       <r>    15.1493     0.0246    16.0000 </r>
       <r>    15.2269     0.0000    16.0000 </r>
       <r>    15.3045     0.0000    16.0000 </r>
       <r>    15.3822     0.0000    16.0000 </r>
       <r>    15.4598     0.0000    16.0000 </r>
       <r>    15.5374     0.0000    16.0000 </r>
       <r>    15.6150     0.0000    16.0000 </r>
       <r>    15.6926     0.0000    16.0000 </r>
       <r>    15.7702     0.0000    16.0000 </r>
       <r>    15.8479     0.0000    16.0000 </r>
       <r>    15.9255     0.0000    16.0000 </r>
       <r>    16.0031     0.0000    16.0000 </r>
       <r>    16.0807     0.0000    16.0000 </r>
      </set>
     </set>
    </array>
   </total>
  </dos>
 </calculation>
 <structure name="finalpos" >
  <crystal>
   <varray name="basis" >
    <v>       3.34813293       0.00000000       1.93304517 </v>
    <v>       1.11604431       3.15665125       1.93304517 </v>
    <v>      -0.00000000       0.00000000       3.86609035 </v>
   </varray>
   <i name="volume">     40.86027575 </i>
   <varray name="rec_basis" >
    <v>       0.29867392      -0.10559714       0.00000000 </v>
    <v>      -0.00000000       0.31679141      -0.00000000 </v>
    <v>      -0.14933696      -0.10559714       0.25865924 </v>
   </varray>
  </crystal>
  <varray name="positions" >
   <v>       0.87500000       0.87500000       0.87500000 </v>
   <v>       0.12500000       0.12500000       0.12500000 </v>
  </varray>
 </structure>
</modeling>
