   2   2   0   0
  0.2043015E+02  0.3866091E-09  0.3866092E-09  0.3866091E-09  0.5000000E-15
  1.000000000000000E-004
  CAR 
 unknown system                          
     16.38394159     -7.24867970  301      5.83049915      1.00000000
     -7.249  0.0000E+00  0.0000E+00
     -7.170  0.0000E+00  0.0000E+00
     -7.091  0.0000E+00  0.0000E+00
     -7.012  0.0000E+00  0.0000E+00
     -6.934  0.0000E+00  0.0000E+00
     -6.855  0.0000E+00  0.0000E+00
     -6.776  0.0000E+00  0.0000E+00
     -6.697  0.0000E+00  0.0000E+00
     -6.618  0.0000E+00  0.0000E+00
     -6.540  0.0000E+00  0.0000E+00
     -6.461  0.8156E-19  0.6425E-20
     -6.382  0.6247E-12  0.4921E-13
     -6.303  0.3918E-07  0.3086E-08
     -6.225  0.2375E-04  0.1874E-05
     -6.146  0.3809E-03  0.3188E-04
     -6.067  0.1045E-02  0.1142E-03
     -5.988  0.1398E-02  0.2243E-03
     -5.909  0.1927E-02  0.3761E-03
     -5.831  0.1726E-02  0.5121E-03
     -5.752  0.2726E-02  0.7268E-03
     -5.673  0.2181E-02  0.8986E-03
     -5.594  0.2747E-02  0.1115E-02
     -5.516  0.2987E-02  0.1350E-02
     -5.437  0.3362E-02  0.1615E-02
     -5.358  0.3182E-02  0.1866E-02
     -5.279  0.2776E-02  0.2085E-02
     -5.201  0.4712E-02  0.2456E-02
     -5.122  0.3719E-02  0.2749E-02
     -5.043  0.3830E-02  0.3050E-02
     -4.964  0.3396E-02  0.3318E-02
     -4.885  0.5521E-02  0.3753E-02
     -4.807  0.4118E-02  0.4077E-02
     -4.728  0.5123E-02  0.4481E-02
     -4.649  0.4748E-02  0.4855E-02
     -4.570  0.4791E-02  0.5232E-02
     -4.492  0.4617E-02  0.5596E-02
     -4.413  0.6754E-02  0.6128E-02
     -4.334  0.6649E-02  0.6652E-02
     -4.255  0.4915E-02  0.7039E-02
     -4.176  0.5890E-02  0.7503E-02
     -4.098  0.6520E-02  0.8016E-02
     -4.019  0.7995E-02  0.8646E-02
     -3.940  0.7865E-02  0.9266E-02
     -3.861  0.8084E-02  0.9903E-02
     -3.783  0.1144E-01  0.1080E-01
     -3.704  0.6478E-02  0.1131E-01
     -3.625  0.6416E-02  0.1182E-01
     -3.546  0.1071E-01  0.1266E-01
     -3.467  0.7105E-02  0.1322E-01
     -3.389  0.7508E-02  0.1381E-01
     -3.310  0.7808E-02  0.1443E-01
     -3.231  0.8238E-02  0.1508E-01
     -3.152  0.5905E-02  0.1554E-01
     -3.074  0.3281E-02  0.1580E-01
     -2.995  0.5766E-02  0.1626E-01
     -2.916  0.8231E-02  0.1690E-01
     -2.837  0.7764E-02  0.1752E-01
     -2.758  0.5205E-02  0.1793E-01
     -2.680  0.3995E-02  0.1824E-01
     -2.601  0.2156E-02  0.1841E-01
     -2.522  0.2769E-02  0.1863E-01
     -2.443  0.3966E-02  0.1894E-01
     -2.365  0.6855E-02  0.1948E-01
     -2.286  0.3547E-02  0.1976E-01
     -2.207  0.2708E-02  0.1997E-01
     -2.128  0.3252E-03  0.2000E-01
     -2.050  0.1029E-05  0.2000E-01
     -1.971  0.1036E-08  0.2000E-01
     -1.892  0.8318E-05  0.2000E-01
     -1.813  0.1062E-02  0.2008E-01
     -1.734  0.6377E-02  0.2059E-01
     -1.656  0.5646E-02  0.2103E-01
     -1.577  0.2380E-02  0.2122E-01
     -1.498  0.2365E-02  0.2141E-01
     -1.419  0.2254E-02  0.2158E-01
     -1.341  0.2638E-02  0.2179E-01
     -1.262  0.5769E-02  0.2224E-01
     -1.183  0.1327E-01  0.2329E-01
     -1.104  0.1700E-01  0.2463E-01
     -1.025  0.1397E-01  0.2573E-01
     -0.947  0.1129E-01  0.2662E-01
     -0.868  0.7495E-02  0.2721E-01
     -0.789  0.9076E-02  0.2793E-01
     -0.710  0.9606E-02  0.2868E-01
     -0.632  0.4059E-02  0.2900E-01
     -0.553  0.7555E-02  0.2960E-01
     -0.474  0.1159E-01  0.3051E-01
     -0.395  0.4677E-02  0.3088E-01
     -0.316  0.1970E-02  0.3103E-01
     -0.238  0.4402E-02  0.3138E-01
     -0.159  0.8051E-02  0.3201E-01
     -0.080  0.5494E-02  0.3245E-01
     -0.001  0.1401E-02  0.3256E-01
      0.077  0.2812E-02  0.3278E-01
      0.156  0.5955E-02  0.3325E-01
      0.235  0.8458E-02  0.3391E-01
      0.314  0.2088E-02  0.3408E-01
      0.393  0.1324E-02  0.3418E-01
      0.471  0.2026E-02  0.3434E-01
      0.550  0.3312E-02  0.3460E-01
      0.629  0.6543E-02  0.3512E-01
      0.708  0.2987E-02  0.3535E-01
      0.786  0.5643E-03  0.3540E-01
      0.865  0.1970E-02  0.3555E-01
      0.944  0.3246E-02  0.3581E-01
      1.023  0.4674E-02  0.3618E-01
      1.102  0.3412E-02  0.3645E-01
      1.180  0.4227E-03  0.3648E-01
      1.259  0.1435E-02  0.3659E-01
      1.338  0.2374E-02  0.3678E-01
      1.417  0.6213E-02  0.3727E-01
      1.495  0.9287E-02  0.3800E-01
      1.574  0.1051E-01  0.3883E-01
      1.653  0.1355E-01  0.3990E-01
      1.732  0.9990E-02  0.4068E-01
      1.810  0.1065E-01  0.4152E-01
      1.889  0.1057E-01  0.4235E-01
      1.968  0.1251E-01  0.4334E-01
      2.047  0.1137E-01  0.4424E-01
      2.126  0.9751E-02  0.4500E-01
      2.204  0.8770E-02  0.4569E-01
      2.283  0.9061E-02  0.4641E-01
      2.362  0.1166E-01  0.4733E-01
      2.441  0.1519E-01  0.4852E-01
      2.519  0.9787E-02  0.4929E-01
      2.598  0.1034E-01  0.5011E-01
      2.677  0.1306E-01  0.5114E-01
      2.756  0.1168E-01  0.5206E-01
      2.835  0.1435E-01  0.5319E-01
      2.913  0.1547E-01  0.5441E-01
      2.992  0.1746E-01  0.5578E-01
      3.071  0.1496E-01  0.5696E-01
      3.150  0.1544E-01  0.5818E-01
      3.228  0.1217E-01  0.5914E-01
      3.307  0.1305E-01  0.6016E-01
      3.386  0.1635E-01  0.6145E-01
      3.465  0.1521E-01  0.6265E-01
      3.544  0.1513E-01  0.6384E-01
      3.622  0.1060E-01  0.6468E-01
      3.701  0.1170E-01  0.6560E-01
      3.780  0.1525E-01  0.6680E-01
      3.859  0.1392E-01  0.6790E-01
      3.937  0.1208E-01  0.6885E-01
      4.016  0.1130E-01  0.6974E-01
      4.095  0.1396E-01  0.7084E-01
      4.174  0.1002E-01  0.7163E-01
      4.253  0.1427E-01  0.7275E-01
      4.331  0.1127E-01  0.7364E-01
      4.410  0.9283E-02  0.7437E-01
      4.489  0.1007E-01  0.7516E-01
      4.568  0.1251E-01  0.7615E-01
      4.646  0.6567E-02  0.7667E-01
      4.725  0.5291E-02  0.7708E-01
      4.804  0.5156E-02  0.7749E-01
      4.883  0.5602E-02  0.7793E-01
      4.962  0.5568E-02  0.7837E-01
      5.040  0.4428E-02  0.7872E-01
      5.119  0.3191E-02  0.7897E-01
      5.198  0.3029E-02  0.7921E-01
      5.277  0.2800E-02  0.7943E-01
      5.355  0.2300E-02  0.7961E-01
      5.434  0.2487E-02  0.7981E-01
      5.513  0.1174E-02  0.7990E-01
      5.592  0.9877E-03  0.7998E-01
      5.670  0.2908E-03  0.8000E-01
      5.749  0.4774E-05  0.8000E-01
      5.828  0.1050E-08  0.8000E-01
      5.907  0.1982E-14  0.8000E-01
      5.986  0.0000E+00  0.8000E-01
      6.064  0.5322E-15  0.8000E-01
      6.143  0.5314E-09  0.8000E-01
      6.222  0.4725E-05  0.8000E-01
      6.301  0.5165E-03  0.8004E-01
      6.379  0.1915E-02  0.8019E-01
      6.458  0.1120E-02  0.8028E-01
      6.537  0.2027E-02  0.8044E-01
      6.616  0.5467E-02  0.8087E-01
      6.695  0.3027E-02  0.8111E-01
      6.773  0.4903E-02  0.8150E-01
      6.852  0.4401E-02  0.8184E-01
      6.931  0.3220E-02  0.8210E-01
      7.010  0.5165E-02  0.8250E-01
      7.088  0.9223E-02  0.8323E-01
      7.167  0.7495E-02  0.8382E-01
      7.246  0.5350E-02  0.8424E-01
      7.325  0.8544E-02  0.8491E-01
      7.404  0.9326E-02  0.8565E-01
      7.482  0.8883E-02  0.8635E-01
      7.561  0.9388E-02  0.8709E-01
      7.640  0.1472E-01  0.8825E-01
      7.719  0.1154E-01  0.8916E-01
      7.797  0.1264E-01  0.9015E-01
      7.876  0.2006E-01  0.9173E-01
      7.955  0.1792E-01  0.9314E-01
      8.034  0.1177E-01  0.9407E-01
      8.113  0.1429E-01  0.9520E-01
      8.191  0.1477E-01  0.9636E-01
      8.270  0.1507E-01  0.9755E-01
      8.349  0.1282E-01  0.9856E-01
      8.428  0.1112E-01  0.9943E-01
      8.506  0.1046E-01  0.1003E+00
      8.585  0.1336E-01  0.1013E+00
      8.664  0.9271E-02  0.1020E+00
      8.743  0.1097E-01  0.1029E+00
      8.822  0.1114E-01  0.1038E+00
      8.900  0.1805E-01  0.1052E+00
      8.979  0.2545E-01  0.1072E+00
      9.058  0.1934E-01  0.1087E+00
      9.137  0.2139E-01  0.1104E+00
      9.215  0.1725E-01  0.1118E+00
      9.294  0.1649E-01  0.1131E+00
      9.373  0.1578E-01  0.1143E+00
      9.452  0.1593E-01  0.1156E+00
      9.530  0.1736E-01  0.1169E+00
      9.609  0.1149E-01  0.1178E+00
      9.688  0.1161E-01  0.1188E+00
      9.767  0.1412E-01  0.1199E+00
      9.846  0.1298E-01  0.1209E+00
      9.924  0.1193E-01  0.1218E+00
     10.003  0.1572E-01  0.1231E+00
     10.082  0.9025E-02  0.1238E+00
     10.161  0.1082E-01  0.1246E+00
     10.239  0.1708E-01  0.1260E+00
     10.318  0.1335E-01  0.1270E+00
     10.397  0.1301E-01  0.1281E+00
     10.476  0.9522E-02  0.1288E+00
     10.555  0.1260E-01  0.1298E+00
     10.633  0.1587E-01  0.1311E+00
     10.712  0.1101E-01  0.1319E+00
     10.791  0.1113E-01  0.1328E+00
     10.870  0.1316E-01  0.1338E+00
     10.948  0.1614E-01  0.1351E+00
     11.027  0.9535E-02  0.1359E+00
     11.106  0.9299E-02  0.1366E+00
     11.185  0.8248E-02  0.1372E+00
     11.264  0.1242E-01  0.1382E+00
     11.342  0.1411E-01  0.1393E+00
     11.421  0.7825E-02  0.1399E+00
     11.500  0.1211E-01  0.1409E+00
     11.579  0.1301E-01  0.1419E+00
     11.657  0.1106E-01  0.1428E+00
     11.736  0.1024E-01  0.1436E+00
     11.815  0.8222E-02  0.1442E+00
     11.894  0.9694E-02  0.1450E+00
     11.973  0.7921E-02  0.1456E+00
     12.051  0.7168E-02  0.1462E+00
     12.130  0.8818E-02  0.1469E+00
     12.209  0.1085E-01  0.1478E+00
     12.288  0.1376E-01  0.1488E+00
     12.366  0.8804E-02  0.1495E+00
     12.445  0.7508E-02  0.1501E+00
     12.524  0.1060E-01  0.1510E+00
     12.603  0.5709E-02  0.1514E+00
     12.681  0.2946E-02  0.1516E+00
     12.760  0.4066E-02  0.1520E+00
     12.839  0.8070E-02  0.1526E+00
     12.918  0.8629E-02  0.1533E+00
     12.997  0.7722E-02  0.1539E+00
     13.075  0.8009E-02  0.1545E+00
     13.154  0.8232E-02  0.1552E+00
     13.233  0.4045E-02  0.1555E+00
     13.312  0.4724E-02  0.1559E+00
     13.390  0.3548E-02  0.1561E+00
     13.469  0.3632E-02  0.1564E+00
     13.548  0.5045E-02  0.1568E+00
     13.627  0.4618E-02  0.1572E+00
     13.706  0.1872E-02  0.1573E+00
     13.784  0.4395E-02  0.1577E+00
     13.863  0.9938E-02  0.1585E+00
     13.942  0.2307E-02  0.1586E+00
     14.021  0.1290E-02  0.1587E+00
     14.099  0.1587E-03  0.1587E+00
     14.178  0.2559E-04  0.1588E+00
     14.257  0.1303E-02  0.1589E+00
     14.336  0.2082E-02  0.1590E+00
     14.415  0.4945E-03  0.1591E+00
     14.493  0.7352E-03  0.1591E+00
     14.572  0.3591E-02  0.1594E+00
     14.651  0.3623E-02  0.1597E+00
     14.730  0.4820E-03  0.1597E+00
     14.808  0.4780E-05  0.1597E+00
     14.887  0.7522E-09  0.1597E+00
     14.966  0.4194E-06  0.1597E+00
     15.045  0.1808E-03  0.1597E+00
     15.124  0.1286E-02  0.1598E+00
     15.202  0.3374E-03  0.1599E+00
     15.281  0.7689E-03  0.1599E+00
     15.360  0.8816E-03  0.1600E+00
     15.439  0.7112E-04  0.1600E+00
     15.517  0.1176E-06  0.1600E+00
     15.596  0.1874E-11  0.1600E+00
     15.675  0.1957E-18  0.1600E+00
     15.754  0.0000E+00  0.1600E+00
     15.833  0.0000E+00  0.1600E+00
     15.911  0.0000E+00  0.1600E+00
     15.990  0.0000E+00  0.1600E+00
     16.069  0.0000E+00  0.1600E+00
     16.148  0.0000E+00  0.1600E+00
     16.226  0.0000E+00  0.1600E+00
     16.305  0.0000E+00  0.1600E+00
     16.384  0.0000E+00  0.1600E+00
