    2    2  100    1
  0.2043015E+02  0.3866091E-09  0.3866092E-09  0.3866091E-09  0.5000000E-15
  1.000000000000000E-004
  CAR 
 unknown system                          
      8    182      8
 
  0.4166667E-01  0.4166667E-01  0.4166667E-01  0.1157407E-02
    1       -6.174470   1.000000
    2        5.365869   1.000000
    3        5.585394   1.000000
    4        5.585397   1.000000
    5        8.222990   0.000000
    6        8.236799   0.000000
    7        8.236806   0.000000
    8        8.940494   0.000000
 
  0.1250000E+00  0.4166667E-01  0.4166667E-01  0.3472222E-02
    1       -6.055381   1.000000
    2        4.480271   1.000000
    3        5.172856   1.000000
    4        5.533241   1.000000
    5        8.279801   0.000000
    6        8.352957   0.000000
    7        8.538405   0.000000
    8        9.792807   0.000000
 
  0.2083333E+00  0.4166667E-01  0.4166667E-01  0.3472222E-02
    1       -5.761512   1.000000
    2        2.990937   1.000000
    3        4.809020   1.000000
    4        5.268420   1.000000
    5        8.001640   0.000000
    6        8.737526   0.000000
    7        9.030831   0.000000
    8       11.132443   0.000000
 
  0.2916667E+00  0.4166667E-01  0.4166667E-01  0.3472222E-02
    1       -5.305770   1.000000
    2        1.494713   1.000000
    3        4.516792   1.000000
    4        4.956836   1.000000
    5        7.690189   0.000000
    6        9.025153   0.000000
    7        9.275052   0.000000
    8       12.284846   0.000000
 
  0.3750000E+00  0.4166667E-01  0.4166667E-01  0.3472222E-02
    1       -4.723827   1.000000
    2        0.150190   1.000000
    3        4.325834   1.000000
    4        4.687836   1.000000
    5        7.444463   0.000000
    6        9.067197   0.000000
    7        9.200828   0.000000
    8       13.201896   0.000000
 
  0.4583333E+00  0.4166667E-01  0.4166667E-01  0.3472222E-02
    1       -4.132761   1.000000
    2       -0.885957   1.000000
    3        4.245155   1.000000
    4        4.496421   1.000000
    5        7.298161   0.000000
    6        9.031851   0.000000
    7        9.035076   0.000000
    8       13.439192   0.000000
 
 -0.4583333E+00  0.4166667E-01  0.4166667E-01  0.3472222E-02
    1       -3.907155   1.000000
    2       -1.223885   1.000000
    3        4.272901   1.000000
    4        4.397987   1.000000
    5        7.262432   0.000000
    6        8.935607   0.000000
    7        9.064335   0.000000
    8       13.409648   0.000000
 
 -0.3750000E+00  0.4166667E-01  0.4166667E-01  0.3472222E-02
    1       -4.315244   1.000000
    2       -0.591796   1.000000
    3        4.401779   1.000000
    4        4.402658   1.000000
    5        7.338871   0.000000
    6        8.940332   0.000000
    7        9.193736   0.000000
    8       13.331434   0.000000
 
 -0.2916667E+00  0.4166667E-01  0.4166667E-01  0.3472222E-02
    1       -4.927440   1.000000
    2        0.573728   1.000000
    3        4.512924   1.000000
    4        4.624454   1.000000
    5        7.522301   0.000000
    6        8.982761   0.000000
    7        9.347896   0.000000
    8       12.537370   0.000000
 
 -0.2083333E+00  0.4166667E-01  0.4166667E-01  0.3472222E-02
    1       -5.474124   1.000000
    2        1.982495   1.000000
    3        4.729586   1.000000
    4        4.919717   1.000000
    5        7.793425   0.000000
    6        8.875004   0.000000
    7        9.338071   0.000000
    8       11.733847   0.000000
 
 -0.1250000E+00  0.4166667E-01  0.4166667E-01  0.3472222E-02
    1       -5.878291   1.000000
    2        3.504850   1.000000
    3        5.033244   1.000000
    4        5.240717   1.000000
    5        8.085774   0.000000
    6        8.533220   0.000000
    7        9.006690   0.000000
    8       10.652653   0.000000
 
 -0.4166667E-01  0.4166667E-01  0.4166667E-01  0.3472222E-02
    1       -6.114797   1.000000
    2        4.944338   1.000000
    3        5.365261   1.000000
    4        5.464026   1.000000
    5        8.099943   0.000000
    6        8.418376   0.000000
    7        8.528222   0.000000
    8        9.343623   0.000000
 
  0.1250000E+00  0.1250000E+00  0.4166667E-01  0.3472222E-02
    1       -5.995696   1.000000
    2        4.392923   1.000000
    3        5.025849   1.000000
    4        5.123729   1.000000
    5        7.864303   0.000000
    6        8.839152   0.000000
    7        9.009387   0.000000
    8        9.853689   0.000000
 
  0.2083333E+00  0.1250000E+00  0.4166667E-01  0.6944444E-02
    1       -5.759610   1.000000
    2        3.362435   1.000000
    3        4.445932   1.000000
    4        4.981177   1.000000
    5        7.876759   0.000000
    6        9.004556   0.000000
    7        9.505884   0.000000
    8       10.492234   0.000000
 
  0.2916667E+00  0.1250000E+00  0.4166667E-01  0.6944444E-02
    1       -5.356215   1.000000
    2        1.960692   1.000000
    3        4.067215   1.000000
    4        4.694162   1.000000
    5        8.062418   0.000000
    6        8.965283   0.000000
    7        9.884199   0.000000
    8       10.729085   0.000000
 
  0.3750000E+00  0.1250000E+00  0.4166667E-01  0.6944444E-02
    1       -4.810249   1.000000
    2        0.600310   1.000000
    3        3.808316   1.000000
    4        4.395924   1.000000
    5        7.997632   0.000000
    6        8.982863   0.000000
    7        9.889437   0.000000
    8       11.322335   0.000000
 
  0.4583333E+00  0.1250000E+00  0.4166667E-01  0.6944444E-02
    1       -4.197676   1.000000
    2       -0.543981   1.000000
    3        3.628753   1.000000
    4        4.207039   1.000000
    5        7.881220   0.000000
    6        8.906041   0.000000
    7        9.721495   0.000000
    8       12.437590   0.000000
 
 -0.4583333E+00  0.1250000E+00  0.4166667E-01  0.6944444E-02
    1       -3.787831   1.000000
    2       -1.169835   1.000000
    3        3.506303   1.000000
    4        4.183115   1.000000
    5        7.841316   0.000000
    6        8.863169   0.000000
    7        9.585099   0.000000
    8       13.573454   0.000000
 
 -0.3750000E+00  0.1250000E+00  0.4166667E-01  0.6944444E-02
    1       -4.015938   1.000000
    2       -0.832130   1.000000
    3        3.459142   1.000000
    4        4.315736   1.000000
    5        7.900975   0.000000
    6        8.907394   0.000000
    7        9.563323   0.000000
    8       13.263406   0.000000
 
 -0.2916667E+00  0.1250000E+00  0.4166667E-01  0.6944444E-02
    1       -4.608270   1.000000
    2        0.189671   1.000000
    3        3.520527   1.000000
    4        4.566869   1.000000
    5        8.053047   0.000000
    6        8.988401   0.000000
    7        9.639840   0.000000
    8       12.105827   0.000000
 
 -0.2083333E+00  0.1250000E+00  0.4166667E-01  0.6944444E-02
    1       -5.189366   1.000000
    2        1.492504   1.000000
    3        3.718084   1.000000
    4        4.888687   1.000000
    5        8.267001   0.000000
    6        8.926977   0.000000
    7        9.659079   0.000000
    8       11.267672   0.000000
 
 -0.1250000E+00  0.1250000E+00  0.4166667E-01  0.6944444E-02
    1       -5.643901   1.000000
    2        2.867287   1.000000
    3        4.098829   1.000000
    4        5.200752   1.000000
    5        8.355697   0.000000
    6        8.715248   0.000000
    7        9.331587   0.000000
    8       10.908425   0.000000
 
 -0.4166667E-01  0.1250000E+00  0.4166667E-01  0.6944444E-02
    1       -5.936830   1.000000
    2        3.936928   1.000000
    3        4.830222   1.000000
    4        5.353161   1.000000
    5        8.143288   0.000000
    6        8.571070   0.000000
    7        8.929980   0.000000
    8       10.310363   0.000000
 
  0.2083333E+00  0.2083333E+00  0.4166667E-01  0.3472222E-02
    1       -5.581356   1.000000
    2        3.099013   1.000000
    3        4.281132   1.000000
    4        4.293314   1.000000
    5        7.276052   0.000000
    6        9.619337   0.000000
    7       10.215355   0.000000
    8       10.239253   0.000000
 
  0.2916667E+00  0.2083333E+00  0.4166667E-01  0.6944444E-02
    1       -5.232735   1.000000
    2        2.149206   1.000000
    3        3.704996   1.000000
    4        4.114195   1.000000
    5        7.309878   0.000000
    6        9.280042   0.000000
    7       10.412356   0.000000
    8       10.839035   0.000000
 
  0.3750000E+00  0.2083333E+00  0.4166667E-01  0.6944444E-02
    1       -4.730849   1.000000
    2        0.962526   1.000000
    3        3.253728   1.000000
    4        3.854512   1.000000
    5        7.566704   0.000000
    6        9.501042   0.000000
    7       10.211056   0.000000
    8       11.042338   0.000000
 
  0.4583333E+00  0.2083333E+00  0.4166667E-01  0.6944444E-02
    1       -4.125055   1.000000
    2       -0.171570   1.000000
    3        2.863664   1.000000
    4        3.719131   1.000000
    5        7.636560   0.000000
    6        9.944278   0.000000
    7       10.487494   0.000000
    8       10.917725   0.000000
 
 -0.4583333E+00  0.2083333E+00  0.4166667E-01  0.6944444E-02
    1       -3.592703   1.000000
    2       -0.980185   1.000000
    3        2.557804   1.000000
    4        3.754603   1.000000
    5        7.709281   0.000000
    6        9.726788   0.000000
    7       10.727205   0.000000
    8       11.900154   0.000000
 
 -0.3750000E+00  0.2083333E+00  0.4166667E-01  0.6944444E-02
    1       -3.603279   1.000000
    2       -0.961749   1.000000
    3        2.379990   1.000000
    4        3.941175   1.000000
    5        7.898873   0.000000
    6        9.589003   0.000000
    7       10.596018   0.000000
    8       13.226607   0.000000
 
 -0.2916667E+00  0.2083333E+00  0.4166667E-01  0.6944444E-02
    1       -4.141916   1.000000
    2       -0.140532   1.000000
    3        2.373411   1.000000
    4        4.246588   1.000000
    5        8.201586   0.000000
    6        9.509363   0.000000
    7       10.512561   0.000000
    8       11.882066   0.000000
 
 -0.2083333E+00  0.2083333E+00  0.4166667E-01  0.6944444E-02
    1       -4.744939   1.000000
    2        0.937605   1.000000
    3        2.622103   1.000000
    4        4.618566   1.000000
    5        8.546538   0.000000
    6        9.286509   0.000000
    7       10.334473   0.000000
    8       10.967298   0.000000
 
 -0.1250000E+00  0.2083333E+00  0.4166667E-01  0.6944444E-02
    1       -5.242643   1.000000
    2        1.855018   1.000000
    3        3.334963   1.000000
    4        4.954193   1.000000
    5        8.631031   0.000000
    6        8.855425   0.000000
    7        9.789394   0.000000
    8       10.894505   0.000000
 
 -0.4166667E-01  0.2083333E+00  0.4166667E-01  0.6944444E-02
    1       -5.587155   1.000000
    2        2.470970   1.000000
    3        4.452186   1.000000
    4        5.077490   1.000000
    5        8.103487   0.000000
    6        8.726328   0.000000
    7        9.389698   0.000000
    8       11.216166   0.000000
 
  0.2916667E+00  0.2916667E+00  0.4166667E-01  0.3472222E-02
    1       -4.938567   1.000000
    2        1.687481   1.000000
    3        3.583186   1.000000
    4        3.635669   1.000000
    5        6.746410   0.000000
    6        8.514419   0.000000
    7       11.550508   0.000000
    8       11.624928   0.000000
 
  0.3750000E+00  0.2916667E+00  0.4166667E-01  0.6944444E-02
    1       -4.485181   1.000000
    2        0.852756   1.000000
    3        3.098523   1.000000
    4        3.410425   1.000000
    5        6.860595   0.000000
    6        8.204408   0.000000
    7       11.693329   0.000000
    8       12.296662   0.000000
 
  0.4583333E+00  0.2916667E+00  0.4166667E-01  0.6944444E-02
    1       -3.904508   1.000000
    2       -0.070574   1.000000
    3        2.475861   1.000000
    4        3.283298   1.000000
    5        7.098701   0.000000
    6        8.727997   0.000000
    7       11.475836   0.000000
    8       12.381768   0.000000
 
 -0.4583333E+00  0.2916667E+00  0.4166667E-01  0.6944444E-02
    1       -3.307623   1.000000
    2       -0.877425   1.000000
    3        1.936494   1.000000
    4        3.322266   1.000000
    5        7.212164   0.000000
    6        9.967648   0.000000
    7       11.216409   0.000000
    8       12.215998   0.000000
 
 -0.3750000E+00  0.2916667E+00  0.4166667E-01  0.6944444E-02
    1       -3.108542   1.000000
    2       -1.112705   1.000000
    3        1.603825   1.000000
    4        3.513275   1.000000
    5        7.425250   0.000000
    6       10.886043   0.000000
    7       11.607983   0.000000
    8       12.052492   0.000000
 
 -0.2916667E+00  0.2916667E+00  0.4166667E-01  0.6944444E-02
    1       -3.565113   1.000000
    2       -0.552029   1.000000
    3        1.570634   1.000000
    4        3.831577   1.000000
    5        7.776163   0.000000
    6       10.649929   0.000000
    7       11.693442   0.000000
    8       11.921605   0.000000
 
 -0.2083333E+00  0.2916667E+00  0.4166667E-01  0.6944444E-02
    1       -4.172358   1.000000
    2        0.131703   1.000000
    3        2.016138   1.000000
    4        4.229192   1.000000
    5        8.203289   0.000000
    6        9.907897   0.000000
    7       10.974964   0.000000
    8       11.324637   0.000000
 
 -0.1250000E+00  0.2916667E+00  0.4166667E-01  0.6944444E-02
    1       -4.698729   1.000000
    2        0.612840   1.000000
    3        3.002067   1.000000
    4        4.602851   1.000000
    5        8.392847   0.000000
    6        9.108106   0.000000
    7        9.990585   0.000000
    8       11.450702   0.000000
 
 -0.4166667E-01  0.2916667E+00  0.4166667E-01  0.6944444E-02
    1       -5.083671   1.000000
    2        1.031576   1.000000
    3        4.186861   1.000000
    4        4.762150   1.000000
    5        7.850593   0.000000
    6        8.939481   0.000000
    7        9.509704   0.000000
    8       11.846700   0.000000
 
  0.3750000E+00  0.3750000E+00  0.4166667E-01  0.3472222E-02
    1       -4.079735   1.000000
    2        0.252252   1.000000
    3        3.077589   1.000000
    4        3.166051   1.000000
    5        6.405808   0.000000
    6        7.479727   0.000000
    7       13.052485   0.000000
    8       13.084641   0.000000
 
  0.4583333E+00  0.3750000E+00  0.4166667E-01  0.6944444E-02
    1       -3.534446   1.000000
    2       -0.485824   1.000000
    3        2.685132   1.000000
    4        2.969625   1.000000
    5        6.614807   0.000000
    6        7.383071   0.000000
    7       13.097083   0.000000
    8       13.825627   0.000000
 
 -0.4583333E+00  0.3750000E+00  0.4166667E-01  0.6944444E-02
    1       -2.915649   1.000000
    2       -1.180571   1.000000
    3        1.987387   1.000000
    4        2.985500   1.000000
    5        6.807354   0.000000
    6        8.284811   0.000000
    7       12.844263   0.000000
    8       13.840657   0.000000
 
 -0.3750000E+00  0.3750000E+00  0.4166667E-01  0.6944444E-02
    1       -2.578611   1.000000
    2       -1.501376   1.000000
    3        1.452969   1.000000
    4        3.157288   1.000000
    5        7.010839   0.000000
    6        9.757470   0.000000
    7       12.517480   0.000000
    8       13.347221   0.000000
 
 -0.2916667E+00  0.3750000E+00  0.4166667E-01  0.6944444E-02
    1       -2.996557   1.000000
    2       -1.102640   1.000000
    3        1.355077   1.000000
    4        3.464911   1.000000
    5        7.362149   0.000000
    6       11.284427   0.000000
    7       11.744123   0.000000
    8       12.488932   0.000000
 
 -0.2083333E+00  0.3750000E+00  0.4166667E-01  0.6944444E-02
    1       -3.574064   1.000000
    2       -0.734863   1.000000
    3        1.885359   1.000000
    4        3.868643   1.000000
    5        7.822103   0.000000
    6       10.141999   0.000000
    7       11.194818   0.000000
    8       12.497602   0.000000
 
 -0.1250000E+00  0.3750000E+00  0.4166667E-01  0.6944444E-02
    1       -4.086117   1.000000
    2       -0.498843   1.000000
    3        2.896470   1.000000
    4        4.277692   1.000000
    5        8.139355   0.000000
    6        9.107966   0.000000
    7       10.001940   0.000000
    8       12.584352   0.000000
 
 -0.4166667E-01  0.3750000E+00  0.4166667E-01  0.6944444E-02
    1       -4.477900   1.000000
    2       -0.225287   1.000000
    3        4.030360   1.000000
    4        4.503079   1.000000
    5        7.645829   0.000000
    6        8.937814   0.000000
    7        9.378289   0.000000
    8       12.812004   0.000000
 
  0.4583333E+00  0.4583333E+00  0.4166667E-01  0.3472222E-02
    1       -3.024448   1.000000
    2       -1.140050   1.000000
    3        2.793504   1.000000
    4        2.899258   1.000000
    5        6.315983   0.000000
    6        6.775314   0.000000
    7       14.584475   0.000000
    8       14.599606   0.000000
 
 -0.4583333E+00  0.4583333E+00  0.4166667E-01  0.6944444E-02
    1       -2.409503   1.000000
    2       -1.788837   1.000000
    3        2.502118   1.000000
    4        2.784967   1.000000
    5        6.574817   0.000000
    6        6.956551   0.000000
    7       14.549896   0.000000
    8       15.089517   0.000000
 
 -0.3750000E+00  0.4583333E+00  0.4166667E-01  0.6944444E-02
    1       -2.403742   1.000000
    2       -1.719747   1.000000
    3        1.888307   1.000000
    4        2.926959   1.000000
    5        6.746635   0.000000
    6        8.197423   0.000000
    7       13.536425   0.000000
    8       14.257735   0.000000
 
 -0.2916667E+00  0.4583333E+00  0.4166667E-01  0.6944444E-02
    1       -2.896718   1.000000
    2       -1.222403   1.000000
    3        1.619908   1.000000
    4        3.212109   1.000000
    5        7.078958   0.000000
    6        9.827468   0.000000
    7       11.874629   0.000000
    8       12.918924   0.000000
 
 -0.2083333E+00  0.4583333E+00  0.4166667E-01  0.6944444E-02
    1       -3.317870   1.000000
    2       -1.083304   1.000000
    3        2.031233   1.000000
    4        3.609748   1.000000
    5        7.546172   0.000000
    6       10.303722   0.000000
    7       11.337997   0.000000
    8       11.747095   0.000000
 
 -0.1250000E+00  0.4583333E+00  0.4166667E-01  0.6944444E-02
    1       -3.670569   1.000000
    2       -1.124388   1.000000
    3        2.946293   1.000000
    4        4.046502   1.000000
    5        7.952181   0.000000
    6        9.113602   0.000000
    7       10.043622   0.000000
    8       13.572649   0.000000
 
 -0.4166667E-01  0.4583333E+00  0.4166667E-01  0.6944444E-02
    1       -3.949003   1.000000
    2       -1.085906   1.000000
    3        3.966419   1.000000
    4        4.353204   1.000000
    5        7.537430   0.000000
    6        8.892684   0.000000
    7        9.245265   0.000000
    8       13.503818   0.000000
 
 -0.4583333E+00 -0.4583333E+00  0.4166667E-01  0.3472222E-02
    1       -2.431929   1.000000
    2       -1.801540   1.000000
    3        2.736435   1.000000
    4        2.845452   1.000000
    5        6.366601   0.000000
    6        6.564169   0.000000
    7       15.261503   0.000000
    8       15.309732   0.000000
 
 -0.3750000E+00 -0.4583333E+00  0.4166667E-01  0.6944444E-02
    1       -2.991146   1.000000
    2       -1.146989   1.000000
    3        2.563462   1.000000
    4        2.846233   1.000000
    5        6.575106   0.000000
    6        7.112172   0.000000
    7       13.824384   0.000000
    8       14.587301   0.000000
 
 -0.2916667E+00 -0.4583333E+00  0.4166667E-01  0.6944444E-02
    1       -3.426389   1.000000
    2       -0.618885   1.000000
    3        2.184962   1.000000
    4        3.103474   1.000000
    5        6.926494   0.000000
    6        8.461115   0.000000
    7       12.150310   0.000000
    8       13.107765   0.000000
 
 -0.2083333E+00 -0.4583333E+00  0.4166667E-01  0.6944444E-02
    1       -3.726668   1.000000
    2       -0.527182   1.000000
    3        2.367623   1.000000
    4        3.489521   1.000000
    5        7.403388   0.000000
    6       10.173034   0.000000
    7       10.586588   0.000000
    8       11.536235   0.000000
 
 -0.1250000E+00 -0.4583333E+00  0.4166667E-01  0.6944444E-02
    1       -3.895930   1.000000
    2       -0.798252   1.000000
    3        3.114717   1.000000
    4        3.950885   1.000000
    5        7.868028   0.000000
    6        9.213441   0.000000
    7       10.176104   0.000000
    8       12.134643   0.000000
 
 -0.3750000E+00 -0.3750000E+00  0.4166667E-01  0.3472222E-02
    1       -3.575083   1.000000
    2       -0.453084   1.000000
    3        2.907387   1.000000
    4        3.006432   1.000000
    5        6.327282   0.000000
    6        7.083321   0.000000
    7       13.825253   0.000000
    8       13.834019   0.000000
 
 -0.2916667E+00 -0.3750000E+00  0.4166667E-01  0.6944444E-02
    1       -4.033753   1.000000
    2        0.184177   1.000000
    3        2.864816   1.000000
    4        3.156883   1.000000
    5        6.709589   0.000000
    6        7.750091   0.000000
    7       12.385722   0.000000
    8       13.054910   0.000000
 
 -0.2083333E+00 -0.3750000E+00  0.4166667E-01  0.6944444E-02
    1       -4.341081   1.000000
    2        0.455642   1.000000
    3        2.843291   1.000000
    4        3.530587   1.000000
    5        7.316025   0.000000
    6        9.083937   0.000000
    7       10.821166   0.000000
    8       11.689613   0.000000
 
 -0.1250000E+00 -0.3750000E+00  0.4166667E-01  0.6944444E-02
    1       -4.488974   1.000000
    2        0.200975   1.000000
    3        3.363370   1.000000
    4        4.021917   1.000000
    5        7.872901   0.000000
    6        9.383641   0.000000
    7       10.351713   0.000000
    8       10.871704   0.000000
 
 -0.2916667E+00 -0.2916667E+00  0.4166667E-01  0.3472222E-02
    1       -4.535140   1.000000
    2        0.968411   1.000000
    3        3.303352   1.000000
    4        3.376612   1.000000
    5        6.547584   0.000000
    6        7.960212   0.000000
    7       12.292707   0.000000
    8       12.347350   0.000000
 
 -0.2083333E+00 -0.2916667E+00  0.4166667E-01  0.6944444E-02
    1       -4.885645   1.000000
    2        1.510190   1.000000
    3        3.380711   1.000000
    4        3.731072   1.000000
    5        7.063343   0.000000
    6        8.731757   0.000000
    7       11.023825   0.000000
    8       11.556546   0.000000
 
 -0.1250000E+00 -0.2916667E+00  0.4166667E-01  0.6944444E-02
    1       -5.070103   1.000000
    2        1.460385   1.000000
    3        3.667721   1.000000
    4        4.255532   1.000000
    5        7.831427   0.000000
    6        9.457805   0.000000
    7       10.163220   0.000000
    8       10.453064   0.000000
 
 -0.2083333E+00 -0.2083333E+00  0.4166667E-01  0.3472222E-02
    1       -5.287888   1.000000
    2        2.400980   1.000000
    3        3.914823   1.000000
    4        3.939246   1.000000
    5        6.993375   0.000000
    6        9.110694   0.000000
    7       10.836969   0.000000
    8       10.919883   0.000000
 
 -0.1250000E+00 -0.2083333E+00  0.4166667E-01  0.6944444E-02
    1       -5.524549   1.000000
    2        2.766507   1.000000
    3        4.063802   1.000000
    4        4.543298   1.000000
    5        7.587595   0.000000
    6        9.457824   0.000000
    7       10.150181   0.000000
    8       10.206300   0.000000
 
 -0.1250000E+00 -0.1250000E+00  0.4166667E-01  0.3472222E-02
    1       -5.817637   1.000000
    2        3.768838   1.000000
    3        4.650259   1.000000
    4        4.706801   1.000000
    5        7.575862   0.000000
    6        9.380878   0.000000
    7        9.594771   0.000000
    8       10.121936   0.000000
 
  0.1250000E+00  0.1250000E+00  0.1250000E+00  0.1157407E-02
    1       -5.996268   1.000000
    2        4.032122   1.000000
    3        5.340610   1.000000
    4        5.340612   1.000000
    5        8.069138   0.000000
    6        8.597093   0.000000
    7        8.597100   0.000000
    8       10.161635   0.000000
 
  0.2083333E+00  0.1250000E+00  0.1250000E+00  0.3472222E-02
    1       -5.819371   1.000000
    2        3.409046   1.000000
    3        4.484770   1.000000
    4        5.411781   1.000000
    5        8.413288   0.000000
    6        8.585610   0.000000
    7        8.855140   0.000000
    8       10.803677   0.000000
 
  0.2916667E+00  0.1250000E+00  0.1250000E+00  0.3472222E-02
    1       -5.471220   1.000000
    2        2.358939   1.000000
    3        3.713179   1.000000
    4        5.200373   1.000000
    5        8.540502   0.000000
    6        8.935675   0.000000
    7        9.216150   0.000000
    8       11.232545   0.000000
 
  0.3750000E+00  0.1250000E+00  0.1250000E+00  0.3472222E-02
    1       -4.969389   1.000000
    2        1.040054   1.000000
    3        3.355105   1.000000
    4        4.861150   1.000000
    5        8.281947   0.000000
    6        9.287130   0.000000
    7        9.461049   0.000000
    8       11.838818   0.000000
 
  0.4583333E+00  0.1250000E+00  0.1250000E+00  0.3472222E-02
    1       -4.364282   1.000000
    2       -0.179886   1.000000
    3        3.211933   1.000000
    4        4.524750   1.000000
    5        8.036338   0.000000
    6        9.322312   0.000000
    7        9.441396   0.000000
    8       12.911300   0.000000
 
 -0.4583333E+00  0.1250000E+00  0.1250000E+00  0.3472222E-02
    1       -3.832406   1.000000
    2       -1.032725   1.000000
    3        3.226206   1.000000
    4        4.256671   1.000000
    5        7.862594   0.000000
    6        9.164508   0.000000
    7        9.546941   0.000000
    8       13.802606   0.000000
 
 -0.3750000E+00  0.1250000E+00  0.1250000E+00  0.3472222E-02
    1       -3.829426   1.000000
    2       -1.038237   1.000000
    3        3.376362   1.000000
    4        4.090163   1.000000
    5        7.788540   0.000000
    6        9.114589   0.000000
    7        9.719494   0.000000
    8       12.932572   0.000000
 
 -0.2916667E+00  0.1250000E+00  0.1250000E+00  0.3472222E-02
    1       -4.359408   1.000000
    2       -0.190845   1.000000
    3        3.643667   1.000000
    4        4.043515   1.000000
    5        7.816839   0.000000
    6        9.172811   0.000000
    7        9.956011   0.000000
    8       11.618567   0.000000
 
 -0.2083333E+00  0.1250000E+00  0.1250000E+00  0.3472222E-02
    1       -4.965246   1.000000
    2        1.035816   1.000000
    3        4.001830   1.000000
    4        4.125143   1.000000
    5        7.878405   0.000000
    6        9.248468   0.000000
    7       10.143059   0.000000
    8       10.654702   0.000000
 
 -0.1250000E+00  0.1250000E+00  0.1250000E+00  0.3472222E-02
    1       -5.468276   1.000000
    2        2.416618   1.000000
    3        4.333225   1.000000
    4        4.397368   1.000000
    5        7.769593   0.000000
    6        9.251888   0.000000
    7       10.053940   0.000000
    8       10.365150   0.000000
 
  0.2083333E+00  0.2083333E+00  0.1250000E+00  0.3472222E-02
    1       -5.701991   1.000000
    2        2.962628   1.000000
    3        4.683435   1.000000
    4        4.879494   1.000000
    5        8.017910   0.000000
    6        8.752305   0.000000
    7        9.506666   0.000000
    8       10.774583   0.000000
 
  0.2916667E+00  0.2083333E+00  0.1250000E+00  0.6944444E-02
    1       -5.411354   1.000000
    2        2.322673   1.000000
    3        3.717896   1.000000
    4        4.810119   1.000000
    5        8.107338   0.000000
    6        9.090285   0.000000
    7        9.991155   0.000000
    8       10.454388   0.000000
 
  0.3750000E+00  0.2083333E+00  0.1250000E+00  0.6944444E-02
    1       -4.959761   1.000000
    2        1.358583   1.000000
    3        2.987393   1.000000
    4        4.540890   1.000000
    5        8.505288   0.000000
    6        9.054996   0.000000
    7       10.298804   0.000000
    8       10.556397   0.000000
 
  0.4583333E+00  0.2083333E+00  0.1250000E+00  0.6944444E-02
    1       -4.380897   1.000000
    2        0.212004   1.000000
    3        2.670471   1.000000
    4        4.193764   1.000000
    5        8.579401   0.000000
    6        8.927484   0.000000
    7       10.657259   0.000000
    8       11.051129   0.000000
 
 -0.4583333E+00  0.2083333E+00  0.1250000E+00  0.6944444E-02
    1       -3.785935   1.000000
    2       -0.760155   1.000000
    3        2.576109   1.000000
    4        3.912823   1.000000
    5        8.394706   0.000000
    6        8.874389   0.000000
    7       10.710821   0.000000
    8       12.269843   0.000000
 
 -0.3750000E+00  0.2083333E+00  0.1250000E+00  0.6944444E-02
    1       -3.551792   1.000000
    2       -1.094820   1.000000
    3        2.616694   1.000000
    4        3.775493   1.000000
    5        8.209917   0.000000
    6        8.971964   0.000000
    7       10.737318   0.000000
    8       12.816732   0.000000
 
 -0.2916667E+00  0.2083333E+00  0.1250000E+00  0.6944444E-02
    1       -3.965631   1.000000
    2       -0.488568   1.000000
    3        2.749850   1.000000
    4        3.823255   1.000000
    5        8.115926   0.000000
    6        9.193195   0.000000
    7       10.809349   0.000000
    8       11.355219   0.000000
 
 -0.2083333E+00  0.2083333E+00  0.1250000E+00  0.6944444E-02
    1       -4.578846   1.000000
    2        0.587053   1.000000
    3        2.976036   1.000000
    4        4.044964   1.000000
    5        8.065405   0.000000
    6        9.464783   0.000000
    7       10.189539   0.000000
    8       10.910328   0.000000
 
 -0.1250000E+00  0.2083333E+00  0.1250000E+00  0.6944444E-02
    1       -5.122974   1.000000
    2        1.774302   1.000000
    3        3.364152   1.000000
    4        4.349977   1.000000
    5        7.845056   0.000000
    6        9.456552   0.000000
    7        9.986053   0.000000
    8       10.711453   0.000000
 