 vasp.6.2.0 18Jan21 (build Aug 12 2022 13:00:08) complex                        
  
 executed on             LinuxIFC date 2024.11.05  05:59:08
 running on    4 total cores
 distrk:  each k-point on    4 cores,    1 groups
 distr:  one band on NCORE=   1 cores,    4 groups


--------------------------------------------------------------------------------------------------------


 INCAR:
   ISTART = 0            (Read existing wavefunction, if there)
   ISPIN = 1            (Non-Spin polarised DFT)
   LREAL = .FALSE.       (Projection operators: automatic)
   LWAVE = .FALSE.        (Write WAVECAR or not)
   LCHARG = .FALSE.        (Write CHGCAR or not)
   ADDGRID = .TRUE.        (Increase grid, helps GGA convergence)
   LASPH = .TRUE.        (Give more accurate total energies and band structure calculations)
   PREC = Accurate      (Accurate strictly avoids any aliasing or wrap around errors)
   ENCUT = 350          (Cut-off energy for plane wave basis set, in eV)
   ISMEAR = 0            (Gaussian smearing, metals:1)
   SIGMA = 0.05         (Smearing value in eV, metals:0.2)
   NELM = 90           (Max electronic SCF steps)
   NELMIN = 6            (Min electronic SCF steps)
   EDIFF = 1E-06        (SCF energy convergence, in eV)
   NSW = 100          (Max ionic steps)
   IBRION = 2            (Algorithm: 0-MD, 1-Quasi-New, 2-CG)
   ISIF = 2            (Stress/relaxation: 2-Ions, 3-Shape/Ions/V, 4-Shape/Ions)
   EDIFFG = -2E-03        (Ionic convergence, eV/AA)
   ISYM = 2              (Symmetry: 0\=none, 2\=GGA, 3\=hybrids)

 POTCAR:    PAW_PBE Si 05Jan2001                  
 POTCAR:    PAW_PBE Si 05Jan2001                  
   VRHFIN =Si: s2p2                                                                                 
   LEXCH  = PE                                                                                      
   EATOM  =   103.0669 eV,    7.5752 Ry                                                             
                                                                                                    
   TITEL  = PAW_PBE Si 05Jan2001                                                                    
   LULTRA =        F    use ultrasoft PP ?                                                          
   IUNSCR =        1    unscreen: 0-lin 1-nonlin 2-no                                               
   RPACOR =    1.500    partial core radius                                                         
   POMASS =   28.085; ZVAL   =    4.000    mass and valenz                                          
   RCORE  =    1.900    outmost cutoff radius                                                       
   RWIGS  =    2.480; RWIGS  =    1.312    wigner-seitz radius (au A)                               
   ENMAX  =  245.345; ENMIN  =  184.009 eV                                                          
   ICORE  =        2    local potential                                                             
   LCOR   =        T    correct aug charges                                                         
   LPAW   =        T    paw PP                                                                      
   EAUG   =  322.069                                                                                
   DEXC   =    0.000                                                                                
   RMAX   =    1.950    core radius for proj-oper                                                   
   RAUG   =    1.300    factor for augmentation sphere                                              
   RDEP   =    1.993    radius for radial grids                                                     
   RDEPT  =    1.837    core radius for aug-charge                                                  
                                                                                                    
   Atomic configuration                                                                             
    6 entries                                                                                       
     n  l   j            E        occ.                                                              
     1  0  0.50     -1785.8828   2.0000                                                             
     2  0  0.50      -139.4969   2.0000                                                             
     2  1  1.50       -95.5546   6.0000                                                             
     3  0  0.50       -10.8127   2.0000                                                             
     3  1  0.50        -4.0811   2.0000                                                             
     3  2  1.50        -4.0817   0.0000                                                             
   Description                                                                                      
     l       E           TYP  RCUT    TYP  RCUT                                                     
     0    -10.8127223     23  1.900                                                                 
     0     -7.6451159     23  1.900                                                                 
     1     -4.0811372     23  1.900                                                                 
     1      2.4879257     23  1.900                                                                 
     2     -4.0817478      7  1.900                                                                 
  local pseudopotential read in
  partial core-charges read in
  partial kinetic energy density read in
  atomic valenz-charges read in
  non local Contribution for L=           0  read in
    real space projection operators read in
  non local Contribution for L=           0  read in
    real space projection operators read in
  non local Contribution for L=           1  read in
    real space projection operators read in
  non local Contribution for L=           1  read in
    real space projection operators read in
    PAW grid and wavefunctions read in
 
   number of l-projection  operators is LMAX  =           4
   number of lm-projection operators is LMMAX =           8
 
  PAW_PBE Si 05Jan2001                  :
 energy of atom  1       EATOM= -103.0669
 kinetic energy error for atom=    0.0013 (will be added to EATOM!!)
 
 
 POSCAR: Si2
  positions in direct lattice
  velocities in cartesian coordinates
 exchange correlation table for  LEXCH =        8
   RHO(1)=    0.500       N(1)  =     2000
   RHO(2)=  100.500       N(2)  =     4000
 


--------------------------------------------------------------------------------------------------------


 ion  position               nearest neighbor table
   1  0.875  0.875  0.875-   2 2.37   2 2.37   2 2.37   2 2.37
   2  0.125  0.125  0.125-   1 2.37   1 2.37   1 2.37   1 2.37
 
  LATTYP: Found a face centered cubic cell.
 ALAT       =     5.4674801829
  
  Lattice vectors:
  
 A1 = (   3.3481333901,   0.0000000000,   1.9330454416)
 A2 = (   1.1160444634,   3.1566516836,   1.9330454416)
 A3 = (   0.0000000000,   0.0000000000,   3.8660908833)


Analysis of symmetry for initial positions (statically):
=====================================================================
 Subroutine PRICEL returns:
 Original cell was already a primitive cell.
 

 Routine SETGRP: Setting up the symmetry group for a 
 face centered cubic supercell.


 Subroutine GETGRP returns: Found 48 space group operations
 (whereof 12 operations were pure point group operations)
 out of a pool of 48 trial point group operations.


The static configuration has the point symmetry D_3d.
 The point group associated with its full space group is O_h .


Analysis of symmetry for dynamics (positions and initial velocities):
=====================================================================
 Subroutine PRICEL returns:
 Original cell was already a primitive cell.
 

 Routine SETGRP: Setting up the symmetry group for a 
 face centered cubic supercell.


 Subroutine GETGRP returns: Found 48 space group operations
 (whereof 12 operations were pure point group operations)
 out of a pool of 48 trial point group operations.


The dynamic configuration has the point symmetry D_3d.
 The point group associated with its full space group is O_h .


 Subroutine INISYM returns: Found 48 space group operations
 (whereof 12 operations are pure point group operations),
 and found     1 'primitive' translations


----------------------------------------------------------------------------------------

                                     Primitive cell                                     

  volume of cell :      40.8603

  direct lattice vectors                    reciprocal lattice vectors
     3.348133390  0.000000000  1.933045442     0.298673883 -0.105597122  0.000000000
     1.116044463  3.156651684  1.933045442     0.000000000  0.316791366  0.000000000
     0.000000000  0.000000000  3.866090883    -0.149336941 -0.105597122  0.258659206

  length of vectors
     3.866091292  3.866092313  3.866090883     0.316791478  0.316791366  0.316791508

  position of ions in fractional coordinates (direct lattice)
     0.875000000  0.875000000  0.875000000
     0.125000000  0.125000000  0.125000000

  ion indices of the primitive-cell ions
   primitive index   ion index
                 1           1
                 2           2

----------------------------------------------------------------------------------------

 
 
 KPOINTS: Automatic                               

Automatic generation of k-mesh.
 Grid dimensions read from file:
 generate k-points for:   12   12   12

 Generating k-lattice:

  Cartesian coordinates                     Fractional coordinates (reciprocal lattice)
     0.024889490 -0.008799760  0.000000000     0.083333333 -0.000000000  0.000000000
     0.000000000  0.026399281  0.000000000     0.000000000  0.083333333  0.000000000
    -0.012444745 -0.008799760  0.021554934    -0.000000000 -0.000000000  0.083333333

  Length of vectors
     0.026399290  0.026399281  0.026399292

  Shift w.r.t. Gamma in fractional coordinates (k-lattice)
     0.500000000  0.500000000  0.500000000

 
 Subroutine IBZKPT returns following result:
 ===========================================
 
 Found    182 irreducible k-points:
 
 Following reciprocal coordinates:
            Coordinates               Weight
  0.041667  0.041667  0.041667      8.000000
  0.125000  0.041667  0.041667     24.000000
  0.208333  0.041667  0.041667     24.000000
  0.291667  0.041667  0.041667     24.000000
  0.375000  0.041667  0.041667     24.000000
  0.458333  0.041667  0.041667     24.000000
 -0.458333  0.041667  0.041667     24.000000
 -0.375000  0.041667  0.041667     24.000000
 -0.291667  0.041667  0.041667     24.000000
 -0.208333  0.041667  0.041667     24.000000
 -0.125000  0.041667  0.041667     24.000000
 -0.041667  0.041667  0.041667     24.000000
  0.125000  0.125000  0.041667     24.000000
  0.208333  0.125000  0.041667     48.000000
  0.291667  0.125000  0.041667     48.000000
  0.375000  0.125000  0.041667     48.000000
  0.458333  0.125000  0.041667     48.000000
 -0.458333  0.125000  0.041667     48.000000
 -0.375000  0.125000  0.041667     48.000000
 -0.291667  0.125000  0.041667     48.000000
 -0.208333  0.125000  0.041667     48.000000
 -0.125000  0.125000  0.041667     48.000000
 -0.041667  0.125000  0.041667     48.000000
  0.208333  0.208333  0.041667     24.000000
  0.291667  0.208333  0.041667     48.000000
  0.375000  0.208333  0.041667     48.000000
  0.458333  0.208333  0.041667     48.000000
 -0.458333  0.208333  0.041667     48.000000
 -0.375000  0.208333  0.041667     48.000000
 -0.291667  0.208333  0.041667     48.000000
 -0.208333  0.208333  0.041667     48.000000
 -0.125000  0.208333  0.041667     48.000000
 -0.041667  0.208333  0.041667     48.000000
  0.291667  0.291667  0.041667     24.000000
  0.375000  0.291667  0.041667     48.000000
  0.458333  0.291667  0.041667     48.000000
 -0.458333  0.291667  0.041667     48.000000
 -0.375000  0.291667  0.041667     48.000000
 -0.291667  0.291667  0.041667     48.000000
 -0.208333  0.291667  0.041667     48.000000
 -0.125000  0.291667  0.041667     48.000000
 -0.041667  0.291667  0.041667     48.000000
  0.375000  0.375000  0.041667     24.000000
  0.458333  0.375000  0.041667     48.000000
 -0.458333  0.375000  0.041667     48.000000
 -0.375000  0.375000  0.041667     48.000000
 -0.291667  0.375000  0.041667     48.000000
 -0.208333  0.375000  0.041667     48.000000
 -0.125000  0.375000  0.041667     48.000000
 -0.041667  0.375000  0.041667     48.000000
  0.458333  0.458333  0.041667     24.000000
 -0.458333  0.458333  0.041667     48.000000
 -0.375000  0.458333  0.041667     48.000000
 -0.291667  0.458333  0.041667     48.000000
 -0.208333  0.458333  0.041667     48.000000
 -0.125000  0.458333  0.041667     48.000000
 -0.041667  0.458333  0.041667     48.000000
 -0.458333 -0.458333  0.041667     24.000000
 -0.375000 -0.458333  0.041667     48.000000
 -0.291667 -0.458333  0.041667     48.000000
 -0.208333 -0.458333  0.041667     48.000000
 -0.125000 -0.458333  0.041667     48.000000
 -0.375000 -0.375000  0.041667     24.000000
 -0.291667 -0.375000  0.041667     48.000000
 -0.208333 -0.375000  0.041667     48.000000
 -0.125000 -0.375000  0.041667     48.000000
 -0.291667 -0.291667  0.041667     24.000000
 -0.208333 -0.291667  0.041667     48.000000
 -0.125000 -0.291667  0.041667     48.000000
 -0.208333 -0.208333  0.041667     24.000000
 -0.125000 -0.208333  0.041667     48.000000
 -0.125000 -0.125000  0.041667     24.000000
  0.125000  0.125000  0.125000      8.000000
  0.208333  0.125000  0.125000     24.000000
  0.291667  0.125000  0.125000     24.000000
  0.375000  0.125000  0.125000     24.000000
  0.458333  0.125000  0.125000     24.000000
 -0.458333  0.125000  0.125000     24.000000
 -0.375000  0.125000  0.125000     24.000000
 -0.291667  0.125000  0.125000     24.000000
 -0.208333  0.125000  0.125000     24.000000
 -0.125000  0.125000  0.125000     24.000000
  0.208333  0.208333  0.125000     24.000000
  0.291667  0.208333  0.125000     48.000000
  0.375000  0.208333  0.125000     48.000000
  0.458333  0.208333  0.125000     48.000000
 -0.458333  0.208333  0.125000     48.000000
 -0.375000  0.208333  0.125000     48.000000
 -0.291667  0.208333  0.125000     48.000000
 -0.208333  0.208333  0.125000     48.000000
 -0.125000  0.208333  0.125000     48.000000
  0.291667  0.291667  0.125000     24.000000
  0.375000  0.291667  0.125000     48.000000
  0.458333  0.291667  0.125000     48.000000
 -0.458333  0.291667  0.125000     48.000000
 -0.375000  0.291667  0.125000     48.000000
 -0.291667  0.291667  0.125000     48.000000
 -0.208333  0.291667  0.125000     48.000000
 -0.125000  0.291667  0.125000     48.000000
  0.375000  0.375000  0.125000     24.000000
  0.458333  0.375000  0.125000     48.000000
 -0.458333  0.375000  0.125000     48.000000
 -0.375000  0.375000  0.125000     48.000000
 -0.291667  0.375000  0.125000     48.000000
 -0.208333  0.375000  0.125000     48.000000
 -0.125000  0.375000  0.125000     48.000000
  0.458333  0.458333  0.125000     24.000000
 -0.458333  0.458333  0.125000     48.000000
 -0.375000  0.458333  0.125000     48.000000
 -0.291667  0.458333  0.125000     48.000000
 -0.208333  0.458333  0.125000     48.000000
 -0.125000  0.458333  0.125000     48.000000
 -0.458333 -0.458333  0.125000     24.000000
 -0.375000 -0.458333  0.125000     48.000000
 -0.291667 -0.458333  0.125000     48.000000
 -0.208333 -0.458333  0.125000     48.000000
 -0.375000 -0.375000  0.125000     24.000000
 -0.291667 -0.375000  0.125000     48.000000
 -0.208333 -0.375000  0.125000     48.000000
 -0.291667 -0.291667  0.125000     24.000000
 -0.208333 -0.291667  0.125000     48.000000
 -0.208333 -0.208333  0.125000     24.000000
  0.208333  0.208333  0.208333      8.000000
  0.291667  0.208333  0.208333     24.000000
  0.375000  0.208333  0.208333     24.000000
  0.458333  0.208333  0.208333     24.000000
 -0.458333  0.208333  0.208333     24.000000
 -0.375000  0.208333  0.208333     24.000000
 -0.291667  0.208333  0.208333     24.000000
 -0.208333  0.208333  0.208333     24.000000
  0.291667  0.291667  0.208333     24.000000
  0.375000  0.291667  0.208333     48.000000
  0.458333  0.291667  0.208333     48.000000
 -0.458333  0.291667  0.208333     48.000000
 -0.375000  0.291667  0.208333     48.000000
 -0.291667  0.291667  0.208333     48.000000
 -0.208333  0.291667  0.208333     48.000000
  0.375000  0.375000  0.208333     24.000000
  0.458333  0.375000  0.208333     48.000000
 -0.458333  0.375000  0.208333     48.000000
 -0.375000  0.375000  0.208333     48.000000
 -0.291667  0.375000  0.208333     48.000000
 -0.208333  0.375000  0.208333     48.000000
  0.458333  0.458333  0.208333     24.000000
 -0.458333  0.458333  0.208333     48.000000
 -0.375000  0.458333  0.208333     48.000000
 -0.291667  0.458333  0.208333     48.000000
 -0.208333  0.458333  0.208333     48.000000
 -0.458333 -0.458333  0.208333     24.000000
 -0.375000 -0.458333  0.208333     48.000000
 -0.291667 -0.458333  0.208333     48.000000
 -0.375000 -0.375000  0.208333     24.000000
 -0.291667 -0.375000  0.208333     48.000000
 -0.291667 -0.291667  0.208333     24.000000
  0.291667  0.291667  0.291667      8.000000
  0.375000  0.291667  0.291667     24.000000
  0.458333  0.291667  0.291667     24.000000
 -0.458333  0.291667  0.291667     24.000000
 -0.375000  0.291667  0.291667     24.000000
 -0.291667  0.291667  0.291667     24.000000
  0.375000  0.375000  0.291667     24.000000
  0.458333  0.375000  0.291667     48.000000
 -0.458333  0.375000  0.291667     48.000000
 -0.375000  0.375000  0.291667     48.000000
 -0.291667  0.375000  0.291667     48.000000
  0.458333  0.458333  0.291667     24.000000
 -0.458333  0.458333  0.291667     48.000000
 -0.375000  0.458333  0.291667     48.000000
 -0.291667  0.458333  0.291667     48.000000
 -0.458333 -0.458333  0.291667     24.000000
 -0.375000 -0.458333  0.291667     48.000000
 -0.375000 -0.375000  0.291667     24.000000
  0.375000  0.375000  0.375000      8.000000
  0.458333  0.375000  0.375000     24.000000
 -0.458333  0.375000  0.375000     24.000000
 -0.375000  0.375000  0.375000     24.000000
  0.458333  0.458333  0.375000     24.000000
 -0.458333  0.458333  0.375000     48.000000
 -0.375000  0.458333  0.375000     48.000000
 -0.458333 -0.458333  0.375000     24.000000
  0.458333  0.458333  0.458333      8.000000
 -0.458333  0.458333  0.458333     24.000000
 
 Following cartesian coordinates:
            Coordinates               Weight
  0.006222  0.004400  0.010777      8.000000
  0.031112 -0.004400  0.010777     24.000000
  0.056001 -0.013200  0.010777     24.000000
  0.080891 -0.021999  0.010777     24.000000
  0.105780 -0.030799  0.010777     24.000000
  0.130670 -0.039599  0.010777     24.000000
 -0.143115  0.057198  0.010777     24.000000
 -0.118225  0.048399  0.010777     24.000000
 -0.093336  0.039599  0.010777     24.000000
 -0.068446  0.030799  0.010777     24.000000
 -0.043557  0.021999  0.010777     24.000000
 -0.018667  0.013200  0.010777     24.000000
  0.031112  0.021999  0.010777     24.000000
  0.056001  0.013200  0.010777     48.000000
  0.080891  0.004400  0.010777     48.000000
  0.105780 -0.004400  0.010777     48.000000
  0.130670 -0.013200  0.010777     48.000000
 -0.143115  0.083598  0.010777     48.000000
 -0.118225  0.074798  0.010777     48.000000
 -0.093336  0.065998  0.010777     48.000000
 -0.068446  0.057198  0.010777     48.000000
 -0.043557  0.048399  0.010777     48.000000
 -0.018667  0.039599  0.010777     48.000000
  0.056001  0.039599  0.010777     24.000000
  0.080891  0.030799  0.010777     48.000000
  0.105780  0.021999  0.010777     48.000000
  0.130670  0.013200  0.010777     48.000000
 -0.143115  0.109997  0.010777     48.000000
 -0.118225  0.101197  0.010777     48.000000
 -0.093336  0.092397  0.010777     48.000000
 -0.068446  0.083598  0.010777     48.000000
 -0.043557  0.074798  0.010777     48.000000
 -0.018667  0.065998  0.010777     48.000000
  0.080891  0.057198  0.010777     24.000000
  0.105780  0.048399  0.010777     48.000000
  0.130670  0.039599  0.010777     48.000000
 -0.143115  0.136396  0.010777     48.000000
 -0.118225  0.127597  0.010777     48.000000
 -0.093336  0.118797  0.010777     48.000000
 -0.068446  0.109997  0.010777     48.000000
 -0.043557  0.101197  0.010777     48.000000
 -0.018667  0.092397  0.010777     48.000000
  0.105780  0.074798  0.010777     24.000000
  0.130670  0.065998  0.010777     48.000000
 -0.143115  0.162796  0.010777     48.000000
 -0.118225  0.153996  0.010777     48.000000
 -0.093336  0.145196  0.010777     48.000000
 -0.068446  0.136396  0.010777     48.000000
 -0.043557  0.127597  0.010777     48.000000
 -0.018667  0.118797  0.010777     48.000000
  0.130670  0.092397  0.010777     24.000000
 -0.143115  0.189195  0.010777     48.000000
 -0.118225  0.180395  0.010777     48.000000
 -0.093336  0.171595  0.010777     48.000000
 -0.068446  0.162796  0.010777     48.000000
 -0.043557  0.153996  0.010777     48.000000
 -0.018667  0.145196  0.010777     48.000000
 -0.143115 -0.101197  0.010777     24.000000
 -0.118225 -0.109997  0.010777     48.000000
 -0.093336 -0.118797  0.010777     48.000000
 -0.068446 -0.127597  0.010777     48.000000
 -0.043557 -0.136396  0.010777     48.000000
 -0.118225 -0.083598  0.010777     24.000000
 -0.093336 -0.092397  0.010777     48.000000
 -0.068446 -0.101197  0.010777     48.000000
 -0.043557 -0.109997  0.010777     48.000000
 -0.093336 -0.065998  0.010777     24.000000
 -0.068446 -0.074798  0.010777     48.000000
 -0.043557 -0.083598  0.010777     48.000000
 -0.068446 -0.048399  0.010777     24.000000
 -0.043557 -0.057198  0.010777     48.000000
 -0.043557 -0.030799  0.010777     24.000000
  0.018667  0.013200  0.032332      8.000000
  0.043557  0.004400  0.032332     24.000000
  0.068446 -0.004400  0.032332     24.000000
  0.093336 -0.013200  0.032332     24.000000
  0.118225 -0.021999  0.032332     24.000000
 -0.155559  0.074798  0.032332     24.000000
 -0.130670  0.065998  0.032332     24.000000
 -0.105780  0.057198  0.032332     24.000000
 -0.080891  0.048399  0.032332     24.000000
 -0.056001  0.039599  0.032332     24.000000
  0.043557  0.030799  0.032332     24.000000
  0.068446  0.021999  0.032332     48.000000
  0.093336  0.013200  0.032332     48.000000
  0.118225  0.004400  0.032332     48.000000
 -0.155559  0.101197  0.032332     48.000000
 -0.130670  0.092397  0.032332     48.000000
 -0.105780  0.083598  0.032332     48.000000
 -0.080891  0.074798  0.032332     48.000000
 -0.056001  0.065998  0.032332     48.000000
  0.068446  0.048399  0.032332     24.000000
  0.093336  0.039599  0.032332     48.000000
  0.118225  0.030799  0.032332     48.000000
 -0.155559  0.127597  0.032332     48.000000
 -0.130670  0.118797  0.032332     48.000000
 -0.105780  0.109997  0.032332     48.000000
 -0.080891  0.101197  0.032332     48.000000
 -0.056001  0.092397  0.032332     48.000000
  0.093336  0.065998  0.032332     24.000000
  0.118225  0.057198  0.032332     48.000000
 -0.155559  0.153996  0.032332     48.000000
 -0.130670  0.145196  0.032332     48.000000
 -0.105780  0.136396  0.032332     48.000000
 -0.080891  0.127597  0.032332     48.000000
 -0.056001  0.118797  0.032332     48.000000
  0.118225  0.083598  0.032332     24.000000
 -0.155559  0.180395  0.032332     48.000000
 -0.130670  0.171595  0.032332     48.000000
 -0.105780  0.162796  0.032332     48.000000
 -0.080891  0.153996  0.032332     48.000000
 -0.056001  0.145196  0.032332     48.000000
 -0.155559 -0.109997  0.032332     24.000000
 -0.130670 -0.118797  0.032332     48.000000
 -0.105780 -0.127597  0.032332     48.000000
 -0.080891 -0.136396  0.032332     48.000000
 -0.130670 -0.092397  0.032332     24.000000
 -0.105780 -0.101197  0.032332     48.000000
 -0.080891 -0.109997  0.032332     48.000000
 -0.105780 -0.074798  0.032332     24.000000
 -0.080891 -0.083598  0.032332     48.000000
 -0.080891 -0.057198  0.032332     24.000000
  0.031112  0.021999  0.053887      8.000000
  0.056001  0.013200  0.053887     24.000000
  0.080891  0.004400  0.053887     24.000000
  0.105780 -0.004400  0.053887     24.000000
 -0.168004  0.092397  0.053887     24.000000
 -0.143115  0.083598  0.053887     24.000000
 -0.118225  0.074798  0.053887     24.000000
 -0.093336  0.065998  0.053887     24.000000
  0.056001  0.039599  0.053887     24.000000
  0.080891  0.030799  0.053887     48.000000
  0.105780  0.021999  0.053887     48.000000
 -0.168004  0.118797  0.053887     48.000000
 -0.143115  0.109997  0.053887     48.000000
 -0.118225  0.101197  0.053887     48.000000
 -0.093336  0.092397  0.053887     48.000000
  0.080891  0.057198  0.053887     24.000000
  0.105780  0.048399  0.053887     48.000000
 -0.168004  0.145196  0.053887     48.000000
 -0.143115  0.136396  0.053887     48.000000
 -0.118225  0.127597  0.053887     48.000000
 -0.093336  0.118797  0.053887     48.000000
  0.105780  0.074798  0.053887     24.000000
 -0.168004  0.171595  0.053887     48.000000
 -0.143115  0.162796  0.053887     48.000000
 -0.118225  0.153996  0.053887     48.000000
 -0.093336  0.145196  0.053887     48.000000
 -0.168004 -0.118797  0.053887     24.000000
 -0.143115 -0.127597  0.053887     48.000000
 -0.118225 -0.136396  0.053887     48.000000
 -0.143115 -0.101197  0.053887     24.000000
 -0.118225 -0.109997  0.053887     48.000000
 -0.118225 -0.083598  0.053887     24.000000
  0.043557  0.030799  0.075442      8.000000
  0.068446  0.021999  0.075442     24.000000
  0.093336  0.013200  0.075442     24.000000
 -0.180449  0.109997  0.075442     24.000000
 -0.155559  0.101197  0.075442     24.000000
 -0.130670  0.092397  0.075442     24.000000
  0.068446  0.048399  0.075442     24.000000
  0.093336  0.039599  0.075442     48.000000
 -0.180449  0.136396  0.075442     48.000000
 -0.155559  0.127597  0.075442     48.000000
 -0.130670  0.118797  0.075442     48.000000
  0.093336  0.065998  0.075442     24.000000
 -0.180449  0.162796  0.075442     48.000000
 -0.155559  0.153996  0.075442     48.000000
 -0.130670  0.145196  0.075442     48.000000
 -0.180449 -0.127597  0.075442     24.000000
 -0.155559 -0.136396  0.075442     48.000000
 -0.155559 -0.109997  0.075442     24.000000
  0.056001  0.039599  0.096997      8.000000
  0.080891  0.030799  0.096997     24.000000
 -0.192894  0.127597  0.096997     24.000000
 -0.168004  0.118797  0.096997     24.000000
  0.080891  0.057198  0.096997     24.000000
 -0.192894  0.153996  0.096997     48.000000
 -0.168004  0.145196  0.096997     48.000000
 -0.192894 -0.136396  0.096997     24.000000
  0.068446  0.048399  0.118552      8.000000
 -0.205338  0.145196  0.118552     24.000000
 


--------------------------------------------------------------------------------------------------------




 Dimension of arrays:
   k-points           NKPTS =    182   k-points in BZ     NKDIM =    182   number of bands    NBANDS=      8
   number of dos      NEDOS =    301   number of ions     NIONS =      2
   non local maximal  LDIM  =      4   non local SUM 2l+1 LMDIM =      8
   total plane-waves  NPLWV =  13824
   max r-space proj   IRMAX =      1   max aug-charges    IRDMAX=  90684
   dimension x,y,z NGX =    24 NGY =   24 NGZ =   24
   dimension x,y,z NGXF=    48 NGYF=   48 NGZF=   48
   support grid    NGXF=    96 NGYF=   96 NGZF=   96
   ions per type =               2
   NGX,Y,Z   is equivalent  to a cutoff of  10.32, 10.32, 10.32 a.u.
   NGXF,Y,Z  is equivalent  to a cutoff of  20.64, 20.64, 20.64 a.u.

 SYSTEM =  unknown system                          
 POSCAR =  Si2                                     

 Startparameter for this run:
   NWRITE =      2    write-flag & timer
   PREC   = accura    normal or accurate (medium, high low for compatibility)
   ISTART =      0    job   : 0-new  1-cont  2-samecut
   ICHARG =      2    charge: 1-file 2-atom 10-const
   ISPIN  =      1    spin polarized calculation?
   LNONCOLLINEAR =      F non collinear calculations
   LSORBIT =      F    spin-orbit coupling
   INIWAV =      1    electr: 0-lowe 1-rand  2-diag
   LASPH  =      T    aspherical Exc in radial PAW
   METAGGA=      F    non-selfconsistent MetaGGA calc.

 Electronic Relaxation 1
   ENCUT  =  350.0 eV  25.72 Ry    5.07 a.u.   5.90  5.90  5.90*2*pi/ulx,y,z
   ENINI  =  350.0     initial cutoff
   ENAUG  =  322.1 eV  augmentation charge cutoff
   NELM   =     90;   NELMIN=  6; NELMDL= -5     # of ELM steps 
   EDIFF  = 0.1E-05   stopping-criterion for ELM
   LREAL  =      F    real-space projection
   NLSPLINE    = F    spline interpolate recip. space projectors
   LCOMPAT=      F    compatible to vasp.4.4
   GGA_COMPAT  = T    GGA compatible to vasp.4.4-vasp.4.6
   LMAXPAW     = -100 max onsite density
   LMAXMIX     =    2 max onsite mixed and CHGCAR
   VOSKOWN=      0    Vosko Wilk Nusair interpolation
   ROPT   =    0.00000
 Ionic relaxation
   EDIFFG = -.2E-02   stopping-criterion for IOM
   NSW    =    100    number of steps for IOM
   NBLOCK =      1;   KBLOCK =    100    inner block; outer block 
   IBRION =      2    ionic relax: 0-MD 1-quasi-New 2-CG
   NFREE  =      1    steps in history (QN), initial steepest desc. (CG)
   ISIF   =      2    stress and relaxation
   IWAVPR =     11    prediction:  0-non 1-charg 2-wave 3-comb
   ISYM   =      2    0-nonsym 1-usesym 2-fastsym
   LCORR  =      T    Harris-Foulkes like correction to forces

   POTIM  = 0.5000    time-step for ionic-motion
   TEIN   =    0.0    initial temperature
   TEBEG  =    0.0;   TEEND  =   0.0 temperature during run
   SMASS  =  -3.00    Nose mass-parameter (am)
   estimated Nose-frequenzy (Omega)   =  0.10E-29 period in steps = 0.13E+47 mass=  -0.342E-27a.u.
   SCALEE = 1.0000    scale energy and forces
   NPACO  =    256;   APACO  = 16.0  distance and # of slots for P.C.
   PSTRESS=    0.0 pullay stress

  Mass of Ions in am
   POMASS =  28.09
  Ionic Valenz
   ZVAL   =   4.00
  Atomic Wigner-Seitz radii
   RWIGS  =  -1.00
  virtual crystal weights 
   VCA    =   1.00
   NELECT =       8.0000    total number of electrons
   NUPDOWN=      -1.0000    fix difference up-down

 DOS related values:
   EMIN   =  10.00;   EMAX   =-10.00  energy-range for DOS
   EFERMI =   0.00
   ISMEAR =     0;   SIGMA  =   0.05  broadening in eV -4-tet -1-fermi 0-gaus

 Electronic relaxation 2 (details)
   IALGO  =     38    algorithm
   LDIAG  =      T    sub-space diagonalisation (order eigenvalues)
   LSUBROT=      F    optimize rotation matrix (better conditioning)
   TURBO    =      0    0=normal 1=particle mesh
   IRESTART =      0    0=no restart 2=restart with 2 vectors
   NREBOOT  =      0    no. of reboots
   NMIN     =      0    reboot dimension
   EREF     =   0.00    reference energy to select bands
   IMIX   =      4    mixing-type and parameters
     AMIX     =   0.40;   BMIX     =  1.00
     AMIX_MAG =   1.60;   BMIX_MAG =  1.00
     AMIN     =   0.10
     WC   =   100.;   INIMIX=   1;  MIXPRE=   1;  MAXMIX= -45

 Intra band minimization:
   WEIMIN = 0.0010     energy-eigenvalue tresh-hold
   EBREAK =  0.31E-07  absolut break condition
   DEPER  =   0.30     relativ break condition  

   TIME   =   0.40     timestep for ELM

  volume/ion in A,a.u.               =      20.43       137.87
  Fermi-wavevector in a.u.,A,eV,Ry     =   0.950614  1.796401 12.295143  0.903668
  Thomas-Fermi vector in A             =   2.079008
 
 Write flags
   LWAVE        =      F    write WAVECAR
   LDOWNSAMPLE  =      F    k-point downsampling of WAVECAR
   LCHARG       =      F    write CHGCAR
   LVTOT        =      F    write LOCPOT, total local potential
   LVHAR        =      F    write LOCPOT, Hartree potential only
   LELF         =      F    write electronic localiz. function (ELF)
   LORBIT       =      0    0 simple, 1 ext, 2 COOP (PROOUT), +10 PAW based schemes


 Dipole corrections
   LMONO  =      F    monopole corrections only (constant potential shift)
   LDIPOL =      F    correct potential (dipole corrections)
   IDIPOL =      0    1-x, 2-y, 3-z, 4-all directions 
   EPSILON=  1.0000000 bulk dielectric constant

 Exchange correlation treatment:
   GGA     =    --    GGA type
   LEXCH   =     8    internal setting for exchange type
   VOSKOWN=      0    Vosko Wilk Nusair interpolation
   LHFCALC =     F    Hartree Fock is set to
   LHFONE  =     F    Hartree Fock one center treatment
   AEXX    =    0.0000 exact exchange contribution

 Linear response parameters
   LEPSILON=     F    determine dielectric tensor
   LRPA    =     F    only Hartree local field effects (RPA)
   LNABLA  =     F    use nabla operator in PAW spheres
   LVEL    =     F    velocity operator in full k-point grid
   LINTERFAST=   F  fast interpolation
   KINTER  =     0    interpolate to denser k-point grid
   CSHIFT  =0.1000    complex shift for real part using Kramers Kronig
   OMEGAMAX=  -1.0    maximum frequency
   DEG_THRESHOLD= 0.2000000E-02 threshold for treating states as degnerate
   RTIME   =   -0.100 relaxation time in fs
  (WPLASMAI=    0.000 imaginary part of plasma frequency in eV, 0.658/RTIME)
   DFIELD  = 0.0000000 0.0000000 0.0000000 field for delta impulse in time
 
 Orbital magnetization related:
   ORBITALMAG=     F  switch on orbital magnetization
   LCHIMAG   =     F  perturbation theory with respect to B field
   DQ        =  0.001000  dq finite difference perturbation B field
   LLRAUG    =     F  two centre corrections for induced B field



--------------------------------------------------------------------------------------------------------


 conjugate gradient relaxation of ions
 charge density and potential will be updated during run
 non-spin polarized calculation
 Variant of blocked Davidson
 Davidson routine will perform the subspace rotation
 perform sub-space diagonalisation
    after iterative eigenvector-optimisation
 modified Broyden-mixing scheme, WC =      100.0
 initial mixing is a Kerker type mixing with AMIX =  0.4000 and BMIX =      1.0000
 Hartree-type preconditioning will be used
 using additional bands            4
 reciprocal scheme for non local part
 use partial core corrections
 calculate Harris-corrections to forces 
   (improved forces if not selfconsistent)
 use gradient corrections 
 use of overlap-Matrix (Vanderbilt PP)
 Gauss-broadening in eV      SIGMA  =   0.05


--------------------------------------------------------------------------------------------------------


  energy-cutoff  :      350.00
  volume of cell :       40.86
      direct lattice vectors                 reciprocal lattice vectors
     3.348133390  0.000000000  1.933045442     0.298673883 -0.105597122  0.000000000
     1.116044463  3.156651684  1.933045442     0.000000000  0.316791366  0.000000000
     0.000000000  0.000000000  3.866090883    -0.149336941 -0.105597122  0.258659206

  length of vectors
     3.866091292  3.866092313  3.866090883     0.316791478  0.316791366  0.316791508


 
 k-points in units of 2pi/SCALE and weight: Automatic                               
   0.00622237  0.00439988  0.01077747       0.001
   0.03111186 -0.00439988  0.01077747       0.003
   0.05600135 -0.01319964  0.01077747       0.003
   0.08089084 -0.02199940  0.01077747       0.003
   0.10578033 -0.03079916  0.01077747       0.003
   0.13066982 -0.03959892  0.01077747       0.003
  -0.14311457  0.05719844  0.01077747       0.003
  -0.11822508  0.04839868  0.01077747       0.003
  -0.09333559  0.03959892  0.01077747       0.003
  -0.06844610  0.03079916  0.01077747       0.003
  -0.04355661  0.02199940  0.01077747       0.003
  -0.01866712  0.01319964  0.01077747       0.003
   0.03111186  0.02199940  0.01077747       0.003
   0.05600135  0.01319964  0.01077747       0.007
   0.08089084  0.00439988  0.01077747       0.007
   0.10578033 -0.00439988  0.01077747       0.007
   0.13066982 -0.01319964  0.01077747       0.007
  -0.14311457  0.08359772  0.01077747       0.007
  -0.11822508  0.07479796  0.01077747       0.007
  -0.09333559  0.06599820  0.01077747       0.007
  -0.06844610  0.05719844  0.01077747       0.007
  -0.04355661  0.04839868  0.01077747       0.007
  -0.01866712  0.03959892  0.01077747       0.007
   0.05600135  0.03959892  0.01077747       0.003
   0.08089084  0.03079916  0.01077747       0.007
   0.10578033  0.02199940  0.01077747       0.007
   0.13066982  0.01319964  0.01077747       0.007
  -0.14311457  0.10999700  0.01077747       0.007
  -0.11822508  0.10119724  0.01077747       0.007
  -0.09333559  0.09239748  0.01077747       0.007
  -0.06844610  0.08359772  0.01077747       0.007
  -0.04355661  0.07479796  0.01077747       0.007
  -0.01866712  0.06599820  0.01077747       0.007
   0.08089084  0.05719844  0.01077747       0.003
   0.10578033  0.04839868  0.01077747       0.007
   0.13066982  0.03959892  0.01077747       0.007
  -0.14311457  0.13639628  0.01077747       0.007
  -0.11822508  0.12759652  0.01077747       0.007
  -0.09333559  0.11879676  0.01077747       0.007
  -0.06844610  0.10999700  0.01077747       0.007
  -0.04355661  0.10119724  0.01077747       0.007
  -0.01866712  0.09239748  0.01077747       0.007
   0.10578033  0.07479796  0.01077747       0.003
   0.13066982  0.06599820  0.01077747       0.007
  -0.14311457  0.16279556  0.01077747       0.007
  -0.11822508  0.15399580  0.01077747       0.007
  -0.09333559  0.14519604  0.01077747       0.007
  -0.06844610  0.13639628  0.01077747       0.007
  -0.04355661  0.12759652  0.01077747       0.007
  -0.01866712  0.11879676  0.01077747       0.007
   0.13066982  0.09239748  0.01077747       0.003
  -0.14311457  0.18919484  0.01077747       0.007
  -0.11822508  0.18039508  0.01077747       0.007
  -0.09333559  0.17159532  0.01077747       0.007
  -0.06844610  0.16279556  0.01077747       0.007
  -0.04355661  0.15399580  0.01077747       0.007
  -0.01866712  0.14519604  0.01077747       0.007
  -0.14311457 -0.10119724  0.01077747       0.003
  -0.11822508 -0.10999700  0.01077747       0.007
  -0.09333559 -0.11879676  0.01077747       0.007
  -0.06844610 -0.12759652  0.01077747       0.007
  -0.04355661 -0.13639628  0.01077747       0.007
  -0.11822508 -0.08359772  0.01077747       0.003
  -0.09333559 -0.09239748  0.01077747       0.007
  -0.06844610 -0.10119724  0.01077747       0.007
  -0.04355661 -0.10999700  0.01077747       0.007
  -0.09333559 -0.06599820  0.01077747       0.003
  -0.06844610 -0.07479796  0.01077747       0.007
  -0.04355661 -0.08359772  0.01077747       0.007
  -0.06844610 -0.04839868  0.01077747       0.003
  -0.04355661 -0.05719844  0.01077747       0.007
  -0.04355661 -0.03079916  0.01077747       0.003
   0.01866712  0.01319964  0.03233240       0.001
   0.04355661  0.00439988  0.03233240       0.003
   0.06844610 -0.00439988  0.03233240       0.003
   0.09333559 -0.01319964  0.03233240       0.003
   0.11822508 -0.02199940  0.03233240       0.003
  -0.15555931  0.07479796  0.03233240       0.003
  -0.13066982  0.06599820  0.03233240       0.003
  -0.10578033  0.05719844  0.03233240       0.003
  -0.08089084  0.04839868  0.03233240       0.003
  -0.05600135  0.03959892  0.03233240       0.003
   0.04355661  0.03079916  0.03233240       0.003
   0.06844610  0.02199940  0.03233240       0.007
   0.09333559  0.01319964  0.03233240       0.007
   0.11822508  0.00439988  0.03233240       0.007
  -0.15555931  0.10119724  0.03233240       0.007
  -0.13066982  0.09239748  0.03233240       0.007
  -0.10578033  0.08359772  0.03233240       0.007
  -0.08089084  0.07479796  0.03233240       0.007
  -0.05600135  0.06599820  0.03233240       0.007
   0.06844610  0.04839868  0.03233240       0.003
   0.09333559  0.03959892  0.03233240       0.007
   0.11822508  0.03079916  0.03233240       0.007
  -0.15555931  0.12759652  0.03233240       0.007
  -0.13066982  0.11879676  0.03233240       0.007
  -0.10578033  0.10999700  0.03233240       0.007
  -0.08089084  0.10119724  0.03233240       0.007
  -0.05600135  0.09239748  0.03233240       0.007
   0.09333559  0.06599820  0.03233240       0.003
   0.11822508  0.05719844  0.03233240       0.007
  -0.15555931  0.15399580  0.03233240       0.007
  -0.13066982  0.14519604  0.03233240       0.007
  -0.10578033  0.13639628  0.03233240       0.007
  -0.08089084  0.12759652  0.03233240       0.007
  -0.05600135  0.11879676  0.03233240       0.007
   0.11822508  0.08359772  0.03233240       0.003
  -0.15555931  0.18039508  0.03233240       0.007
  -0.13066982  0.17159532  0.03233240       0.007
  -0.10578033  0.16279556  0.03233240       0.007
  -0.08089084  0.15399580  0.03233240       0.007
  -0.05600135  0.14519604  0.03233240       0.007
  -0.15555931 -0.10999700  0.03233240       0.003
  -0.13066982 -0.11879676  0.03233240       0.007
  -0.10578033 -0.12759652  0.03233240       0.007
  -0.08089084 -0.13639628  0.03233240       0.007
  -0.13066982 -0.09239748  0.03233240       0.003
  -0.10578033 -0.10119724  0.03233240       0.007
  -0.08089084 -0.10999700  0.03233240       0.007
  -0.10578033 -0.07479796  0.03233240       0.003
  -0.08089084 -0.08359772  0.03233240       0.007
  -0.08089084 -0.05719844  0.03233240       0.003
   0.03111186  0.02199940  0.05388733       0.001
   0.05600135  0.01319964  0.05388733       0.003
   0.08089084  0.00439988  0.05388733       0.003
   0.10578033 -0.00439988  0.05388733       0.003
  -0.16800406  0.09239748  0.05388733       0.003
  -0.14311457  0.08359772  0.05388733       0.003
  -0.11822508  0.07479796  0.05388733       0.003
  -0.09333559  0.06599820  0.05388733       0.003
   0.05600135  0.03959892  0.05388733       0.003
   0.08089084  0.03079916  0.05388733       0.007
   0.10578033  0.02199940  0.05388733       0.007
  -0.16800406  0.11879676  0.05388733       0.007
  -0.14311457  0.10999700  0.05388733       0.007
  -0.11822508  0.10119724  0.05388733       0.007
  -0.09333559  0.09239748  0.05388733       0.007
   0.08089084  0.05719844  0.05388733       0.003
   0.10578033  0.04839868  0.05388733       0.007
  -0.16800406  0.14519604  0.05388733       0.007
  -0.14311457  0.13639628  0.05388733       0.007
  -0.11822508  0.12759652  0.05388733       0.007
  -0.09333559  0.11879676  0.05388733       0.007
   0.10578033  0.07479796  0.05388733       0.003
  -0.16800406  0.17159532  0.05388733       0.007
  -0.14311457  0.16279556  0.05388733       0.007
  -0.11822508  0.15399580  0.05388733       0.007
  -0.09333559  0.14519604  0.05388733       0.007
  -0.16800406 -0.11879676  0.05388733       0.003
  -0.14311457 -0.12759652  0.05388733       0.007
  -0.11822508 -0.13639628  0.05388733       0.007
  -0.14311457 -0.10119724  0.05388733       0.003
  -0.11822508 -0.10999700  0.05388733       0.007
  -0.11822508 -0.08359772  0.05388733       0.003
   0.04355661  0.03079916  0.07544227       0.001
   0.06844610  0.02199940  0.07544227       0.003
   0.09333559  0.01319964  0.07544227       0.003
  -0.18044880  0.10999700  0.07544227       0.003
  -0.15555931  0.10119724  0.07544227       0.003
  -0.13066982  0.09239748  0.07544227       0.003
   0.06844610  0.04839868  0.07544227       0.003
   0.09333559  0.03959892  0.07544227       0.007
  -0.18044880  0.13639628  0.07544227       0.007
  -0.15555931  0.12759652  0.07544227       0.007
  -0.13066982  0.11879676  0.07544227       0.007
   0.09333559  0.06599820  0.07544227       0.003
  -0.18044880  0.16279556  0.07544227       0.007
  -0.15555931  0.15399580  0.07544227       0.007
  -0.13066982  0.14519604  0.07544227       0.007
  -0.18044880 -0.12759652  0.07544227       0.003
  -0.15555931 -0.13639628  0.07544227       0.007
  -0.15555931 -0.10999700  0.07544227       0.003
   0.05600135  0.03959892  0.09699720       0.001
   0.08089084  0.03079916  0.09699720       0.003
  -0.19289355  0.12759652  0.09699720       0.003
  -0.16800406  0.11879676  0.09699720       0.003
   0.08089084  0.05719844  0.09699720       0.003
  -0.19289355  0.15399580  0.09699720       0.007
  -0.16800406  0.14519604  0.09699720       0.007
  -0.19289355 -0.13639628  0.09699720       0.003
   0.06844610  0.04839868  0.11855214       0.001
  -0.20533829  0.14519604  0.11855214       0.003
 
 k-points in reciprocal lattice and weights: Automatic                               
   0.04166667  0.04166667  0.04166667       0.001
   0.12500000  0.04166667  0.04166667       0.003
   0.20833333  0.04166667  0.04166667       0.003
   0.29166667  0.04166667  0.04166667       0.003
   0.37500000  0.04166667  0.04166667       0.003
   0.45833333  0.04166667  0.04166667       0.003
  -0.45833333  0.04166667  0.04166667       0.003
  -0.37500000  0.04166667  0.04166667       0.003
  -0.29166667  0.04166667  0.04166667       0.003
  -0.20833333  0.04166667  0.04166667       0.003
  -0.12500000  0.04166667  0.04166667       0.003
  -0.04166667  0.04166667  0.04166667       0.003
   0.12500000  0.12500000  0.04166667       0.003
   0.20833333  0.12500000  0.04166667       0.007
   0.29166667  0.12500000  0.04166667       0.007
   0.37500000  0.12500000  0.04166667       0.007
   0.45833333  0.12500000  0.04166667       0.007
  -0.45833333  0.12500000  0.04166667       0.007
  -0.37500000  0.12500000  0.04166667       0.007
  -0.29166667  0.12500000  0.04166667       0.007
  -0.20833333  0.12500000  0.04166667       0.007
  -0.12500000  0.12500000  0.04166667       0.007
  -0.04166667  0.12500000  0.04166667       0.007
   0.20833333  0.20833333  0.04166667       0.003
   0.29166667  0.20833333  0.04166667       0.007
   0.37500000  0.20833333  0.04166667       0.007
   0.45833333  0.20833333  0.04166667       0.007
  -0.45833333  0.20833333  0.04166667       0.007
  -0.37500000  0.20833333  0.04166667       0.007
  -0.29166667  0.20833333  0.04166667       0.007
  -0.20833333  0.20833333  0.04166667       0.007
  -0.12500000  0.20833333  0.04166667       0.007
  -0.04166667  0.20833333  0.04166667       0.007
   0.29166667  0.29166667  0.04166667       0.003
   0.37500000  0.29166667  0.04166667       0.007
   0.45833333  0.29166667  0.04166667       0.007
  -0.45833333  0.29166667  0.04166667       0.007
  -0.37500000  0.29166667  0.04166667       0.007
  -0.29166667  0.29166667  0.04166667       0.007
  -0.20833333  0.29166667  0.04166667       0.007
  -0.12500000  0.29166667  0.04166667       0.007
  -0.04166667  0.29166667  0.04166667       0.007
   0.37500000  0.37500000  0.04166667       0.003
   0.45833333  0.37500000  0.04166667       0.007
  -0.45833333  0.37500000  0.04166667       0.007
  -0.37500000  0.37500000  0.04166667       0.007
  -0.29166667  0.37500000  0.04166667       0.007
  -0.20833333  0.37500000  0.04166667       0.007
  -0.12500000  0.37500000  0.04166667       0.007
  -0.04166667  0.37500000  0.04166667       0.007
   0.45833333  0.45833333  0.04166667       0.003
  -0.45833333  0.45833333  0.04166667       0.007
  -0.37500000  0.45833333  0.04166667       0.007
  -0.29166667  0.45833333  0.04166667       0.007
  -0.20833333  0.45833333  0.04166667       0.007
  -0.12500000  0.45833333  0.04166667       0.007
  -0.04166667  0.45833333  0.04166667       0.007
  -0.45833333 -0.45833333  0.04166667       0.003
  -0.37500000 -0.45833333  0.04166667       0.007
  -0.29166667 -0.45833333  0.04166667       0.007
  -0.20833333 -0.45833333  0.04166667       0.007
  -0.12500000 -0.45833333  0.04166667       0.007
  -0.37500000 -0.37500000  0.04166667       0.003
  -0.29166667 -0.37500000  0.04166667       0.007
  -0.20833333 -0.37500000  0.04166667       0.007
  -0.12500000 -0.37500000  0.04166667       0.007
  -0.29166667 -0.29166667  0.04166667       0.003
  -0.20833333 -0.29166667  0.04166667       0.007
  -0.12500000 -0.29166667  0.04166667       0.007
  -0.20833333 -0.20833333  0.04166667       0.003
  -0.12500000 -0.20833333  0.04166667       0.007
  -0.12500000 -0.12500000  0.04166667       0.003
   0.12500000  0.12500000  0.12500000       0.001
   0.20833333  0.12500000  0.12500000       0.003
   0.29166667  0.12500000  0.12500000       0.003
   0.37500000  0.12500000  0.12500000       0.003
   0.45833333  0.12500000  0.12500000       0.003
  -0.45833333  0.12500000  0.12500000       0.003
  -0.37500000  0.12500000  0.12500000       0.003
  -0.29166667  0.12500000  0.12500000       0.003
  -0.20833333  0.12500000  0.12500000       0.003
  -0.12500000  0.12500000  0.12500000       0.003
   0.20833333  0.20833333  0.12500000       0.003
   0.29166667  0.20833333  0.12500000       0.007
   0.37500000  0.20833333  0.12500000       0.007
   0.45833333  0.20833333  0.12500000       0.007
  -0.45833333  0.20833333  0.12500000       0.007
  -0.37500000  0.20833333  0.12500000       0.007
  -0.29166667  0.20833333  0.12500000       0.007
  -0.20833333  0.20833333  0.12500000       0.007
  -0.12500000  0.20833333  0.12500000       0.007
   0.29166667  0.29166667  0.12500000       0.003
   0.37500000  0.29166667  0.12500000       0.007
   0.45833333  0.29166667  0.12500000       0.007
  -0.45833333  0.29166667  0.12500000       0.007
  -0.37500000  0.29166667  0.12500000       0.007
  -0.29166667  0.29166667  0.12500000       0.007
  -0.20833333  0.29166667  0.12500000       0.007
  -0.12500000  0.29166667  0.12500000       0.007
   0.37500000  0.37500000  0.12500000       0.003
   0.45833333  0.37500000  0.12500000       0.007
  -0.45833333  0.37500000  0.12500000       0.007
  -0.37500000  0.37500000  0.12500000       0.007
  -0.29166667  0.37500000  0.12500000       0.007
  -0.20833333  0.37500000  0.12500000       0.007
  -0.12500000  0.37500000  0.12500000       0.007
   0.45833333  0.45833333  0.12500000       0.003
  -0.45833333  0.45833333  0.12500000       0.007
  -0.37500000  0.45833333  0.12500000       0.007
  -0.29166667  0.45833333  0.12500000       0.007
  -0.20833333  0.45833333  0.12500000       0.007
  -0.12500000  0.45833333  0.12500000       0.007
  -0.45833333 -0.45833333  0.12500000       0.003
  -0.37500000 -0.45833333  0.12500000       0.007
  -0.29166667 -0.45833333  0.12500000       0.007
  -0.20833333 -0.45833333  0.12500000       0.007
  -0.37500000 -0.37500000  0.12500000       0.003
  -0.29166667 -0.37500000  0.12500000       0.007
  -0.20833333 -0.37500000  0.12500000       0.007
  -0.29166667 -0.29166667  0.12500000       0.003
  -0.20833333 -0.29166667  0.12500000       0.007
  -0.20833333 -0.20833333  0.12500000       0.003
   0.20833333  0.20833333  0.20833333       0.001
   0.29166667  0.20833333  0.20833333       0.003
   0.37500000  0.20833333  0.20833333       0.003
   0.45833333  0.20833333  0.20833333       0.003
  -0.45833333  0.20833333  0.20833333       0.003
  -0.37500000  0.20833333  0.20833333       0.003
  -0.29166667  0.20833333  0.20833333       0.003
  -0.20833333  0.20833333  0.20833333       0.003
   0.29166667  0.29166667  0.20833333       0.003
   0.37500000  0.29166667  0.20833333       0.007
   0.45833333  0.29166667  0.20833333       0.007
  -0.45833333  0.29166667  0.20833333       0.007
  -0.37500000  0.29166667  0.20833333       0.007
  -0.29166667  0.29166667  0.20833333       0.007
  -0.20833333  0.29166667  0.20833333       0.007
   0.37500000  0.37500000  0.20833333       0.003
   0.45833333  0.37500000  0.20833333       0.007
  -0.45833333  0.37500000  0.20833333       0.007
  -0.37500000  0.37500000  0.20833333       0.007
  -0.29166667  0.37500000  0.20833333       0.007
  -0.20833333  0.37500000  0.20833333       0.007
   0.45833333  0.45833333  0.20833333       0.003
  -0.45833333  0.45833333  0.20833333       0.007
  -0.37500000  0.45833333  0.20833333       0.007
  -0.29166667  0.45833333  0.20833333       0.007
  -0.20833333  0.45833333  0.20833333       0.007
  -0.45833333 -0.45833333  0.20833333       0.003
  -0.37500000 -0.45833333  0.20833333       0.007
  -0.29166667 -0.45833333  0.20833333       0.007
  -0.37500000 -0.37500000  0.20833333       0.003
  -0.29166667 -0.37500000  0.20833333       0.007
  -0.29166667 -0.29166667  0.20833333       0.003
   0.29166667  0.29166667  0.29166667       0.001
   0.37500000  0.29166667  0.29166667       0.003
   0.45833333  0.29166667  0.29166667       0.003
  -0.45833333  0.29166667  0.29166667       0.003
  -0.37500000  0.29166667  0.29166667       0.003
  -0.29166667  0.29166667  0.29166667       0.003
   0.37500000  0.37500000  0.29166667       0.003
   0.45833333  0.37500000  0.29166667       0.007
  -0.45833333  0.37500000  0.29166667       0.007
  -0.37500000  0.37500000  0.29166667       0.007
  -0.29166667  0.37500000  0.29166667       0.007
   0.45833333  0.45833333  0.29166667       0.003
  -0.45833333  0.45833333  0.29166667       0.007
  -0.37500000  0.45833333  0.29166667       0.007
  -0.29166667  0.45833333  0.29166667       0.007
  -0.45833333 -0.45833333  0.29166667       0.003
  -0.37500000 -0.45833333  0.29166667       0.007
  -0.37500000 -0.37500000  0.29166667       0.003
   0.37500000  0.37500000  0.37500000       0.001
   0.45833333  0.37500000  0.37500000       0.003
  -0.45833333  0.37500000  0.37500000       0.003
  -0.37500000  0.37500000  0.37500000       0.003
   0.45833333  0.45833333  0.37500000       0.003
  -0.45833333  0.45833333  0.37500000       0.007
  -0.37500000  0.45833333  0.37500000       0.007
  -0.45833333 -0.45833333  0.37500000       0.003
   0.45833333  0.45833333  0.45833333       0.001
  -0.45833333  0.45833333  0.45833333       0.003
 
 position of ions in fractional coordinates (direct lattice) 
   0.87500000  0.87500000  0.87500000
   0.12500000  0.12500000  0.12500000
 
 position of ions in cartesian coordinates  (Angst):
   3.90615562  2.76207022  6.76565905
   0.55802223  0.39458146  0.96652272
 


--------------------------------------------------------------------------------------------------------


 k-point   1 :   0.0417 0.0417 0.0417  plane waves:     609
 k-point   2 :   0.1250 0.0417 0.0417  plane waves:     599
 k-point   3 :   0.2083 0.0417 0.0417  plane waves:     594
 k-point   4 :   0.2917 0.0417 0.0417  plane waves:     604
 k-point   5 :   0.3750 0.0417 0.0417  plane waves:     607
 k-point   6 :   0.4583 0.0417 0.0417  plane waves:     603
 k-point   7 :  -0.4583 0.0417 0.0417  plane waves:     608
 k-point   8 :  -0.3750 0.0417 0.0417  plane waves:     603
 k-point   9 :  -0.2917 0.0417 0.0417  plane waves:     607
 k-point  10 :  -0.2083 0.0417 0.0417  plane waves:     599
 k-point  11 :  -0.1250 0.0417 0.0417  plane waves:     595
 k-point  12 :  -0.0417 0.0417 0.0417  plane waves:     602
 k-point  13 :   0.1250 0.1250 0.0417  plane waves:     600
 k-point  14 :   0.2083 0.1250 0.0417  plane waves:     594
 k-point  15 :   0.2917 0.1250 0.0417  plane waves:     602
 k-point  16 :   0.3750 0.1250 0.0417  plane waves:     605
 k-point  17 :   0.4583 0.1250 0.0417  plane waves:     604
 k-point  18 :  -0.4583 0.1250 0.0417  plane waves:     603
 k-point  19 :  -0.3750 0.1250 0.0417  plane waves:     603
 k-point  20 :  -0.2917 0.1250 0.0417  plane waves:     607
 k-point  21 :  -0.2083 0.1250 0.0417  plane waves:     605
 k-point  22 :  -0.1250 0.1250 0.0417  plane waves:     599
 k-point  23 :  -0.0417 0.1250 0.0417  plane waves:     597
 k-point  24 :   0.2083 0.2083 0.0417  plane waves:     592
 k-point  25 :   0.2917 0.2083 0.0417  plane waves:     601
 k-point  26 :   0.3750 0.2083 0.0417  plane waves:     609
 k-point  27 :   0.4583 0.2083 0.0417  plane waves:     609
 k-point  28 :  -0.4583 0.2083 0.0417  plane waves:     608
 k-point  29 :  -0.3750 0.2083 0.0417  plane waves:     603
 k-point  30 :  -0.2917 0.2083 0.0417  plane waves:     608
 k-point  31 :  -0.2083 0.2083 0.0417  plane waves:     608
 k-point  32 :  -0.1250 0.2083 0.0417  plane waves:     605
 k-point  33 :  -0.0417 0.2083 0.0417  plane waves:     601
 k-point  34 :   0.2917 0.2917 0.0417  plane waves:     603
 k-point  35 :   0.3750 0.2917 0.0417  plane waves:     607
 k-point  36 :   0.4583 0.2917 0.0417  plane waves:     607
 k-point  37 :  -0.4583 0.2917 0.0417  plane waves:     612
 k-point  38 :  -0.3750 0.2917 0.0417  plane waves:     608
 k-point  39 :  -0.2917 0.2917 0.0417  plane waves:     606
 k-point  40 :  -0.2083 0.2917 0.0417  plane waves:     609
 k-point  41 :  -0.1250 0.2917 0.0417  plane waves:     607
 k-point  42 :  -0.0417 0.2917 0.0417  plane waves:     605
 k-point  43 :   0.3750 0.3750 0.0417  plane waves:     616
 k-point  44 :   0.4583 0.3750 0.0417  plane waves:     610
 k-point  45 :  -0.4583 0.3750 0.0417  plane waves:     614
 k-point  46 :  -0.3750 0.3750 0.0417  plane waves:     613
 k-point  47 :  -0.2917 0.3750 0.0417  plane waves:     607
 k-point  48 :  -0.2083 0.3750 0.0417  plane waves:     607
 k-point  49 :  -0.1250 0.3750 0.0417  plane waves:     607
 k-point  50 :  -0.0417 0.3750 0.0417  plane waves:     606
 k-point  51 :   0.4583 0.4583 0.0417  plane waves:     614
 k-point  52 :  -0.4583 0.4583 0.0417  plane waves:     616
 k-point  53 :  -0.3750 0.4583 0.0417  plane waves:     612
 k-point  54 :  -0.2917 0.4583 0.0417  plane waves:     611
 k-point  55 :  -0.2083 0.4583 0.0417  plane waves:     611
 k-point  56 :  -0.1250 0.4583 0.0417  plane waves:     604
 k-point  57 :  -0.0417 0.4583 0.0417  plane waves:     605
 k-point  58 :  -0.4583-0.4583 0.0417  plane waves:     614
 k-point  59 :  -0.3750-0.4583 0.0417  plane waves:     612
 k-point  60 :  -0.2917-0.4583 0.0417  plane waves:     608
 k-point  61 :  -0.2083-0.4583 0.0417  plane waves:     611
 k-point  62 :  -0.1250-0.4583 0.0417  plane waves:     604
 k-point  63 :  -0.3750-0.3750 0.0417  plane waves:     616
 k-point  64 :  -0.2917-0.3750 0.0417  plane waves:     610
 k-point  65 :  -0.2083-0.3750 0.0417  plane waves:     609
 k-point  66 :  -0.1250-0.3750 0.0417  plane waves:     611
 k-point  67 :  -0.2917-0.2917 0.0417  plane waves:     609
 k-point  68 :  -0.2083-0.2917 0.0417  plane waves:     605
 k-point  69 :  -0.1250-0.2917 0.0417  plane waves:     605
 k-point  70 :  -0.2083-0.2083 0.0417  plane waves:     598
 k-point  71 :  -0.1250-0.2083 0.0417  plane waves:     595
 k-point  72 :  -0.1250-0.1250 0.0417  plane waves:     593
 k-point  73 :   0.1250 0.1250 0.1250  plane waves:     603
 k-point  74 :   0.2083 0.1250 0.1250  plane waves:     597
 k-point  75 :   0.2917 0.1250 0.1250  plane waves:     604
 k-point  76 :   0.3750 0.1250 0.1250  plane waves:     609
 k-point  77 :   0.4583 0.1250 0.1250  plane waves:     608
 k-point  78 :  -0.4583 0.1250 0.1250  plane waves:     602
 k-point  79 :  -0.3750 0.1250 0.1250  plane waves:     602
 k-point  80 :  -0.2917 0.1250 0.1250  plane waves:     609
 k-point  81 :  -0.2083 0.1250 0.1250  plane waves:     607
 k-point  82 :  -0.1250 0.1250 0.1250  plane waves:     600
 k-point  83 :   0.2083 0.2083 0.1250  plane waves:     594
 k-point  84 :   0.2917 0.2083 0.1250  plane waves:     600
 k-point  85 :   0.3750 0.2083 0.1250  plane waves:     607
 k-point  86 :   0.4583 0.2083 0.1250  plane waves:     609
 k-point  87 :  -0.4583 0.2083 0.1250  plane waves:     604
 k-point  88 :  -0.3750 0.2083 0.1250  plane waves:     605
 k-point  89 :  -0.2917 0.2083 0.1250  plane waves:     604
 k-point  90 :  -0.2083 0.2083 0.1250  plane waves:     610
 k-point  91 :  -0.1250 0.2083 0.1250  plane waves:     603
 k-point  92 :   0.2917 0.2917 0.1250  plane waves:     604
 k-point  93 :   0.3750 0.2917 0.1250  plane waves:     604
 k-point  94 :   0.4583 0.2917 0.1250  plane waves:     606
 k-point  95 :  -0.4583 0.2917 0.1250  plane waves:     608
 k-point  96 :  -0.3750 0.2917 0.1250  plane waves:     611
 k-point  97 :  -0.2917 0.2917 0.1250  plane waves:     608
 k-point  98 :  -0.2083 0.2917 0.1250  plane waves:     612
 k-point  99 :  -0.1250 0.2917 0.1250  plane waves:     608
 k-point 100 :   0.3750 0.3750 0.1250  plane waves:     610
 k-point 101 :   0.4583 0.3750 0.1250  plane waves:     610
 k-point 102 :  -0.4583 0.3750 0.1250  plane waves:     609
 k-point 103 :  -0.3750 0.3750 0.1250  plane waves:     609
 k-point 104 :  -0.2917 0.3750 0.1250  plane waves:     609
 k-point 105 :  -0.2083 0.3750 0.1250  plane waves:     609
 k-point 106 :  -0.1250 0.3750 0.1250  plane waves:     612
 k-point 107 :   0.4583 0.4583 0.1250  plane waves:     606
 k-point 108 :  -0.4583 0.4583 0.1250  plane waves:     612
 k-point 109 :  -0.3750 0.4583 0.1250  plane waves:     612
 k-point 110 :  -0.2917 0.4583 0.1250  plane waves:     610
 k-point 111 :  -0.2083 0.4583 0.1250  plane waves:     610
 k-point 112 :  -0.1250 0.4583 0.1250  plane waves:     606
 k-point 113 :  -0.4583-0.4583 0.1250  plane waves:     612
 k-point 114 :  -0.3750-0.4583 0.1250  plane waves:     615
 k-point 115 :  -0.2917-0.4583 0.1250  plane waves:     613
 k-point 116 :  -0.2083-0.4583 0.1250  plane waves:     611
 k-point 117 :  -0.3750-0.3750 0.1250  plane waves:     614
 k-point 118 :  -0.2917-0.3750 0.1250  plane waves:     608
 k-point 119 :  -0.2083-0.3750 0.1250  plane waves:     606
 k-point 120 :  -0.2917-0.2917 0.1250  plane waves:     608
 k-point 121 :  -0.2083-0.2917 0.1250  plane waves:     610
 k-point 122 :  -0.2083-0.2083 0.1250  plane waves:     606
 k-point 123 :   0.2083 0.2083 0.2083  plane waves:     592
 k-point 124 :   0.2917 0.2083 0.2083  plane waves:     602
 k-point 125 :   0.3750 0.2083 0.2083  plane waves:     603
 k-point 126 :   0.4583 0.2083 0.2083  plane waves:     610
 k-point 127 :  -0.4583 0.2083 0.2083  plane waves:     607
 k-point 128 :  -0.3750 0.2083 0.2083  plane waves:     609
 k-point 129 :  -0.2917 0.2083 0.2083  plane waves:     608
 k-point 130 :  -0.2083 0.2083 0.2083  plane waves:     613
 k-point 131 :   0.2917 0.2917 0.2083  plane waves:     603
 k-point 132 :   0.3750 0.2917 0.2083  plane waves:     606
 k-point 133 :   0.4583 0.2917 0.2083  plane waves:     612
 k-point 134 :  -0.4583 0.2917 0.2083  plane waves:     608
 k-point 135 :  -0.3750 0.2917 0.2083  plane waves:     609
 k-point 136 :  -0.2917 0.2917 0.2083  plane waves:     610
 k-point 137 :  -0.2083 0.2917 0.2083  plane waves:     608
 k-point 138 :   0.3750 0.3750 0.2083  plane waves:     611
 k-point 139 :   0.4583 0.3750 0.2083  plane waves:     610
 k-point 140 :  -0.4583 0.3750 0.2083  plane waves:     610
 k-point 141 :  -0.3750 0.3750 0.2083  plane waves:     612
 k-point 142 :  -0.2917 0.3750 0.2083  plane waves:     612
 k-point 143 :  -0.2083 0.3750 0.2083  plane waves:     611
 k-point 144 :   0.4583 0.4583 0.2083  plane waves:     607
 k-point 145 :  -0.4583 0.4583 0.2083  plane waves:     611
 k-point 146 :  -0.3750 0.4583 0.2083  plane waves:     611
 k-point 147 :  -0.2917 0.4583 0.2083  plane waves:     612
 k-point 148 :  -0.2083 0.4583 0.2083  plane waves:     616
 k-point 149 :  -0.4583-0.4583 0.2083  plane waves:     613
 k-point 150 :  -0.3750-0.4583 0.2083  plane waves:     611
 k-point 151 :  -0.2917-0.4583 0.2083  plane waves:     613
 k-point 152 :  -0.3750-0.3750 0.2083  plane waves:     614
 k-point 153 :  -0.2917-0.3750 0.2083  plane waves:     616
 k-point 154 :  -0.2917-0.2917 0.2083  plane waves:     614
 k-point 155 :   0.2917 0.2917 0.2917  plane waves:     607
 k-point 156 :   0.3750 0.2917 0.2917  plane waves:     607
 k-point 157 :   0.4583 0.2917 0.2917  plane waves:     611
 k-point 158 :  -0.4583 0.2917 0.2917  plane waves:     608
 k-point 159 :  -0.3750 0.2917 0.2917  plane waves:     610
 k-point 160 :  -0.2917 0.2917 0.2917  plane waves:     608
 k-point 161 :   0.3750 0.3750 0.2917  plane waves:     606
 k-point 162 :   0.4583 0.3750 0.2917  plane waves:     605
 k-point 163 :  -0.4583 0.3750 0.2917  plane waves:     609
 k-point 164 :  -0.3750 0.3750 0.2917  plane waves:     610
 k-point 165 :  -0.2917 0.3750 0.2917  plane waves:     609
 k-point 166 :   0.4583 0.4583 0.2917  plane waves:     609
 k-point 167 :  -0.4583 0.4583 0.2917  plane waves:     609
 k-point 168 :  -0.3750 0.4583 0.2917  plane waves:     615
 k-point 169 :  -0.2917 0.4583 0.2917  plane waves:     616
 k-point 170 :  -0.4583-0.4583 0.2917  plane waves:     609
 k-point 171 :  -0.3750-0.4583 0.2917  plane waves:     611
 k-point 172 :  -0.3750-0.3750 0.2917  plane waves:     610
 k-point 173 :   0.3750 0.3750 0.3750  plane waves:     607
 k-point 174 :   0.4583 0.3750 0.3750  plane waves:     609
 k-point 175 :  -0.4583 0.3750 0.3750  plane waves:     606
 k-point 176 :  -0.3750 0.3750 0.3750  plane waves:     609
 k-point 177 :   0.4583 0.4583 0.3750  plane waves:     601
 k-point 178 :  -0.4583 0.4583 0.3750  plane waves:     606
 k-point 179 :  -0.3750 0.4583 0.3750  plane waves:     603
 k-point 180 :  -0.4583-0.4583 0.3750  plane waves:     609
 k-point 181 :   0.4583 0.4583 0.4583  plane waves:     598
 k-point 182 :  -0.4583 0.4583 0.4583  plane waves:     604

 maximum and minimum number of plane-waves per node :       616      592

 maximum number of plane-waves:       616
 maximum index in each direction: 
   IXMAX=    6   IYMAX=    6   IZMAX=    5
   IXMIN=   -6   IYMIN=   -6   IZMIN=   -6


 serial   3D FFT for wavefunctions
 parallel 3D FFT for charge:
    minimum data exchange during FFTs selected (reduces bandwidth)


 total amount of memory used by VASP MPI-rank0    46983. kBytes
=======================================================================

   base      :      30000. kBytes
   nonl-proj :       7194. kBytes
   fftplans  :       4177. kBytes
   grid      :       1926. kBytes
   one-center:          6. kBytes
   wavefun   :       3680. kBytes
 
     INWAV:  cpu time    0.0000: real time    0.0009
 Broyden mixing: mesh for mixing (old mesh)
   NGX = 11   NGY = 11   NGZ = 11
  (NGX  = 48   NGY  = 48   NGZ  = 48)
  gives a total of   1331 points

 initial charge density was supplied:
 charge density of overlapping atoms calculated
 number of electron       8.0000000 magnetization 
 keeping initial charge density in first step


--------------------------------------------------------------------------------------------------------


 Maximum index for augmentation-charges        21983 (set IRDMAX)


--------------------------------------------------------------------------------------------------------


 First call to EWALD:  gamma=   0.515
 Maximum number of real-space cells 3x 3x 3
 Maximum number of reciprocal cells 3x 3x 3

    FEWALD:  cpu time    0.0030: real time    0.0036


--------------------------------------- Iteration      1(   1)  ---------------------------------------


    POTLOK:  cpu time    0.0310: real time    0.0347
    SETDIJ:  cpu time    0.1790: real time    0.1780
     EDDAV:  cpu time    1.4608: real time    1.4625
       DOS:  cpu time    0.0010: real time    0.0031
    --------------------------------------------
      LOOP:  cpu time    1.6727: real time    1.6786

 eigenvalue-minimisations  :  2928
 total energy-change (2. order) : 0.1609607E+01  (-0.2569542E+03)
 number of electron       8.0000000 magnetization 
 augmentation part        8.0000000 magnetization 

 Free energy of the ion-electron system (eV)
  ---------------------------------------------------
  alpha Z        PSCENC =         3.29543706
  Ewald energy   TEWEN  =      -226.99672927
  -Hartree energ DENC   =       -11.31296092
  -exchange      EXHF   =         0.00000000
  -V(xc)+E(xc)   XCENC  =       -18.68251879
  PAW double counting   =       176.24759923     -141.06103558
  entropy T*S    EENTRO =        -0.00121660
  eigenvalues    EBANDS =        13.98977782
  atomic energy  EATOM  =       206.13125414
  Solvation  Ediel_sol  =         0.00000000
  ---------------------------------------------------
  free energy    TOTEN  =         1.60960709 eV

  energy without entropy =        1.61082370  energy(sigma->0) =        1.61021540


--------------------------------------------------------------------------------------------------------




--------------------------------------- Iteration      1(   2)  ---------------------------------------


     EDDAV:  cpu time    2.1377: real time    2.1552
       DOS:  cpu time    0.0010: real time    0.0020
    --------------------------------------------
      LOOP:  cpu time    2.1387: real time    2.1572

 eigenvalue-minimisations  :  4576
 total energy-change (2. order) :-0.1247538E+02  (-0.1198684E+02)
 number of electron       8.0000000 magnetization 
 augmentation part        8.0000000 magnetization 

 Free energy of the ion-electron system (eV)
  ---------------------------------------------------
  alpha Z        PSCENC =         3.29543706
  Ewald energy   TEWEN  =      -226.99672927
  -Hartree energ DENC   =       -11.31296092
  -exchange      EXHF   =         0.00000000
  -V(xc)+E(xc)   XCENC  =       -18.68251879
  PAW double counting   =       176.24759923     -141.06103558
  entropy T*S    EENTRO =        -0.00000000
  eigenvalues    EBANDS =         1.51318448
  atomic energy  EATOM  =       206.13125414
  Solvation  Ediel_sol  =         0.00000000
  ---------------------------------------------------
  free energy    TOTEN  =       -10.86576964 eV

  energy without entropy =      -10.86576964  energy(sigma->0) =      -10.86576964


--------------------------------------------------------------------------------------------------------




--------------------------------------- Iteration      1(   3)  ---------------------------------------


     EDDAV:  cpu time    1.8317: real time    1.8507
       DOS:  cpu time    0.0020: real time    0.0021
    --------------------------------------------
      LOOP:  cpu time    1.8337: real time    1.8528

 eigenvalue-minimisations  :  3816
 total energy-change (2. order) :-0.1499401E+00  (-0.1499401E+00)
 number of electron       8.0000000 magnetization 
 augmentation part        8.0000000 magnetization 

 Free energy of the ion-electron system (eV)
  ---------------------------------------------------
  alpha Z        PSCENC =         3.29543706
  Ewald energy   TEWEN  =      -226.99672927
  -Hartree energ DENC   =       -11.31296092
  -exchange      EXHF   =         0.00000000
  -V(xc)+E(xc)   XCENC  =       -18.68251879
  PAW double counting   =       176.24759923     -141.06103558
  entropy T*S    EENTRO =        -0.00000000
  eigenvalues    EBANDS =         1.36324434
  atomic energy  EATOM  =       206.13125414
  Solvation  Ediel_sol  =         0.00000000
  ---------------------------------------------------
  free energy    TOTEN  =       -11.01570978 eV

  energy without entropy =      -11.01570978  energy(sigma->0) =      -11.01570978


--------------------------------------------------------------------------------------------------------




--------------------------------------- Iteration      1(   4)  ---------------------------------------


     EDDAV:  cpu time    2.1787: real time    2.1961
       DOS:  cpu time    0.0010: real time    0.0021
    --------------------------------------------
      LOOP:  cpu time    2.1797: real time    2.1983

 eigenvalue-minimisations  :  4656
 total energy-change (2. order) :-0.5062728E-03  (-0.5062728E-03)
 number of electron       8.0000000 magnetization 
 augmentation part        8.0000000 magnetization 

 Free energy of the ion-electron system (eV)
  ---------------------------------------------------
  alpha Z        PSCENC =         3.29543706
  Ewald energy   TEWEN  =      -226.99672927
  -Hartree energ DENC   =       -11.31296092
  -exchange      EXHF   =         0.00000000
  -V(xc)+E(xc)   XCENC  =       -18.68251879
  PAW double counting   =       176.24759923     -141.06103558
  entropy T*S    EENTRO =        -0.00000000
  eigenvalues    EBANDS =         1.36273807
  atomic energy  EATOM  =       206.13125414
  Solvation  Ediel_sol  =         0.00000000
  ---------------------------------------------------
  free energy    TOTEN  =       -11.01621605 eV

  energy without entropy =      -11.01621605  energy(sigma->0) =      -11.01621605


--------------------------------------------------------------------------------------------------------




--------------------------------------- Iteration      1(   5)  ---------------------------------------


     EDDAV:  cpu time    1.8677: real time    1.8861
       DOS:  cpu time    0.0010: real time    0.0021
    CHARGE:  cpu time    0.1140: real time    0.1142
    MIXING:  cpu time    0.0020: real time    0.0015
    --------------------------------------------
      LOOP:  cpu time    1.9837: real time    2.0040

 eigenvalue-minimisations  :  3912
 total energy-change (2. order) :-0.4352936E-06  (-0.4351554E-06)
 number of electron       8.0000000 magnetization 
 augmentation part       -0.4697029 magnetization 

 Broyden mixing:
  rms(total) = 0.47769E+00    rms(broyden)= 0.47768E+00
  rms(prec ) = 0.93198E+00
  weight for this iteration     100.00

 Free energy of the ion-electron system (eV)
  ---------------------------------------------------
  alpha Z        PSCENC =         3.29543706
  Ewald energy   TEWEN  =      -226.99672927
  -Hartree energ DENC   =       -11.31296092
  -exchange      EXHF   =         0.00000000
  -V(xc)+E(xc)   XCENC  =       -18.68251879
  PAW double counting   =       176.24759923     -141.06103558
  entropy T*S    EENTRO =        -0.00000000
  eigenvalues    EBANDS =         1.36273763
  atomic energy  EATOM  =       206.13125414
  Solvation  Ediel_sol  =         0.00000000
  ---------------------------------------------------
  free energy    TOTEN  =       -11.01621649 eV

  energy without entropy =      -11.01621649  energy(sigma->0) =      -11.01621649


--------------------------------------------------------------------------------------------------------




--------------------------------------- Iteration      1(   6)  ---------------------------------------


    POTLOK:  cpu time    0.0320: real time    0.0489
    SETDIJ:  cpu time    0.1730: real time    0.1737
     EDDAV:  cpu time    1.6677: real time    1.6693
       DOS:  cpu time    0.0020: real time    0.0021
    CHARGE:  cpu time    0.1080: real time    0.1087
    MIXING:  cpu time    0.0020: real time    0.0016
    --------------------------------------------
      LOOP:  cpu time    1.9847: real time    2.0043

 eigenvalue-minimisations  :  3432
 total energy-change (2. order) : 0.1160638E+00  (-0.7570834E-02)
 number of electron       8.0000000 magnetization 
 augmentation part       -0.4641321 magnetization 

 Broyden mixing:
  rms(total) = 0.29190E+00    rms(broyden)= 0.29190E+00
  rms(prec ) = 0.55514E+00
  weight for this iteration     100.00

 eigenvalues of (default mixing * dielectric matrix)
  average eigenvalue GAMMA=   2.5623
  2.5623

 Free energy of the ion-electron system (eV)
  ---------------------------------------------------
  alpha Z        PSCENC =         3.29543706
  Ewald energy   TEWEN  =      -226.99672927
  -Hartree energ DENC   =       -12.77695325
  -exchange      EXHF   =         0.00000000
  -V(xc)+E(xc)   XCENC  =       -18.45112759
  PAW double counting   =       373.29557581     -338.21200602
  entropy T*S    EENTRO =        -0.00000000
  eigenvalues    EBANDS =         2.81439644
  atomic energy  EATOM  =       206.13125414
  Solvation  Ediel_sol  =         0.00000000
  ---------------------------------------------------
  free energy    TOTEN  =       -10.90015268 eV

  energy without entropy =      -10.90015268  energy(sigma->0) =      -10.90015268


--------------------------------------------------------------------------------------------------------




--------------------------------------- Iteration      1(   7)  ---------------------------------------


    POTLOK:  cpu time    0.0310: real time    0.0486
    SETDIJ:  cpu time    0.1730: real time    0.1725
     EDDAV:  cpu time    1.8117: real time    1.8137
       DOS:  cpu time    0.0020: real time    0.0021
    CHARGE:  cpu time    0.1070: real time    0.1079
    MIXING:  cpu time    0.0010: real time    0.0015
    --------------------------------------------
      LOOP:  cpu time    2.1267: real time    2.1463

 eigenvalue-minimisations  :  3784
 total energy-change (2. order) : 0.5358359E-01  (-0.1455383E-01)
 number of electron       8.0000000 magnetization 
 augmentation part       -0.4573636 magnetization 

 Broyden mixing:
  rms(total) = 0.17482E-01    rms(broyden)= 0.17482E-01
  rms(prec ) = 0.40075E-01
  weight for this iteration     100.00

 eigenvalues of (default mixing * dielectric matrix)
  average eigenvalue GAMMA=   2.0594
  1.7363  2.3825

 Free energy of the ion-electron system (eV)
  ---------------------------------------------------
  alpha Z        PSCENC =         3.29543706
  Ewald energy   TEWEN  =      -226.99672927
  -Hartree energ DENC   =       -15.18021672
  -exchange      EXHF   =         0.00000000
  -V(xc)+E(xc)   XCENC  =       -18.06375770
  PAW double counting   =       841.77112458     -806.82049323
  entropy T*S    EENTRO =        -0.00000000
  eigenvalues    EBANDS =         5.01681203
  atomic energy  EATOM  =       206.13125414
  Solvation  Ediel_sol  =         0.00000000
  ---------------------------------------------------
  free energy    TOTEN  =       -10.84656909 eV

  energy without entropy =      -10.84656909  energy(sigma->0) =      -10.84656909


--------------------------------------------------------------------------------------------------------




--------------------------------------- Iteration      1(   8)  ---------------------------------------


    POTLOK:  cpu time    0.0330: real time    0.0485
    SETDIJ:  cpu time    0.1710: real time    0.1725
     EDDAV:  cpu time    1.6248: real time    1.6262
       DOS:  cpu time    0.0020: real time    0.0019
    CHARGE:  cpu time    0.1070: real time    0.1081
    MIXING:  cpu time    0.0020: real time    0.0018
    --------------------------------------------
      LOOP:  cpu time    1.9397: real time    1.9589

 eigenvalue-minimisations  :  3320
 total energy-change (2. order) :-0.1075825E-02  (-0.3688328E-03)
 number of electron       8.0000000 magnetization 
 augmentation part       -0.4583005 magnetization 

 Broyden mixing:
  rms(total) = 0.73234E-02    rms(broyden)= 0.73232E-02
  rms(prec ) = 0.13153E-01
  weight for this iteration     100.00

 eigenvalues of (default mixing * dielectric matrix)
  average eigenvalue GAMMA=   2.2581
  2.8659  1.9542  1.9542

 Free energy of the ion-electron system (eV)
  ---------------------------------------------------
  alpha Z        PSCENC =         3.29543706
  Ewald energy   TEWEN  =      -226.99672927
  -Hartree energ DENC   =       -15.10966277
  -exchange      EXHF   =         0.00000000
  -V(xc)+E(xc)   XCENC  =       -18.06418249
  PAW double counting   =       848.09844265     -813.12155726
  entropy T*S    EENTRO =        -0.00000000
  eigenvalues    EBANDS =         4.91935301
  atomic energy  EATOM  =       206.13125414
  Solvation  Ediel_sol  =         0.00000000
  ---------------------------------------------------
  free energy    TOTEN  =       -10.84764492 eV

  energy without entropy =      -10.84764492  energy(sigma->0) =      -10.84764492


--------------------------------------------------------------------------------------------------------




--------------------------------------- Iteration      1(   9)  ---------------------------------------


    POTLOK:  cpu time    0.0320: real time    0.0486
    SETDIJ:  cpu time    0.1720: real time    0.1722
     EDDAV:  cpu time    2.0357: real time    2.0378
       DOS:  cpu time    0.0020: real time    0.0021
    CHARGE:  cpu time    0.1080: real time    0.1079
    MIXING:  cpu time    0.0000: real time    0.0015
    --------------------------------------------
      LOOP:  cpu time    2.3496: real time    2.3701

 eigenvalue-minimisations  :  4336
 total energy-change (2. order) :-0.1981701E-03  (-0.1967392E-04)
 number of electron       8.0000000 magnetization 
 augmentation part       -0.4584166 magnetization 

 Broyden mixing:
  rms(total) = 0.56598E-02    rms(broyden)= 0.56597E-02
  rms(prec ) = 0.65227E-02
  weight for this iteration     100.00

[...]
      3       1.7009      2.00000
      4       2.0954      2.00000
      5       9.3450      0.00000
      6       9.9240      0.00000
      7      10.5550      0.00000
      8      11.1768      0.00000

 k-point   148 :      -0.2083    0.4583    0.2083
  band No.  band energies     occupation 
      1      -2.6273      2.00000
      2      -1.3544      2.00000
      3       1.6125      2.00000
      4       2.3936      2.00000
      5       9.3614      0.00000
      6       9.6809      0.00000
      7      10.2887      0.00000
      8      11.9093      0.00000

 k-point   149 :      -0.4583   -0.4583    0.2083
  band No.  band energies     occupation 
      1      -2.9003      2.00000
      2      -1.2045      2.00000
      3       1.7553      2.00000
      4       3.1770      2.00000
      5       6.7909      0.00000
      6       9.0164      0.00000
      7      12.8472      0.00000
      8      12.9105      0.00000

 k-point   150 :      -0.3750   -0.4583    0.2083
  band No.  band energies     occupation 
      1      -2.4180      2.00000
      2      -1.6501      2.00000
      3       1.6683      2.00000
      4       2.7906      2.00000
      5       7.2602      0.00000
      6       8.9883      0.00000
      7      12.4975      0.00000
      8      13.2900      0.00000

 k-point   151 :      -0.2917   -0.4583    0.2083
  band No.  band energies     occupation 
      1      -2.2721      2.00000
      2      -1.7226      2.00000
      3       1.7959      2.00000
      4       2.1996      2.00000
      5       8.4924      0.00000
      6       9.1320      0.00000
      7      11.4452      0.00000
      8      12.1694      0.00000

 k-point   152 :      -0.3750   -0.3750    0.2083
  band No.  band energies     occupation 
      1      -2.4737      2.00000
      2      -1.6292      2.00000
      3       1.6209      2.00000
      4       3.1266      2.00000
      5       6.7219      0.00000
      6       8.9395      0.00000
      7      13.4045      0.00000
      8      13.7060      0.00000

 k-point   153 :      -0.2917   -0.3750    0.2083
  band No.  band energies     occupation 
      1      -2.8546      2.00000
      2      -1.2157      2.00000
      3       1.7799      2.00000
      4       2.8684      2.00000
      5       7.3211      0.00000
      6       9.0663      0.00000
      7      11.8185      0.00000
      8      13.7831      0.00000

 k-point   154 :      -0.2917   -0.2917    0.2083
  band No.  band energies     occupation 
      1      -3.3738      2.00000
      2      -0.7350      2.00000
      3       2.0213      2.00000
      4       3.2771      2.00000
      5       6.9259      0.00000
      6       9.1720      0.00000
      7      12.1243      0.00000
      8      12.2341      0.00000

 k-point   155 :       0.2917    0.2917    0.2917
  band No.  band energies     occupation 
      1      -5.1422      2.00000
      2       1.0190      2.00000
      3       4.7482      2.00000
      4       4.7482      2.00000
      5       7.4411      0.00000
      6       9.1513      0.00000
      7       9.1513      0.00000
      8      13.0222      0.00000

 k-point   156 :       0.3750    0.2917    0.2917
  band No.  band energies     occupation 
      1      -4.8698      2.00000
      2       0.5919      2.00000
      3       3.8666      2.00000
      4       4.7917      2.00000
      5       7.8685      0.00000
      6       9.1490      0.00000
      7       9.3087      0.00000
      8      12.5365      0.00000

 k-point   157 :       0.4583    0.2917    0.2917
  band No.  band energies     occupation 
      1      -4.4412      2.00000
      2       0.2201      2.00000
      3       2.6737      2.00000
      4       4.5238      2.00000
      5       8.2061      0.00000
      6       9.7441      0.00000
      7       9.7550      0.00000
      8      12.2011      0.00000

 k-point   158 :      -0.4583    0.2917    0.2917
  band No.  band energies     occupation 
      1      -3.8847      2.00000
      2      -0.2195      2.00000
      3       1.7589      2.00000
      4       4.1208      2.00000
      5       7.8530      0.00000
      6      10.6899      0.00000
      7      10.9412      0.00000
      8      12.0804      0.00000

 k-point   159 :      -0.3750    0.2917    0.2917
  band No.  band energies     occupation 
      1      -3.2852      2.00000
      2      -0.8383      2.00000
      3       1.4174      2.00000
      4       3.7349      2.00000
      5       7.4224      0.00000
      6      11.5015      0.00000
      7      11.6628      0.00000
      8      12.4980      0.00000

 k-point   160 :      -0.2917    0.2917    0.2917
  band No.  band energies     occupation 
      1      -2.9796      2.00000
      2      -1.1960      2.00000
      3       1.5636      2.00000
      4       3.4421      2.00000
      5       7.1022      0.00000
      6      10.6455      0.00000
      7      11.9154      0.00000
      8      11.9912      0.00000

 k-point   161 :       0.3750    0.3750    0.2917
  band No.  band energies     occupation 
      1      -4.6648      2.00000
      2       0.1691      2.00000
      3       4.2034      2.00000
      4       4.2724      2.00000
      5       7.7727      0.00000
      6       8.9040      0.00000
      7       9.6167      0.00000
      8      12.0387      0.00000

 k-point   162 :       0.4583    0.3750    0.2917
  band No.  band energies     occupation 
      1      -4.3042      2.00000
      2      -0.1707      2.00000
      3       3.1509      2.00000
      4       4.2021      2.00000
      5       8.2146      0.00000
      6       8.9112      0.00000
      7      10.1772      0.00000
      8      11.6908      0.00000

 k-point   163 :      -0.4583    0.3750    0.2917
  band No.  band energies     occupation 
      1      -3.8085      2.00000
      2      -0.4683      2.00000
      3       2.1107      2.00000
      4       3.8331      2.00000
      5       8.4000      0.00000
      6       9.2868      0.00000
      7      11.2807      0.00000
      8      11.6004      0.00000

 k-point   164 :      -0.3750    0.3750    0.2917
  band No.  band energies     occupation 
      1      -3.2234      2.00000
      2      -0.8666      2.00000
      3       1.4628      2.00000
      4       3.4062      2.00000
      5       7.9472      0.00000
      6      10.5221      0.00000
      7      11.5496      0.00000
      8      12.4541      0.00000

 k-point   165 :      -0.2917    0.3750    0.2917
  band No.  band energies     occupation 
      1      -2.7147      2.00000
      2      -1.3440      2.00000
      3       1.3956      2.00000
      4       3.0639      2.00000
      5       7.5654      0.00000
      6      10.5930      0.00000
      7      11.5549      0.00000
      8      12.3745      0.00000

 k-point   166 :       0.4583    0.4583    0.2917
  band No.  band energies     occupation 
      1      -4.0195      2.00000
      2      -0.5054      2.00000
      3       3.0448      2.00000
      4       3.8386      2.00000
      5       7.6410      0.00000
      6       9.7459      0.00000
      7      10.3624      0.00000
      8      11.2810      0.00000

 k-point   167 :      -0.4583    0.4583    0.2917
  band No.  band energies     occupation 
      1      -3.6052      2.00000
      2      -0.7664      2.00000
      3       2.3233      2.00000
      4       3.5079      2.00000
      5       7.9227      0.00000
      6       9.6600      0.00000
      7      11.0860      0.00000
      8      11.5170      0.00000

 k-point   168 :      -0.3750    0.4583    0.2917
  band No.  band energies     occupation 
      1      -3.0918      2.00000
      2      -1.0382      2.00000
      3       1.7177      2.00000
      4       2.9562      2.00000
      5       8.9328      0.00000
      6       9.2252      0.00000
      7      11.0501      0.00000
      8      12.7546      0.00000

 k-point   169 :      -0.2917    0.4583    0.2917
  band No.  band energies     occupation 
      1      -2.5312      2.00000
      2      -1.4567      2.00000
      3       1.5291      2.00000
      4       2.4690      2.00000
      5       8.7811      0.00000
      6      10.2746      0.00000
      7      10.9064      0.00000
      8      11.2935      0.00000

 k-point   170 :      -0.4583   -0.4583    0.2917
  band No.  band energies     occupation 
      1      -3.2978      2.00000
      2      -1.0074      2.00000
      3       1.9543      2.00000
      4       3.5330      2.00000
      5       7.2356      0.00000
      6      10.7423      0.00000
      7      11.2577      0.00000
      8      11.3565      0.00000

 k-point   171 :      -0.3750   -0.4583    0.2917
  band No.  band energies     occupation 
      1      -2.9231      2.00000
      2      -1.2107      2.00000
      3       1.5817      2.00000
      4       3.1344      2.00000
      5       7.6281      0.00000
      6      10.5624      0.00000
      7      11.0242      0.00000
      8      12.8895      0.00000

 k-point   172 :      -0.3750   -0.3750    0.2917
  band No.  band energies     occupation 
      1      -2.7766      2.00000
      2      -1.3164      2.00000
      3       1.3486      2.00000
      4       3.3961      2.00000
      5       7.0335      0.00000
      6      10.5861      0.00000
      7      12.4135      0.00000
      8      12.7557      0.00000

 k-point   173 :       0.3750    0.3750    0.3750
  band No.  band energies     occupation 
      1      -4.5363      2.00000
      2      -0.2503      2.00000
      3       4.5545      2.00000
      4       4.5545      2.00000
      5       7.2208      0.00000
      6       9.0787      0.00000
      7       9.0787      0.00000
      8      13.4629      0.00000

 k-point   174 :       0.4583    0.3750    0.3750
  band No.  band energies     occupation 
      1      -4.2575      2.00000
      2      -0.5640      2.00000
      3       3.7732      2.00000
      4       4.5179      2.00000
      5       7.6882      0.00000
      6       9.1079      0.00000
      7       9.1891      0.00000
      8      13.4235      0.00000

 k-point   175 :      -0.4583    0.3750    0.3750
  band No.  band energies     occupation 
      1      -3.8465      2.00000
      2      -0.7674      2.00000
      3       2.6342      2.00000
      4       4.1930      2.00000
      5       7.9133      0.00000
      6       9.6672      0.00000
      7       9.9216      0.00000
      8      13.4707      0.00000

 k-point   176 :      -0.3750    0.3750    0.3750
  band No.  band energies     occupation 
      1      -3.3336      2.00000
      2      -0.9529      2.00000
      3       1.7103      2.00000
      4       3.7732      2.00000
      5       7.4802      0.00000
      6      11.0285      0.00000
      7      11.0697      0.00000
      8      12.5114      0.00000

 k-point   177 :       0.4583    0.4583    0.3750
  band No.  band energies     occupation 
      1      -4.0732      2.00000
      2      -0.8597      2.00000
      3       3.9544      2.00000
      4       4.2426      2.00000
      5       7.6407      0.00000
      6       8.8813      0.00000
      7       9.4101      0.00000
      8      13.1348      0.00000

 k-point   178 :      -0.4583    0.4583    0.3750
  band No.  band energies     occupation 
      1      -3.7722      2.00000
      2      -1.0142      2.00000
      3       3.0727      2.00000
      4       4.0309      2.00000
      5       8.1620      0.00000
      6       8.7761      0.00000
      7      10.1035      0.00000
      8      13.0240      0.00000

 k-point   179 :      -0.3750    0.4583    0.3750
  band No.  band energies     occupation 
      1      -3.3808      2.00000
      2      -1.0691      2.00000
      3       2.1396      2.00000
      4       3.5872      2.00000
      5       8.1015      0.00000
      6       9.4309      0.00000
      7      11.4191      0.00000
      8      12.6292      0.00000

 k-point   180 :      -0.4583   -0.4583    0.3750
  band No.  band energies     occupation 
      1      -3.6097      2.00000
      2      -1.1111      2.00000
      3       2.7680      2.00000
      4       3.9557      2.00000
      5       7.7165      0.00000
      6       9.6542      0.00000
      7      10.1112      0.00000
      8      12.7507      0.00000

 k-point   181 :       0.4583    0.4583    0.4583
  band No.  band energies     occupation 
      1      -4.0084      2.00000
      2      -1.1149      2.00000
      3       4.4561      2.00000
      4       4.4562      2.00000
      5       7.1072      0.00000
      6       8.9885      0.00000
      7       8.9885      0.00000
      8      13.3477      0.00000

 k-point   182 :      -0.4583    0.4583    0.4583
  band No.  band energies     occupation 
      1      -3.8476      2.00000
      2      -1.1952      2.00000
      3       3.8061      2.00000
      4       4.3283      2.00000
      5       7.6101      0.00000
      6       8.9401      0.00000
      7       9.2547      0.00000
      8      13.6170      0.00000


--------------------------------------------------------------------------------------------------------


 soft charge-density along one line, spin component           1
         0         1         2         3         4         5         6         7         8         9
 total charge-density along one line
 
 pseudopotential strength for first ion, spin component:           1
 18.437  25.722   0.000   0.000   0.000   0.000   0.000   0.000
 25.722  35.892   0.000   0.000   0.000   0.000   0.000   0.000
  0.000   0.000   4.181  -0.000  -0.000   7.791  -0.000  -0.000
  0.000   0.000  -0.000   4.181  -0.000  -0.000   7.791  -0.000
  0.000   0.000  -0.000  -0.000   4.181  -0.000  -0.000   7.791
  0.000   0.000   7.791  -0.000  -0.000  14.528  -0.000  -0.000
  0.000   0.000  -0.000   7.791  -0.000  -0.000  14.528  -0.000
  0.000   0.000  -0.000  -0.000   7.791  -0.000  -0.000  14.528
 total augmentation occupancy for first ion, spin component:           1
  5.530  -2.064  -0.000  -0.000   0.000  -0.000   0.000  -0.000
 -2.064   0.887   0.000   0.000  -0.000   0.000  -0.000  -0.000
 -0.000   0.000   2.938   0.000   0.000  -0.662   0.000  -0.000
  0.000  -0.000   0.000   2.938   0.000  -0.000  -0.662  -0.000
  0.000   0.000   0.000   0.000   2.938  -0.000   0.000  -0.662
  0.000   0.000  -0.662   0.000  -0.000   0.157   0.000   0.000
 -0.000   0.000   0.000  -0.662  -0.000   0.000   0.157   0.000
 -0.000  -0.000  -0.000  -0.000  -0.662   0.000  -0.000   0.157


------------------------ aborting loop because EDIFF is reached ----------------------------------------


    CHARGE:  cpu time    0.1080: real time    0.1080
    FORLOC:  cpu time    0.0010: real time    0.0017
    FORNL :  cpu time    0.1480: real time    0.1481
    STRESS:  cpu time    1.3288: real time    1.3297
    FORCOR:  cpu time    0.0310: real time    0.0310
    FORHAR:  cpu time    0.0060: real time    0.0060
    MIXING:  cpu time    0.0010: real time    0.0013
    OFIELD:  cpu time    0.0000: real time    0.0002

  FORCE on cell =-STRESS in cart. coord.  units (eV):
  Direction    XX          YY          ZZ          XY          YZ          ZX
  --------------------------------------------------------------------------------------
  Alpha Z     3.29544     3.29544     3.29544
  Ewald     -75.66559   -75.66566   -75.66558     0.00001     0.00000     0.00000
  Hartree     5.05407     5.05407     5.05407     0.00000     0.00000     0.00000
  E(xc)     -25.25151   -25.25151   -25.25151    -0.00000    -0.00000    -0.00000
  Local     -29.52351   -29.52349   -29.52349    -0.00000     0.00001     0.00001
  n-local    75.15508    77.51438    79.79734    -1.02039    -1.43101     0.09693
  augment   -11.64944   -11.64944   -11.64946    -0.00000    -0.00001    -0.00001
  Kinetic    54.81258    56.28064    57.67373    -0.12339     0.50852    -1.12648
  Fock        0.00000     0.00000     0.00000     0.00000     0.00000     0.00000
  -------------------------------------------------------------------------------------
  Total       0.00403     0.00403     0.00403    -0.00000     0.00000     0.00000
  in kB       0.15799     0.15799     0.15799    -0.00000     0.00000     0.00000
  external pressure =        0.16 kB  Pullay stress =        0.00 kB


 VOLUME and BASIS-vectors are now :
 -----------------------------------------------------------------------------
  energy-cutoff  :      350.00
  volume of cell :       40.86
      direct lattice vectors                 reciprocal lattice vectors
     3.348133390  0.000000000  1.933045442     0.298673883 -0.105597122  0.000000000
     1.116044463  3.156651684  1.933045442     0.000000000  0.316791366  0.000000000
     0.000000000  0.000000000  3.866090883    -0.149336941 -0.105597122  0.258659206

  length of vectors
     3.866091292  3.866092313  3.866090883     0.316791478  0.316791366  0.316791508


 FORCES acting on ions
    electron-ion (+dipol)            ewald-force                    non-local-force                 convergence-correction
 -----------------------------------------------------------------------------------------------
   0.525E-05 0.245E-04 0.589E-07   -.892E-05 -.418E-04 -.114E-13   -.201E-16 -.143E-16 0.278E-16   0.643E-07 0.472E-07 0.111E-06
   -.525E-05 -.245E-04 -.589E-07   0.892E-05 0.418E-04 0.114E-13   0.251E-16 0.143E-16 -.694E-17   -.643E-07 -.472E-07 -.111E-06
 -----------------------------------------------------------------------------------------------
   0.465E-13 -.427E-13 0.984E-13   0.207E-15 -.747E-16 -.401E-17   0.500E-17 0.000E+00 0.208E-16   0.742E-15 -.350E-15 0.242E-15
 
 
 POSITION                                       TOTAL-FORCE (eV/Angst)
 -----------------------------------------------------------------------------------
      3.90616      2.76207      6.76566        -0.000000      0.000000      0.000000
      0.55802      0.39458      0.96652         0.000000     -0.000000     -0.000000
 -----------------------------------------------------------------------------------
    total drift:                                0.000000     -0.000000      0.000000


--------------------------------------------------------------------------------------------------------



  FREE ENERGIE OF THE ION-ELECTRON SYSTEM (eV)
  ---------------------------------------------------
  free  energy   TOTEN  =       -10.84786755 eV

  energy  without entropy=      -10.84786755  energy(sigma->0) =      -10.84786755
 


--------------------------------------------------------------------------------------------------------


    POTLOK:  cpu time    0.2050: real time    0.2121


--------------------------------------------------------------------------------------------------------




--------------------------------------------------------------------------------------------------------


  
 reached required accuracy - stopping structural energy minimisation
     LOOP+:  cpu time   24.4013: real time   24.7838
    4ORBIT:  cpu time    0.0000: real time    0.0000

 total amount of memory used by VASP MPI-rank0    46983. kBytes
=======================================================================

   base      :      30000. kBytes
   nonl-proj :       7194. kBytes
   fftplans  :       4177. kBytes
   grid      :       1926. kBytes
   one-center:          6. kBytes
   wavefun   :       3680. kBytes
 
  
  
 General timing and accounting informations for this job:
 ========================================================
  
                  Total CPU time used (sec):       27.053
                            User time (sec):       26.690
                          System time (sec):        0.363
                         Elapsed time (sec):       28.182
  
                   Maximum memory used (kb):       71880.
                   Average memory used (kb):          N/A
  
                          Minor page faults:        15253
                          Major page faults:            1
                 Voluntary context switches:        19883
