<?xml version="1.0" encoding="ISO-8859-1"?>
<modeling>
 <generator>
  <i name="program" type="string">vasp </i>
  <i name="version" type="string">6.2.0  </i>
  <i name="subversion" type="string">18Jan21 (build Aug 12 2022 13:00:08) complex                          parallel </i>
  <i name="platform" type="string">LinuxIFC </i>
  <i name="date" type="string">2024 11 05 </i>
  <i name="time" type="string">05:59:08 </i>
 </generator>
 <incar>
  <i type="int" name="ISTART">     0</i>
  <i type="string" name="PREC">Accurate      (Accurate strictly avoids</i>
  <i type="logical" name="ADDGRID"> T  </i>
  <i type="int" name="ISPIN">     1</i>
  <i type="int" name="NELM">    90</i>
  <i type="int" name="NELMIN">     6</i>
  <i type="int" name="IBRION">     2</i>
  <i name="EDIFF">      0.00000100</i>
  <i name="EDIFFG">     -0.00200000</i>
  <i type="int" name="NSW">   100</i>
  <i type="int" name="ISIF">     2</i>
  <i type="int" name="ISYM">     2</i>
  <i name="ENCUT">    350.00000000</i>
  <i type="logical" name="LREAL"> F  </i>
  <i type="int" name="ISMEAR">     0</i>
  <i name="SIGMA">      0.05000000</i>
  <i type="logical" name="LWAVE"> F  </i>
  <i type="logical" name="LCHARG"> F  </i>
  <i type="logical" name="LASPH"> T  </i>
 </incar>
 <primitive_cell>
  <structure name="primitive_cell" >
   <crystal>
    <varray name="basis" >
     <v>       3.34813339       0.00000000       1.93304544 </v>
     <v>       1.11604446       3.15665168       1.93304544 </v>
     <v>       0.00000000       0.00000000       3.86609088 </v>
    </varray>
    <i name="volume">     40.86029277 </i>
    <varray name="rec_basis" >
     <v>       0.29867388      -0.10559712       0.00000000 </v>
     <v>       0.00000000       0.31679137       0.00000000 </v>
     <v>      -0.14933694      -0.10559712       0.25865921 </v>
    </varray>
   </crystal>
   <varray name="positions" >
    <v>       0.87500000       0.87500000       0.87500000 </v>
    <v>       0.12500000       0.12500000       0.12500000 </v>
   </varray>
  </structure>
  <varray name="primitive_index" >
   <v type="int" >        1 </v>
   <v type="int" >        2 </v>
  </varray>
 </primitive_cell>
 <kpoints>
  <generation param="Monkhorst-Pack">
   <v type="int" name="divisions">      12       12       12 </v>
   <v name="usershift">      0.00000000       0.00000000       0.00000000 </v>
   <v name="genvec1">      0.08333333      -0.00000000       0.00000000 </v>
   <v name="genvec2">      0.00000000       0.08333333       0.00000000 </v>
   <v name="genvec3">     -0.00000000      -0.00000000       0.08333333 </v>
   <v name="shift">      0.50000000       0.50000000       0.50000000 </v>
  </generation>
  <varray name="kpointlist" >
   <v>       0.04166667       0.04166667       0.04166667 </v>
   <v>       0.12500000       0.04166667       0.04166667 </v>
   <v>       0.20833333       0.04166667       0.04166667 </v>
   <v>       0.29166667       0.04166667       0.04166667 </v>
   <v>       0.37500000       0.04166667       0.04166667 </v>
   <v>       0.45833333       0.04166667       0.04166667 </v>
   <v>      -0.45833333       0.04166667       0.04166667 </v>
   <v>      -0.37500000       0.04166667       0.04166667 </v>
   <v>      -0.29166667       0.04166667       0.04166667 </v>
   <v>      -0.20833333       0.04166667       0.04166667 </v>
   <v>      -0.12500000       0.04166667       0.04166667 </v>
   <v>      -0.04166667       0.04166667       0.04166667 </v>
   <v>       0.12500000       0.12500000       0.04166667 </v>
   <v>       0.20833333       0.12500000       0.04166667 </v>
   <v>       0.29166667       0.12500000       0.04166667 </v>
   <v>       0.37500000       0.12500000       0.04166667 </v>
   <v>       0.45833333       0.12500000       0.04166667 </v>
   <v>      -0.45833333       0.12500000       0.04166667 </v>
   <v>      -0.37500000       0.12500000       0.04166667 </v>
   <v>      -0.29166667       0.12500000       0.04166667 </v>
   <v>      -0.20833333       0.12500000       0.04166667 </v>
   <v>      -0.12500000       0.12500000       0.04166667 </v>
   <v>      -0.04166667       0.12500000       0.04166667 </v>
   <v>       0.20833333       0.20833333       0.04166667 </v>
   <v>       0.29166667       0.20833333       0.04166667 </v>
   <v>       0.37500000       0.20833333       0.04166667 </v>
   <v>       0.45833333       0.20833333       0.04166667 </v>
   <v>      -0.45833333       0.20833333       0.04166667 </v>
   <v>      -0.37500000       0.20833333       0.04166667 </v>
   <v>      -0.29166667       0.20833333       0.04166667 </v>
   <v>      -0.20833333       0.20833333       0.04166667 </v>
   <v>      -0.12500000       0.20833333       0.04166667 </v>
   <v>      -0.04166667       0.20833333       0.04166667 </v>
   <v>       0.29166667       0.29166667       0.04166667 </v>
   <v>       0.37500000       0.29166667       0.04166667 </v>
   <v>       0.45833333       0.29166667       0.04166667 </v>
   <v>      -0.45833333       0.29166667       0.04166667 </v>
   <v>      -0.37500000       0.29166667       0.04166667 </v>
   <v>      -0.29166667       0.29166667       0.04166667 </v>
   <v>      -0.20833333       0.29166667       0.04166667 </v>
   <v>      -0.12500000       0.29166667       0.04166667 </v>
   <v>      -0.04166667       0.29166667       0.04166667 </v>
   <v>       0.37500000       0.37500000       0.04166667 </v>
   <v>       0.45833333       0.37500000       0.04166667 </v>
   <v>      -0.45833333       0.37500000       0.04166667 </v>
   <v>      -0.37500000       0.37500000       0.04166667 </v>
   <v>      -0.29166667       0.37500000       0.04166667 </v>
   <v>      -0.20833333       0.37500000       0.04166667 </v>
   <v>      -0.12500000       0.37500000       0.04166667 </v>
   <v>      -0.04166667       0.37500000       0.04166667 </v>
   <v>       0.45833333       0.45833333       0.04166667 </v>
   <v>      -0.45833333       0.45833333       0.04166667 </v>
   <v>      -0.37500000       0.45833333       0.04166667 </v>
   <v>      -0.29166667       0.45833333       0.04166667 </v>
   <v>      -0.20833333       0.45833333       0.04166667 </v>
   <v>      -0.12500000       0.45833333       0.04166667 </v>
   <v>      -0.04166667       0.45833333       0.04166667 </v>
   <v>      -0.45833333      -0.45833333       0.04166667 </v>
   <v>      -0.37500000      -0.45833333       0.04166667 </v>
   <v>      -0.29166667      -0.45833333       0.04166667 </v>
   <v>      -0.20833333      -0.45833333       0.04166667 </v>
   <v>      -0.12500000      -0.45833333       0.04166667 </v>
   <v>      -0.37500000      -0.37500000       0.04166667 </v>
   <v>      -0.29166667      -0.37500000       0.04166667 </v>
   <v>      -0.20833333      -0.37500000       0.04166667 </v>
   <v>      -0.12500000      -0.37500000       0.04166667 </v>
   <v>      -0.29166667      -0.29166667       0.04166667 </v>
   <v>      -0.20833333      -0.29166667       0.04166667 </v>
   <v>      -0.12500000      -0.29166667       0.04166667 </v>
   <v>      -0.20833333      -0.20833333       0.04166667 </v>
   <v>      -0.12500000      -0.20833333       0.04166667 </v>
   <v>      -0.12500000      -0.12500000       0.04166667 </v>
   <v>       0.12500000       0.12500000       0.12500000 </v>
   <v>       0.20833333       0.12500000       0.12500000 </v>
   <v>       0.29166667       0.12500000       0.12500000 </v>
   <v>       0.37500000       0.12500000       0.12500000 </v>
   <v>       0.45833333       0.12500000       0.12500000 </v>
   <v>      -0.45833333       0.12500000       0.12500000 </v>
   <v>      -0.37500000       0.12500000       0.12500000 </v>
   <v>      -0.29166667       0.12500000       0.12500000 </v>
   <v>      -0.20833333       0.12500000       0.12500000 </v>
   <v>      -0.12500000       0.12500000       0.12500000 </v>
   <v>       0.20833333       0.20833333       0.12500000 </v>
   <v>       0.29166667       0.20833333       0.12500000 </v>
   <v>       0.37500000       0.20833333       0.12500000 </v>
   <v>       0.45833333       0.20833333       0.12500000 </v>
   <v>      -0.45833333       0.20833333       0.12500000 </v>
   <v>      -0.37500000       0.20833333       0.12500000 </v>
   <v>      -0.29166667       0.20833333       0.12500000 </v>
   <v>      -0.20833333       0.20833333       0.12500000 </v>
   <v>      -0.12500000       0.20833333       0.12500000 </v>
   <v>       0.29166667       0.29166667       0.12500000 </v>
   <v>       0.37500000       0.29166667       0.12500000 </v>
   <v>       0.45833333       0.29166667       0.12500000 </v>
   <v>      -0.45833333       0.29166667       0.12500000 </v>
   <v>      -0.37500000       0.29166667       0.12500000 </v>
   <v>      -0.29166667       0.29166667       0.12500000 </v>
   <v>      -0.20833333       0.29166667       0.12500000 </v>
   <v>      -0.12500000       0.29166667       0.12500000 </v>
   <v>       0.37500000       0.37500000       0.12500000 </v>
   <v>       0.45833333       0.37500000       0.12500000 </v>
   <v>      -0.45833333       0.37500000       0.12500000 </v>
   <v>      -0.37500000       0.37500000       0.12500000 </v>
   <v>      -0.29166667       0.37500000       0.12500000 </v>
   <v>      -0.20833333       0.37500000       0.12500000 </v>
   <v>      -0.12500000       0.37500000       0.12500000 </v>
   <v>       0.45833333       0.45833333       0.12500000 </v>
   <v>      -0.45833333       0.45833333       0.12500000 </v>
   <v>      -0.37500000       0.45833333       0.12500000 </v>
   <v>      -0.29166667       0.45833333       0.12500000 </v>
   <v>      -0.20833333       0.45833333       0.12500000 </v>
   <v>      -0.12500000       0.45833333       0.12500000 </v>
   <v>      -0.45833333      -0.45833333       0.12500000 </v>
   <v>      -0.37500000      -0.45833333       0.12500000 </v>
   <v>      -0.29166667      -0.45833333       0.12500000 </v>
   <v>      -0.20833333      -0.45833333       0.12500000 </v>
   <v>      -0.37500000      -0.37500000       0.12500000 </v>
   <v>      -0.29166667      -0.37500000       0.12500000 </v>
   <v>      -0.20833333      -0.37500000       0.12500000 </v>
   <v>      -0.29166667      -0.29166667       0.12500000 </v>
   <v>      -0.20833333      -0.29166667       0.12500000 </v>
   <v>      -0.20833333      -0.20833333       0.12500000 </v>
   <v>       0.20833333       0.20833333       0.20833333 </v>
   <v>       0.29166667       0.20833333       0.20833333 </v>
   <v>       0.37500000       0.20833333       0.20833333 </v>
   <v>       0.45833333       0.20833333       0.20833333 </v>
   <v>      -0.45833333       0.20833333       0.20833333 </v>
   <v>      -0.37500000       0.20833333       0.20833333 </v>
   <v>      -0.29166667       0.20833333       0.20833333 </v>
   <v>      -0.20833333       0.20833333       0.20833333 </v>
   <v>       0.29166667       0.29166667       0.20833333 </v>
   <v>       0.37500000       0.29166667       0.20833333 </v>
   <v>       0.45833333       0.29166667       0.20833333 </v>
   <v>      -0.45833333       0.29166667       0.20833333 </v>
   <v>      -0.37500000       0.29166667       0.20833333 </v>
   <v>      -0.29166667       0.29166667       0.20833333 </v>
   <v>      -0.20833333       0.29166667       0.20833333 </v>
   <v>       0.37500000       0.37500000       0.20833333 </v>
   <v>       0.45833333       0.37500000       0.20833333 </v>
   <v>      -0.45833333       0.37500000       0.20833333 </v>
   <v>      -0.37500000       0.37500000       0.20833333 </v>
   <v>      -0.29166667       0.37500000       0.20833333 </v>
   <v>      -0.20833333       0.37500000       0.20833333 </v>
   <v>       0.45833333       0.45833333       0.20833333 </v>
   <v>      -0.45833333       0.45833333       0.20833333 </v>
   <v>      -0.37500000       0.45833333       0.20833333 </v>
   <v>      -0.29166667       0.45833333       0.20833333 </v>
   <v>      -0.20833333       0.45833333       0.20833333 </v>
   <v>      -0.45833333      -0.45833333       0.20833333 </v>
   <v>      -0.37500000      -0.45833333       0.20833333 </v>
   <v>      -0.29166667      -0.45833333       0.20833333 </v>
   <v>      -0.37500000      -0.37500000       0.20833333 </v>
   <v>      -0.29166667      -0.37500000       0.20833333 </v>
   <v>      -0.29166667      -0.29166667       0.20833333 </v>
   <v>       0.29166667       0.29166667       0.29166667 </v>
   <v>       0.37500000       0.29166667       0.29166667 </v>
   <v>       0.45833333       0.29166667       0.29166667 </v>
   <v>      -0.45833333       0.29166667       0.29166667 </v>
   <v>      -0.37500000       0.29166667       0.29166667 </v>
   <v>      -0.29166667       0.29166667       0.29166667 </v>
   <v>       0.37500000       0.37500000       0.29166667 </v>
   <v>       0.45833333       0.37500000       0.29166667 </v>
   <v>      -0.45833333       0.37500000       0.29166667 </v>
   <v>      -0.37500000       0.37500000       0.29166667 </v>
   <v>      -0.29166667       0.37500000       0.29166667 </v>
   <v>       0.45833333       0.45833333       0.29166667 </v>
   <v>      -0.45833333       0.45833333       0.29166667 </v>
   <v>      -0.37500000       0.45833333       0.29166667 </v>
   <v>      -0.29166667       0.45833333       0.29166667 </v>
   <v>      -0.45833333      -0.45833333       0.29166667 </v>
   <v>      -0.37500000      -0.45833333       0.29166667 </v>
   <v>      -0.37500000      -0.37500000       0.29166667 </v>
   <v>       0.37500000       0.37500000       0.37500000 </v>
   <v>       0.45833333       0.37500000       0.37500000 </v>
   <v>      -0.45833333       0.37500000       0.37500000 </v>
   <v>      -0.37500000       0.37500000       0.37500000 </v>
   <v>       0.45833333       0.45833333       0.37500000 </v>
   <v>      -0.45833333       0.45833333       0.37500000 </v>
   <v>      -0.37500000       0.45833333       0.37500000 </v>
   <v>      -0.45833333      -0.45833333       0.37500000 </v>
   <v>       0.45833333       0.45833333       0.45833333 </v>
   <v>      -0.45833333       0.45833333       0.45833333 </v>
  </varray>
  <varray name="weights" >
   <v>       0.00115741 </v>
   <v>       0.00347222 </v>
   <v>       0.00347222 </v>
   <v>       0.00347222 </v>
   <v>       0.00347222 </v>
   <v>       0.00347222 </v>
   <v>       0.00347222 </v>
   <v>       0.00347222 </v>
   <v>       0.00347222 </v>
   <v>       0.00347222 </v>
   <v>       0.00347222 </v>
   <v>       0.00347222 </v>
   <v>       0.00347222 </v>
   <v>       0.00694444 </v>
   <v>       0.00694444 </v>
   <v>       0.00694444 </v>
   <v>       0.00694444 </v>
   <v>       0.00694444 </v>
   <v>       0.00694444 </v>
   <v>       0.00694444 </v>
   <v>       0.00694444 </v>
   <v>       0.00694444 </v>
   <v>       0.00694444 </v>
   <v>       0.00347222 </v>
   <v>       0.00694444 </v>
   <v>       0.00694444 </v>
   <v>       0.00694444 </v>
   <v>       0.00694444 </v>
   <v>       0.00694444 </v>
   <v>       0.00694444 </v>
   <v>       0.00694444 </v>
   <v>       0.00694444 </v>
   <v>       0.00694444 </v>
   <v>       0.00347222 </v>
   <v>       0.00694444 </v>
   <v>       0.00694444 </v>
   <v>       0.00694444 </v>
   <v>       0.00694444 </v>
   <v>       0.00694444 </v>
   <v>       0.00694444 </v>
   <v>       0.00694444 </v>
   <v>       0.00694444 </v>
   <v>       0.00347222 </v>
   <v>       0.00694444 </v>
   <v>       0.00694444 </v>
   <v>       0.00694444 </v>
   <v>       0.00694444 </v>
   <v>       0.00694444 </v>
   <v>       0.00694444 </v>
   <v>       0.00694444 </v>
   <v>       0.00347222 </v>
   <v>       0.00694444 </v>
   <v>       0.00694444 </v>
   <v>       0.00694444 </v>
   <v>       0.00694444 </v>
   <v>       0.00694444 </v>
   <v>       0.00694444 </v>
   <v>       0.00347222 </v>
   <v>       0.00694444 </v>
   <v>       0.00694444 </v>
   <v>       0.00694444 </v>
   <v>       0.00694444 </v>
   <v>       0.00347222 </v>
   <v>       0.00694444 </v>
   <v>       0.00694444 </v>
   <v>       0.00694444 </v>
   <v>       0.00347222 </v>
   <v>       0.00694444 </v>
   <v>       0.00694444 </v>
   <v>       0.00347222 </v>
   <v>       0.00694444 </v>
   <v>       0.00347222 </v>
   <v>       0.00115741 </v>
   <v>       0.00347222 </v>
   <v>       0.00347222 </v>
   <v>       0.00347222 </v>
   <v>       0.00347222 </v>
   <v>       0.00347222 </v>
   <v>       0.00347222 </v>
   <v>       0.00347222 </v>
   <v>       0.00347222 </v>
   <v>       0.00347222 </v>
   <v>       0.00347222 </v>
   <v>       0.00694444 </v>
   <v>       0.00694444 </v>
   <v>       0.00694444 </v>
   <v>       0.00694444 </v>
   <v>       0.00694444 </v>
   <v>       0.00694444 </v>
   <v>       0.00694444 </v>
   <v>       0.00694444 </v>
   <v>       0.00347222 </v>
   <v>       0.00694444 </v>
   <v>       0.00694444 </v>
   <v>       0.00694444 </v>
   <v>       0.00694444 </v>
   <v>       0.00694444 </v>
   <v>       0.00694444 </v>
   <v>       0.00694444 </v>
   <v>       0.00347222 </v>
   <v>       0.00694444 </v>
   <v>       0.00694444 </v>
   <v>       0.00694444 </v>
   <v>       0.00694444 </v>
   <v>       0.00694444 </v>
   <v>       0.00694444 </v>
   <v>       0.00347222 </v>
   <v>       0.00694444 </v>
   <v>       0.00694444 </v>
   <v>       0.00694444 </v>
   <v>       0.00694444 </v>
   <v>       0.00694444 </v>
   <v>       0.00347222 </v>
   <v>       0.00694444 </v>
   <v>       0.00694444 </v>
   <v>       0.00694444 </v>
   <v>       0.00347222 </v>
   <v>       0.00694444 </v>
   <v>       0.00694444 </v>
   <v>       0.00347222 </v>
   <v>       0.00694444 </v>
   <v>       0.00347222 </v>
   <v>       0.00115741 </v>
   <v>       0.00347222 </v>
   <v>       0.00347222 </v>
   <v>       0.00347222 </v>
   <v>       0.00347222 </v>
   <v>       0.00347222 </v>
   <v>       0.00347222 </v>
   <v>       0.00347222 </v>
   <v>       0.00347222 </v>
   <v>       0.00694444 </v>
   <v>       0.00694444 </v>
   <v>       0.00694444 </v>
   <v>       0.00694444 </v>
   <v>       0.00694444 </v>
   <v>       0.00694444 </v>
   <v>       0.00347222 </v>
   <v>       0.00694444 </v>
   <v>       0.00694444 </v>
   <v>       0.00694444 </v>
   <v>       0.00694444 </v>
   <v>       0.00694444 </v>
   <v>       0.00347222 </v>
   <v>       0.00694444 </v>
   <v>       0.00694444 </v>
   <v>       0.00694444 </v>
   <v>       0.00694444 </v>
   <v>       0.00347222 </v>
   <v>       0.00694444 </v>
   <v>       0.00694444 </v>
   <v>       0.00347222 </v>
   <v>       0.00694444 </v>
   <v>       0.00347222 </v>
   <v>       0.00115741 </v>
   <v>       0.00347222 </v>
   <v>       0.00347222 </v>
   <v>       0.00347222 </v>
   <v>       0.00347222 </v>
   <v>       0.00347222 </v>
   <v>       0.00347222 </v>
   <v>       0.00694444 </v>
   <v>       0.00694444 </v>
   <v>       0.00694444 </v>
   <v>       0.00694444 </v>
   <v>       0.00347222 </v>
   <v>       0.00694444 </v>
   <v>       0.00694444 </v>
   <v>       0.00694444 </v>
   <v>       0.00347222 </v>
   <v>       0.00694444 </v>
   <v>       0.00347222 </v>
   <v>       0.00115741 </v>
   <v>       0.00347222 </v>
   <v>       0.00347222 </v>
   <v>       0.00347222 </v>
   <v>       0.00347222 </v>
   <v>       0.00694444 </v>
   <v>       0.00694444 </v>
   <v>       0.00347222 </v>
   <v>       0.00115741 </v>
   <v>       0.00347222 </v>
  </varray>
 </kpoints>
 <parameters>
  <separator name="general" >
   <i type="string" name="SYSTEM">unknown system</i>
   <i type="logical" name="LCOMPAT"> F  </i>
  </separator>
  <separator name="electronic" >
   <i type="string" name="PREC">accura</i>
   <i name="ENMAX">    350.00000000</i>
   <i name="ENAUG">    322.06900000</i>
   <i name="EDIFF">      0.00000100</i>
   <i type="int" name="IALGO">    38</i>
   <i type="int" name="IWAVPR">    11</i>
   <i type="int" name="NBANDS">     8</i>
   <i type="int" name="NBANDSLOW">    -1</i>
   <i type="int" name="NBANDSHIGH">    -1</i>
   <i name="NELECT">      8.00000000</i>
   <i type="int" name="TURBO">     0</i>
   <i type="int" name="IRESTART">     0</i>
   <i type="int" name="NREBOOT">     0</i>
   <i type="int" name="NMIN">     0</i>
   <i name="EREF">      0.00000000</i>
   <separator name="electronic smearing" >
    <i type="int" name="ISMEAR">     0</i>
    <i name="SIGMA">      0.05000000</i>
    <i name="KSPACING">      0.50000000</i>
    <i type="logical" name="KGAMMA"> T  </i>
    <i type="logical" name="KBLOWUP"> T  </i>
   </separator>
   <separator name="electronic projectors" >
    <i type="logical" name="LREAL"> F  </i>
    <v name="ROPT">      0.00000000</v>
    <i type="int" name="LMAXPAW">  -100</i>
    <i type="int" name="LMAXMIX">     2</i>
    <i type="logical" name="NLSPLINE"> F  </i>
   </separator>
   <separator name="electronic startup" >
    <i type="int" name="ISTART">     0</i>
    <i type="int" name="ICHARG">     2</i>
    <i type="int" name="INIWAV">     1</i>
   </separator>
   <separator name="electronic spin" >
    <i type="int" name="ISPIN">     1</i>
    <i type="logical" name="LNONCOLLINEAR"> F  </i>
    <v name="MAGMOM">      1.00000000      1.00000000</v>
    <i name="NUPDOWN">     -1.00000000</i>
    <i type="logical" name="LSORBIT"> F  </i>
    <v name="SAXIS">      0.00000000      0.00000000      1.00000000</v>
    <i type="logical" name="LSPIRAL"> F  </i>
    <v name="QSPIRAL">      0.00000000      0.00000000      0.00000000</v>
    <i type="logical" name="LZEROZ"> F  </i>
   </separator>
   <separator name="electronic exchange-correlation" >
    <i type="logical" name="LASPH"> T  </i>
    <i type="logical" name="LMETAGGA"> F  </i>
   </separator>
   <separator name="electronic convergence" >
    <i type="int" name="NELM">    90</i>
    <i type="int" name="NELMDL">    -5</i>
    <i type="int" name="NELMIN">     6</i>
    <i name="ENINI">    350.00000000</i>
    <separator name="electronic convergence detail" >
     <i type="logical" name="LDIAG"> T  </i>
     <i type="logical" name="LSUBROT"> F  </i>
     <i name="WEIMIN">      0.00100000</i>
     <i name="EBREAK">      0.00000003</i>
     <i name="DEPER">      0.30000000</i>
     <i type="int" name="NRMM">     4</i>
     <i name="TIME">      0.40000000</i>
    </separator>
   </separator>
   <separator name="electronic mixer" >
    <i name="AMIX">      0.40000000</i>
    <i name="BMIX">      1.00000000</i>
    <i name="AMIN">      0.10000000</i>
    <i name="AMIX_MAG">      1.60000000</i>
    <i name="BMIX_MAG">      1.00000000</i>
    <separator name="electronic mixer details" >
     <i type="int" name="IMIX">     4</i>
     <i type="logical" name="MIXFIRST"> F  </i>
     <i type="int" name="MAXMIX">   -45</i>
     <i name="WC">    100.00000000</i>
     <i type="int" name="INIMIX">     1</i>
     <i type="int" name="MIXPRE">     1</i>
     <i type="int" name="MREMOVE">     5</i>
    </separator>
   </separator>
   <separator name="electronic dipolcorrection" >
    <i type="logical" name="LDIPOL"> F  </i>
    <i type="logical" name="LMONO"> F  </i>
    <i type="int" name="IDIPOL">     0</i>
    <i name="EPSILON">      1.00000000</i>
    <v name="DIPOL">   -100.00000000   -100.00000000   -100.00000000</v>
    <i name="EFIELD">      0.00000000</i>
   </separator>
  </separator>
  <separator name="grids" >
   <i type="int" name="NGX">    24</i>
   <i type="int" name="NGY">    24</i>
   <i type="int" name="NGZ">    24</i>
   <i type="int" name="NGXF">    48</i>
   <i type="int" name="NGYF">    48</i>
   <i type="int" name="NGZF">    48</i>
   <i type="logical" name="ADDGRID"> T  </i>
  </separator>
  <separator name="ionic" >
   <i type="int" name="NSW">   100</i>
   <i type="int" name="IBRION">     2</i>
   <i type="int" name="MDALGO">     0</i>
   <i type="int" name="ISIF">     2</i>
   <i name="PSTRESS">      0.00000000</i>
   <i name="EDIFFG">     -0.00200000</i>
   <i type="int" name="NFREE">     1</i>
   <i name="POTIM">      0.50000000</i>
   <i name="SMASS">     -3.00000000</i>
   <i name="SCALEE">      1.00000000</i>
  </separator>
  <separator name="ionic md" >
   <i name="TEBEG">      0.00010000</i>
   <i name="TEEND">      0.00010000</i>
   <i type="int" name="NBLOCK">     1</i>
   <i type="int" name="KBLOCK">   100</i>
   <i type="int" name="NPACO">   256</i>
   <i name="APACO">     16.00000000</i>
  </separator>
  <separator name="symmetry" >
   <i type="int" name="ISYM">     2</i>
   <i name="SYMPREC">      0.00001000</i>
  </separator>
  <separator name="dos" >
   <i type="int" name="LORBIT">     0</i>
   <v name="RWIGS">     -1.00000000</v>
   <i type="int" name="NEDOS">   301</i>
   <i name="EMIN">     10.00000000</i>
   <i name="EMAX">    -10.00000000</i>
   <i name="EFERMI">      0.00000000</i>
  </separator>
  <separator name="writing" >
   <i type="int" name="NWRITE">     2</i>
   <i type="logical" name="LWAVE"> F  </i>
   <i type="logical" name="LDOWNSAMPLE"> F  </i>
   <i type="logical" name="LCHARG"> F  </i>
   <i type="logical" name="LPARD"> F  </i>
   <i type="logical" name="LVTOT"> F  </i>
   <i type="logical" name="LVHAR"> F  </i>
   <i type="logical" name="LELF"> F  </i>
   <i type="logical" name="LOPTICS"> F  </i>
   <v name="STM">      0.00000000      0.00000000      0.00000000      0.00000000      0.00000000      0.00000000      0.00000000</v>
  </separator>
  <separator name="performance" >
   <i type="int" name="NPAR">     4</i>
   <i type="int" name="NSIM">     4</i>
   <i type="int" name="NBLK">    -1</i>
   <i type="logical" name="LPLANE"> T  </i>
   <i type="logical" name="LSCALAPACK"> T  </i>
   <i type="logical" name="LSCAAWARE"> F  </i>
   <i type="logical" name="LSCALU"> F  </i>
   <i type="logical" name="LASYNC"> F  </i>
   <i type="logical" name="LORBITALREAL"> F  </i>
  </separator>
  <separator name="miscellaneous" >
   <i type="int" name="IDIOT">     3</i>
   <i type="int" name="PHON_NSTRUCT">    -1</i>
   <i type="logical" name="LMUSIC"> F  </i>
   <v name="POMASS">     28.08500000</v>
   <v name="DARWINR">      0.00000000</v>
   <v name="DARWINV">      1.00000000</v>
   <i type="logical" name="LCORR"> T  </i>
  </separator>
  <i type="logical" name="GGA_COMPAT"> T  </i>
  <i type="logical" name="LBERRY"> F  </i>
  <i type="int" name="ICORELEVEL">     0</i>
  <i type="logical" name="LDAU"> F  </i>
  <i type="int" name="I_CONSTRAINED_M">     0</i>
  <separator name="electronic exchange-correlation" >
   <i type="string" name="GGA">--</i>
   <i type="int" name="VOSKOWN">     0</i>
   <i type="logical" name="LHFCALC"> F  </i>
   <i type="string" name="PRECFOCK"></i>
   <i type="logical" name="LSYMGRAD"> F  </i>
   <i type="logical" name="LHFONE"> F  </i>
   <i type="logical" name="LRHFCALC"> F  </i>
   <i type="logical" name="LTHOMAS"> F  </i>
   <i type="logical" name="LMODELHF"> F  </i>
   <i type="logical" name="LFOCKACE"> F  </i>
   <i name="ENCUT4O">     -1.00000000</i>
   <i type="int" name="EXXOEP">     0</i>
   <i type="int" name="FOURORBIT">     0</i>
   <i name="AEXX">      0.00000000</i>
   <i name="HFALPHA">      0.00000000</i>
   <i name="MCALPHA">      0.00000000</i>
   <i name="ALDAX">      1.00000000</i>
   <i name="AGGAX">      1.00000000</i>
   <i name="ALDAC">      1.00000000</i>
   <i name="AGGAC">      1.00000000</i>
   <i type="int" name="NKREDX">     1</i>
   <i type="int" name="NKREDY">     1</i>
   <i type="int" name="NKREDZ">     1</i>
   <i type="logical" name="SHIFTRED"> F  </i>
   <i type="logical" name="ODDONLY"> F  </i>
   <i type="logical" name="EVENONLY"> F  </i>
   <i type="int" name="LMAXFOCK">     0</i>
   <i type="int" name="NMAXFOCKAE">     0</i>
   <i type="logical" name="LFOCKAEDFT"> F  </i>
   <i name="HFSCREEN">      0.00000000</i>
   <i name="HFSCREENC">      0.00000000</i>
   <i type="int" name="NBANDSGWLOW">     0</i>
  </separator>
  <separator name="vdW DFT" >
   <i type="logical" name="LUSE_VDW"> F  </i>
   <i name="Zab_VDW">     -0.84910000</i>
   <i name="PARAM1">      0.12340000</i>
   <i name="PARAM2">      1.00000000</i>
   <i name="PARAM3">      0.00000000</i>
  </separator>
  <separator name="model GW" >
   <i type="int" name="MODEL_GW">     0</i>
   <i name="MODEL_EPS0">     12.25808783</i>
   <i name="MODEL_ALPHA">      1.00000000</i>
  </separator>
  <separator name="linear response parameters" >
   <i type="logical" name="LEPSILON"> F  </i>
   <i type="logical" name="LRPA"> F  </i>
   <i type="logical" name="LNABLA"> F  </i>
   <i type="logical" name="LVEL"> F  </i>
   <i type="int" name="KINTER">     0</i>
   <i name="CSHIFT">      0.10000000</i>
   <i name="OMEGAMAX">     -1.00000000</i>
   <i name="DEG_THRESHOLD">      0.00200000</i>
   <i name="RTIME">     -0.10000000</i>
   <i name="WPLASMAI">      0.00000000</i>
   <v name="DFIELD">      0.00000000      0.00000000      0.00000000</v>
   <v name="WPLASMA">      0.00000000      0.00000000      0.00000000      0.00000000      0.00000000      0.00000000      0.00000000      0.00000000      0.00000000</v>
  </separator>
  <separator name="orbital magnetization" >
   <i type="logical" name="NUCIND"> F  </i>
   <v name="MAGPOS">      0.00000000      0.00000000      0.00000000</v>
   <i type="logical" name="LNICSALL"> T  </i>
   <i type="logical" name="ORBITALMAG"> F  </i>
   <i type="logical" name="LMAGBLOCH"> F  </i>
   <i type="logical" name="LCHIMAG"> F  </i>
   <i type="logical" name="LGAUGE"> T  </i>
   <i type="int" name="MAGATOM">     0</i>
   <v name="MAGDIPOL">      0.00000000      0.00000000      0.00000000</v>
   <v name="AVECCONST">      0.00000000      0.00000000      0.00000000</v>
  </separator>
  <separator name="response functions" >
   <i type="logical" name="LFINITE_TEMPERATURE"> F  </i>
   <i type="logical" name="LADDER"> F  </i>
   <i type="logical" name="LRPAFORCE"> F  </i>
   <i type="logical" name="LFXC"> F  </i>
   <i type="logical" name="LHARTREE"> T  </i>
   <i type="int" name="IBSE">     0</i>
   <v type="int" name="KPOINT">    -1     0     0     0</v>
   <i type="logical" name="LTCTC"> F  </i>
   <i type="logical" name="LTCTE"> F  </i>
   <i type="logical" name="LTETE"> F  </i>
   <i type="logical" name="LTRIPLET"> F  </i>
   <i type="logical" name="LFXCEPS"> F  </i>
   <i type="logical" name="LFXHEG"> F  </i>
   <i type="int" name="NATURALO">     2</i>
   <i type="logical" name="LHOLEGF"> F  </i>
   <i type="logical" name="L2ORDER"> F  </i>
   <i type="logical" name="LDMP1"> F  </i>
   <i type="logical" name="LMP2LT"> F  </i>
   <i type="logical" name="LSMP2LT"> F  </i>
   <i type="logical" name="LGWLF"> F  </i>
   <i name="ENCUTGW">     -2.00000000</i>
   <i name="ENCUTGWSOFT">     -2.00000000</i>
   <i name="ENCUTLF">     -1.00000000</i>
   <i type="logical" name="LESF_SPLINES"> F  </i>
   <i type="int" name="LMAXMP2">    -1</i>
   <i name="SCISSOR">      0.00000000</i>
   <i type="int" name="NOMEGA">     0</i>
   <i type="int" name="NOMEGAR">     0</i>
   <i type="int" name="NBANDSGW">    -1</i>
   <i type="int" name="NBANDSO">    -1</i>
   <i type="int" name="NBANDSV">    -1</i>
   <i type="int" name="NELM">    90</i>
   <i type="int" name="NELMHF">     1</i>
   <i type="int" name="DIM">     3</i>
   <i type="int" name="IESPILON">     4</i>
   <i type="int" name="ANTIRES">     0</i>
   <i name="OMEGAMAX">    -30.00000000</i>
   <i name="OMEGAMIN">    -30.00000000</i>
   <i name="OMEGATL">   -200.00000000</i>
   <i type="int" name="OMEGAGRID">     0</i>
   <i name="CSHIFT">     -0.10000000</i>
   <i type="logical" name="LSELFENERGY"> F  </i>
   <i type="logical" name="LSPECTRAL"> F  </i>
   <i type="logical" name="LSPECTRALGW"> F  </i>
   <i type="logical" name="LSINGLES"> F  </i>
   <i type="logical" name="LFERMIGW"> F  </i>
   <i type="logical" name="ODDONLYGW"> F  </i>
   <i type="logical" name="EVENONLYGW"> F  </i>
   <i type="int" name="NKREDLFX">     1</i>
   <i type="int" name="NKREDLFY">     1</i>
   <i type="int" name="NKREDLFZ">     1</i>
   <i type="int" name="MAXMEM">  2800</i>
   <i type="int" name="TELESCOPE">     0</i>
   <i type="int" name="NTAUPAR">    -1</i>
   <i type="int" name="NOMEGAPAR">    -1</i>
   <i name="DAMP_NEWTON">      0.80000001</i>
   <i name="LAMBDA">      1.00000000</i>
  </separator>
  <separator name="External order field" >
   <i name="OFIELD_KAPPA">      0.00000000</i>
   <v name="OFIELD_K">      0.00000000      0.00000000      0.00000000</v>
   <i name="OFIELD_Q6_NEAR">      0.00000000</i>
   <i name="OFIELD_Q6_FAR">      0.00000000</i>
   <i name="OFIELD_A">      0.00000000</i>
  </separator>
 </parameters>
 <atominfo>
  <atoms>       2 </atoms>
  <types>       1 </types>
  <array name="atoms" >
   <dimension dim="1">ion</dimension>
   <field type="string">element</field>
   <field type="int">atomtype</field>
   <set>
    <rc><c>Si</c><c>   1</c></rc>
    <rc><c>Si</c><c>   1</c></rc>
   </set>
  </array>
  <array name="atomtypes" >
   <dimension dim="1">type</dimension>
   <field type="int">atomspertype</field>
   <field type="string">element</field>
   <field>mass</field>
   <field>valence</field>
   <field type="string">pseudopotential</field>
   <set>
    <rc><c>   2</c><c>Si</c><c>     28.08500000</c><c>      4.00000000</c><c>  PAW_PBE Si 05Jan2001                  </c></rc>
   </set>
  </array>
 </atominfo>
 <structure name="initialpos" >
  <crystal>
   <varray name="basis" >
    <v>       3.34813339       0.00000000       1.93304544 </v>
    <v>       1.11604446       3.15665168       1.93304544 </v>
    <v>       0.00000000       0.00000000       3.86609088 </v>
   </varray>
   <i name="volume">     40.86029277 </i>
   <varray name="rec_basis" >
    <v>       0.29867388      -0.10559712       0.00000000 </v>
    <v>       0.00000000       0.31679137       0.00000000 </v>
    <v>      -0.14933694      -0.10559712       0.25865921 </v>
   </varray>
  </crystal>
  <varray name="positions" >
   <v>       0.87500000       0.87500000       0.87500000 </v>
   <v>       0.12500000       0.12500000       0.12500000 </v>
  </varray>
 </structure>
 <calculation>
  <scstep>
   <time name="dav">    1.46    1.46</time>
   <time name="total">    1.67    1.68</time>
   <energy>
    <i name="alphaZ">      3.29543706 </i>
    <i name="ewald">   -226.99672927 </i>
    <i name="hartreedc">    -11.31296092 </i>
    <i name="XCdc">    -18.68251879 </i>
    <i name="pawpsdc">    176.24759923 </i>
    <i name="pawaedc">   -141.06103558 </i>
    <i name="eentropy">     -0.00121660 </i>
    <i name="bandstr">     13.98977782 </i>
    <i name="atom">    206.13125414 </i>
    <i name="e_fr_energy">      1.60960709 </i>
    <i name="e_wo_entrp">      1.61082370 </i>
    <i name="e_0_energy">      1.61021540 </i>
   </energy>
  </scstep>
  <scstep>
   <time name="dav">    2.14    2.16</time>
   <time name="total">    2.14    2.16</time>
   <energy>
    <i name="e_fr_energy">    -10.86576964 </i>
    <i name="e_wo_entrp">    -10.86576964 </i>
    <i name="e_0_energy">    -10.86576964 </i>
   </energy>
  </scstep>
  <scstep>
   <time name="dav">    1.83    1.85</time>
   <time name="total">    1.83    1.85</time>
   <energy>
    <i name="e_fr_energy">    -11.01570978 </i>
    <i name="e_wo_entrp">    -11.01570978 </i>
    <i name="e_0_energy">    -11.01570978 </i>
   </energy>
  </scstep>
  <scstep>
   <time name="dav">    2.18    2.20</time>
   <time name="total">    2.18    2.20</time>
   <energy>
    <i name="e_fr_energy">    -11.01621605 </i>
    <i name="e_wo_entrp">    -11.01621605 </i>
    <i name="e_0_energy">    -11.01621605 </i>
   </energy>
  </scstep>
  <scstep>
   <time name="dav">    1.87    1.89</time>
   <time name="total">    1.98    2.00</time>
   <energy>
    <i name="e_fr_energy">    -11.01621649 </i>
    <i name="e_wo_entrp">    -11.01621649 </i>
    <i name="e_0_energy">    -11.01621649 </i>
   </energy>
  </scstep>
  <scstep>
   <time name="dav">    1.67    1.67</time>
   <time name="total">    1.98    2.00</time>
   <energy>
    <i name="e_fr_energy">    -10.90015268 </i>
    <i name="e_wo_entrp">    -10.90015268 </i>
    <i name="e_0_energy">    -10.90015268 </i>
   </energy>
  </scstep>
  <scstep>
   <time name="dav">    1.81    1.81</time>
   <time name="total">    2.13    2.15</time>
   <energy>
    <i name="e_fr_energy">    -10.84656909 </i>
    <i name="e_wo_entrp">    -10.84656909 </i>
    <i name="e_0_energy">    -10.84656909 </i>
   </energy>
  </scstep>
  <scstep>
   <time name="dav">    1.62    1.63</time>
   <time name="total">    1.94    1.96</time>
   <energy>
    <i name="e_fr_energy">    -10.84764492 </i>
    <i name="e_wo_entrp">    -10.84764492 </i>
    <i name="e_0_energy">    -10.84764492 </i>
   </energy>
  </scstep>
  <scstep>
   <time name="dav">    2.04    2.04</time>
   <time name="total">    2.35    2.37</time>
   <energy>
    <i name="e_fr_energy">    -10.84784309 </i>
    <i name="e_wo_entrp">    -10.84784309 </i>
    <i name="e_0_energy">    -10.84784309 </i>
   </energy>
  </scstep>
  <scstep>
   <time name="dav">    1.65    1.65</time>
   <time name="total">    1.97    1.99</time>
   <energy>
    <i name="e_fr_energy">    -10.84786787 </i>
    <i name="e_wo_entrp">    -10.84786787 </i>
    <i name="e_0_energy">    -10.84786787 </i>
   </energy>
  </scstep>
  <scstep>
   <time name="dav">    1.96    1.97</time>
   <time name="total">    2.17    2.19</time>
   <energy>
    <i name="alphaZ">      3.29543706 </i>
    <i name="ewald">   -226.99672927 </i>
    <i name="hartreedc">    -15.16049382 </i>
    <i name="XCdc">    -18.05543552 </i>
    <i name="pawpsdc">    840.15220056 </i>
    <i name="pawaedc">   -805.17237170 </i>
    <i name="eentropy">     -0.00000000 </i>
    <i name="bandstr">      4.95827100 </i>
    <i name="atom">    206.13125414 </i>
    <i name="e_fr_energy">    -10.84786755 </i>
    <i name="e_wo_entrp">    -10.84786755 </i>
    <i name="e_0_energy">    -10.84786755 </i>
   </energy>
  </scstep>
  <structure>
   <crystal>
    <varray name="basis" >
     <v>       3.34813339       0.00000000       1.93304544 </v>
     <v>       1.11604446       3.15665168       1.93304544 </v>
     <v>       0.00000000       0.00000000       3.86609088 </v>
    </varray>
    <i name="volume">     40.86029277 </i>
    <varray name="rec_basis" >
     <v>       0.29867388      -0.10559712       0.00000000 </v>
     <v>       0.00000000       0.31679137       0.00000000 </v>
     <v>      -0.14933694      -0.10559712       0.25865921 </v>
    </varray>
   </crystal>
   <varray name="positions" >
    <v>       0.87500000       0.87500000       0.87500000 </v>
    <v>       0.12500000       0.12500000       0.12500000 </v>
   </varray>
  </structure>
  <varray name="forces" >
   <v>      -0.00000000       0.00000000       0.00000000 </v>
   <v>       0.00000000      -0.00000000      -0.00000000 </v>
  </varray>
  <varray name="stress" >
   <v>       0.15799357      -0.00000000       0.00000000 </v>
   <v>      -0.00000000       0.15799369       0.00000000 </v>
   <v>      -0.00000000       0.00000000       0.15799352 </v>
  </varray>
  <energy>
   <i name="e_fr_energy">    -10.84786755 </i>
   <i name="e_wo_entrp">    -10.84786755 </i>
   <i name="e_0_energy">    -10.84786755 </i>
  </energy>
  <time name="totalsc">   24.40   24.78</time>
  <eigenvalues>
   <array>
    <dimension dim="1">band</dimension>
    <dimension dim="2">kpoint</dimension>
    <dimension dim="3">spin</dimension>
    <field>eigene</field>
    <field>occ</field>
    <set>
     <set comment="spin 1">
      <set comment="kpoint 1">
       <r>   -6.1745    1.0000 </r>
       <r>    5.3659    1.0000 </r>
       <r>    5.5854    1.0000 </r>
       <r>    5.5854    1.0000 </r>
       <r>    8.2230    0.0000 </r>
       <r>    8.2368    0.0000 </r>
       <r>    8.2368    0.0000 </r>
       <r>    8.9405    0.0000 </r>
      </set>
      <set comment="kpoint 2">
       <r>   -6.0554    1.0000 </r>
       <r>    4.4803    1.0000 </r>
       <r>    5.1729    1.0000 </r>
       <r>    5.5332    1.0000 </r>
       <r>    8.2798    0.0000 </r>
       <r>    8.3530    0.0000 </r>
       <r>    8.5384    0.0000 </r>
       <r>    9.7928    0.0000 </r>
      </set>
      <set comment="kpoint 3">
       <r>   -5.7615    1.0000 </r>
       <r>    2.9909    1.0000 </r>
       <r>    4.8090    1.0000 </r>
       <r>    5.2684    1.0000 </r>
       <r>    8.0016    0.0000 </r>
       <r>    8.7375    0.0000 </r>
       <r>    9.0308    0.0000 </r>
       <r>   11.1324    0.0000 </r>
      </set>
      <set comment="kpoint 4">
       <r>   -5.3058    1.0000 </r>
       <r>    1.4947    1.0000 </r>
       <r>    4.5168    1.0000 </r>
       <r>    4.9568    1.0000 </r>
       <r>    7.6902    0.0000 </r>
       <r>    9.0252    0.0000 </r>
       <r>    9.2751    0.0000 </r>
       <r>   12.2848    0.0000 </r>
      </set>
      <set comment="kpoint 5">
       <r>   -4.7238    1.0000 </r>
       <r>    0.1502    1.0000 </r>
       <r>    4.3258    1.0000 </r>
       <r>    4.6878    1.0000 </r>
       <r>    7.4445    0.0000 </r>
       <r>    9.0672    0.0000 </r>
       <r>    9.2008    0.0000 </r>
       <r>   13.2019    0.0000 </r>
      </set>
      <set comment="kpoint 6">
       <r>   -4.1328    1.0000 </r>
       <r>   -0.8860    1.0000 </r>
       <r>    4.2452    1.0000 </r>
       <r>    4.4964    1.0000 </r>
       <r>    7.2982    0.0000 </r>
       <r>    9.0319    0.0000 </r>
       <r>    9.0351    0.0000 </r>
       <r>   13.4392    0.0000 </r>
      </set>
      <set comment="kpoint 7">
       <r>   -3.9072    1.0000 </r>
       <r>   -1.2239    1.0000 </r>
       <r>    4.2729    1.0000 </r>
       <r>    4.3980    1.0000 </r>
       <r>    7.2624    0.0000 </r>
       <r>    8.9356    0.0000 </r>
       <r>    9.0643    0.0000 </r>
       <r>   13.4096    0.0000 </r>
      </set>
      <set comment="kpoint 8">
       <r>   -4.3152    1.0000 </r>
       <r>   -0.5918    1.0000 </r>
       <r>    4.4018    1.0000 </r>
       <r>    4.4027    1.0000 </r>
       <r>    7.3389    0.0000 </r>
       <r>    8.9403    0.0000 </r>
       <r>    9.1937    0.0000 </r>
       <r>   13.3314    0.0000 </r>
      </set>
      <set comment="kpoint 9">
       <r>   -4.9274    1.0000 </r>
       <r>    0.5737    1.0000 </r>
       <r>    4.5129    1.0000 </r>
       <r>    4.6245    1.0000 </r>
       <r>    7.5223    0.0000 </r>
       <r>    8.9828    0.0000 </r>
       <r>    9.3479    0.0000 </r>
       <r>   12.5374    0.0000 </r>
      </set>
      <set comment="kpoint 10">
       <r>   -5.4741    1.0000 </r>
       <r>    1.9825    1.0000 </r>
       <r>    4.7296    1.0000 </r>
       <r>    4.9197    1.0000 </r>
       <r>    7.7934    0.0000 </r>
       <r>    8.8750    0.0000 </r>
       <r>    9.3381    0.0000 </r>
       <r>   11.7338    0.0000 </r>
      </set>
      <set comment="kpoint 11">
       <r>   -5.8783    1.0000 </r>
       <r>    3.5049    1.0000 </r>
       <r>    5.0332    1.0000 </r>
       <r>    5.2407    1.0000 </r>
       <r>    8.0858    0.0000 </r>
       <r>    8.5332    0.0000 </r>
       <r>    9.0067    0.0000 </r>
       <r>   10.6527    0.0000 </r>
      </set>
      <set comment="kpoint 12">
       <r>   -6.1148    1.0000 </r>
       <r>    4.9443    1.0000 </r>
       <r>    5.3653    1.0000 </r>
       <r>    5.4640    1.0000 </r>
       <r>    8.0999    0.0000 </r>
       <r>    8.4184    0.0000 </r>
       <r>    8.5282    0.0000 </r>
       <r>    9.3436    0.0000 </r>
      </set>
      <set comment="kpoint 13">
       <r>   -5.9957    1.0000 </r>
       <r>    4.3929    1.0000 </r>
       <r>    5.0258    1.0000 </r>
       <r>    5.1237    1.0000 </r>
       <r>    7.8643    0.0000 </r>
       <r>    8.8392    0.0000 </r>
       <r>    9.0094    0.0000 </r>
       <r>    9.8537    0.0000 </r>
      </set>
      <set comment="kpoint 14">
       <r>   -5.7596    1.0000 </r>
       <r>    3.3624    1.0000 </r>
       <r>    4.4459    1.0000 </r>
       <r>    4.9812    1.0000 </r>
       <r>    7.8768    0.0000 </r>
       <r>    9.0046    0.0000 </r>
       <r>    9.5059    0.0000 </r>
       <r>   10.4922    0.0000 </r>
      </set>
      <set comment="kpoint 15">
       <r>   -5.3562    1.0000 </r>
       <r>    1.9607    1.0000 </r>
       <r>    4.0672    1.0000 </r>
       <r>    4.6942    1.0000 </r>
       <r>    8.0624    0.0000 </r>
       <r>    8.9653    0.0000 </r>
       <r>    9.8842    0.0000 </r>
       <r>   10.7291    0.0000 </r>
      </set>
      <set comment="kpoint 16">
       <r>   -4.8102    1.0000 </r>
       <r>    0.6003    1.0000 </r>
       <r>    3.8083    1.0000 </r>
       <r>    4.3959    1.0000 </r>
       <r>    7.9976    0.0000 </r>
       <r>    8.9829    0.0000 </r>
       <r>    9.8894    0.0000 </r>
       <r>   11.3223    0.0000 </r>
      </set>
      <set comment="kpoint 17">
       <r>   -4.1977    1.0000 </r>
       <r>   -0.5440    1.0000 </r>
       <r>    3.6288    1.0000 </r>
       <r>    4.2070    1.0000 </r>
       <r>    7.8812    0.0000 </r>
       <r>    8.9060    0.0000 </r>
       <r>    9.7215    0.0000 </r>
       <r>   12.4376    0.0000 </r>
      </set>
      <set comment="kpoint 18">
       <r>   -3.7878    1.0000 </r>
       <r>   -1.1698    1.0000 </r>
       <r>    3.5063    1.0000 </r>
       <r>    4.1831    1.0000 </r>
       <r>    7.8413    0.0000 </r>
       <r>    8.8632    0.0000 </r>
       <r>    9.5851    0.0000 </r>
       <r>   13.5735    0.0000 </r>
      </set>
      <set comment="kpoint 19">
       <r>   -4.0159    1.0000 </r>
       <r>   -0.8321    1.0000 </r>
       <r>    3.4591    1.0000 </r>
       <r>    4.3157    1.0000 </r>
       <r>    7.9010    0.0000 </r>
       <r>    8.9074    0.0000 </r>
       <r>    9.5633    0.0000 </r>
       <r>   13.2634    0.0000 </r>
      </set>
      <set comment="kpoint 20">
       <r>   -4.6083    1.0000 </r>
       <r>    0.1897    1.0000 </r>
       <r>    3.5205    1.0000 </r>
       <r>    4.5669    1.0000 </r>
       <r>    8.0530    0.0000 </r>
       <r>    8.9884    0.0000 </r>
       <r>    9.6398    0.0000 </r>
       <r>   12.1058    0.0000 </r>
      </set>
      <set comment="kpoint 21">
       <r>   -5.1894    1.0000 </r>
       <r>    1.4925    1.0000 </r>
       <r>    3.7181    1.0000 </r>
       <r>    4.8887    1.0000 </r>
       <r>    8.2670    0.0000 </r>
       <r>    8.9270    0.0000 </r>
       <r>    9.6591    0.0000 </r>
       <r>   11.2677    0.0000 </r>
      </set>
      <set comment="kpoint 22">
       <r>   -5.6439    1.0000 </r>
       <r>    2.8673    1.0000 </r>
       <r>    4.0988    1.0000 </r>
       <r>    5.2008    1.0000 </r>
       <r>    8.3557    0.0000 </r>
       <r>    8.7152    0.0000 </r>
       <r>    9.3316    0.0000 </r>
       <r>   10.9084    0.0000 </r>
      </set>
      <set comment="kpoint 23">
       <r>   -5.9368    1.0000 </r>
       <r>    3.9369    1.0000 </r>
       <r>    4.8302    1.0000 </r>
       <r>    5.3532    1.0000 </r>
       <r>    8.1433    0.0000 </r>
       <r>    8.5711    0.0000 </r>
       <r>    8.9300    0.0000 </r>
       <r>   10.3104    0.0000 </r>
      </set>
      <set comment="kpoint 24">
       <r>   -5.5814    1.0000 </r>
       <r>    3.0990    1.0000 </r>
       <r>    4.2811    1.0000 </r>
       <r>    4.2933    1.0000 </r>
       <r>    7.2761    0.0000 </r>
       <r>    9.6193    0.0000 </r>
       <r>   10.2154    0.0000 </r>
       <r>   10.2393    0.0000 </r>
      </set>
      <set comment="kpoint 25">
       <r>   -5.2327    1.0000 </r>
       <r>    2.1492    1.0000 </r>
       <r>    3.7050    1.0000 </r>
       <r>    4.1142    1.0000 </r>
       <r>    7.3099    0.0000 </r>
       <r>    9.2800    0.0000 </r>
       <r>   10.4124    0.0000 </r>
       <r>   10.8390    0.0000 </r>
      </set>
      <set comment="kpoint 26">
       <r>   -4.7308    1.0000 </r>
       <r>    0.9625    1.0000 </r>
       <r>    3.2537    1.0000 </r>
       <r>    3.8545    1.0000 </r>
       <r>    7.5667    0.0000 </r>
       <r>    9.5010    0.0000 </r>
       <r>   10.2111    0.0000 </r>
       <r>   11.0423    0.0000 </r>
      </set>
      <set comment="kpoint 27">
       <r>   -4.1251    1.0000 </r>
       <r>   -0.1716    1.0000 </r>
       <r>    2.8637    1.0000 </r>
       <r>    3.7191    1.0000 </r>
       <r>    7.6366    0.0000 </r>
       <r>    9.9443    0.0000 </r>
       <r>   10.4875    0.0000 </r>
       <r>   10.9177    0.0000 </r>
      </set>
      <set comment="kpoint 28">
       <r>   -3.5927    1.0000 </r>
       <r>   -0.9802    1.0000 </r>
       <r>    2.5578    1.0000 </r>
       <r>    3.7546    1.0000 </r>
       <r>    7.7093    0.0000 </r>
       <r>    9.7268    0.0000 </r>
       <r>   10.7272    0.0000 </r>
       <r>   11.9002    0.0000 </r>
      </set>
      <set comment="kpoint 29">
       <r>   -3.6033    1.0000 </r>
       <r>   -0.9617    1.0000 </r>
       <r>    2.3800    1.0000 </r>
       <r>    3.9412    1.0000 </r>
       <r>    7.8989    0.0000 </r>
       <r>    9.5890    0.0000 </r>
       <r>   10.5960    0.0000 </r>
       <r>   13.2266    0.0000 </r>
      </set>
      <set comment="kpoint 30">
       <r>   -4.1419    1.0000 </r>
       <r>   -0.1405    1.0000 </r>
       <r>    2.3734    1.0000 </r>
       <r>    4.2466    1.0000 </r>
       <r>    8.2016    0.0000 </r>
       <r>    9.5094    0.0000 </r>
       <r>   10.5126    0.0000 </r>
       <r>   11.8821    0.0000 </r>
      </set>
      <set comment="kpoint 31">
       <r>   -4.7449    1.0000 </r>
       <r>    0.9376    1.0000 </r>
       <r>    2.6221    1.0000 </r>
       <r>    4.6186    1.0000 </r>
       <r>    8.5465    0.0000 </r>
       <r>    9.2865    0.0000 </r>
       <r>   10.3345    0.0000 </r>
       <r>   10.9673    0.0000 </r>
      </set>
      <set comment="kpoint 32">
       <r>   -5.2426    1.0000 </r>
       <r>    1.8550    1.0000 </r>
       <r>    3.3350    1.0000 </r>
       <r>    4.9542    1.0000 </r>
       <r>    8.6310    0.0000 </r>
       <r>    8.8554    0.0000 </r>
       <r>    9.7894    0.0000 </r>
       <r>   10.8945    0.0000 </r>
      </set>
      <set comment="kpoint 33">
       <r>   -5.5872    1.0000 </r>
       <r>    2.4710    1.0000 </r>
       <r>    4.4522    1.0000 </r>
       <r>    5.0775    1.0000 </r>
       <r>    8.1035    0.0000 </r>
       <r>    8.7263    0.0000 </r>
       <r>    9.3897    0.0000 </r>
       <r>   11.2162    0.0000 </r>
      </set>
      <set comment="kpoint 34">
       <r>   -4.9386    1.0000 </r>
       <r>    1.6875    1.0000 </r>
       <r>    3.5832    1.0000 </r>
       <r>    3.6357    1.0000 </r>
       <r>    6.7464    0.0000 </r>
       <r>    8.5144    0.0000 </r>
       <r>   11.5505    0.0000 </r>
       <r>   11.6249    0.0000 </r>
      </set>
      <set comment="kpoint 35">
       <r>   -4.4852    1.0000 </r>
       <r>    0.8528    1.0000 </r>
       <r>    3.0985    1.0000 </r>
       <r>    3.4104    1.0000 </r>
       <r>    6.8606    0.0000 </r>
       <r>    8.2044    0.0000 </r>
       <r>   11.6933    0.0000 </r>
       <r>   12.2967    0.0000 </r>
      </set>
      <set comment="kpoint 36">
       <r>   -3.9045    1.0000 </r>
       <r>   -0.0706    1.0000 </r>
       <r>    2.4759    1.0000 </r>
       <r>    3.2833    1.0000 </r>
       <r>    7.0987    0.0000 </r>
       <r>    8.7280    0.0000 </r>
       <r>   11.4758    0.0000 </r>
       <r>   12.3818    0.0000 </r>
      </set>
      <set comment="kpoint 37">
       <r>   -3.3076    1.0000 </r>
       <r>   -0.8774    1.0000 </r>
       <r>    1.9365    1.0000 </r>
       <r>    3.3223    1.0000 </r>
       <r>    7.2122    0.0000 </r>
       <r>    9.9676    0.0000 </r>
       <r>   11.2164    0.0000 </r>
       <r>   12.2160    0.0000 </r>
      </set>
      <set comment="kpoint 38">
       <r>   -3.1085    1.0000 </r>
       <r>   -1.1127    1.0000 </r>
       <r>    1.6038    1.0000 </r>
       <r>    3.5133    1.0000 </r>
       <r>    7.4253    0.0000 </r>
       <r>   10.8860    0.0000 </r>
       <r>   11.6080    0.0000 </r>
       <r>   12.0525    0.0000 </r>
      </set>
      <set comment="kpoint 39">
       <r>   -3.5651    1.0000 </r>
       <r>   -0.5520    1.0000 </r>
       <r>    1.5706    1.0000 </r>
       <r>    3.8316    1.0000 </r>
       <r>    7.7762    0.0000 </r>
       <r>   10.6499    0.0000 </r>
       <r>   11.6934    0.0000 </r>
       <r>   11.9216    0.0000 </r>
      </set>
      <set comment="kpoint 40">
       <r>   -4.1724    1.0000 </r>
       <r>    0.1317    1.0000 </r>
       <r>    2.0161    1.0000 </r>
       <r>    4.2292    1.0000 </r>
       <r>    8.2033    0.0000 </r>
       <r>    9.9079    0.0000 </r>
       <r>   10.9750    0.0000 </r>
       <r>   11.3246    0.0000 </r>
      </set>
      <set comment="kpoint 41">
       <r>   -4.6987    1.0000 </r>
       <r>    0.6128    1.0000 </r>
       <r>    3.0021    1.0000 </r>
       <r>    4.6029    1.0000 </r>
       <r>    8.3928    0.0000 </r>
       <r>    9.1081    0.0000 </r>
       <r>    9.9906    0.0000 </r>
       <r>   11.4507    0.0000 </r>
      </set>
      <set comment="kpoint 42">
       <r>   -5.0837    1.0000 </r>
       <r>    1.0316    1.0000 </r>
       <r>    4.1869    1.0000 </r>
       <r>    4.7621    1.0000 </r>
       <r>    7.8506    0.0000 </r>
       <r>    8.9395    0.0000 </r>
       <r>    9.5097    0.0000 </r>
       <r>   11.8467    0.0000 </r>
      </set>
      <set comment="kpoint 43">
       <r>   -4.0797    1.0000 </r>
       <r>    0.2523    1.0000 </r>
       <r>    3.0776    1.0000 </r>
       <r>    3.1661    1.0000 </r>
       <r>    6.4058    0.0000 </r>
       <r>    7.4797    0.0000 </r>
       <r>   13.0525    0.0000 </r>
       <r>   13.0846    0.0000 </r>
      </set>
      <set comment="kpoint 44">
       <r>   -3.5344    1.0000 </r>
       <r>   -0.4858    1.0000 </r>
       <r>    2.6851    1.0000 </r>
       <r>    2.9696    1.0000 </r>
       <r>    6.6148    0.0000 </r>
       <r>    7.3831    0.0000 </r>
       <r>   13.0971    0.0000 </r>
       <r>   13.8256    0.0000 </r>
      </set>
      <set comment="kpoint 45">
       <r>   -2.9156    1.0000 </r>
       <r>   -1.1806    1.0000 </r>
       <r>    1.9874    1.0000 </r>
       <r>    2.9855    1.0000 </r>
       <r>    6.8074    0.0000 </r>
       <r>    8.2848    0.0000 </r>
       <r>   12.8443    0.0000 </r>
       <r>   13.8407    0.0000 </r>
      </set>
      <set comment="kpoint 46">
       <r>   -2.5786    1.0000 </r>
       <r>   -1.5014    1.0000 </r>
       <r>    1.4530    1.0000 </r>
       <r>    3.1573    1.0000 </r>
       <r>    7.0108    0.0000 </r>
       <r>    9.7575    0.0000 </r>
       <r>   12.5175    0.0000 </r>
       <r>   13.3472    0.0000 </r>
      </set>
      <set comment="kpoint 47">
       <r>   -2.9966    1.0000 </r>
       <r>   -1.1026    1.0000 </r>
       <r>    1.3551    1.0000 </r>
       <r>    3.4649    1.0000 </r>
       <r>    7.3621    0.0000 </r>
       <r>   11.2844    0.0000 </r>
       <r>   11.7441    0.0000 </r>
       <r>   12.4889    0.0000 </r>
      </set>
      <set comment="kpoint 48">
       <r>   -3.5741    1.0000 </r>
       <r>   -0.7349    1.0000 </r>
       <r>    1.8854    1.0000 </r>
       <r>    3.8686    1.0000 </r>
       <r>    7.8221    0.0000 </r>
       <r>   10.1420    0.0000 </r>
       <r>   11.1948    0.0000 </r>
       <r>   12.4976    0.0000 </r>
      </set>
      <set comment="kpoint 49">
       <r>   -4.0861    1.0000 </r>
       <r>   -0.4988    1.0000 </r>
       <r>    2.8965    1.0000 </r>
       <r>    4.2777    1.0000 </r>
       <r>    8.1394    0.0000 </r>
       <r>    9.1080    0.0000 </r>
       <r>   10.0019    0.0000 </r>
       <r>   12.5844    0.0000 </r>
      </set>
      <set comment="kpoint 50">
       <r>   -4.4779    1.0000 </r>
       <r>   -0.2253    1.0000 </r>
       <r>    4.0304    1.0000 </r>
       <r>    4.5031    1.0000 </r>
       <r>    7.6458    0.0000 </r>
       <r>    8.9378    0.0000 </r>
       <r>    9.3783    0.0000 </r>
       <r>   12.8120    0.0000 </r>
      </set>
      <set comment="kpoint 51">
       <r>   -3.0244    1.0000 </r>
       <r>   -1.1401    1.0000 </r>
       <r>    2.7935    1.0000 </r>
       <r>    2.8993    1.0000 </r>
       <r>    6.3160    0.0000 </r>
       <r>    6.7753    0.0000 </r>
       <r>   14.5845    0.0000 </r>
       <r>   14.5996    0.0000 </r>
      </set>
      <set comment="kpoint 52">
       <r>   -2.4095    1.0000 </r>
       <r>   -1.7888    1.0000 </r>
       <r>    2.5021    1.0000 </r>
       <r>    2.7850    1.0000 </r>
       <r>    6.5748    0.0000 </r>
       <r>    6.9566    0.0000 </r>
       <r>   14.5499    0.0000 </r>
       <r>   15.0895    0.0000 </r>
      </set>
      <set comment="kpoint 53">
       <r>   -2.4037    1.0000 </r>
       <r>   -1.7197    1.0000 </r>
       <r>    1.8883    1.0000 </r>
       <r>    2.9270    1.0000 </r>
       <r>    6.7466    0.0000 </r>
       <r>    8.1974    0.0000 </r>
       <r>   13.5364    0.0000 </r>
       <r>   14.2577    0.0000 </r>
      </set>
      <set comment="kpoint 54">
       <r>   -2.8967    1.0000 </r>
       <r>   -1.2224    1.0000 </r>
       <r>    1.6199    1.0000 </r>
       <r>    3.2121    1.0000 </r>
       <r>    7.0790    0.0000 </r>
       <r>    9.8275    0.0000 </r>
       <r>   11.8746    0.0000 </r>
       <r>   12.9189    0.0000 </r>
      </set>
      <set comment="kpoint 55">
       <r>   -3.3179    1.0000 </r>
       <r>   -1.0833    1.0000 </r>
       <r>    2.0312    1.0000 </r>
       <r>    3.6097    1.0000 </r>
       <r>    7.5462    0.0000 </r>
       <r>   10.3037    0.0000 </r>
       <r>   11.3380    0.0000 </r>
       <r>   11.7471    0.0000 </r>
      </set>
      <set comment="kpoint 56">
       <r>   -3.6706    1.0000 </r>
       <r>   -1.1244    1.0000 </r>
       <r>    2.9463    1.0000 </r>
       <r>    4.0465    1.0000 </r>
       <r>    7.9522    0.0000 </r>
       <r>    9.1136    0.0000 </r>
       <r>   10.0436    0.0000 </r>
       <r>   13.5726    0.0000 </r>
      </set>
      <set comment="kpoint 57">
       <r>   -3.9490    1.0000 </r>
       <r>   -1.0859    1.0000 </r>
       <r>    3.9664    1.0000 </r>
       <r>    4.3532    1.0000 </r>
       <r>    7.5374    0.0000 </r>
       <r>    8.8927    0.0000 </r>
       <r>    9.2453    0.0000 </r>
       <r>   13.5038    0.0000 </r>
      </set>
      <set comment="kpoint 58">
       <r>   -2.4319    1.0000 </r>
       <r>   -1.8015    1.0000 </r>
       <r>    2.7364    1.0000 </r>
       <r>    2.8455    1.0000 </r>
       <r>    6.3666    0.0000 </r>
       <r>    6.5642    0.0000 </r>
       <r>   15.2615    0.0000 </r>
       <r>   15.3097    0.0000 </r>
      </set>
      <set comment="kpoint 59">
       <r>   -2.9911    1.0000 </r>
       <r>   -1.1470    1.0000 </r>
       <r>    2.5635    1.0000 </r>
       <r>    2.8462    1.0000 </r>
       <r>    6.5751    0.0000 </r>
       <r>    7.1122    0.0000 </r>
       <r>   13.8244    0.0000 </r>
       <r>   14.5873    0.0000 </r>
      </set>
      <set comment="kpoint 60">
       <r>   -3.4264    1.0000 </r>
       <r>   -0.6189    1.0000 </r>
       <r>    2.1850    1.0000 </r>
       <r>    3.1035    1.0000 </r>
       <r>    6.9265    0.0000 </r>
       <r>    8.4611    0.0000 </r>
       <r>   12.1503    0.0000 </r>
       <r>   13.1078    0.0000 </r>
      </set>
      <set comment="kpoint 61">
       <r>   -3.7267    1.0000 </r>
       <r>   -0.5272    1.0000 </r>
       <r>    2.3676    1.0000 </r>
       <r>    3.4895    1.0000 </r>
       <r>    7.4034    0.0000 </r>
       <r>   10.1730    0.0000 </r>
       <r>   10.5866    0.0000 </r>
       <r>   11.5362    0.0000 </r>
      </set>
      <set comment="kpoint 62">
       <r>   -3.8959    1.0000 </r>
       <r>   -0.7983    1.0000 </r>
       <r>    3.1147    1.0000 </r>
       <r>    3.9509    1.0000 </r>
       <r>    7.8680    0.0000 </r>
       <r>    9.2134    0.0000 </r>
       <r>   10.1761    0.0000 </r>
       <r>   12.1346    0.0000 </r>
      </set>
      <set comment="kpoint 63">
       <r>   -3.5751    1.0000 </r>
       <r>   -0.4531    1.0000 </r>
       <r>    2.9074    1.0000 </r>
       <r>    3.0064    1.0000 </r>
       <r>    6.3273    0.0000 </r>
       <r>    7.0833    0.0000 </r>
       <r>   13.8253    0.0000 </r>
       <r>   13.8340    0.0000 </r>
      </set>
      <set comment="kpoint 64">
       <r>   -4.0338    1.0000 </r>
       <r>    0.1842    1.0000 </r>
       <r>    2.8648    1.0000 </r>
       <r>    3.1569    1.0000 </r>
       <r>    6.7096    0.0000 </r>
       <r>    7.7501    0.0000 </r>
       <r>   12.3857    0.0000 </r>
       <r>   13.0549    0.0000 </r>
      </set>
      <set comment="kpoint 65">
       <r>   -4.3411    1.0000 </r>
       <r>    0.4556    1.0000 </r>
       <r>    2.8433    1.0000 </r>
       <r>    3.5306    1.0000 </r>
       <r>    7.3160    0.0000 </r>
       <r>    9.0839    0.0000 </r>
       <r>   10.8212    0.0000 </r>
       <r>   11.6896    0.0000 </r>
      </set>
      <set comment="kpoint 66">
       <r>   -4.4890    1.0000 </r>
       <r>    0.2010    1.0000 </r>
       <r>    3.3634    1.0000 </r>
       <r>    4.0219    1.0000 </r>
       <r>    7.8729    0.0000 </r>
       <r>    9.3836    0.0000 </r>
       <r>   10.3517    0.0000 </r>
       <r>   10.8717    0.0000 </r>
      </set>
      <set comment="kpoint 67">
       <r>   -4.5351    1.0000 </r>
       <r>    0.9684    1.0000 </r>
       <r>    3.3034    1.0000 </r>
       <r>    3.3766    1.0000 </r>
       <r>    6.5476    0.0000 </r>
       <r>    7.9602    0.0000 </r>
       <r>   12.2927    0.0000 </r>
       <r>   12.3474    0.0000 </r>
      </set>
      <set comment="kpoint 68">
       <r>   -4.8856    1.0000 </r>
       <r>    1.5102    1.0000 </r>
       <r>    3.3807    1.0000 </r>
       <r>    3.7311    1.0000 </r>
       <r>    7.0633    0.0000 </r>
       <r>    8.7318    0.0000 </r>
       <r>   11.0238    0.0000 </r>
       <r>   11.5565    0.0000 </r>
      </set>
      <set comment="kpoint 69">
       <r>   -5.0701    1.0000 </r>
       <r>    1.4604    1.0000 </r>
       <r>    3.6677    1.0000 </r>
       <r>    4.2555    1.0000 </r>
       <r>    7.8314    0.0000 </r>
       <r>    9.4578    0.0000 </r>
       <r>   10.1632    0.0000 </r>
       <r>   10.4531    0.0000 </r>
      </set>
      <set comment="kpoint 70">
       <r>   -5.2879    1.0000 </r>
       <r>    2.4010    1.0000 </r>
       <r>    3.9148    1.0000 </r>
       <r>    3.9392    1.0000 </r>
       <r>    6.9934    0.0000 </r>
       <r>    9.1107    0.0000 </r>
       <r>   10.8370    0.0000 </r>
       <r>   10.9199    0.0000 </r>
      </set>
      <set comment="kpoint 71">
       <r>   -5.5245    1.0000 </r>
       <r>    2.7665    1.0000 </r>
       <r>    4.0638    1.0000 </r>
       <r>    4.5433    1.0000 </r>
       <r>    7.5876    0.0000 </r>
       <r>    9.4578    0.0000 </r>
       <r>   10.1502    0.0000 </r>
       <r>   10.2063    0.0000 </r>
      </set>
      <set comment="kpoint 72">
       <r>   -5.8176    1.0000 </r>
       <r>    3.7688    1.0000 </r>
       <r>    4.6503    1.0000 </r>
       <r>    4.7068    1.0000 </r>
       <r>    7.5759    0.0000 </r>
       <r>    9.3809    0.0000 </r>
       <r>    9.5948    0.0000 </r>
       <r>   10.1219    0.0000 </r>
      </set>
      <set comment="kpoint 73">
       <r>   -5.9963    1.0000 </r>
       <r>    4.0321    1.0000 </r>
       <r>    5.3406    1.0000 </r>
       <r>    5.3406    1.0000 </r>
       <r>    8.0691    0.0000 </r>
       <r>    8.5971    0.0000 </r>
       <r>    8.5971    0.0000 </r>
       <r>   10.1616    0.0000 </r>
      </set>
      <set comment="kpoint 74">
       <r>   -5.8194    1.0000 </r>
       <r>    3.4090    1.0000 </r>
       <r>    4.4848    1.0000 </r>
       <r>    5.4118    1.0000 </r>
       <r>    8.4133    0.0000 </r>
       <r>    8.5856    0.0000 </r>
       <r>    8.8551    0.0000 </r>
       <r>   10.8037    0.0000 </r>
      </set>
      <set comment="kpoint 75">
       <r>   -5.4712    1.0000 </r>
       <r>    2.3589    1.0000 </r>
       <r>    3.7132    1.0000 </r>
       <r>    5.2004    1.0000 </r>
       <r>    8.5405    0.0000 </r>
       <r>    8.9357    0.0000 </r>
       <r>    9.2162    0.0000 </r>
       <r>   11.2325    0.0000 </r>
      </set>
      <set comment="kpoint 76">
       <r>   -4.9694    1.0000 </r>
       <r>    1.0401    1.0000 </r>
       <r>    3.3551    1.0000 </r>
       <r>    4.8612    1.0000 </r>
       <r>    8.2819    0.0000 </r>
       <r>    9.2871    0.0000 </r>
       <r>    9.4610    0.0000 </r>
       <r>   11.8388    0.0000 </r>
      </set>
      <set comment="kpoint 77">
       <r>   -4.3643    1.0000 </r>
       <r>   -0.1799    1.0000 </r>
       <r>    3.2119    1.0000 </r>
       <r>    4.5248    1.0000 </r>
       <r>    8.0363    0.0000 </r>
       <r>    9.3223    0.0000 </r>
       <r>    9.4414    0.0000 </r>
       <r>   12.9113    0.0000 </r>
      </set>
      <set comment="kpoint 78">
       <r>   -3.8324    1.0000 </r>
       <r>   -1.0327    1.0000 </r>
       <r>    3.2262    1.0000 </r>
       <r>    4.2567    1.0000 </r>
       <r>    7.8626    0.0000 </r>
       <r>    9.1645    0.0000 </r>
       <r>    9.5469    0.0000 </r>
       <r>   13.8026    0.0000 </r>
      </set>
      <set comment="kpoint 79">
       <r>   -3.8294    1.0000 </r>
       <r>   -1.0382    1.0000 </r>
       <r>    3.3764    1.0000 </r>
       <r>    4.0902    1.0000 </r>
       <r>    7.7885    0.0000 </r>
       <r>    9.1146    0.0000 </r>
       <r>    9.7195    0.0000 </r>
       <r>   12.9326    0.0000 </r>
      </set>
      <set comment="kpoint 80">
       <r>   -4.3594    1.0000 </r>
       <r>   -0.1908    1.0000 </r>
       <r>    3.6437    1.0000 </r>
       <r>    4.0435    1.0000 </r>
       <r>    7.8168    0.0000 </r>
       <r>    9.1728    0.0000 </r>
       <r>    9.9560    0.0000 </r>
       <r>   11.6186    0.0000 </r>
      </set>
      <set comment="kpoint 81">
       <r>   -4.9652    1.0000 </r>
       <r>    1.0358    1.0000 </r>
       <r>    4.0018    1.0000 </r>
       <r>    4.1251    1.0000 </r>
       <r>    7.8784    0.0000 </r>
       <r>    9.2485    0.0000 </r>
       <r>   10.1431    0.0000 </r>
       <r>   10.6547    0.0000 </r>
      </set>
      <set comment="kpoint 82">
       <r>   -5.4683    1.0000 </r>
       <r>    2.4166    1.0000 </r>
       <r>    4.3332    1.0000 </r>
       <r>    4.3974    1.0000 </r>
       <r>    7.7696    0.0000 </r>
       <r>    9.2519    0.0000 </r>
       <r>   10.0539    0.0000 </r>
       <r>   10.3651    0.0000 </r>
      </set>
      <set comment="kpoint 83">
       <r>   -5.7020    1.0000 </r>
       <r>    2.9626    1.0000 </r>
       <r>    4.6834    1.0000 </r>
       <r>    4.8795    1.0000 </r>
       <r>    8.0179    0.0000 </r>
       <r>    8.7523    0.0000 </r>
       <r>    9.5067    0.0000 </r>
       <r>   10.7746    0.0000 </r>
      </set>
      <set comment="kpoint 84">
       <r>   -5.4114    1.0000 </r>
       <r>    2.3227    1.0000 </r>
       <r>    3.7179    1.0000 </r>
       <r>    4.8101    1.0000 </r>
       <r>    8.1073    0.0000 </r>
       <r>    9.0903    0.0000 </r>
       <r>    9.9912    0.0000 </r>
       <r>   10.4544    0.0000 </r>
      </set>
      <set comment="kpoint 85">
       <r>   -4.9598    1.0000 </r>
       <r>    1.3586    1.0000 </r>
       <r>    2.9874    1.0000 </r>
       <r>    4.5409    1.0000 </r>
       <r>    8.5053    0.0000 </r>
       <r>    9.0550    0.0000 </r>
       <r>   10.2988    0.0000 </r>
       <r>   10.5564    0.0000 </r>
      </set>
      <set comment="kpoint 86">
       <r>   -4.3809    1.0000 </r>
       <r>    0.2120    1.0000 </r>
       <r>    2.6705    1.0000 </r>
       <r>    4.1938    1.0000 </r>
       <r>    8.5794    0.0000 </r>
       <r>    8.9275    0.0000 </r>
       <r>   10.6573    0.0000 </r>
       <r>   11.0511    0.0000 </r>
      </set>
      <set comment="kpoint 87">
       <r>   -3.7859    1.0000 </r>
       <r>   -0.7602    1.0000 </r>
       <r>    2.5761    1.0000 </r>
       <r>    3.9128    1.0000 </r>
       <r>    8.3947    0.0000 </r>
       <r>    8.8744    0.0000 </r>
       <r>   10.7108    0.0000 </r>
       <r>   12.2698    0.0000 </r>
      </set>
      <set comment="kpoint 88">
       <r>   -3.5518    1.0000 </r>
       <r>   -1.0948    1.0000 </r>
       <r>    2.6167    1.0000 </r>
       <r>    3.7755    1.0000 </r>
       <r>    8.2099    0.0000 </r>
       <r>    8.9720    0.0000 </r>
       <r>   10.7373    0.0000 </r>
       <r>   12.8167    0.0000 </r>
      </set>
      <set comment="kpoint 89">
       <r>   -3.9656    1.0000 </r>
       <r>   -0.4886    1.0000 </r>
       <r>    2.7498    1.0000 </r>
       <r>    3.8233    1.0000 </r>
       <r>    8.1159    0.0000 </r>
       <r>    9.1932    0.0000 </r>
       <r>   10.8093    0.0000 </r>
       <r>   11.3552    0.0000 </r>
      </set>
      <set comment="kpoint 90">
       <r>   -4.5788    1.0000 </r>
       <r>    0.5871    1.0000 </r>
       <r>    2.9760    1.0000 </r>
       <r>    4.0450    1.0000 </r>
       <r>    8.0654    0.0000 </r>
       <r>    9.4648    0.0000 </r>
       <r>   10.1895    0.0000 </r>
       <r>   10.9103    0.0000 </r>
      </set>
      <set comment="kpoint 91">
       <r>   -5.1230    1.0000 </r>
       <r>    1.7743    1.0000 </r>
       <r>    3.3642    1.0000 </r>
       <r>    4.3500    1.0000 </r>
       <r>    7.8451    0.0000 </r>
       <r>    9.4566    0.0000 </r>
       <r>    9.9861    0.0000 </r>
       <r>   10.7115    0.0000 </r>
      </set>
      <set comment="kpoint 92">
       <r>   -5.1783    1.0000 </r>
       <r>    1.8640    1.0000 </r>
       <r>    3.8923    1.0000 </r>
       <r>    4.0052    1.0000 </r>
       <r>    7.4921    0.0000 </r>
       <r>    9.4638    0.0000 </r>
       <r>   10.2144    0.0000 </r>
       <r>   10.6282    0.0000 </r>
      </set>
      <set comment="kpoint 93">
       <r>   -4.7805    1.0000 </r>
       <r>    1.2162    1.0000 </r>
       <r>    3.0495    1.0000 </r>
       <r>    3.8912    1.0000 </r>
       <r>    7.6047    0.0000 </r>
       <r>    9.1443    0.0000 </r>
       <r>   10.2844    0.0000 </r>
       <r>   11.4607    0.0000 </r>
      </set>
      <set comment="kpoint 94">
       <r>   -4.2405    1.0000 </r>
       <r>    0.3692    1.0000 </r>
       <r>    2.4295    1.0000 </r>
       <r>    3.5734    1.0000 </r>
       <r>    8.0898    0.0000 </r>
       <r>    9.2894    0.0000 </r>
       <r>    9.9797    0.0000 </r>
       <r>   12.1435    0.0000 </r>
      </set>
      <set comment="kpoint 95">
       <r>   -3.6269    1.0000 </r>
       <r>   -0.5321    1.0000 </r>
       <r>    2.0865    1.0000 </r>
       <r>    3.3042    1.0000 </r>
       <r>    8.2962    0.0000 </r>
       <r>    9.5921    0.0000 </r>
       <r>   10.3460    0.0000 </r>
       <r>   12.2951    0.0000 </r>
      </set>
      <set comment="kpoint 96">
       <r>   -3.2052    1.0000 </r>
       <r>   -1.0865    1.0000 </r>
       <r>    1.9146    1.0000 </r>
       <r>    3.2303    1.0000 </r>
       <r>    8.4674    0.0000 </r>
       <r>    9.3012    0.0000 </r>
       <r>   11.8205    0.0000 </r>
       <r>   12.2624    0.0000 </r>
      </set>
      <set comment="kpoint 97">
       <r>   -3.4523    1.0000 </r>
       <r>   -0.7660    1.0000 </r>
       <r>    1.8910    1.0000 </r>
       <r>    3.3758    1.0000 </r>
       <r>    8.7497    0.0000 </r>
       <r>    9.0981    0.0000 </r>
       <r>   11.2404    0.0000 </r>
       <r>   12.2280    0.0000 </r>
      </set>
      <set comment="kpoint 98">
       <r>   -4.0513    1.0000 </r>
       <r>    0.0644    1.0000 </r>
       <r>    2.0936    1.0000 </r>
       <r>    3.6890    1.0000 </r>
       <r>    8.8779    0.0000 </r>
       <r>    9.1312    0.0000 </r>
       <r>   10.0512    0.0000 </r>
       <r>   12.0322    0.0000 </r>
      </set>
      <set comment="kpoint 99">
       <r>   -4.6248    1.0000 </r>
       <r>    0.8659    1.0000 </r>
       <r>    2.6830    1.0000 </r>
       <r>    4.0572    1.0000 </r>
       <r>    8.2863    0.0000 </r>
       <r>    9.4622    0.0000 </r>
       <r>    9.7797    0.0000 </r>
       <r>   11.3303    0.0000 </r>
      </set>
      <set comment="kpoint 100">
       <r>   -4.4367    1.0000 </r>
       <r>    0.7068    1.0000 </r>
       <r>    3.0066    1.0000 </r>
       <r>    3.4597    1.0000 </r>
       <r>    6.9948    0.0000 </r>
       <r>    8.5279    0.0000 </r>
       <r>   11.5367    0.0000 </r>
       <r>   11.8348    0.0000 </r>
      </set>
      <set comment="kpoint 101">
       <r>   -3.9432    1.0000 </r>
       <r>    0.0506    1.0000 </r>
       <r>    2.5617    1.0000 </r>
       <r>    3.1301    1.0000 </r>
       <r>    7.2425    0.0000 </r>
       <r>    8.2451    0.0000 </r>
       <r>   11.4790    0.0000 </r>
       <r>   13.0218    0.0000 </r>
      </set>
      <set comment="kpoint 102">
       <r>   -3.3412    1.0000 </r>
       <r>   -0.6645    1.0000 </r>
       <r>    2.0927    1.0000 </r>
       <r>    2.7793    1.0000 </r>
       <r>    7.8137    0.0000 </r>
       <r>    8.6092    0.0000 </r>
       <r>   11.1363    0.0000 </r>
       <r>   13.7986    0.0000 </r>
      </set>
      <set comment="kpoint 103">
       <r>   -2.7965    1.0000 </r>
       <r>   -1.2550    1.0000 </r>
       <r>    1.6518    1.0000 </r>
       <r>    2.7288    1.0000 </r>
       <r>    8.0198    0.0000 </r>
       <r>    9.8950    0.0000 </r>
       <r>   10.8401    0.0000 </r>
       <r>   12.9808    0.0000 </r>
      </set>
      <set comment="kpoint 104">
       <r>   -2.8727    1.0000 </r>
       <r>   -1.1670    1.0000 </r>
       <r>    1.4463    1.0000 </r>
       <r>    2.9277    1.0000 </r>
       <r>    8.3010    0.0000 </r>
       <r>   10.4072    0.0000 </r>
       <r>   11.2994    0.0000 </r>
       <r>   11.7620    0.0000 </r>
      </set>
      <set comment="kpoint 105">
       <r>   -3.4427    1.0000 </r>
       <r>   -0.6173    1.0000 </r>
       <r>    1.6571    1.0000 </r>
       <r>    3.2968    1.0000 </r>
       <r>    8.7038    0.0000 </r>
       <r>    9.6002    0.0000 </r>
       <r>   10.6046    0.0000 </r>
       <r>   12.8165    0.0000 </r>
      </set>
      <set comment="kpoint 106">
       <r>   -4.0211    1.0000 </r>
       <r>   -0.1667    1.0000 </r>
       <r>    2.3647    1.0000 </r>
       <r>    3.7341    1.0000 </r>
       <r>    8.4897    0.0000 </r>
       <r>    9.1556    0.0000 </r>
       <r>   10.6045    0.0000 </r>
       <r>   11.5060    0.0000 </r>
      </set>
      <set comment="kpoint 107">
       <r>   -3.4975    1.0000 </r>
       <r>   -0.5302    1.0000 </r>
       <r>    2.4258    1.0000 </r>
       <r>    3.0982    1.0000 </r>
       <r>    6.6538    0.0000 </r>
       <r>    7.8165    0.0000 </r>
       <r>   13.0730    0.0000 </r>
       <r>   13.1296    0.0000 </r>
      </set>
      <set comment="kpoint 108">
       <r>   -2.9273    1.0000 </r>
       <r>   -1.1657    1.0000 </r>
       <r>    2.2834    1.0000 </r>
       <r>    2.6901    1.0000 </r>
       <r>    7.0696    0.0000 </r>
       <r>    7.6838    0.0000 </r>
       <r>   12.8261    0.0000 </r>
       <r>   14.5430    0.0000 </r>
      </set>
      <set comment="kpoint 109">
       <r>   -2.3188    1.0000 </r>
       <r>   -1.7427    1.0000 </r>
       <r>    1.9782    1.0000 </r>
       <r>    2.3838    1.0000 </r>
       <r>    7.7051    0.0000 </r>
       <r>    8.3015    0.0000 </r>
       <r>   12.4841    0.0000 </r>
       <r>   13.2279    0.0000 </r>
      </set>
      <set comment="kpoint 110">
       <r>   -2.4593    1.0000 </r>
       <r>   -1.5596    1.0000 </r>
       <r>    1.5458    1.0000 </r>
       <r>    2.6156    1.0000 </r>
       <r>    7.9618    0.0000 </r>
       <r>    9.8379    0.0000 </r>
       <r>   11.4787    0.0000 </r>
       <r>   12.2401    0.0000 </r>
      </set>
      <set comment="kpoint 111">
       <r>   -2.9900    1.0000 </r>
       <r>   -1.1496    1.0000 </r>
       <r>    1.6233    1.0000 </r>
       <r>    3.0266    1.0000 </r>
       <r>    8.3577    0.0000 </r>
       <r>    9.8493    0.0000 </r>
       <r>   11.6577    0.0000 </r>
       <r>   12.1300    0.0000 </r>
      </set>
      <set comment="kpoint 112">
       <r>   -3.4828    1.0000 </r>
       <r>   -0.9576    1.0000 </r>
       <r>    2.2464    1.0000 </r>
       <r>    3.5372    1.0000 </r>
       <r>    8.6016    0.0000 </r>
       <r>    8.8481    0.0000 </r>
       <r>   11.4739    0.0000 </r>
       <r>   12.0199    0.0000 </r>
      </set>
      <set comment="kpoint 113">
       <r>   -2.4051    1.0000 </r>
       <r>   -1.7660    1.0000 </r>
       <r>    2.1810    1.0000 </r>
       <r>    2.9404    1.0000 </r>
       <r>    6.5043    0.0000 </r>
       <r>    7.5052    0.0000 </r>
       <r>   14.4208    0.0000 </r>
       <r>   14.6391    0.0000 </r>
      </set>
      <set comment="kpoint 114">
       <r>   -2.3689    1.0000 </r>
       <r>   -1.7671    1.0000 </r>
       <r>    2.2271    1.0000 </r>
       <r>    2.6022    1.0000 </r>
       <r>    7.0447    0.0000 </r>
       <r>    7.5608    0.0000 </r>
       <r>   13.5433    0.0000 </r>
       <r>   14.2796    0.0000 </r>
      </set>
      <set comment="kpoint 115">
       <r>   -2.8388    1.0000 </r>
       <r>   -1.2038    1.0000 </r>
       <r>    2.0111    1.0000 </r>
       <r>    2.5220    1.0000 </r>
       <r>    7.7398    0.0000 </r>
       <r>    8.4058    0.0000 </r>
       <r>   11.7888    0.0000 </r>
       <r>   13.9733    0.0000 </r>
      </set>
      <set comment="kpoint 116">
       <r>   -3.2107    1.0000 </r>
       <r>   -0.8946    1.0000 </r>
       <r>    1.8421    1.0000 </r>
       <r>    2.9597    1.0000 </r>
       <r>    8.1333    0.0000 </r>
       <r>    9.9379    0.0000 </r>
       <r>   10.3308    0.0000 </r>
       <r>   13.1003    0.0000 </r>
      </set>
      <set comment="kpoint 117">
       <r>   -2.9644    1.0000 </r>
       <r>   -1.1576    1.0000 </r>
       <r>    2.2622    1.0000 </r>
       <r>    2.9932    1.0000 </r>
       <r>    6.5542    0.0000 </r>
       <r>    7.6092    0.0000 </r>
       <r>   13.8043    0.0000 </r>
       <r>   13.8599    0.0000 </r>
      </set>
      <set comment="kpoint 118">
       <r>   -3.4551    1.0000 </r>
       <r>   -0.5552    1.0000 </r>
       <r>    2.3954    1.0000 </r>
       <r>    2.8664    1.0000 </r>
       <r>    7.1325    0.0000 </r>
       <r>    7.9160    0.0000 </r>
       <r>   12.1362    0.0000 </r>
       <r>   13.8159    0.0000 </r>
      </set>
      <set comment="kpoint 119">
       <r>   -3.8109    1.0000 </r>
       <r>   -0.1394    1.0000 </r>
       <r>    2.2319    1.0000 </r>
       <r>    3.1369    1.0000 </r>
       <r>    7.9305    0.0000 </r>
       <r>    8.9059    0.0000 </r>
       <r>   10.5315    0.0000 </r>
       <r>   12.9720    0.0000 </r>
      </set>
      <set comment="kpoint 120">
       <r>   -3.9900    1.0000 </r>
       <r>    0.0954    1.0000 </r>
       <r>    2.6739    1.0000 </r>
       <r>    3.2543    1.0000 </r>
       <r>    6.8017    0.0000 </r>
       <r>    8.1245    0.0000 </r>
       <r>   12.2959    0.0000 </r>
       <r>   12.4698    0.0000 </r>
      </set>
      <set comment="kpoint 121">
       <r>   -4.3863    1.0000 </r>
       <r>    0.6424    1.0000 </r>
       <r>    2.7806    1.0000 </r>
       <r>    3.4761    1.0000 </r>
       <r>    7.4011    0.0000 </r>
       <r>    8.6619    0.0000 </r>
       <r>   10.8567    0.0000 </r>
       <r>   12.2334    0.0000 </r>
      </set>
      <set comment="kpoint 122">
       <r>   -4.8337    1.0000 </r>
       <r>    1.2963    1.0000 </r>
[...]
       <r>   -1.2107    1.0000 </r>
       <r>    1.5817    1.0000 </r>
       <r>    3.1344    1.0000 </r>
       <r>    7.6281    0.0000 </r>
       <r>   10.5624    0.0000 </r>
       <r>   11.0242    0.0000 </r>
       <r>   12.8895    0.0000 </r>
      </set>
      <set comment="kpoint 172">
       <r>   -2.7766    1.0000 </r>
       <r>   -1.3164    1.0000 </r>
       <r>    1.3486    1.0000 </r>
       <r>    3.3961    1.0000 </r>
       <r>    7.0335    0.0000 </r>
       <r>   10.5861    0.0000 </r>
       <r>   12.4135    0.0000 </r>
       <r>   12.7557    0.0000 </r>
      </set>
      <set comment="kpoint 173">
       <r>   -4.5363    1.0000 </r>
       <r>   -0.2503    1.0000 </r>
       <r>    4.5545    1.0000 </r>
       <r>    4.5545    1.0000 </r>
       <r>    7.2208    0.0000 </r>
       <r>    9.0787    0.0000 </r>
       <r>    9.0787    0.0000 </r>
       <r>   13.4629    0.0000 </r>
      </set>
      <set comment="kpoint 174">
       <r>   -4.2575    1.0000 </r>
       <r>   -0.5640    1.0000 </r>
       <r>    3.7732    1.0000 </r>
       <r>    4.5179    1.0000 </r>
       <r>    7.6882    0.0000 </r>
       <r>    9.1079    0.0000 </r>
       <r>    9.1891    0.0000 </r>
       <r>   13.4235    0.0000 </r>
      </set>
      <set comment="kpoint 175">
       <r>   -3.8465    1.0000 </r>
       <r>   -0.7674    1.0000 </r>
       <r>    2.6342    1.0000 </r>
       <r>    4.1930    1.0000 </r>
       <r>    7.9133    0.0000 </r>
       <r>    9.6672    0.0000 </r>
       <r>    9.9216    0.0000 </r>
       <r>   13.4707    0.0000 </r>
      </set>
      <set comment="kpoint 176">
       <r>   -3.3336    1.0000 </r>
       <r>   -0.9529    1.0000 </r>
       <r>    1.7103    1.0000 </r>
       <r>    3.7732    1.0000 </r>
       <r>    7.4802    0.0000 </r>
       <r>   11.0285    0.0000 </r>
       <r>   11.0697    0.0000 </r>
       <r>   12.5114    0.0000 </r>
      </set>
      <set comment="kpoint 177">
       <r>   -4.0732    1.0000 </r>
       <r>   -0.8597    1.0000 </r>
       <r>    3.9544    1.0000 </r>
       <r>    4.2426    1.0000 </r>
       <r>    7.6407    0.0000 </r>
       <r>    8.8813    0.0000 </r>
       <r>    9.4101    0.0000 </r>
       <r>   13.1348    0.0000 </r>
      </set>
      <set comment="kpoint 178">
       <r>   -3.7722    1.0000 </r>
       <r>   -1.0142    1.0000 </r>
       <r>    3.0727    1.0000 </r>
       <r>    4.0309    1.0000 </r>
       <r>    8.1620    0.0000 </r>
       <r>    8.7761    0.0000 </r>
       <r>   10.1035    0.0000 </r>
       <r>   13.0240    0.0000 </r>
      </set>
      <set comment="kpoint 179">
       <r>   -3.3808    1.0000 </r>
       <r>   -1.0691    1.0000 </r>
       <r>    2.1396    1.0000 </r>
       <r>    3.5872    1.0000 </r>
       <r>    8.1015    0.0000 </r>
       <r>    9.4309    0.0000 </r>
       <r>   11.4191    0.0000 </r>
       <r>   12.6292    0.0000 </r>
      </set>
      <set comment="kpoint 180">
       <r>   -3.6097    1.0000 </r>
       <r>   -1.1111    1.0000 </r>
       <r>    2.7680    1.0000 </r>
       <r>    3.9557    1.0000 </r>
       <r>    7.7165    0.0000 </r>
       <r>    9.6542    0.0000 </r>
       <r>   10.1112    0.0000 </r>
       <r>   12.7507    0.0000 </r>
      </set>
      <set comment="kpoint 181">
       <r>   -4.0084    1.0000 </r>
       <r>   -1.1149    1.0000 </r>
       <r>    4.4561    1.0000 </r>
       <r>    4.4562    1.0000 </r>
       <r>    7.1072    0.0000 </r>
       <r>    8.9885    0.0000 </r>
       <r>    8.9885    0.0000 </r>
       <r>   13.3477    0.0000 </r>
      </set>
      <set comment="kpoint 182">
       <r>   -3.8476    1.0000 </r>
       <r>   -1.1952    1.0000 </r>
       <r>    3.8061    1.0000 </r>
       <r>    4.3283    1.0000 </r>
       <r>    7.6101    0.0000 </r>
       <r>    8.9401    0.0000 </r>
       <r>    9.2547    0.0000 </r>
       <r>   13.6170    0.0000 </r>
      </set>
     </set>
    </set>
   </array>
  </eigenvalues>
  <separator name="orbital magnetization" >
   <v name="MAGDIPOLOUT">      0.00000000      0.00000000      0.00000000</v>
  </separator>
  <dos>
   <i name="efermi">      5.83049915 </i>
   <total>
    <array>
     <dimension dim="1">gridpoints</dimension>
     <dimension dim="2">spin</dimension>
     <field>energy</field>
     <field>total</field>
     <field>integrated</field>
     <set>
      <set comment="spin 1">
       <r>    -7.2487     0.0000     0.0000 </r>
       <r>    -7.1699     0.0000     0.0000 </r>
       <r>    -7.0911     0.0000     0.0000 </r>
       <r>    -7.0124     0.0000     0.0000 </r>
       <r>    -6.9336     0.0000     0.0000 </r>
       <r>    -6.8548     0.0000     0.0000 </r>
       <r>    -6.7760     0.0000     0.0000 </r>
       <r>    -6.6973     0.0000     0.0000 </r>
       <r>    -6.6185     0.0000     0.0000 </r>
       <r>    -6.5397     0.0000     0.0000 </r>
       <r>    -6.4609     0.0000     0.0000 </r>
       <r>    -6.3822     0.0000     0.0000 </r>
       <r>    -6.3034     0.0000     0.0000 </r>
       <r>    -6.2246     0.0024     0.0002 </r>
       <r>    -6.1458     0.0381     0.0032 </r>
       <r>    -6.0670     0.1045     0.0114 </r>
       <r>    -5.9883     0.1398     0.0224 </r>
       <r>    -5.9095     0.1927     0.0376 </r>
       <r>    -5.8307     0.1726     0.0512 </r>
       <r>    -5.7519     0.2726     0.0727 </r>
       <r>    -5.6732     0.2181     0.0899 </r>
       <r>    -5.5944     0.2747     0.1115 </r>
       <r>    -5.5156     0.2987     0.1350 </r>
       <r>    -5.4368     0.3362     0.1615 </r>
       <r>    -5.3581     0.3182     0.1866 </r>
       <r>    -5.2793     0.2776     0.2085 </r>
       <r>    -5.2005     0.4712     0.2456 </r>
       <r>    -5.1217     0.3719     0.2749 </r>
       <r>    -5.0430     0.3830     0.3050 </r>
       <r>    -4.9642     0.3396     0.3318 </r>
       <r>    -4.8854     0.5521     0.3753 </r>
       <r>    -4.8066     0.4118     0.4077 </r>
       <r>    -4.7279     0.5123     0.4481 </r>
       <r>    -4.6491     0.4748     0.4855 </r>
       <r>    -4.5703     0.4791     0.5232 </r>
       <r>    -4.4915     0.4617     0.5596 </r>
       <r>    -4.4128     0.6754     0.6128 </r>
       <r>    -4.3340     0.6649     0.6652 </r>
       <r>    -4.2552     0.4915     0.7039 </r>
       <r>    -4.1764     0.5890     0.7503 </r>
       <r>    -4.0977     0.6520     0.8016 </r>
       <r>    -4.0189     0.7995     0.8646 </r>
       <r>    -3.9401     0.7865     0.9266 </r>
       <r>    -3.8613     0.8084     0.9903 </r>
       <r>    -3.7826     1.1443     1.0804 </r>
       <r>    -3.7038     0.6478     1.1314 </r>
       <r>    -3.6250     0.6416     1.1820 </r>
       <r>    -3.5462     1.0710     1.2663 </r>
       <r>    -3.4675     0.7105     1.3223 </r>
       <r>    -3.3887     0.7508     1.3815 </r>
       <r>    -3.3099     0.7808     1.4430 </r>
       <r>    -3.2311     0.8238     1.5079 </r>
       <r>    -3.1524     0.5905     1.5544 </r>
       <r>    -3.0736     0.3281     1.5802 </r>
       <r>    -2.9948     0.5766     1.6256 </r>
       <r>    -2.9160     0.8231     1.6905 </r>
       <r>    -2.8373     0.7764     1.7517 </r>
       <r>    -2.7585     0.5205     1.7927 </r>
       <r>    -2.6797     0.3995     1.8241 </r>
       <r>    -2.6009     0.2156     1.8411 </r>
       <r>    -2.5222     0.2769     1.8629 </r>
       <r>    -2.4434     0.3966     1.8942 </r>
       <r>    -2.3646     0.6855     1.9482 </r>
       <r>    -2.2858     0.3547     1.9761 </r>
       <r>    -2.2071     0.2708     1.9974 </r>
       <r>    -2.1283     0.0325     2.0000 </r>
       <r>    -2.0495     0.0001     2.0000 </r>
       <r>    -1.9707     0.0000     2.0000 </r>
       <r>    -1.8920     0.0008     2.0001 </r>
       <r>    -1.8132     0.1062     2.0084 </r>
       <r>    -1.7344     0.6377     2.0587 </r>
       <r>    -1.6556     0.5646     2.1031 </r>
       <r>    -1.5769     0.2380     2.1219 </r>
       <r>    -1.4981     0.2365     2.1405 </r>
       <r>    -1.4193     0.2254     2.1583 </r>
       <r>    -1.3405     0.2638     2.1790 </r>
       <r>    -1.2617     0.5769     2.2245 </r>
       <r>    -1.1830     1.3269     2.3290 </r>
       <r>    -1.1042     1.7001     2.4629 </r>
       <r>    -1.0254     1.3970     2.5730 </r>
       <r>    -0.9466     1.1293     2.6620 </r>
       <r>    -0.8679     0.7495     2.7210 </r>
       <r>    -0.7891     0.9076     2.7925 </r>
       <r>    -0.7103     0.9606     2.8682 </r>
       <r>    -0.6315     0.4059     2.9001 </r>
       <r>    -0.5528     0.7555     2.9597 </r>
       <r>    -0.4740     1.1588     3.0509 </r>
       <r>    -0.3952     0.4677     3.0878 </r>
       <r>    -0.3164     0.1970     3.1033 </r>
       <r>    -0.2377     0.4402     3.1380 </r>
       <r>    -0.1589     0.8051     3.2014 </r>
       <r>    -0.0801     0.5494     3.2447 </r>
       <r>    -0.0013     0.1401     3.2557 </r>
       <r>     0.0774     0.2812     3.2779 </r>
       <r>     0.1562     0.5955     3.3248 </r>
       <r>     0.2350     0.8458     3.3914 </r>
       <r>     0.3138     0.2088     3.4079 </r>
       <r>     0.3925     0.1324     3.4183 </r>
       <r>     0.4713     0.2026     3.4342 </r>
       <r>     0.5501     0.3312     3.4603 </r>
       <r>     0.6289     0.6543     3.5119 </r>
       <r>     0.7076     0.2987     3.5354 </r>
       <r>     0.7864     0.0564     3.5399 </r>
       <r>     0.8652     0.1970     3.5554 </r>
       <r>     0.9440     0.3246     3.5809 </r>
       <r>     1.0227     0.4674     3.6178 </r>
       <r>     1.1015     0.3412     3.6447 </r>
       <r>     1.1803     0.0423     3.6480 </r>
       <r>     1.2591     0.1435     3.6593 </r>
       <r>     1.3378     0.2374     3.6780 </r>
       <r>     1.4166     0.6213     3.7269 </r>
       <r>     1.4954     0.9287     3.8001 </r>
       <r>     1.5742     1.0509     3.8829 </r>
       <r>     1.6529     1.3546     3.9896 </r>
       <r>     1.7317     0.9990     4.0683 </r>
       <r>     1.8105     1.0654     4.1522 </r>
       <r>     1.8893     1.0571     4.2355 </r>
       <r>     1.9680     1.2506     4.3340 </r>
       <r>     2.0468     1.1374     4.4236 </r>
       <r>     2.1256     0.9751     4.5004 </r>
       <r>     2.2044     0.8770     4.5695 </r>
       <r>     2.2831     0.9061     4.6409 </r>
       <r>     2.3619     1.1657     4.7327 </r>
       <r>     2.4407     1.5190     4.8524 </r>
       <r>     2.5195     0.9787     4.9295 </r>
       <r>     2.5982     1.0345     5.0110 </r>
       <r>     2.6770     1.3062     5.1139 </r>
       <r>     2.7558     1.1678     5.2058 </r>
       <r>     2.8346     1.4352     5.3189 </r>
       <r>     2.9133     1.5465     5.4407 </r>
       <r>     2.9921     1.7461     5.5783 </r>
       <r>     3.0709     1.4961     5.6961 </r>
       <r>     3.1497     1.5443     5.8178 </r>
       <r>     3.2284     1.2169     5.9137 </r>
       <r>     3.3072     1.3048     6.0164 </r>
       <r>     3.3860     1.6353     6.1453 </r>
       <r>     3.4648     1.5213     6.2651 </r>
       <r>     3.5436     1.5126     6.3843 </r>
       <r>     3.6223     1.0595     6.4677 </r>
       <r>     3.7011     1.1696     6.5599 </r>
       <r>     3.7799     1.5255     6.6800 </r>
       <r>     3.8587     1.3923     6.7897 </r>
       <r>     3.9374     1.2076     6.8849 </r>
       <r>     4.0162     1.1296     6.9738 </r>
       <r>     4.0950     1.3962     7.0838 </r>
       <r>     4.1738     1.0017     7.1627 </r>
       <r>     4.2525     1.4273     7.2752 </r>
       <r>     4.3313     1.1266     7.3639 </r>
       <r>     4.4101     0.9283     7.4370 </r>
       <r>     4.4889     1.0074     7.5164 </r>
       <r>     4.5676     1.2513     7.6150 </r>
       <r>     4.6464     0.6567     7.6667 </r>
       <r>     4.7252     0.5291     7.7084 </r>
       <r>     4.8040     0.5156     7.7490 </r>
       <r>     4.8827     0.5602     7.7931 </r>
       <r>     4.9615     0.5568     7.8370 </r>
       <r>     5.0403     0.4428     7.8719 </r>
       <r>     5.1191     0.3191     7.8970 </r>
       <r>     5.1978     0.3029     7.9209 </r>
       <r>     5.2766     0.2800     7.9429 </r>
       <r>     5.3554     0.2300     7.9611 </r>
       <r>     5.4342     0.2487     7.9806 </r>
       <r>     5.5129     0.1174     7.9899 </r>
       <r>     5.5917     0.0988     7.9977 </r>
       <r>     5.6705     0.0291     8.0000 </r>
       <r>     5.7493     0.0005     8.0000 </r>
       <r>     5.8280     0.0000     8.0000 </r>
       <r>     5.9068     0.0000     8.0000 </r>
       <r>     5.9856     0.0000     8.0000 </r>
       <r>     6.0644     0.0000     8.0000 </r>
       <r>     6.1431     0.0000     8.0000 </r>
       <r>     6.2219     0.0005     8.0000 </r>
       <r>     6.3007     0.0517     8.0041 </r>
       <r>     6.3795     0.1915     8.0192 </r>
       <r>     6.4582     0.1120     8.0280 </r>
       <r>     6.5370     0.2027     8.0440 </r>
       <r>     6.6158     0.5467     8.0871 </r>
       <r>     6.6946     0.3027     8.1109 </r>
       <r>     6.7733     0.4903     8.1495 </r>
       <r>     6.8521     0.4401     8.1842 </r>
       <r>     6.9309     0.3220     8.2096 </r>
       <r>     7.0097     0.5165     8.2502 </r>
       <r>     7.0884     0.9223     8.3229 </r>
       <r>     7.1672     0.7495     8.3820 </r>
       <r>     7.2460     0.5350     8.4241 </r>
       <r>     7.3248     0.8544     8.4914 </r>
       <r>     7.4035     0.9326     8.5649 </r>
       <r>     7.4823     0.8883     8.6348 </r>
       <r>     7.5611     0.9388     8.7088 </r>
       <r>     7.6399     1.4717     8.8247 </r>
       <r>     7.7186     1.1544     8.9157 </r>
       <r>     7.7974     1.2640     9.0153 </r>
       <r>     7.8762     2.0056     9.1732 </r>
       <r>     7.9550     1.7917     9.3144 </r>
       <r>     8.0337     1.1775     9.4071 </r>
       <r>     8.1125     1.4287     9.5197 </r>
       <r>     8.1913     1.4774     9.6361 </r>
       <r>     8.2701     1.5074     9.7548 </r>
       <r>     8.3489     1.2822     9.8558 </r>
       <r>     8.4276     1.1119     9.9434 </r>
       <r>     8.5064     1.0456    10.0258 </r>
       <r>     8.5852     1.3365    10.1311 </r>
       <r>     8.6640     0.9271    10.2041 </r>
       <r>     8.7427     1.0974    10.2905 </r>
       <r>     8.8215     1.1143    10.3783 </r>
       <r>     8.9003     1.8048    10.5205 </r>
       <r>     8.9791     2.5446    10.7209 </r>
       <r>     9.0578     1.9340    10.8733 </r>
       <r>     9.1366     2.1386    11.0418 </r>
       <r>     9.2154     1.7250    11.1777 </r>
       <r>     9.2942     1.6494    11.3076 </r>
       <r>     9.3729     1.5784    11.4319 </r>
       <r>     9.4517     1.5927    11.5574 </r>
       <r>     9.5305     1.7362    11.6942 </r>
       <r>     9.6093     1.1491    11.7847 </r>
       <r>     9.6880     1.1605    11.8761 </r>
       <r>     9.7668     1.4123    11.9874 </r>
       <r>     9.8456     1.2977    12.0896 </r>
       <r>     9.9244     1.1934    12.1836 </r>
       <r>    10.0031     1.5721    12.3074 </r>
       <r>    10.0819     0.9025    12.3785 </r>
       <r>    10.1607     1.0825    12.4638 </r>
       <r>    10.2395     1.7081    12.5984 </r>
       <r>    10.3182     1.3353    12.7035 </r>
       <r>    10.3970     1.3007    12.8060 </r>
       <r>    10.4758     0.9522    12.8810 </r>
       <r>    10.5546     1.2603    12.9803 </r>
       <r>    10.6333     1.5867    13.1053 </r>
       <r>    10.7121     1.1009    13.1920 </r>
       <r>    10.7909     1.1131    13.2797 </r>
       <r>    10.8697     1.3160    13.3834 </r>
       <r>    10.9484     1.6141    13.5105 </r>
       <r>    11.0272     0.9535    13.5856 </r>
       <r>    11.1060     0.9299    13.6589 </r>
       <r>    11.1848     0.8248    13.7239 </r>
       <r>    11.2635     1.2416    13.8217 </r>
       <r>    11.3423     1.4106    13.9328 </r>
       <r>    11.4211     0.7825    13.9944 </r>
       <r>    11.4999     1.2108    14.0898 </r>
       <r>    11.5786     1.3013    14.1923 </r>
       <r>    11.6574     1.1056    14.2794 </r>
       <r>    11.7362     1.0239    14.3601 </r>
       <r>    11.8150     0.8222    14.4249 </r>
       <r>    11.8937     0.9694    14.5012 </r>
       <r>    11.9725     0.7921    14.5636 </r>
       <r>    12.0513     0.7168    14.6201 </r>
       <r>    12.1301     0.8818    14.6896 </r>
       <r>    12.2088     1.0851    14.7750 </r>
       <r>    12.2876     1.3763    14.8834 </r>
       <r>    12.3664     0.8804    14.9528 </r>
       <r>    12.4452     0.7508    15.0119 </r>
       <r>    12.5239     1.0601    15.0955 </r>
       <r>    12.6027     0.5709    15.1404 </r>
       <r>    12.6815     0.2946    15.1636 </r>
       <r>    12.7603     0.4066    15.1957 </r>
       <r>    12.8390     0.8070    15.2592 </r>
       <r>    12.9178     0.8629    15.3272 </r>
       <r>    12.9966     0.7722    15.3880 </r>
       <r>    13.0754     0.8009    15.4511 </r>
       <r>    13.1542     0.8232    15.5160 </r>
       <r>    13.2329     0.4045    15.5479 </r>
       <r>    13.3117     0.4724    15.5851 </r>
       <r>    13.3905     0.3548    15.6130 </r>
       <r>    13.4693     0.3632    15.6416 </r>
       <r>    13.5480     0.5045    15.6814 </r>
       <r>    13.6268     0.4618    15.7178 </r>
       <r>    13.7056     0.1872    15.7325 </r>
       <r>    13.7844     0.4395    15.7671 </r>
       <r>    13.8631     0.9938    15.8454 </r>
       <r>    13.9419     0.2307    15.8636 </r>
       <r>    14.0207     0.1290    15.8737 </r>
       <r>    14.0995     0.0159    15.8750 </r>
       <r>    14.1782     0.0026    15.8752 </r>
       <r>    14.2570     0.1303    15.8855 </r>
       <r>    14.3358     0.2082    15.9019 </r>
       <r>    14.4146     0.0494    15.9058 </r>
       <r>    14.4933     0.0735    15.9116 </r>
       <r>    14.5721     0.3591    15.9398 </r>
       <r>    14.6509     0.3623    15.9684 </r>
       <r>    14.7297     0.0482    15.9722 </r>
       <r>    14.8084     0.0005    15.9722 </r>
       <r>    14.8872     0.0000    15.9722 </r>
       <r>    14.9660     0.0000    15.9722 </r>
       <r>    15.0448     0.0181    15.9736 </r>
       <r>    15.1235     0.1286    15.9838 </r>
       <r>    15.2023     0.0337    15.9864 </r>
       <r>    15.2811     0.0769    15.9925 </r>
       <r>    15.3599     0.0882    15.9994 </r>
       <r>    15.4386     0.0071    16.0000 </r>
       <r>    15.5174     0.0000    16.0000 </r>
       <r>    15.5962     0.0000    16.0000 </r>
       <r>    15.6750     0.0000    16.0000 </r>
       <r>    15.7537     0.0000    16.0000 </r>
       <r>    15.8325     0.0000    16.0000 </r>
       <r>    15.9113     0.0000    16.0000 </r>
       <r>    15.9901     0.0000    16.0000 </r>
       <r>    16.0688     0.0000    16.0000 </r>
       <r>    16.1476     0.0000    16.0000 </r>
       <r>    16.2264     0.0000    16.0000 </r>
       <r>    16.3052     0.0000    16.0000 </r>
       <r>    16.3839     0.0000    16.0000 </r>
      </set>
     </set>
    </array>
   </total>
  </dos>
 </calculation>
 <structure name="finalpos" >
  <crystal>
   <varray name="basis" >
    <v>       3.34813339       0.00000000       1.93304544 </v>
    <v>       1.11604446       3.15665168       1.93304544 </v>
    <v>       0.00000000       0.00000000       3.86609088 </v>
   </varray>
   <i name="volume">     40.86029277 </i>
   <varray name="rec_basis" >
    <v>       0.29867388      -0.10559712       0.00000000 </v>
    <v>       0.00000000       0.31679137       0.00000000 </v>
    <v>      -0.14933694      -0.10559712       0.25865921 </v>
   </varray>
  </crystal>
  <varray name="positions" >
   <v>       0.87500000       0.87500000       0.87500000 </v>
   <v>       0.12500000       0.12500000       0.12500000 </v>
  </varray>
 </structure>
</modeling>
