 running on    4 total cores
 distrk:  each k-point on    4 cores,    1 groups
 distr:  one band on    1 cores,    4 groups
 vasp.6.2.0 18Jan21 (build Aug 12 2022 13:00:08) complex                        
  
 POSCAR found type information on POSCAR Si
 POSCAR found :  1 types and       2 ions
 scaLAPACK will be used
 LDA part: xc-table for Pade appr. of Perdew
 POSCAR, INCAR and KPOINTS ok, starting setup
 FFT: planning ...
 WAVECAR not read
 entering main loop
       N       E                     dE             d eps       ncg     rms          rms(c)
DAV:   1     0.160960709496E+01    0.16096E+01   -0.25695E+03  2928   0.580E+02
DAV:   2    -0.108657696433E+02   -0.12475E+02   -0.11987E+02  4576   0.666E+01
DAV:   3    -0.110157097803E+02   -0.14994E+00   -0.14994E+00  3816   0.907E+00
DAV:   4    -0.110162160531E+02   -0.50627E-03   -0.50627E-03  4656   0.546E-01
DAV:   5    -0.110162164884E+02   -0.43529E-06   -0.43516E-06  3912   0.130E-02    0.478E+00
DAV:   6    -0.109001526830E+02    0.11606E+00   -0.75708E-02  3432   0.143E+00    0.292E+00
DAV:   7    -0.108465690928E+02    0.53584E-01   -0.14554E-01  3784   0.212E+00    0.175E-01
DAV:   8    -0.108476449176E+02   -0.10758E-02   -0.36883E-03  3320   0.451E-01    0.732E-02
DAV:   9    -0.108478430877E+02   -0.19817E-03   -0.19674E-04  4336   0.108E-01    0.566E-02
DAV:  10    -0.108478678675E+02   -0.24780E-04   -0.29489E-05  3384   0.405E-02    0.946E-03
DAV:  11    -0.108478675460E+02    0.32147E-06   -0.56560E-07  4104   0.514E-03
   1 F= -.10847868E+02 E0= -.10847868E+02  d E =-.108479E+02
 curvature:   0.00 expect dE= 0.000E+00 dE for cont linesearch  0.000E+00
 trial: gam= 0.00000 g(F)=  0.883E-43 g(S)=  0.000E+00 ort = 0.000E+00 (trialstep = 0.100E+01)
 search vector abs. value=  0.100E-09
 reached required accuracy - stopping structural energy minimisation
