unknown system                          
           1
     3.348133    0.000000    1.933045
     1.116044    3.156652    1.933045
     0.000000    0.000000    3.866091
   Si
     2
Direct configuration=     1
   0.87500000  0.87500000  0.87500000
   0.12500000  0.12500000  0.12500000
