unknown system                          
   1.00000000000000     
     2.799159   -0.000000    0.000000
     0.000000    2.799159    0.000000
     0.000000   -0.000000    2.799159
   Fe
     2
Direct
  0.000000  0.000000  0.000000
  0.500000  0.500000  0.500000
 
   36   36   36
  199.06      194.09      179.87      158.35      132.27      104.65      78.266      55.261      36.942      23.727    
  15.253      10.556      8.3574      7.2806      6.5147      5.9956      5.6770      5.5152      5.4633      5.5152    
  5.6770      5.9956      6.5147      7.2806      8.3574      10.556      15.253      23.727      36.942      55.261    
  78.266      104.65      132.27      158.35      179.87      194.09      194.09      189.26      175.44      154.51    
  129.13      102.21      76.470      54.011      36.128      23.240      14.998      10.447      8.3220      7.2644    
  6.5046      5.9920      5.6771      5.5177      5.4662      5.5177      5.6771      5.9920      6.5046      7.2644    
  8.3220      10.447      14.998      23.240      36.128      54.011      76.470      102.21      129.13      154.51    
  175.44      189.26      179.87      175.44      162.77      143.52      120.09      95.174      71.279      50.395    
  33.774      21.842      14.271      10.141      8.2224      7.2153      6.4749      5.9812      5.6773      5.5247    
  5.4747      5.5247      5.6773      5.9812      6.4749      7.2153      8.2224      10.141      14.271      21.842    
  33.774      50.395      71.279      95.174      120.09      143.52      162.77      175.44      158.35      154.51    
  143.52      126.75      106.26      84.354      63.267      44.810      30.156      19.716      13.187      9.6995    
  8.0733      7.1316      6.4270      5.9629      5.6779      5.5351      5.4883      5.5351      5.6779      5.9629    
  6.4270      7.1316      8.0733      9.6995      13.187      19.716      30.156      44.810      63.267      84.354    
  106.26      126.75      143.52      154.51      132.27      129.13      120.09      106.26      89.254      70.984    
  53.338      37.901      25.715      17.156      11.923      9.2045      7.8880      7.0127      6.3638      5.9370    
  5.6787      5.5469      5.5057      5.5469      5.6787      5.9370      6.3638      7.0127      7.8880      9.2045    
  11.923      17.156      25.715      37.901      53.338      70.984      89.254      106.26      120.09      129.13    
  104.65      102.21      95.174      84.354      70.984      56.564      42.624      30.487      21.025      14.527    
  10.682      8.7312      7.6671      6.8643      6.2878      5.9052      5.6787      5.5592      5.5247      5.5592    
  5.6787      5.9052      6.2878      6.8643      7.6671      8.7312      10.682      14.527      21.025      30.487    
  42.624      56.564      70.984      84.354      95.174      102.21      78.266      76.470      71.279      63.267    
  53.338      42.624      32.315      23.446      16.679      12.189      9.6360      8.3051      7.4056      6.6989    
  6.2012      5.8712      5.6754      5.5716      5.5414      5.5716      5.6754      5.8712      6.2012      6.6989    
  7.4056      8.3051      9.6360      12.189      16.679      23.446      32.315      42.624      53.338      63.267    
  71.279      76.470      55.261      54.011      50.395      44.810      37.901      30.487      23.446      17.519    
  13.159      10.388      8.8493      7.8920      7.1170      6.5282      6.1092      5.8362      5.6685      5.5823    
  5.5541      5.5823      5.6685      5.8362      6.1092      6.5282      7.1170      7.8920      8.8493      10.388    
  13.159      17.519      23.446      30.487      37.901      44.810      50.395      54.011      36.942      36.128    
  33.774      30.156      25.715      21.025      16.679      13.159      10.686      9.1776      8.2328      7.4624    
  6.8324      6.3574      6.0218      5.7983      5.6606      5.5866      5.5637      5.5866      5.6606      5.7983    
  6.0218      6.3574      6.8324      7.4624      8.2328      9.1776      10.686      13.159      16.679      21.025    
  25.715      30.156      33.774      36.128      23.727      23.240      21.842      19.716      17.156      14.527    
  12.189      10.388      9.1776      8.3564      7.6581      7.0508      6.5659      6.1998      5.9385      5.7608    
  5.6485      5.5865      5.5670      5.5865      5.6485      5.7608      5.9385      6.1998      6.5659      7.0508    
  7.6581      8.3564      9.1776      10.388      12.189      14.527      17.156      19.716      21.842      23.240    
  15.253      14.998      14.271      13.187      11.923      10.682      9.6360      8.8493      8.2328      7.6581    
  7.1304      6.6857      6.3298      6.0598      5.8624      5.7242      5.6326      5.5808      5.5637      5.5808    
  5.6326      5.7242      5.8624      6.0598      6.3298      6.6857      7.1304      7.6581      8.2328      8.8493    
  9.6360      10.682      11.923      13.187      14.271      14.998      10.556      10.447      10.141      9.6995    
  9.2045      8.7312      8.3051      7.8920      7.4624      7.0508      6.6857      6.3776      6.1308      5.9390    
  5.7935      5.6860      5.6121      5.5684      5.5541      5.5684      5.6121      5.6860      5.7935      5.9390    
  6.1308      6.3776      6.6857      7.0508      7.4624      7.8920      8.3051      8.7312      9.2045      9.6995    
  10.141      10.447      8.3574      8.3220      8.2224      8.0733      7.8880      7.6671      7.4056      7.1170    
  6.8324      6.5659      6.3298      6.1308      5.9676      5.8353      5.7294      5.6482      5.5894      5.5536    
  5.5414      5.5536      5.5894      5.6482      5.7294      5.8353      5.9676      6.1308      6.3298      6.5659    
  6.8324      7.1170      7.4056      7.6671      7.8880      8.0733      8.2224      8.3220      7.2806      7.2644    
  7.2153      7.1316      7.0127      6.8643      6.6989      6.5282      6.3574      6.1998      6.0598      5.9390    
  5.8353      5.7463      5.6723      5.6112      5.5646      5.5348      5.5247      5.5348      5.5646      5.6112    
  5.6723      5.7463      5.8353      5.9390      6.0598      6.1998      6.3574      6.5282      6.6989      6.8643    
  7.0127      7.1316      7.2153      7.2644      6.5147      6.5046      6.4749      6.4270      6.3638      6.2878    
  6.2012      6.1092      6.0218      5.9385      5.8624      5.7935      5.7294      5.6723      5.6202      5.5744    
  5.5377      5.5140      5.5057      5.5140      5.5377      5.5744      5.6202      5.6723      5.7294      5.7935    
  5.8624      5.9385      6.0218      6.1092      6.2012      6.2878      6.3638      6.4270      6.4749      6.5046    
  5.9956      5.9920      5.9812      5.9629      5.9370      5.9052      5.8712      5.8362      5.7983      5.7608    
  5.7242      5.6860      5.6482      5.6112      5.5744      5.5402      5.5125      5.4945      5.4883      5.4945    
  5.5125      5.5402      5.5744      5.6112      5.6482      5.6860      5.7242      5.7608      5.7983      5.8362    
  5.8712      5.9052      5.9370      5.9629      5.9812      5.9920      5.6770      5.6771      5.6773      5.6779    
  5.6787      5.6787      5.6754      5.6685      5.6606      5.6485      5.6326      5.6121      5.5894      5.5646    
  5.5377      5.5125      5.4922      5.4792      5.4747      5.4792      5.4922      5.5125      5.5377      5.5646    
  5.5894      5.6121      5.6326      5.6485      5.6606      5.6685      5.6754      5.6787      5.6787      5.6779    
  5.6773      5.6771      5.5152      5.5177      5.5247      5.5351      5.5469      5.5592      5.5716      5.5823    
  5.5866      5.5865      5.5808      5.5684      5.5536      5.5348      5.5140      5.4945      5.4792      5.4695    
  5.4662      5.4695      5.4792      5.4945      5.5140      5.5348      5.5536      5.5684      5.5808      5.5865    
  5.5866      5.5823      5.5716      5.5592      5.5469      5.5351      5.5247      5.5177      5.4633      5.4662    
  5.4747      5.4883      5.5057      5.5247      5.5414      5.5541      5.5637      5.5670      5.5637      5.5541    
  5.5414      5.5247      5.5057      5.4883      5.4747      5.4662      5.4633      5.4662      5.4747      5.4883    
  5.5057      5.5247      5.5414      5.5541      5.5637      5.5670      5.5637      5.5541      5.5414      5.5247    
  5.5057      5.4883      5.4747      5.4662      5.5152      5.5177      5.5247      5.5351      5.5469      5.5592    
  5.5716      5.5823      5.5866      5.5865      5.5808      5.5684      5.5536      5.5348      5.5140      5.4945    
  5.4792      5.4695      5.4662      5.4695      5.4792      5.4945      5.5140      5.5348      5.5536      5.5684    
  5.5808      5.5865      5.5866      5.5823      5.5716      5.5592      5.5469      5.5351      5.5247      5.5177    
  5.6770      5.6771      5.6773      5.6779      5.6787      5.6787      5.6754      5.6685      5.6606      5.6485    
  5.6326      5.6121      5.5894      5.5646      5.5377      5.5125      5.4922      5.4792      5.4747      5.4792    
  5.4922      5.5125      5.5377      5.5646      5.5894      5.6121      5.6326      5.6485      5.6606      5.6685    
  5.6754      5.6787      5.6787      5.6779      5.6773      5.6771      5.9956      5.9920      5.9812      5.9629    
  5.9370      5.9052      5.8712      5.8362      5.7983      5.7608      5.7242      5.6860      5.6482      5.6112    
  5.5744      5.5402      5.5125      5.4945      5.4883      5.4945      5.5125      5.5402      5.5744      5.6112    
  5.6482      5.6860      5.7242      5.7608      5.7983      5.8362      5.8712      5.9052      5.9370      5.9629    
  5.9812      5.9920      6.5147      6.5046      6.4749      6.4270      6.3638      6.2878      6.2012      6.1092    
  6.0218      5.9385      5.8624      5.7935      5.7294      5.6723      5.6202      5.5744      5.5377      5.5140    
  5.5057      5.5140      5.5377      5.5744      5.6202      5.6723      5.7294      5.7935      5.8624      5.9385    
  6.0218      6.1092      6.2012      6.2878      6.3638      6.4270      6.4749      6.5046      7.2806      7.2644    
  7.2153      7.1316      7.0127      6.8643      6.6989      6.5282      6.3574      6.1998      6.0598      5.9390    
  5.8353      5.7463      5.6723      5.6112      5.5646      5.5348      5.5247      5.5348      5.5646      5.6112    
  5.6723      5.7463      5.8353      5.9390      6.0598      6.1998      6.3574      6.5282      6.6989      6.8643    
  7.0127      7.1316      7.2153      7.2644      8.3574      8.3220      8.2224      8.0733      7.8880      7.6671    
  7.4056      7.1170      6.8324      6.5659      6.3298      6.1308      5.9676      5.8353      5.7294      5.6482    
  5.5894      5.5536      5.5414      5.5536      5.5894      5.6482      5.7294      5.8353      5.9676      6.1308    
  6.3298      6.5659      6.8324      7.1170      7.4056      7.6671      7.8880      8.0733      8.2224      8.3220    
  10.556      10.447      10.141      9.6995      9.2045      8.7312      8.3051      7.8920      7.4624      7.0508    
  6.6857      6.3776      6.1308      5.9390      5.7935      5.6860      5.6121      5.5684      5.5541      5.5684    
  5.6121      5.6860      5.7935      5.9390      6.1308      6.3776      6.6857      7.0508      7.4624      7.8920    
  8.3051      8.7312      9.2045      9.6995      10.141      10.447      15.253      14.998      14.271      13.187    
  11.923      10.682      9.6360      8.8493      8.2328      7.6581      7.1304      6.6857      6.3298      6.0598    
  5.8624      5.7242      5.6326      5.5808      5.5637      5.5808      5.6326      5.7242      5.8624      6.0598    
  6.3298      6.6857      7.1304      7.6581      8.2328      8.8493      9.6360      10.682      11.923      13.187    
  14.271      14.998      23.727      23.240      21.842      19.716      17.156      14.527      12.189      10.388    
  9.1776      8.3564      7.6581      7.0508      6.5659      6.1998      5.9385      5.7608      5.6485      5.5865    
  5.5670      5.5865      5.6485      5.7608      5.9385      6.1998      6.5659      7.0508      7.6581      8.3564    
  9.1776      10.388      12.189      14.527      17.156      19.716      21.842      23.240      36.942      36.128    
  33.774      30.156      25.715      21.025      16.679      13.159      10.686      9.1776      8.2328      7.4624    
  6.8324      6.3574      6.0218      5.7983      5.6606      5.5866      5.5637      5.5866      5.6606      5.7983    
  6.0218      6.3574      6.8324      7.4624      8.2328      9.1776      10.686      13.159      16.679      21.025    
  25.715      30.156      33.774      36.128      55.261      54.011      50.395      44.810      37.901      30.487    
  23.446      17.519      13.159      10.388      8.8493      7.8920      7.1170      6.5282      6.1092      5.8362    
  5.6685      5.5823      5.5541      5.5823      5.6685      5.8362      6.1092      6.5282      7.1170      7.8920    
  8.8493      10.388      13.159      17.519      23.446      30.487      37.901      44.810      50.395      54.011    
  78.266      76.470      71.279      63.267      53.338      42.624      32.315      23.446      16.679      12.189    
  9.6360      8.3051      7.4056      6.6989      6.2012      5.8712      5.6754      5.5716      5.5414      5.5716    
  5.6754      5.8712      6.2012      6.6989      7.4056      8.3051      9.6360      12.189      16.679      23.446    
  32.315      42.624      53.338      63.267      71.279      76.470      104.65      102.21      95.174      84.354    
  70.984      56.564      42.624      30.487      21.025      14.527      10.682      8.7312      7.6671      6.8643    
  6.2878      5.9052      5.6787      5.5592      5.5247      5.5592      5.6787      5.9052      6.2878      6.8643    
  7.6671      8.7312      10.682      14.527      21.025      30.487      42.624      56.564      70.984      84.354    
  95.174      102.21      132.27      129.13      120.09      106.26      89.254      70.984      53.338      37.901    
  25.715      17.156      11.923      9.2045      7.8880      7.0127      6.3638      5.9370      5.6787      5.5469    
  5.5057      5.5469      5.6787      5.9370      6.3638      7.0127      7.8880      9.2045      11.923      17.156    
  25.715      37.901      53.338      70.984      89.254      106.26      120.09      129.13      158.35      154.51    
  143.52      126.75      106.26      84.354      63.267      44.810      30.156      19.716      13.187      9.6995    
  8.0733      7.1316      6.4270      5.9629      5.6779      5.5351      5.4883      5.5351      5.6779      5.9629    
  6.4270      7.1316      8.0733      9.6995      13.187      19.716      30.156      44.810      63.267      84.354    
  106.26      126.75      143.52      154.51      179.87      175.44      162.77      143.52      120.09      95.174    
  71.279      50.395      33.774      21.842      14.271      10.141      8.2224      7.2153      6.4749      5.9812    
  5.6773      5.5247      5.4747      5.5247      5.6773      5.9812      6.4749      7.2153      8.2224      10.141    
  14.271      21.842      33.774      50.395      71.279      95.174      120.09      143.52      162.77      175.44    
  194.09      189.26      175.44      154.51      129.13      102.21      76.470      54.011      36.128      23.240    
  14.998      10.447      8.3220      7.2644      6.5046      5.9920      5.6771      5.5177      5.4662      5.5177    
  5.6771      5.9920      6.5046      7.2644      8.3220      10.447      14.998      23.240      36.128      54.011    
  76.470      102.21      129.13      154.51      175.44      189.26      194.09      189.26      175.44      154.51    
  129.13      102.21      76.470      54.011      36.128      23.240      14.998      10.447      8.3220      7.2644    
  6.5046      5.9920      5.6771      5.5177      5.4662      5.5177      5.6771      5.9920      6.5046      7.2644    
  8.3220      10.447      14.998      23.240      36.128      54.011      76.470      102.21      129.13      154.51    
  175.44      189.26      189.26      184.57      171.14      150.78      126.07      99.829      74.715      52.787    
  35.331      22.766      14.750      10.343      8.2885      7.2488      6.4952      5.9890      5.6776      5.5206    
  5.4695      5.5206      5.6776      5.9890      6.4952      7.2488      8.2885      10.343      14.750      22.766    
  35.331      52.787      74.715      99.829      126.07      150.78      171.14      184.57      175.44      171.14    
  158.82      140.08      117.26      92.960      69.639      49.250      33.031      21.403      14.046      10.050    
  8.1938      7.2011      6.4672      5.9795      5.6792      5.5287      5.4792      5.5287      5.6792      5.9795    
  6.4672      7.2011      8.1938      10.050      14.046      21.403      33.031      49.250      69.639      92.960    
  117.26      140.08      158.82      171.14      154.51      150.78      140.08      123.75      103.77      82.393    
  61.807      43.790      29.497      19.333      12.997      9.6269      8.0511      7.1195      6.4222      5.9632    
  5.6818      5.5406      5.4945      5.5406      5.6818      5.9632      6.4222      7.1195      8.0511      9.6269    
  12.997      19.333      29.497      43.790      61.807      82.393      103.77      123.75      140.08      150.78    
  129.13      126.07      117.26      103.77      87.171      69.333      52.104      37.042      25.166      16.846    
  11.777      9.1541      7.8718      7.0037      6.3622      5.9398      5.6850      5.5544      5.5140      5.5544    
  5.6850      5.9398      6.3622      7.0037      7.8718      9.1541      11.777      16.846      25.166      37.042    
  52.104      69.333      87.171      103.77      117.26      126.07      102.21      99.829      92.960      82.393    
  69.333      55.249      41.642      29.810      20.602      14.299      10.584      8.7009      7.6550      6.8593    
  6.2896      5.9112      5.6872      5.5689      5.5348      5.5689      5.6872      5.9112      6.2896      6.8593    
  7.6550      8.7009      10.584      14.299      20.602      29.810      41.642      55.249      69.333      82.393    
  92.960      99.829      76.470      74.715      69.639      61.807      52.104      41.642      31.589      22.953    
  16.385      12.041      9.5809      8.2881      7.3975      6.6986      6.2062      5.8802      5.6863      5.5837    
  5.5536      5.5837      5.6863      5.8802      6.2062      6.6986      7.3975      8.2881      9.5809      12.041    
  16.385      22.953      31.589      41.642      52.104      61.807      69.639      74.715      54.011      52.787    
  49.250      43.790      37.042      29.810      22.953      17.198      12.980      10.309      8.8237      7.8815    
  7.1140      6.5322      6.1181      5.8481      5.6820      5.5964      5.5684      5.5964      5.6820      5.8481    
  6.1181      6.5322      7.1140      7.8815      8.8237      10.309      12.980      17.198      22.953      29.810    
  37.042      43.790      49.250      52.787      36.128      35.331      33.031      29.497      25.166      20.602    
  16.385      12.980      10.597      9.1448      8.2201      7.4572      6.8351      6.3657      6.0340      5.8129    
  5.6768      5.6034      5.5808      5.6034      5.6768      5.8129      6.0340      6.3657      6.8351      7.4572    
  8.2201      9.1448      10.597      12.980      16.385      20.602      25.166      29.497      33.031      35.331    
  23.240      22.766      21.403      19.333      16.846      14.299      12.041      10.309      9.1448      8.3427    
  7.6517      7.0522      6.5736      6.2123      5.9546      5.7790      5.6676      5.6060      5.5865      5.6060    
  5.6676      5.7790      5.9546      6.2123      6.5736      7.0522      7.6517      8.3427      9.1448      10.309    
  12.041      14.299      16.846      19.333      21.403      22.766      14.998      14.750      14.046      12.997    
  11.777      10.584      9.5809      8.8237      8.2201      7.6517      7.1314      6.6929      6.3425      6.0768    
  5.8817      5.7449      5.6545      5.6034      5.5866      5.6034      5.6545      5.7449      5.8817      6.0768    
  6.3425      6.6929      7.1314      7.6517      8.2201      8.8237      9.5809      10.584      11.777      12.997    
  14.046      14.750      10.447      10.343      10.050      9.6269      9.1541      8.7009      8.2881      7.8815    
  7.4572      7.0522      6.6929      6.3904      6.1481      5.9589      5.8163      5.7116      5.6394      5.5964    
  5.5823      5.5964      5.6394      5.7116      5.8163      5.9589      6.1481      6.3904      6.6929      7.0522    
  7.4572      7.8815      8.2881      8.7009      9.1541      9.6269      10.050      10.343      8.3220      8.2885    
  8.1938      8.0511      7.8718      7.6550      7.3975      7.1140      6.8351      6.5736      6.3425      6.1481    
  5.9878      5.8597      5.7576      5.6778      5.6194      5.5837      5.5716      5.5837      5.6194      5.6778    
  5.7576      5.8597      5.9878      6.1481      6.3425      6.5736      6.8351      7.1140      7.3975      7.6550    
  7.8718      8.0511      8.1938      8.2885      7.2644      7.2488      7.2011      7.1195      7.0037      6.8593    
  6.6986      6.5322      6.3657      6.2123      6.0768      5.9589      5.8597      5.7751      5.7025      5.6425    
  5.5973      5.5689      5.5592      5.5689      5.5973      5.6425      5.7025      5.7751      5.8597      5.9589    
  6.0768      6.2123      6.3657      6.5322      6.6986      6.8593      7.0037      7.1195      7.2011      7.2488    
  6.5046      6.4952      6.4672      6.4222      6.3622      6.2896      6.2062      6.1181      6.0340      5.9546    
  5.8817      5.8163      5.7576      5.7025      5.6523      5.6094      5.5760      5.5544      5.5469      5.5544    
  5.5760      5.6094      5.6523      5.7025      5.7576      5.8163      5.8817      5.9546      6.0340      6.1181    
  6.2062      6.2896      6.3622      6.4222      6.4672      6.4952      5.9920      5.9890      5.9795      5.9632    
  5.9398      5.9112      5.8802      5.8481      5.8129      5.7790      5.7449      5.7116      5.6778      5.6425    
  5.6094      5.5800      5.5563      5.5406      5.5351      5.5406      5.5563      5.5800      5.6094      5.6425    
  5.6778      5.7116      5.7449      5.7790      5.8129      5.8481      5.8802      5.9112      5.9398      5.9632    
  5.9795      5.9890      5.6771      5.6776      5.6792      5.6818      5.6850      5.6872      5.6863      5.6820    
  5.6768      5.6676      5.6545      5.6394      5.6194      5.5973      5.5760      5.5563      5.5398      5.5287    
  5.5247      5.5287      5.5398      5.5563      5.5760      5.5973      5.6194      5.6394      5.6545      5.6676    
  5.6768      5.6820      5.6863      5.6872      5.6850      5.6818      5.6792      5.6776      5.5177      5.5206    
  5.5287      5.5406      5.5544      5.5689      5.5837      5.5964      5.6034      5.6060      5.6034      5.5964    
  5.5837      5.5689      5.5544      5.5406      5.5287      5.5206      5.5177      5.5206      5.5287      5.5406    
  5.5544      5.5689      5.5837      5.5964      5.6034      5.6060      5.6034      5.5964      5.5837      5.5689    
  5.5544      5.5406      5.5287      5.5206      5.4662      5.4695      5.4792      5.4945      5.5140      5.5348    
  5.5536      5.5684      5.5808      5.5865      5.5866      5.5823      5.5716      5.5592      5.5469      5.5351    
  5.5247      5.5177      5.5152      5.5177      5.5247      5.5351      5.5469      5.5592      5.5716      5.5823    
  5.5866      5.5865      5.5808      5.5684      5.5536      5.5348      5.5140      5.4945      5.4792      5.4695    
  5.5177      5.5206      5.5287      5.5406      5.5544      5.5689      5.5837      5.5964      5.6034      5.6060    
  5.6034      5.5964      5.5837      5.5689      5.5544      5.5406      5.5287      5.5206      5.5177      5.5206    
  5.5287      5.5406      5.5544      5.5689      5.5837      5.5964      5.6034      5.6060      5.6034      5.5964    
  5.5837      5.5689      5.5544      5.5406      5.5287      5.5206      5.6771      5.6776      5.6792      5.6818    
  5.6850      5.6872      5.6863      5.6820      5.6768      5.6676      5.6545      5.6394      5.6194      5.5973    
  5.5760      5.5563      5.5398      5.5287      5.5247      5.5287      5.5398      5.5563      5.5760      5.5973    
  5.6194      5.6394      5.6545      5.6676      5.6768      5.6820      5.6863      5.6872      5.6850      5.6818    
  5.6792      5.6776      5.9920      5.9890      5.9795      5.9632      5.9398      5.9112      5.8802      5.8481    
  5.8129      5.7790      5.7449      5.7116      5.6778      5.6425      5.6094      5.5800      5.5563      5.5406    
  5.5351      5.5406      5.5563      5.5800      5.6094      5.6425      5.6778      5.7116      5.7449      5.7790    
  5.8129      5.8481      5.8802      5.9112      5.9398      5.9632      5.9795      5.9890      6.5046      6.4952    
  6.4672      6.4222      6.3622      6.2896      6.2062      6.1181      6.0340      5.9546      5.8817      5.8163    
  5.7576      5.7025      5.6523      5.6094      5.5760      5.5544      5.5469      5.5544      5.5760      5.6094    
  5.6523      5.7025      5.7576      5.8163      5.8817      5.9546      6.0340      6.1181      6.2062      6.2896    
  6.3622      6.4222      6.4672      6.4952      7.2644      7.2488      7.2011      7.1195      7.0037      6.8593    
  6.6986      6.5322      6.3657      6.2123      6.0768      5.9589      5.8597      5.7751      5.7025      5.6425    
  5.5973      5.5689      5.5592      5.5689      5.5973      5.6425      5.7025      5.7751      5.8597      5.9589    
  6.0768      6.2123      6.3657      6.5322      6.6986      6.8593      7.0037      7.1195      7.2011      7.2488    
  8.3220      8.2885      8.1938      8.0511      7.8718      7.6550      7.3975      7.1140      6.8351      6.5736    
  6.3425      6.1481      5.9878      5.8597      5.7576      5.6778      5.6194      5.5837      5.5716      5.5837    
  5.6194      5.6778      5.7576      5.8597      5.9878      6.1481      6.3425      6.5736      6.8351      7.1140    
  7.3975      7.6550      7.8718      8.0511      8.1938      8.2885      10.447      10.343      10.050      9.6269    
  9.1541      8.7009      8.2881      7.8815      7.4572      7.0522      6.6929      6.3904      6.1481      5.9589    
  5.8163      5.7116      5.6394      5.5964      5.5823      5.5964      5.6394      5.7116      5.8163      5.9589    
  6.1481      6.3904      6.6929      7.0522      7.4572      7.8815      8.2881      8.7009      9.1541      9.6269    
  10.050      10.343      14.998      14.750      14.046      12.997      11.777      10.584      9.5809      8.8237    
  8.2201      7.6517      7.1314      6.6929      6.3425      6.0768      5.8817      5.7449      5.6545      5.6034    
  5.5866      5.6034      5.6545      5.7449      5.8817      6.0768      6.3425      6.6929      7.1314      7.6517    
  8.2201      8.8237      9.5809      10.584      11.777      12.997      14.046      14.750      23.240      22.766    
  21.403      19.333      16.846      14.299      12.041      10.309      9.1448      8.3427      7.6517      7.0522    
  6.5736      6.2123      5.9546      5.7790      5.6676      5.6060      5.5865      5.6060      5.6676      5.7790    
  5.9546      6.2123      6.5736      7.0522      7.6517      8.3427      9.1448      10.309      12.041      14.299    
  16.846      19.333      21.403      22.766      36.128      35.331      33.031      29.497      25.166      20.602    
  16.385      12.980      10.597      9.1448      8.2201      7.4572      6.8351      6.3657      6.0340      5.8129    
  5.6768      5.6034      5.5808      5.6034      5.6768      5.8129      6.0340      6.3657      6.8351      7.4572    
  8.2201      9.1448      10.597      12.980      16.385      20.602      25.166      29.497      33.031      35.331    
  54.011      52.787      49.250      43.790      37.042      29.810      22.953      17.198      12.980      10.309    
  8.8237      7.8815      7.1140      6.5322      6.1181      5.8481      5.6820      5.5964      5.5684      5.5964    
  5.6820      5.8481      6.1181      6.5322      7.1140      7.8815      8.8237      10.309      12.980      17.198    
  22.953      29.810      37.042      43.790      49.250      52.787      76.470      74.715      69.639      61.807    
  52.104      41.642      31.589      22.953      16.385      12.041      9.5809      8.2881      7.3975      6.6986    
  6.2062      5.8802      5.6863      5.5837      5.5536      5.5837      5.6863      5.8802      6.2062      6.6986    
  7.3975      8.2881      9.5809      12.041      16.385      22.953      31.589      41.642      52.104      61.807    
  69.639      74.715      102.21      99.829      92.960      82.393      69.333      55.249      41.642      29.810    
  20.602      14.299      10.584      8.7009      7.6550      6.8593      6.2896      5.9112      5.6872      5.5689    
  5.5348      5.5689      5.6872      5.9112      6.2896      6.8593      7.6550      8.7009      10.584      14.299    
  20.602      29.810      41.642      55.249      69.333      82.393      92.960      99.829      129.13      126.07    