    2    2  100    2
  0.1173411E+02  0.2863035E-09  0.2863035E-09  0.2863035E-09  0.5000000E-15
  1.000000000000000E-004
  CAR 
 unknown system                          
     16     56     20
 
  0.0000000E+00  0.0000000E+00  0.0000000E+00  0.1000000E-02
    1       -2.580722     -2.423519   1.000000   1.000000
    2        1.009931      2.814685   1.000000   1.000000
    3        1.009931      2.814826   1.000000   1.000000
    4        3.577868      5.467791   1.000000   1.005409
    5        3.577868      5.467924   1.000000   1.005422
    6        3.577868      5.467935   1.000000   1.005423
    7        4.798640      7.534761   1.000000  -0.000000
    8        4.798640      7.534924   1.000000  -0.000000
    9        6.017441      8.181224   0.065816  -0.000000
   10        6.017443      8.181347   0.065813  -0.000000
   11        6.017443      8.181359   0.065813  -0.000000
   12       15.860078     16.119888   0.000000   0.000000
   13       15.860078     16.119889   0.000000   0.000000
   14       15.860078     16.119891   0.000000   0.000000
   15       21.594466     22.642589   0.000000   0.000000
   16       21.594468     22.642601   0.000000   0.000000
   17       26.770893     27.864996   0.000000   0.000000
   18       30.962731     30.702016   0.000000   0.000000
   19       30.962731     30.702016   0.000000   0.000000
   20       30.962731     30.702016   0.000000   0.000000
 
  0.1000000E+00  0.0000000E+00  0.0000000E+00  0.6000000E-02
    1       -2.372783     -2.214555   1.000000   1.000000
    2        1.099076      2.887706   1.000000   1.000000
    3        1.101567      2.920617   1.000000   1.000000
    4        3.576703      5.459017   1.000000   1.004621
    5        3.576704      5.459160   1.000000   1.004633
    6        3.635009      5.530845   1.000000   1.014424
    7        4.705392      7.413383   1.000000  -0.000000
    8        4.835402      7.581021   1.000000  -0.000000
    9        5.845018      7.955657   0.688531  -0.000000
   10        5.845020      7.955790   0.688526  -0.000000
   11        5.955550      8.111840   0.241588  -0.000000
   12       14.504519     14.980993   0.000000   0.000000
   13       16.251721     16.566333   0.000000   0.000000
   14       16.251721     16.566335   0.000000   0.000000
   15       21.654844     22.684505   0.000000   0.000000
   16       22.552928     23.429871   0.000000   0.000000
   17       27.476047     28.533400   0.000000   0.000000
   18       29.726210     29.612358   0.000000   0.000000
   19       30.755203     30.590020   0.000000   0.000000
   20       30.755203     30.590022   0.000000   0.000000
 
  0.2000000E+00  0.0000000E+00  0.0000000E+00  0.6000000E-02
    1       -1.768333     -1.603610   1.000000   1.000000
    2        1.337074      3.044480   1.000000   1.000000
    3        1.358961      3.230490   1.000000   1.000000
    4        3.586190      5.449070   1.000000   1.003843
    5        3.586191      5.449212   1.000000   1.003853
    6        3.801595      5.714463   1.000000   1.008174
    7        4.433748      7.060828   1.000000  -0.000000
    8        4.941274      7.416929   1.000000  -0.000000
    9        5.413372      7.417059   1.001886  -0.000000
   10        5.413373      7.707009   1.001886  -0.000000
   11        5.775791      7.910120   0.908701  -0.000000
   12       12.022648     12.813947   0.000000   0.000000
   13       17.335106     17.761100   0.000000   0.000000
   14       17.335106     17.761104   0.000000   0.000000
   15       21.843036     22.817762   0.000000   0.000000
   16       23.627226     24.364494   0.000000   0.000000
   17       27.739310     27.808278   0.000000   0.000000
   18       29.695514     29.854970   0.000000   0.000000
   19       29.695515     29.854975   0.000000   0.000000
   20       29.854440     30.787592   0.000000   0.000000
 
  0.3000000E+00 -0.6162976E-32  0.0000000E+00  0.6000000E-02
    1       -0.835764     -0.643444   1.000000   1.000000
    2        1.593687      3.090225   1.000000   1.000000
    3        1.768270      3.722573   1.000000   1.000000
    4        3.638895      5.478931   1.000000   1.006559
    5        3.638896      5.479070   1.000000   1.006575
    6        4.008254      6.003355   1.000000   0.097596
    7        4.063237      6.512423   1.000000  -0.000051
    8        4.889703      6.799719   1.000000  -0.000000
    9        4.889704      6.799849   1.000000  -0.000000
   10        5.116892      7.598627   1.000000  -0.000000
   11        5.497731      7.883314   1.008916  -0.000000
   12        9.559254     10.746800  -0.000000  -0.000000
   13       18.927745     19.452942   0.000000   0.000000
   14       18.927746     19.452946   0.000000   0.000000
   15       22.183178     23.066789   0.000000   0.000000
   16       24.235147     24.869057   0.000000   0.000000
   17       25.969316     26.217212   0.000000   0.000000
   18       27.695886     28.146122   0.000000   0.000000
   19       27.695887     28.146129   0.000000   0.000000
   20       29.461534     29.871597   0.000000   0.000000
 
  0.4000000E+00  0.1232595E-31  0.0000000E+00  0.6000000E-02
    1        0.266874      0.558555   1.000000   1.000000
    2        1.648580      2.722397   1.000000   1.000000
    3        2.291210      4.358927   1.000000   1.000000
    4        3.471250      5.599164   1.000000   1.029452
    5        3.774931      5.599300   1.000000   1.029480
    6        3.774932      5.828298   1.000000   0.750996
    7        4.396741      6.255952   1.000000  -0.013476
    8        4.404699      6.256084   1.000000  -0.013452
    9        4.404700      6.372514   1.000000  -0.001728
   10        5.150914      7.211210   1.000001  -0.000000
   11        5.428398      8.102278   1.002568  -0.000000
   12        7.498309      9.254456  -0.000000  -0.000000
   13       20.871762     21.459464   0.000000   0.000000
   14       20.871763     21.459466   0.000000   0.000000
   15       22.714113     23.472268   0.000000   0.000000
   16       24.554663     24.984055   0.000000   0.000000
   17       24.891939     25.417299   0.000000   0.000000
   18       25.373109     25.947772   0.000000   0.000000
   19       25.373110     25.947777   0.000000   0.000000
   20       27.431500     27.836439   0.000000   0.000000
 
  0.5000000E+00  0.0000000E+00  0.0000000E+00  0.3000000E-02
    1        1.216201      1.794304   1.000000   1.000000
    2        1.216201      1.794304   1.000000   1.000000
    3        2.878685      5.084524   1.000000   1.000000
    4        2.878685      5.084524   1.000000   1.000000
    5        4.026443      5.851629   1.000000   0.662608
    6        4.026443      5.851629   1.000000   0.662608
    7        4.026444      5.851762   1.000000   0.662078
    8        4.026444      5.851762   1.000000   0.662078
    9        4.771467      6.788646   1.000000  -0.000000
   10        4.771467      6.788646   1.000000  -0.000000
   11        6.114773      8.463002  -0.033495  -0.000000
   12        6.114773      8.463002  -0.033495  -0.000000
   13       23.053169     23.660898   0.000000   0.000000
   14       23.053169     23.660898   0.000000   0.000000
   15       23.053170     23.660899   0.000000   0.000000
   16       23.053170     23.660899   0.000000   0.000000
   17       23.486633     24.089985   0.000000   0.000000
   18       23.486633     24.089985   0.000000   0.000000
   19       25.910314     26.351749   0.000000   0.000000
   20       25.910314     26.351749   0.000000   0.000000
 
  0.1000000E+00  0.1000000E+00  0.0000000E+00  0.1200000E-01
    1       -2.168530     -2.008694   1.000000   1.000000
    2        1.180664      2.984781   1.000000   1.000000
    3        1.196803      2.997838   1.000000   1.000000
    4        3.466513      5.334012   1.000000   1.000296
    5        3.563277      5.437788   1.000000   1.003094
    6        3.799847      5.709433   1.000000   1.012634
    7        4.698229      7.397513   1.000000  -0.000000
    8        4.808139      7.545642   1.000000  -0.000000
    9        5.548031      7.602098   1.017930  -0.000000
   10        5.673432      7.733596   1.031974  -0.000000
   11        6.043436      8.210313   0.020103  -0.000000
   12       14.555965     15.100355   0.000000   0.000000
   13       15.159270     15.670924   0.000000   0.000000
   14       16.618246     16.973046   0.000000   0.000000
   15       22.139881     23.073555   0.000000   0.000000
   16       23.280112     24.048458   0.000000   0.000000
   17       28.057489     28.650444   0.000000   0.000000
   18       28.575356     29.096845   0.000000   0.000000
   19       30.291466     30.162742   0.000000   0.000000
   20       30.695780     30.574766   0.000000   0.000000
 
  0.2000000E+00  0.1000000E+00  0.0000000E+00  0.2400000E-01
    1       -1.576919     -1.408017   1.000000   1.000000
    2        1.403316      3.146303   1.000000   1.000000
    3        1.456218      3.286411   1.000000   1.000000
    4        3.389283      5.233794   1.000000   1.000017
    5        3.537264      5.392912   1.000000   1.001211
    6        4.048560      5.980388   1.000000   0.160074
    7        4.506406      7.021563   1.000000  -0.000000
    8        4.899042      7.131095   1.000000  -0.000000
    9        5.059943      7.224059   1.000000  -0.000000
   10        5.255210      7.653529   1.000033  -0.000000
   11        5.978281      8.133278   0.166447  -0.000000
   12       12.264783     13.090062   0.000000   0.000000
   13       15.889389     16.523532   0.000000   0.000000
   14       17.645525     18.087547   0.000000   0.000000
   15       22.456964     23.315311   0.000000   0.000000
   16       24.613006     25.243458   0.000000   0.000000
   17       26.445641     26.723775   0.000000   0.000000
   18       29.138078     29.211988   0.000000   0.000000
   19       29.885851     30.038158   0.000000   0.000000
   20       30.181319     31.123126   0.000000   0.000000
 
  0.3000000E+00  0.1000000E+00  0.0000000E+00  0.2400000E-01
    1       -0.671853     -0.467754   1.000000   1.000000
    2        1.657289      3.182336   1.000000   1.000000
    3        1.836987      3.744663   1.000000   1.000000
    4        3.386579      5.208598   1.000000   1.000008
    5        3.496846      5.352883   1.000000   1.000475
    6        4.219335      6.316830   1.000000  -0.005142
    7        4.356120      6.416313   1.000000  -0.000644
    8        4.533596      6.691607   1.000000  -0.000000
    9        4.779408      6.700111   1.000000  -0.000000
   10        5.078689      7.839973   1.000000  -0.000000
   11        5.764372      7.887495   0.934091  -0.000000
   12        9.781980     10.970627  -0.000000  -0.000000
   13       17.234118     17.952978   0.000000   0.000000
   14       19.180510     19.706626   0.000000   0.000000
   15       22.863336     23.620230   0.000000   0.000000
   16       24.349635     24.811728   0.000000   0.000000
   17       25.498402     26.048191   0.000000   0.000000
   18       27.399697     27.647292   0.000000   0.000000
   19       27.892041     28.350940   0.000000   0.000000
   20       31.455813     31.860609   0.000000   0.000000
 
  0.4000000E+00  0.1000000E+00  0.0000000E+00  0.2400000E-01
    1        0.380875      0.701478   1.000000   1.000000
    2        1.697508      2.801462   1.000000   1.000000
    3        2.315975      4.314914   1.000000   1.000000
    4        3.287954      5.263670   1.000000   1.000043
    5        3.485491      5.292876   1.000000   1.000099
    6        4.064998      5.896718   1.000000   0.475327
    7        4.080306      6.261733   1.000000  -0.012435
    8        4.404376      6.336115   1.000000  -0.003601
    9        4.710303      6.707164   1.000000  -0.000000
   10        5.407667      7.533714   1.001671  -0.000000
   11        5.451673      8.072845   1.004035  -0.000000
   12        7.663683      9.374060  -0.000000  -0.000000
   13       18.824221     19.573718   0.000000   0.000000
   14       21.079686     21.662579   0.000000   0.000000
   15       22.395816     23.013839   0.000000   0.000000
   16       23.483217     24.108728   0.000000   0.000000
   17       25.547711     26.082449   0.000000   0.000000
   18       25.723677     26.124077   0.000000   0.000000
   19       26.427609     26.905601   0.000000   0.000000
   20       29.410105     29.827106   0.000000   0.000000
 
  0.5000000E+00  0.1000000E+00  0.0000000E+00  0.1200000E-01
    1        1.273699      1.895274   1.000000   1.000000
    2        1.273699      1.895274   1.000000   1.000000
    3        2.835183      4.895274   1.000000   1.000000
    4        2.835183      4.895274   1.000000   1.000000
    5        3.709101      5.517384   1.000000   1.011975
    6        3.709101      5.517384   1.000000   1.011975
    7        4.182579      6.151791   1.000000  -0.034580
    8        4.182579      6.151791   1.000000  -0.034580
    9        5.086626      7.124983   1.000000  -0.000000
   10        5.086626      7.124983   1.000000  -0.000000
   11        6.173961      8.477896  -0.031196  -0.000000
   12        6.173961      8.477896  -0.031196  -0.000000
   13       20.556852     21.273492   0.000000   0.000000
   14       20.556852     21.273492   0.000000   0.000000
   15       23.232872     23.836686   0.000000   0.000000
   16       23.232872     23.836686   0.000000   0.000000
   17       24.409582     24.893185   0.000000   0.000000
   18       24.409582     24.893185   0.000000   0.000000
   19       27.708933     28.142199   0.000000   0.000000
   20       27.708933     28.142199   0.000000   0.000000
 
  0.2000000E+00  0.2000000E+00  0.0000000E+00  0.1200000E-01
    1       -1.030949     -0.841571   1.000000   1.000000
    2        1.540526      3.327686   1.000000   1.000000
    3        1.755398      3.495378   1.000000   1.000000
    4        3.182764      4.995150   1.000000   1.000000
    5        3.459108      5.275986   1.000000   1.000061
    6        4.410982      6.378257   1.000000  -0.001528
    7        4.513648      6.399474   1.000000  -0.000954
    8        4.603793      6.831741   1.000000  -0.000000
    9        4.841999      7.204334   1.000000  -0.000000
   10        4.898550      7.587541   1.000000  -0.000000
   11        6.111121      8.285814  -0.032692  -0.000000
   12       12.241770     13.119663   0.000000   0.000000
   13       14.159981     15.062922   0.000000   0.000000
   14       18.539184     19.021929   0.000000   0.000000
   15       22.833922     23.597250   0.000000   0.000000
   16       24.124689     24.598831   0.000000   0.000000
   17       26.769557     27.221124   0.000000   0.000000
   18       28.284853     28.343912   0.000000   0.000000
   19       30.197738     30.324866   0.000000   0.000000
   20       31.495076     32.431824   0.000000   0.000000
 
  0.3000000E+00  0.2000000E+00  0.0000000E+00  0.2400000E-01
    1       -0.228619      0.029866   1.000000   1.000000
    2        1.670978      3.289506   1.000000   1.000000
    3        2.166927      3.909780   1.000000   1.000000
    4        3.068604      4.852822   1.000000   1.000000
    5        3.416904      5.168839   1.000000   1.000002
    6        3.980797      5.803582   1.000000   0.833263
    7        4.522497      6.558044   1.000000  -0.000013
    8        4.570550      6.806121   1.000000  -0.000000
    9        4.799286      7.020277   1.000000  -0.000000
   10        4.976454      7.729423   1.000000  -0.000000
   11        6.062766      8.227867  -0.003724  -0.000000
   12       10.214020     11.365886  -0.000000   0.000000
   13       14.834018     15.789822   0.000000   0.000000
   14       19.924107     20.455461   0.000000   0.000000
   15       21.835328     22.459217   0.000000   0.000000
   16       23.174080     23.824086   0.000000   0.000000
   17       26.971978     27.106200   0.000000   0.000000
   18       28.377805     28.763348   0.000000   0.000000
   19       28.453468     28.944230   0.000000   0.000000
   20       31.801833     32.290378   0.000000   0.000000
 
  0.4000000E+00  0.2000000E+00  0.0000000E+00  0.2400000E-01
    1        0.631041      1.079206   1.000000   1.000000
    2        1.634085      2.889424   1.000000   1.000000
    3        2.606702      4.383508   1.000000   1.000000
    4        3.078532      4.845002   1.000000   1.000000
    5        3.313272      5.053166   1.000000   1.000000
    6        3.539664      5.321901   1.000000   1.000216
    7        4.437839      6.540940   1.000000  -0.000022
    8        4.483173      6.777909   1.000000  -0.000000
    9        5.190421      7.239806   1.000004  -0.000000
   10        5.342904      7.983696   1.000371  -0.000000
   11        5.862657      7.997012   0.618130  -0.000000
   12        8.037518      9.621406  -0.000000  -0.000000
   13       16.218256     17.146482   0.000000   0.000000
   14       19.739299     20.490806   0.000000   0.000000
   15       21.695326     22.267105   0.000000   0.000000
   16       23.686617     24.197696   0.000000   0.000000
   17       25.597926     25.836385   0.000000   0.000000
   18       26.045012     26.627362   0.000000   0.000000
   19       29.627184     29.997888   0.000000   0.000000
   20       32.437744     32.848941   0.000000   0.000000
 
  0.5000000E+00  0.2000000E+00  0.0000000E+00  0.1200000E-01
    1        1.294693      2.106462   1.000000   1.000000
    2        1.294693      2.106462   1.000000   1.000000
    3        3.017112      4.802355   1.000000   1.000000
    4        3.017112      4.802355   1.000000   1.000000
    5        3.233624      4.997995   1.000000   1.000000
    6        3.233624      4.997995   1.000000   1.000000
    7        4.466744      6.637969   1.000000  -0.000001
    8        4.466744      6.637969   1.000000  -0.000001
    9        5.557251      7.650612   1.019954  -0.000000
   10        5.557251      7.650612   1.019954  -0.000000
   11        6.327929      8.497460  -0.004201  -0.000000
   12        6.327929      8.497460  -0.004201  -0.000000
   13       17.865519     18.721081   0.000000   0.000000
   14       17.865519     18.721081   0.000000   0.000000
   15       23.761047     24.353984   0.000000   0.000000
   16       23.761047     24.353984   0.000000   0.000000
   17       24.477321     24.843978   0.000000   0.000000
   18       24.477321     24.843978   0.000000   0.000000
   19       30.969314     31.341312   0.000000   0.000000
   20       30.969314     31.341312   0.000000   0.000000
 
  0.3000000E+00  0.3000000E+00  0.0000000E+00  0.1200000E-01
    1        0.337366      0.754256   1.000000   1.000000
    2        1.583217      3.128634   1.000000   1.000000
    3        2.676660      4.344355   1.000000   1.000000
    4        2.845908      4.596942   1.000000   1.000000
    5        3.470645      5.114797   1.000000   1.000000
    6        3.611350      5.241973   1.000000   1.000022
    7        4.464759      6.592363   1.000000  -0.000004
    8        4.717809      7.223830   1.000000  -0.000000
    9        4.900703      7.294650   1.000000  -0.000000
   10        5.238169      7.666328   1.000020  -0.000000
   11        6.195385      8.379887  -0.026638  -0.000000
   12        9.904668     11.023907  -0.000000  -0.000000
   13       13.583348     14.760034   0.000000   0.000000
   14       19.455108     20.216928   0.000000   0.000000
   15       21.116020     21.659812   0.000000   0.000000
   16       23.418546     23.938947   0.000000   0.000000
   17       26.209875     26.295700   0.000000   0.000000
   18       28.847782     29.544558   0.000000   0.000000
   19       29.786355     30.111000   0.000000   0.000000
   20       31.149436     31.392032   0.000000   0.000000
 
  0.4000000E+00  0.3000000E+00  0.0000000E+00  0.2400000E-01
    1        0.819275      1.542315   1.000000   1.000000
    2        1.403527      2.755319   1.000000   1.000000
    3        2.760315      4.490192   1.000000   1.000000
    4        3.076160      4.814274   1.000000   1.000000
    5        3.215397      4.839423   1.000000   1.000000
    6        3.867159      5.198765   1.000000   1.000006
    7        4.537260      6.812495   1.000000  -0.000000
    8        4.778731      7.174452   1.000000  -0.000000
    9        5.227376      7.737496   1.000014  -0.000000
   10        5.633041      7.844810   1.034872  -0.000000
   11        6.149110      8.325036  -0.034838  -0.000000
   12        8.269491      9.661320  -0.000000  -0.000000
   13       14.174898     15.328615   0.000000   0.000000
   14       17.345733     18.244528   0.000000   0.000000
   15       22.694596     23.255689   0.000000   0.000000
   16       23.801760     24.169834   0.000000   0.000000
   17       25.263437     25.382374   0.000000   0.000000
   18       26.739059     27.336245   0.000000   0.000000
   19       30.748963     31.193115   0.000000   0.000000
   20       33.007341     33.268218   0.000000   0.000000
 
  0.5000000E+00  0.3000000E+00  0.0000000E+00  0.1200000E-01
    1        1.154807      2.228133   1.000000   1.000000
    2        1.154807      2.228133   1.000000   1.000000
    3        2.834977      4.559713   1.000000   1.000000
    4        2.834977      4.559713   1.000000   1.000000
    5        3.661603      5.171104   1.000000   1.000002
    6        3.661603      5.171104   1.000000   1.000002
    7        4.697857      7.047880   1.000000  -0.000000
    8        4.697857      7.047880   1.000000  -0.000000
    9        5.949353      8.095810   0.263931  -0.000000
   10        5.949353      8.095810   0.263930  -0.000000
   11        6.485658      8.430811  -0.000108  -0.000000
   12        6.485658      8.430811  -0.000108  -0.000000
   13       15.560168     16.595316   0.000000   0.000000
   14       15.560168     16.595316   0.000000   0.000000
   15       24.413973     24.636353   0.000000   0.000000
   16       24.413973     24.636353   0.000000   0.000000
   17       24.592310     25.170775   0.000000   0.000000
   18       24.592310     25.170775   0.000000   0.000000
   19       32.231016     32.690795   0.000000   0.000000
   20       32.231016     32.690795   0.000000   0.000000
 
  0.4000000E+00  0.4000000E+00  0.0000000E+00  0.1200000E-01
    1        0.905551      1.928621   1.000000   1.000000
    2        1.166954      2.493655   1.000000   1.000000
    3        2.583906      4.290134   1.000000   1.000000
    4        2.743573      4.453090   1.000000   1.000000
    5        3.918291      5.497332   1.000000   1.008860
    6        4.683884      5.695979   1.000000   1.022277
    7        4.701251      7.093784   1.000000  -0.000000
    8        4.963169      7.348146   1.000000  -0.000000
    9        5.210106      7.754588   1.000008  -0.000000
   10        5.983039      8.134345   0.152201  -0.000000
   11        6.263952      8.456410  -0.012049  -0.000000
   12        7.776851      9.072110  -0.000000  -0.000000
   13       13.349746     14.663728   0.000000   0.000000
   14       15.352648     16.422311   0.000000   0.000000
   15       23.997103     24.209528   0.000000   0.000000
   16       24.028782     24.585574   0.000000   0.000000
   17       24.795674     24.852025   0.000000   0.000000
   18       26.903727     27.509277   0.000000   0.000000
   19       29.542863     29.983485   0.000000   0.000000
   20       31.979830     32.451312   0.000000   0.000000
 
  0.5000000E+00  0.4000000E+00  0.0000000E+00  0.1200000E-01
    1        0.999046      2.221219   1.000000   1.000000
    2        0.999046      2.221219   1.000000   1.000000
    3        2.575718      4.274649   1.000000   1.000000
    4        2.575718      4.274649   1.000000   1.000000
    5        4.506021      5.941564   1.000000   0.293000
    6        4.506021      5.941564   1.000000   0.293000
    7        4.835293      7.304027   1.000000  -0.000000
    8        4.835293      7.304027   1.000000  -0.000000
    9        6.202935      8.134622  -0.024905  -0.000000
   10        6.202935      8.134622  -0.024905  -0.000000
   11        6.499561      8.385687  -0.000073  -0.000000
   12        6.499561      8.385687  -0.000073  -0.000000
   13       13.913786     15.156772   0.000000   0.000000
   14       13.913786     15.156772   0.000000   0.000000
   15       24.334376     24.426645   0.000000   0.000000
   16       24.334376     24.426645   0.000000   0.000000
   17       25.590563     26.156483   0.000000   0.000000
   18       25.590563     26.156483   0.000000   0.000000
   19       30.357538     30.831976   0.000000   0.000000
   20       30.357538     30.831976   0.000000   0.000000
 
  0.5000000E+00  0.5000000E+00  0.0000000E+00  0.3000000E-02
    1        0.937887      2.201502   1.000000   1.000000
    2        0.937887      2.201502   1.000000   1.000000
    3        2.486102      4.176204   1.000000   1.000000
    4        2.486102      4.176204   1.000000   1.000000
    5        4.867802      6.501392   1.000000  -0.000069
    6        4.867802      6.501392   1.000000  -0.000069
    7        4.990663      7.388636   1.000000  -0.000000
    8        4.990663      7.388636   1.000000  -0.000000
    9        6.290338      7.794422  -0.008065  -0.000000
   10        6.290338      7.794422  -0.008065  -0.000000
   11        6.403997      8.485912  -0.000860  -0.000000
   12        6.403997      8.485912  -0.000860  -0.000000
   13       13.293990     14.647560   0.000000   0.000000
   14       13.293990     14.647560   0.000000   0.000000
   15       24.298856     24.337740   0.000000   0.000000
   16       24.298856     24.337740   0.000000   0.000000
   17       26.194923     26.757537   0.000000   0.000000
   18       26.194923     26.757537   0.000000   0.000000
   19       29.463660     29.941932   0.000000   0.000000
   20       29.463660     29.941932   0.000000   0.000000
 
  0.1000000E+00  0.1000000E+00  0.1000000E+00  0.8000000E-02
    1       -1.967412     -1.805595   1.000000   1.000000
    2        1.275925      3.077445   1.000000   1.000000
    3        1.275925      3.077582   1.000000   1.000000
    4        3.447311      5.307958   1.000000   1.000149
    5        3.447311      5.308050   1.000000   1.000150
    6        3.969317      5.889670   1.000000   0.505139
    7        4.743239      7.124216   1.000000  -0.000000
    8        4.743239      7.454787   1.000000  -0.000000
    9        5.164345      7.454949   1.000002  -0.000000
   10        5.871271      7.990224   0.582552  -0.000000
   11        5.871272      7.990310   0.582548  -0.000000
   12       14.904992     15.502434   0.000000   0.000000
   13       14.904992     15.502447   0.000000   0.000000
   14       15.752621     16.252416   0.000000   0.000000
   15       23.389135     24.137897   0.000000   0.000000
   16       23.389137     24.137904   0.000000   0.000000
   17       28.392015     28.496322   0.000000   0.000000
   18       28.392016     28.496325   0.000000   0.000000
   19       28.557485     29.585164   0.000000   0.000000
   20       31.524932     31.264950   0.000000   0.000000
 
  0.2000000E+00  0.1000000E+00  0.1000000E+00  0.2400000E-01
    1       -1.386684     -1.214008   1.000000   1.000000
    2        1.505257      3.247626   1.000000   1.000000
    3        1.518394      3.346315   1.000000   1.000000
    4        3.330684      5.161292   1.000000   1.000002
    5        3.394628      5.242009   1.000000   1.000022
    6        4.264146      6.204812   1.000000  -0.024471
    7        4.562516      6.501121   1.000000  -0.000070
    8        4.634168      7.195652   1.000000  -0.000000
    9        4.863905      7.478035   1.000000  -0.000000
   10        5.448082      7.604996   1.003771  -0.000000
   11        5.911351      8.047329   0.413898  -0.000000
   12       12.522567     13.382306   0.000000   0.000000
   13       15.848234     16.548969   0.000000   0.000000
   14       16.451273     17.031659   0.000000   0.000000
   15       23.730734     24.423107   0.000000   0.000000
   16       25.028977     25.617566   0.000000   0.000000
   17       26.124686     26.412966   0.000000   0.000000
   18       27.336477     27.613954   0.000000   0.000000
   19       30.462156     31.203453   0.000000   0.000000
   20       31.317867     31.405922   0.000000   0.000000
 
  0.3000000E+00  0.1000000E+00  0.1000000E+00  0.2400000E-01
    1       -0.505187     -0.291441   1.000000   1.000000
    2        1.769160      3.287774   1.000000   1.000000
    3        1.859968      3.760147   1.000000   1.000000
    4        3.303277      5.107958   1.000000   1.000000
    5        3.316558      5.154674   1.000000   1.000001
    6        4.140858      5.966570   1.000000   0.203754
    7        4.323942      6.580132   1.000000  -0.000006
    8        4.613687      6.818269   1.000000  -0.000000
    9        4.950416      6.919891   1.000000  -0.000000
   10        5.050316      7.803716   1.000000  -0.000000
   11        5.773904      7.901740   0.913124  -0.000000
   12       10.025836     11.223669  -0.000000  -0.000000
   13       17.179826     17.960369   0.000000   0.000000
   14       17.710857     18.345107   0.000000   0.000000
   15       24.028054     24.489439   0.000000   0.000000
   16       24.345186     24.953073   0.000000   0.000000
   17       25.315284     25.782448   0.000000   0.000000
   18       26.027872     26.540206   0.000000   0.000000
   19       29.980293     30.143070   0.000000   0.000000
   20       30.946372     31.514427   0.000000   0.000000
 
  0.4000000E+00  0.1000000E+00  0.1000000E+00  0.2400000E-01
    1        0.504716      0.848301   1.000000   1.000000
    2        1.784699      2.895009   1.000000   1.000000
    3        2.296619      4.257739   1.000000   1.000000
    4        3.107947      5.019846   1.000000   1.000000
    5        3.430612      5.184593   1.000000   1.000004
    6        3.807004      5.626289   1.000000   1.034161