PROCAR lm decomposed
# of k-points:   56         # of bands:   20         # of ions:    2

 k-point     1 :    0.00000000 0.00000000 0.00000000     weight = 0.00100000

band     1 # energy   -2.58072231 # occ.  1.00000000
 
ion      s     py     pz     px    dxy    dyz    dz2    dxz  x2-y2    tot
    1  0.368  0.000  0.000  0.000  0.000  0.000  0.000  0.000  0.000  0.368
    2  0.368  0.000  0.000  0.000  0.000  0.000  0.000  0.000  0.000  0.368
tot    0.736  0.000  0.000  0.000  0.000  0.000  0.000  0.000  0.000  0.736
 
band     2 # energy    1.00993104 # occ.  1.00000000
 
ion      s     py     pz     px    dxy    dyz    dz2    dxz  x2-y2    tot
    1  0.000  0.000  0.000  0.000  0.000  0.000  0.102  0.000  0.337  0.438
    2  0.000  0.000  0.000  0.000  0.000  0.000  0.102  0.000  0.337  0.438
tot    0.000  0.000  0.000  0.000  0.000  0.000  0.204  0.000  0.673  0.877
 
band     3 # energy    1.00993122 # occ.  1.00000000
 
ion      s     py     pz     px    dxy    dyz    dz2    dxz  x2-y2    tot
    1  0.000  0.000  0.000  0.000  0.000  0.000  0.337  0.000  0.102  0.438
    2  0.000  0.000  0.000  0.000  0.000  0.000  0.337  0.000  0.102  0.438
tot    0.000  0.000  0.000  0.000  0.000  0.000  0.673  0.000  0.204  0.877
 
band     4 # energy    3.57786759 # occ.  1.00000000
 
ion      s     py     pz     px    dxy    dyz    dz2    dxz  x2-y2    tot
    1  0.000  0.000  0.000  0.000  0.489  0.000  0.000  0.000  0.000  0.489
    2  0.000  0.000  0.000  0.000  0.489  0.000  0.000  0.000  0.000  0.489
tot    0.000  0.000  0.000  0.000  0.979  0.000  0.000  0.000  0.000  0.979
 
band     5 # energy    3.57786841 # occ.  1.00000000
 
ion      s     py     pz     px    dxy    dyz    dz2    dxz  x2-y2    tot
    1  0.000  0.000  0.000  0.000  0.000  0.002  0.000  0.487  0.000  0.489
    2  0.000  0.000  0.000  0.000  0.000  0.002  0.000  0.487  0.000  0.489
tot    0.000  0.000  0.000  0.000  0.000  0.004  0.000  0.975  0.000  0.979
 
band     6 # energy    3.57786844 # occ.  1.00000000
 
ion      s     py     pz     px    dxy    dyz    dz2    dxz  x2-y2    tot
    1  0.000  0.000  0.000  0.000  0.000  0.487  0.000  0.002  0.000  0.489
    2  0.000  0.000  0.000  0.000  0.000  0.487  0.000  0.002  0.000  0.489
tot    0.000  0.000  0.000  0.000  0.000  0.975  0.000  0.004  0.000  0.979
 
band     7 # energy    4.79863951 # occ.  1.00000000
 
ion      s     py     pz     px    dxy    dyz    dz2    dxz  x2-y2    tot
    1  0.000  0.000  0.000  0.000  0.000  0.000  0.481  0.000  0.004  0.485
    2  0.000  0.000  0.000  0.000  0.000  0.000  0.481  0.000  0.004  0.485
tot    0.000  0.000  0.000  0.000  0.000  0.000  0.963  0.000  0.008  0.970
 
band     8 # energy    4.79864042 # occ.  1.00000000
 
ion      s     py     pz     px    dxy    dyz    dz2    dxz  x2-y2    tot
    1  0.000  0.000  0.000  0.000  0.000  0.000  0.004  0.000  0.481  0.485
    2  0.000  0.000  0.000  0.000  0.000  0.000  0.004  0.000  0.481  0.485
tot    0.000  0.000  0.000  0.000  0.000  0.000  0.008  0.000  0.963  0.970
 
band     9 # energy    6.01744112 # occ.  0.06581623
 
ion      s     py     pz     px    dxy    dyz    dz2    dxz  x2-y2    tot
    1  0.000  0.000  0.000  0.000  0.494  0.000  0.000  0.000  0.000  0.494
    2  0.000  0.000  0.000  0.000  0.494  0.000  0.000  0.000  0.000  0.494
tot    0.000  0.000  0.000  0.000  0.988  0.000  0.000  0.000  0.000  0.988
 
band    10 # energy    6.01744267 # occ.  0.06581301
 
ion      s     py     pz     px    dxy    dyz    dz2    dxz  x2-y2    tot
    1  0.000  0.000  0.000  0.000  0.000  0.064  0.000  0.430  0.000  0.494
    2  0.000  0.000  0.000  0.000  0.000  0.064  0.000  0.430  0.000  0.494
tot    0.000  0.000  0.000  0.000  0.000  0.127  0.000  0.861  0.000  0.988
 
band    11 # energy    6.01744271 # occ.  0.06581293
 
ion      s     py     pz     px    dxy    dyz    dz2    dxz  x2-y2    tot
    1  0.000  0.000  0.000  0.000  0.000  0.430  0.000  0.064  0.000  0.494
    2  0.000  0.000  0.000  0.000  0.000  0.430  0.000  0.064  0.000  0.494
tot    0.000  0.000  0.000  0.000  0.000  0.861  0.000  0.127  0.000  0.988
 
band    12 # energy   15.86007773 # occ.  0.00000000
 
ion      s     py     pz     px    dxy    dyz    dz2    dxz  x2-y2    tot
    1  0.000  0.068  0.000  0.309  0.000  0.000  0.000  0.000  0.000  0.377
    2  0.000  0.068  0.000  0.309  0.000  0.000  0.000  0.000  0.000  0.377
tot    0.000  0.136  0.000  0.618  0.000  0.000  0.000  0.000  0.000  0.754
 
band    13 # energy   15.86007787 # occ.  0.00000000
 
ion      s     py     pz     px    dxy    dyz    dz2    dxz  x2-y2    tot
    1  0.000  0.308  0.002  0.067  0.000  0.000  0.000  0.000  0.000  0.377
    2  0.000  0.308  0.002  0.067  0.000  0.000  0.000  0.000  0.000  0.377
tot    0.000  0.616  0.004  0.134  0.000  0.000  0.000  0.000  0.000  0.754
 
band    14 # energy   15.86007794 # occ.  0.00000000
 
ion      s     py     pz     px    dxy    dyz    dz2    dxz  x2-y2    tot
    1  0.000  0.001  0.375  0.001  0.000  0.000  0.000  0.000  0.000  0.377
    2  0.000  0.001  0.375  0.001  0.000  0.000  0.000  0.000  0.000  0.377
tot    0.000  0.002  0.750  0.002  0.000  0.000  0.000  0.000  0.000  0.754
 
band    15 # energy   21.59446598 # occ.  0.00000000
 
ion      s     py     pz     px    dxy    dyz    dz2    dxz  x2-y2    tot
    1  0.000  0.000  0.000  0.000  0.000  0.000  0.477  0.000  0.000  0.477
    2  0.000  0.000  0.000  0.000  0.000  0.000  0.477  0.000  0.000  0.477
tot    0.000  0.000  0.000  0.000  0.000  0.000  0.955  0.000  0.000  0.955
 
band    16 # energy   21.59446770 # occ.  0.00000000
 
ion      s     py     pz     px    dxy    dyz    dz2    dxz  x2-y2    tot
    1  0.000  0.000  0.000  0.000  0.000  0.000  0.000  0.000  0.477  0.477
    2  0.000  0.000  0.000  0.000  0.000  0.000  0.000  0.000  0.477  0.477
tot    0.000  0.000  0.000  0.000  0.000  0.000  0.000  0.000  0.955  0.955
 
band    17 # energy   26.77089289 # occ.  0.00000000
 
ion      s     py     pz     px    dxy    dyz    dz2    dxz  x2-y2    tot
    1  0.391  0.000  0.000  0.000  0.000  0.000  0.000  0.000  0.000  0.391
    2  0.391  0.000  0.000  0.000  0.000  0.000  0.000  0.000  0.000  0.391
tot    0.782  0.000  0.000  0.000  0.000  0.000  0.000  0.000  0.000  0.782
 
band    18 # energy   30.96273137 # occ.  0.00000000
 
ion      s     py     pz     px    dxy    dyz    dz2    dxz  x2-y2    tot
    1  0.000  0.000  0.000  0.000  0.000  0.000  0.000  0.000  0.000  0.000
    2  0.000  0.000  0.000  0.000  0.000  0.000  0.000  0.000  0.000  0.000
tot    0.000  0.000  0.000  0.000  0.000  0.000  0.000  0.000  0.000  0.000
 
band    19 # energy   30.96273140 # occ.  0.00000000
 
ion      s     py     pz     px    dxy    dyz    dz2    dxz  x2-y2    tot
    1  0.000  0.000  0.000  0.000  0.000  0.000  0.000  0.000  0.000  0.000
    2  0.000  0.000  0.000  0.000  0.000  0.000  0.000  0.000  0.000  0.000
tot    0.000  0.000  0.000  0.000  0.000  0.000  0.000  0.000  0.000  0.000
 
band    20 # energy   30.96273141 # occ.  0.00000000
 
ion      s     py     pz     px    dxy    dyz    dz2    dxz  x2-y2    tot
    1  0.000  0.000  0.000  0.000  0.000  0.000  0.000  0.000  0.000  0.000
    2  0.000  0.000  0.000  0.000  0.000  0.000  0.000  0.000  0.000  0.000
tot    0.000  0.000  0.000  0.000  0.000  0.000  0.000  0.000  0.000  0.000
 

 k-point     2 :    0.10000000 0.00000000 0.00000000     weight = 0.00600000

band     1 # energy   -2.37278339 # occ.  1.00000000
 
ion      s     py     pz     px    dxy    dyz    dz2    dxz  x2-y2    tot
    1  0.361  0.000  0.000  0.007  0.000  0.000  0.000  0.000  0.000  0.368
    2  0.361  0.000  0.000  0.007  0.000  0.000  0.000  0.000  0.000  0.368
tot    0.721  0.000  0.000  0.015  0.000  0.000  0.000  0.000  0.000  0.737
 
band     2 # energy    1.09907584 # occ.  1.00000000
 
ion      s     py     pz     px    dxy    dyz    dz2    dxz  x2-y2    tot
    1  0.000  0.000  0.000  0.000  0.000  0.000  0.329  0.000  0.110  0.439
    2  0.000  0.000  0.000  0.000  0.000  0.000  0.329  0.000  0.110  0.439
tot    0.000  0.000  0.000  0.000  0.000  0.000  0.658  0.000  0.219  0.878
 
band     3 # energy    1.10156715 # occ.  1.00000000
 
ion      s     py     pz     px    dxy    dyz    dz2    dxz  x2-y2    tot
    1  0.000  0.000  0.000  0.006  0.000  0.000  0.108  0.000  0.324  0.438
    2  0.000  0.000  0.000  0.006  0.000  0.000  0.108  0.000  0.324  0.438
tot    0.000  0.000  0.000  0.011  0.000  0.000  0.216  0.000  0.648  0.876
 
band     4 # energy    3.57670270 # occ.  1.00000000
 
ion      s     py     pz     px    dxy    dyz    dz2    dxz  x2-y2    tot
    1  0.000  0.001  0.000  0.000  0.488  0.000  0.000  0.000  0.000  0.489
    2  0.000  0.001  0.000  0.000  0.488  0.000  0.000  0.000  0.000  0.489
tot    0.000  0.001  0.000  0.000  0.976  0.000  0.000  0.000  0.000  0.977
 
band     5 # energy    3.57670352 # occ.  1.00000000
 
ion      s     py     pz     px    dxy    dyz    dz2    dxz  x2-y2    tot
    1  0.000  0.000  0.001  0.000  0.000  0.000  0.000  0.488  0.000  0.489
    2  0.000  0.000  0.001  0.000  0.000  0.000  0.000  0.488  0.000  0.489
tot    0.000  0.000  0.001  0.000  0.000  0.000  0.000  0.976  0.000  0.977
 
band     6 # energy    3.63500903 # occ.  1.00000000
 
ion      s     py     pz     px    dxy    dyz    dz2    dxz  x2-y2    tot
    1  0.000  0.000  0.000  0.000  0.000  0.489  0.000  0.000  0.000  0.489
    2  0.000  0.000  0.000  0.000  0.000  0.489  0.000  0.000  0.000  0.489
tot    0.000  0.000  0.000  0.000  0.000  0.978  0.000  0.000  0.000  0.978
 
band     7 # energy    4.70539162 # occ.  1.00000000
 
ion      s     py     pz     px    dxy    dyz    dz2    dxz  x2-y2    tot
    1  0.000  0.000  0.000  0.000  0.000  0.000  0.362  0.000  0.121  0.483
    2  0.000  0.000  0.000  0.000  0.000  0.000  0.362  0.000  0.121  0.483
tot    0.000  0.000  0.000  0.000  0.000  0.000  0.725  0.000  0.242  0.966
 
band     8 # energy    4.83540207 # occ.  1.00000000
 
ion      s     py     pz     px    dxy    dyz    dz2    dxz  x2-y2    tot
    1  0.000  0.000  0.000  0.000  0.000  0.000  0.121  0.000  0.364  0.486
    2  0.000  0.000  0.000  0.000  0.000  0.000  0.121  0.000  0.364  0.486
tot    0.000  0.000  0.000  0.000  0.000  0.000  0.243  0.000  0.729  0.972
 
band     9 # energy    5.84501805 # occ.  0.68853130
 
ion      s     py     pz     px    dxy    dyz    dz2    dxz  x2-y2    tot
    1  0.000  0.005  0.000  0.000  0.487  0.000  0.000  0.000  0.000  0.491
    2  0.000  0.005  0.000  0.000  0.487  0.000  0.000  0.000  0.000  0.491
tot    0.000  0.009  0.000  0.000  0.973  0.000  0.000  0.000  0.000  0.982
 
band    10 # energy    5.84501954 # occ.  0.68852555
 
ion      s     py     pz     px    dxy    dyz    dz2    dxz  x2-y2    tot
    1  0.000  0.000  0.005  0.000  0.000  0.000  0.000  0.487  0.000  0.491
    2  0.000  0.000  0.005  0.000  0.000  0.000  0.000  0.487  0.000  0.491
tot    0.000  0.000  0.009  0.000  0.000  0.000  0.000  0.973  0.000  0.982
 
band    11 # energy    5.95554980 # occ.  0.24158807
 
ion      s     py     pz     px    dxy    dyz    dz2    dxz  x2-y2    tot
    1  0.000  0.000  0.000  0.000  0.000  0.493  0.000  0.000  0.000  0.493
    2  0.000  0.000  0.000  0.000  0.000  0.493  0.000  0.000  0.000  0.493
tot    0.000  0.000  0.000  0.000  0.000  0.987  0.000  0.000  0.000  0.987
 
band    12 # energy   14.50451920 # occ.  0.00000000
 
ion      s     py     pz     px    dxy    dyz    dz2    dxz  x2-y2    tot
    1  0.030  0.000  0.000  0.313  0.000  0.000  0.013  0.000  0.038  0.394
    2  0.030  0.000  0.000  0.313  0.000  0.000  0.013  0.000  0.038  0.394
tot    0.061  0.000  0.000  0.627  0.000  0.000  0.025  0.000  0.075  0.788
 
band    13 # energy   16.25172123 # occ.  0.00000000
 
ion      s     py     pz     px    dxy    dyz    dz2    dxz  x2-y2    tot
    1  0.000  0.368  0.000  0.000  0.015  0.000  0.000  0.000  0.000  0.383
    2  0.000  0.368  0.000  0.000  0.015  0.000  0.000  0.000  0.000  0.383
tot    0.000  0.736  0.000  0.000  0.031  0.000  0.000  0.000  0.000  0.767
 
band    14 # energy   16.25172141 # occ.  0.00000000
 
ion      s     py     pz     px    dxy    dyz    dz2    dxz  x2-y2    tot
    1  0.000  0.000  0.368  0.000  0.000  0.000  0.000  0.015  0.000  0.383
    2  0.000  0.000  0.368  0.000  0.000  0.000  0.000  0.015  0.000  0.383
tot    0.000  0.000  0.736  0.000  0.000  0.000  0.000  0.031  0.000  0.767
 
band    15 # energy   21.65484393 # occ.  0.00000000
 
ion      s     py     pz     px    dxy    dyz    dz2    dxz  x2-y2    tot
    1  0.000  0.000  0.000  0.000  0.000  0.000  0.355  0.000  0.118  0.473
    2  0.000  0.000  0.000  0.000  0.000  0.000  0.355  0.000  0.118  0.473
tot    0.000  0.000  0.000  0.000  0.000  0.000  0.709  0.000  0.236  0.946
 
band    16 # energy   22.55292812 # occ.  0.00000000
 
ion      s     py     pz     px    dxy    dyz    dz2    dxz  x2-y2    tot
    1  0.020  0.000  0.000  0.016  0.000  0.000  0.103  0.000  0.309  0.448
    2  0.020  0.000  0.000  0.016  0.000  0.000  0.103  0.000  0.309  0.448
tot    0.039  0.000  0.000  0.032  0.000  0.000  0.206  0.000  0.618  0.896
 
band    17 # energy   27.47604652 # occ.  0.00000000
 
ion      s     py     pz     px    dxy    dyz    dz2    dxz  x2-y2    tot
    1  0.339  0.000  0.000  0.044  0.000  0.000  0.003  0.000  0.008  0.394
    2  0.339  0.000  0.000  0.044  0.000  0.000  0.003  0.000  0.008  0.394
tot    0.678  0.000  0.000  0.088  0.000  0.000  0.006  0.000  0.017  0.788
 
band    18 # energy   29.72620958 # occ.  0.00000000
 
ion      s     py     pz     px    dxy    dyz    dz2    dxz  x2-y2    tot
    1  0.000  0.000  0.000  0.000  0.000  0.000  0.078  0.000  0.026  0.104
    2  0.000  0.000  0.000  0.000  0.000  0.000  0.078  0.000  0.026  0.104
tot    0.000  0.000  0.000  0.000  0.000  0.000  0.155  0.000  0.052  0.207
 
band    19 # energy   30.75520280 # occ.  0.00000000
 
ion      s     py     pz     px    dxy    dyz    dz2    dxz  x2-y2    tot
    1  0.000  0.005  0.000  0.000  0.082  0.000  0.000  0.000  0.000  0.087
    2  0.000  0.005  0.000  0.000  0.082  0.000  0.000  0.000  0.000  0.087
tot    0.000  0.010  0.000  0.000  0.164  0.000  0.000  0.000  0.000  0.174
 
band    20 # energy   30.75520299 # occ.  0.00000000
 
ion      s     py     pz     px    dxy    dyz    dz2    dxz  x2-y2    tot
    1  0.000  0.000  0.005  0.000  0.000  0.000  0.000  0.082  0.000  0.087
    2  0.000  0.000  0.005  0.000  0.000  0.000  0.000  0.082  0.000  0.087
tot    0.000  0.000  0.010  0.000  0.000  0.000  0.000  0.164  0.000  0.174
 

 k-point     3 :    0.20000000 0.00000000 0.00000000     weight = 0.00600000

band     1 # energy   -1.76833268 # occ.  1.00000000
 
ion      s     py     pz     px    dxy    dyz    dz2    dxz  x2-y2    tot
    1  0.338  0.000  0.000  0.029  0.000  0.000  0.001  0.000  0.002  0.369
    2  0.338  0.000  0.000  0.029  0.000  0.000  0.001  0.000  0.002  0.369
tot    0.676  0.000  0.000  0.057  0.000  0.000  0.001  0.000  0.003  0.738
 
band     2 # energy    1.33707428 # occ.  1.00000000
 
ion      s     py     pz     px    dxy    dyz    dz2    dxz  x2-y2    tot
    1  0.003  0.000  0.000  0.022  0.000  0.000  0.103  0.000  0.309  0.436
    2  0.003  0.000  0.000  0.022  0.000  0.000  0.103  0.000  0.309  0.436
tot    0.006  0.000  0.000  0.043  0.000  0.000  0.206  0.000  0.618  0.873
 
band     3 # energy    1.35896137 # occ.  1.00000000
 
ion      s     py     pz     px    dxy    dyz    dz2    dxz  x2-y2    tot
    1  0.000  0.000  0.000  0.000  0.000  0.000  0.330  0.000  0.110  0.440
    2  0.000  0.000  0.000  0.000  0.000  0.000  0.330  0.000  0.110  0.440
tot    0.000  0.000  0.000  0.000  0.000  0.000  0.660  0.000  0.220  0.880
 
band     4 # energy    3.58619030 # occ.  1.00000000
 
ion      s     py     pz     px    dxy    dyz    dz2    dxz  x2-y2    tot
    1  0.000  0.003  0.000  0.000  0.484  0.000  0.000  0.000  0.000  0.486
    2  0.000  0.003  0.000  0.000  0.484  0.000  0.000  0.000  0.000  0.486
tot    0.000  0.006  0.000  0.000  0.967  0.000  0.000  0.000  0.000  0.973
 
band     5 # energy    3.58619112 # occ.  1.00000000
 
ion      s     py     pz     px    dxy    dyz    dz2    dxz  x2-y2    tot
    1  0.000  0.000  0.003  0.000  0.000  0.000  0.000  0.484  0.000  0.486
    2  0.000  0.000  0.003  0.000  0.000  0.000  0.000  0.484  0.000  0.486
tot    0.000  0.000  0.006  0.000  0.000  0.000  0.000  0.967  0.000  0.973
 
band     6 # energy    3.80159457 # occ.  1.00000000
 
ion      s     py     pz     px    dxy    dyz    dz2    dxz  x2-y2    tot
    1  0.000  0.000  0.000  0.000  0.000  0.488  0.000  0.000  0.000  0.488
    2  0.000  0.000  0.000  0.000  0.000  0.488  0.000  0.000  0.000  0.488
tot    0.000  0.000  0.000  0.000  0.000  0.977  0.000  0.000  0.000  0.977
 
band     7 # energy    4.43374810 # occ.  1.00000000
 
ion      s     py     pz     px    dxy    dyz    dz2    dxz  x2-y2    tot
    1  0.000  0.000  0.000  0.000  0.000  0.000  0.358  0.000  0.119  0.478
    2  0.000  0.000  0.000  0.000  0.000  0.000  0.358  0.000  0.119  0.478
tot    0.000  0.000  0.000  0.000  0.000  0.000  0.717  0.000  0.239  0.956
 
band     8 # energy    4.94127438 # occ.  1.00000000
 
ion      s     py     pz     px    dxy    dyz    dz2    dxz  x2-y2    tot
    1  0.001  0.000  0.000  0.000  0.000  0.000  0.121  0.000  0.364  0.488
    2  0.001  0.000  0.000  0.000  0.000  0.000  0.121  0.000  0.364  0.488
tot    0.003  0.000  0.000  0.001  0.000  0.000  0.243  0.000  0.729  0.975
 
band     9 # energy    5.41337166 # occ.  1.00188551
 
ion      s     py     pz     px    dxy    dyz    dz2    dxz  x2-y2    tot
    1  0.000  0.013  0.000  0.000  0.473  0.000  0.000  0.000  0.000  0.486
    2  0.000  0.013  0.000  0.000  0.473  0.000  0.000  0.000  0.000  0.486
tot    0.000  0.026  0.000  0.000  0.946  0.000  0.000  0.000  0.000  0.972
 
band    10 # energy    5.41337298 # occ.  1.00188556
 
ion      s     py     pz     px    dxy    dyz    dz2    dxz  x2-y2    tot
    1  0.000  0.000  0.013  0.000  0.000  0.000  0.000  0.473  0.000  0.486
    2  0.000  0.000  0.013  0.000  0.000  0.000  0.000  0.473  0.000  0.486
tot    0.000  0.000  0.026  0.000  0.000  0.000  0.000  0.946  0.000  0.972
 
band    11 # energy    5.77579075 # occ.  0.90870148
 
ion      s     py     pz     px    dxy    dyz    dz2    dxz  x2-y2    tot
    1  0.000  0.000  0.000  0.000  0.000  0.492  0.000  0.000  0.000  0.492
    2  0.000  0.000  0.000  0.000  0.000  0.492  0.000  0.000  0.000  0.492
tot    0.000  0.000  0.000  0.000  0.000  0.984  0.000  0.000  0.000  0.984
 
band    12 # energy   12.02264809 # occ.  0.00000000
 
ion      s     py     pz     px    dxy    dyz    dz2    dxz  x2-y2    tot
    1  0.075  0.000  0.000  0.242  0.000  0.000  0.023  0.000  0.070  0.410
    2  0.075  0.000  0.000  0.242  0.000  0.000  0.023  0.000  0.070  0.410
tot    0.149  0.000  0.000  0.483  0.000  0.000  0.047  0.000  0.140  0.819
 
band    13 # energy   17.33510600 # occ.  0.00000000
 
ion      s     py     pz     px    dxy    dyz    dz2    dxz  x2-y2    tot
    1  0.000  0.346  0.000  0.000  0.053  0.000  0.000  0.000  0.000  0.399
    2  0.000  0.346  0.000  0.000  0.053  0.000  0.000  0.000  0.000  0.399
tot    0.000  0.692  0.000  0.000  0.106  0.000  0.000  0.000  0.000  0.798
 
band    14 # energy   17.33510636 # occ.  0.00000000
 
ion      s     py     pz     px    dxy    dyz    dz2    dxz  x2-y2    tot
    1  0.000  0.000  0.346  0.000  0.000  0.000  0.000  0.053  0.000  0.399
    2  0.000  0.000  0.346  0.000  0.000  0.000  0.000  0.053  0.000  0.399
tot    0.000  0.000  0.692  0.000  0.000  0.000  0.000  0.106  0.000  0.798
 
band    15 # energy   21.84303606 # occ.  0.00000000
 
ion      s     py     pz     px    dxy    dyz    dz2    dxz  x2-y2    tot
    1  0.000  0.000  0.000  0.000  0.000  0.000  0.345  0.000  0.115  0.459
    2  0.000  0.000  0.000  0.000  0.000  0.000  0.345  0.000  0.115  0.459
tot    0.000  0.000  0.000  0.000  0.000  0.000  0.689  0.000  0.230  0.919
 
band    16 # energy   23.62722581 # occ.  0.00000000
 
ion      s     py     pz     px    dxy    dyz    dz2    dxz  x2-y2    tot
    1  0.104  0.000  0.000  0.000  0.000  0.000  0.072  0.000  0.217  0.393
    2  0.104  0.000  0.000  0.000  0.000  0.000  0.072  0.000  0.217  0.393
tot    0.208  0.000  0.000  0.001  0.000  0.000  0.144  0.000  0.433  0.786
 
band    17 # energy   27.73931000 # occ.  0.00000000
 
ion      s     py     pz     px    dxy    dyz    dz2    dxz  x2-y2    tot
    1  0.000  0.000  0.000  0.000  0.000  0.000  0.149  0.000  0.050  0.199
    2  0.000  0.000  0.000  0.000  0.000  0.000  0.149  0.000  0.050  0.199
tot    0.000  0.000  0.000  0.000  0.000  0.000  0.298  0.000  0.099  0.398
 
band    18 # energy   29.69551420 # occ.  0.00000000
 
ion      s     py     pz     px    dxy    dyz    dz2    dxz  x2-y2    tot
    1  0.000  0.060  0.000  0.000  0.255  0.000  0.000  0.000  0.000  0.315
    2  0.000  0.060  0.000  0.000  0.255  0.000  0.000  0.000  0.000  0.315
tot    0.000  0.119  0.000  0.000  0.510  0.000  0.000  0.000  0.000  0.630
 
band    19 # energy   29.69551480 # occ.  0.00000000
 
ion      s     py     pz     px    dxy    dyz    dz2    dxz  x2-y2    tot
    1  0.000  0.000  0.060  0.000  0.000  0.000  0.000  0.255  0.000  0.315
    2  0.000  0.000  0.060  0.000  0.000  0.000  0.000  0.255  0.000  0.315
tot    0.000  0.000  0.119  0.000  0.000  0.000  0.000  0.510  0.000  0.630
 
band    20 # energy   29.85444027 # occ.  0.00000000
 
ion      s     py     pz     px    dxy    dyz    dz2    dxz  x2-y2    tot
    1  0.203  0.000  0.000  0.120  0.000  0.000  0.022  0.000  0.065  0.409
    2  0.203  0.000  0.000  0.120  0.000  0.000  0.022  0.000  0.065  0.409
tot    0.406  0.000  0.000  0.240  0.000  0.000  0.043  0.000  0.130  0.819
 

 k-point     4 :    0.30000000-0.00000000 0.00000000     weight = 0.00600000

band     1 # energy   -0.83576437 # occ.  1.00000000
 
ion      s     py     pz     px    dxy    dyz    dz2    dxz  x2-y2    tot
    1  0.297  0.000  0.000  0.060  0.000  0.000  0.003  0.000  0.010  0.371
    2  0.297  0.000  0.000  0.060  0.000  0.000  0.003  0.000  0.010  0.371
tot    0.595  0.000  0.000  0.120  0.000  0.000  0.007  0.000  0.020  0.742
 
band     2 # energy    1.59368655 # occ.  1.00000000
 
ion      s     py     pz     px    dxy    dyz    dz2    dxz  x2-y2    tot
    1  0.016  0.000  0.000  0.047  0.000  0.000  0.092  0.000  0.276  0.431
    2  0.016  0.000  0.000  0.047  0.000  0.000  0.092  0.000  0.276  0.431
tot    0.032  0.000  0.000  0.094  0.000  0.000  0.184  0.000  0.552  0.861
 
band     3 # energy    1.76827018 # occ.  1.00000000
 
ion      s     py     pz     px    dxy    dyz    dz2    dxz  x2-y2    tot
    1  0.000  0.000  0.000  0.000  0.000  0.000  0.332  0.000  0.111  0.443
    2  0.000  0.000  0.000  0.000  0.000  0.000  0.332  0.000  0.111  0.443
tot    0.000  0.000  0.000  0.000  0.000  0.000  0.664  0.000  0.221  0.886
 
band     4 # energy    3.63889492 # occ.  1.00000000
 
ion      s     py     pz     px    dxy    dyz    dz2    dxz  x2-y2    tot
    1  0.000  0.006  0.000  0.000  0.477  0.000  0.000  0.000  0.000  0.484
    2  0.000  0.006  0.000  0.000  0.477  0.000  0.000  0.000  0.000  0.484
tot    0.000  0.013  0.000  0.000  0.955  0.000  0.000  0.000  0.000  0.968
 
band     5 # energy    3.63889574 # occ.  1.00000000
 
ion      s     py     pz     px    dxy    dyz    dz2    dxz  x2-y2    tot
    1  0.000  0.000  0.006  0.000  0.000  0.000  0.000  0.477  0.000  0.484
    2  0.000  0.000  0.006  0.000  0.000  0.000  0.000  0.477  0.000  0.484
tot    0.000  0.000  0.013  0.000  0.000  0.000  0.000  0.955  0.000  0.968
 
band     6 # energy    4.00825355 # occ.  1.00000000
 
ion      s     py     pz     px    dxy    dyz    dz2    dxz  x2-y2    tot
    1  0.000  0.000  0.000  0.000  0.000  0.000  0.353  0.000  0.118  0.470
    2  0.000  0.000  0.000  0.000  0.000  0.000  0.353  0.000  0.118  0.470
tot    0.000  0.000  0.000  0.000  0.000  0.000  0.705  0.000  0.235  0.940
 
band     7 # energy    4.06323673 # occ.  1.00000000
 
ion      s     py     pz     px    dxy    dyz    dz2    dxz  x2-y2    tot
    1  0.000  0.000  0.000  0.000  0.000  0.488  0.000  0.000  0.000  0.488
    2  0.000  0.000  0.000  0.000  0.000  0.488  0.000  0.000  0.000  0.488
tot    0.000  0.000  0.000  0.000  0.000  0.975  0.000  0.000  0.000  0.975
 
band     8 # energy    4.88970275 # occ.  1.00000000
 
ion      s     py     pz     px    dxy    dyz    dz2    dxz  x2-y2    tot
    1  0.000  0.018  0.000  0.000  0.464  0.000  0.000  0.000  0.000  0.482
    2  0.000  0.018  0.000  0.000  0.464  0.000  0.000  0.000  0.000  0.482
tot    0.000  0.036  0.000  0.000  0.928  0.000  0.000  0.000  0.000  0.963
 
band     9 # energy    4.88970389 # occ.  1.00000000
 
ion      s     py     pz     px    dxy    dyz    dz2    dxz  x2-y2    tot
    1  0.000  0.000  0.018  0.000  0.000  0.000  0.000  0.464  0.000  0.482
    2  0.000  0.000  0.018  0.000  0.000  0.000  0.000  0.464  0.000  0.482
tot    0.000  0.000  0.036  0.000  0.000  0.000  0.000  0.928  0.000  0.963
 
band    10 # energy    5.11689168 # occ.  1.00000032
 
ion      s     py     pz     px    dxy    dyz    dz2    dxz  x2-y2    tot
    1  0.009  0.000  0.000  0.002  0.000  0.000  0.120  0.000  0.359  0.489
    2  0.009  0.000  0.000  0.002  0.000  0.000  0.120  0.000  0.359  0.489
tot    0.017  0.000  0.000  0.004  0.000  0.000  0.239  0.000  0.718  0.978
 
band    11 # energy    5.49773129 # occ.  1.00891572
 
ion      s     py     pz     px    dxy    dyz    dz2    dxz  x2-y2    tot
    1  0.000  0.000  0.000  0.000  0.000  0.490  0.000  0.000  0.000  0.490
    2  0.000  0.000  0.000  0.000  0.000  0.490  0.000  0.000  0.000  0.490
tot    0.000  0.000  0.000  0.000  0.000  0.980  0.000  0.000  0.000  0.980
 
band    12 # energy    9.55925412 # occ. -0.00000000
 
ion      s     py     pz     px    dxy    dyz    dz2    dxz  x2-y2    tot
    1  0.108  0.000  0.000  0.176  0.000  0.000  0.035  0.000  0.105  0.424
    2  0.108  0.000  0.000  0.176  0.000  0.000  0.035  0.000  0.105  0.424
tot    0.215  0.000  0.000  0.352  0.000  0.000  0.070  0.000  0.210  0.847
 
band    13 # energy   18.92774532 # occ.  0.00000000
 
ion      s     py     pz     px    dxy    dyz    dz2    dxz  x2-y2    tot
    1  0.000  0.319  0.000  0.000  0.101  0.000  0.000  0.000  0.000  0.420
    2  0.000  0.319  0.000  0.000  0.101  0.000  0.000  0.000  0.000  0.420
tot    0.000  0.637  0.000  0.000  0.202  0.000  0.000  0.000  0.000  0.839
 
band    14 # energy   18.92774587 # occ.  0.00000000
 
ion      s     py     pz     px    dxy    dyz    dz2    dxz  x2-y2    tot
    1  0.000  0.000  0.319  0.000  0.000  0.000  0.000  0.101  0.000  0.420
    2  0.000  0.000  0.319  0.000  0.000  0.000  0.000  0.101  0.000  0.420
tot    0.000  0.000  0.637  0.000  0.000  0.000  0.000  0.202  0.000  0.839
 
band    15 # energy   22.18317822 # occ.  0.00000000
 
ion      s     py     pz     px    dxy    dyz    dz2    dxz  x2-y2    tot
    1  0.000  0.000  0.000  0.000  0.000  0.000  0.328  0.000  0.109  0.437
    2  0.000  0.000  0.000  0.000  0.000  0.000  0.328  0.000  0.109  0.437
tot    0.000  0.000  0.000  0.000  0.000  0.000  0.656  0.000  0.219  0.875
 
band    16 # energy   24.23514728 # occ.  0.00000000
 
ion      s     py     pz     px    dxy    dyz    dz2    dxz  x2-y2    tot
    1  0.149  0.000  0.000  0.014  0.000  0.000  0.044  0.000  0.131  0.337
    2  0.149  0.000  0.000  0.014  0.000  0.000  0.044  0.000  0.131  0.337
tot    0.297  0.000  0.000  0.028  0.000  0.000  0.087  0.000  0.262  0.674
 
band    17 # energy   25.96931582 # occ.  0.00000000
 
ion      s     py     pz     px    dxy    dyz    dz2    dxz  x2-y2    tot
    1  0.000  0.000  0.000  0.000  0.000  0.000  0.200  0.000  0.067  0.266
    2  0.000  0.000  0.000  0.000  0.000  0.000  0.200  0.000  0.067  0.266
tot    0.000  0.000  0.000  0.000  0.000  0.000  0.400  0.000  0.133  0.533
 
band    18 # energy   27.69588586 # occ.  0.00000000
 
ion      s     py     pz     px    dxy    dyz    dz2    dxz  x2-y2    tot
    1  0.000  0.141  0.000  0.000  0.305  0.000  0.000  0.000  0.000  0.446
    2  0.000  0.141  0.000  0.000  0.305  0.000  0.000  0.000  0.000  0.446
tot    0.000  0.282  0.000  0.000  0.610  0.000  0.000  0.000  0.000  0.892
 
band    19 # energy   27.69588669 # occ.  0.00000000
 
ion      s     py     pz     px    dxy    dyz    dz2    dxz  x2-y2    tot
    1  0.000  0.000  0.141  0.000  0.000  0.000  0.000  0.305  0.000  0.446
    2  0.000  0.000  0.141  0.000  0.000  0.000  0.000  0.305  0.000  0.446
tot    0.000  0.000  0.282  0.000  0.000  0.000  0.000  0.610  0.000  0.892
 
band    20 # energy   29.46153370 # occ.  0.00000000
 
ion      s     py     pz     px    dxy    dyz    dz2    dxz  x2-y2    tot
    1  0.057  0.000  0.000  0.170  0.000  0.000  0.003  0.000  0.009  0.238
    2  0.057  0.000  0.000  0.170  0.000  0.000  0.003  0.000  0.009  0.238
tot    0.114  0.000  0.000  0.339  0.000  0.000  0.006  0.000  0.018  0.477
 

 k-point     5 :    0.40000000 0.00000000 0.00000000     weight = 0.00600000

band     1 # energy    0.26687398 # occ.  1.00000000
 
ion      s     py     pz     px    dxy    dyz    dz2    dxz  x2-y2    tot
    1  0.233  0.000  0.000  0.092  0.000  0.000  0.013  0.000  0.039  0.377
    2  0.233  0.000  0.000  0.092  0.000  0.000  0.013  0.000  0.039  0.377
tot    0.465  0.000  0.000  0.184  0.000  0.000  0.026  0.000  0.078  0.754
 
band     2 # energy    1.64857988 # occ.  1.00000000
 
ion      s     py     pz     px    dxy    dyz    dz2    dxz  x2-y2    tot
    1  0.056  0.000  0.000  0.079  0.000  0.000  0.070  0.000  0.210  0.416
    2  0.056  0.000  0.000  0.079  0.000  0.000  0.070  0.000  0.210  0.416
tot    0.113  0.000  0.000  0.159  0.000  0.000  0.140  0.000  0.421  0.832
 
band     3 # energy    2.29121000 # occ.  1.00000000
 