   1   1   0   0
  0.1559399E+02  0.2726003E-09  0.2726003E-09  0.2726003E-09  0.5000000E-15
  1.000000000000000E-004
  CAR 
 unknown system                          
     34.24790373     -6.40983524  301      9.10212647      1.00000000
     -6.410  0.0000E+00  0.0000E+00
     -6.274  0.0000E+00  0.0000E+00
     -6.139  0.0000E+00  0.0000E+00
     -6.003  0.0000E+00  0.0000E+00
     -5.868  0.0000E+00  0.0000E+00
     -5.732  0.0000E+00  0.0000E+00
     -5.597  0.0000E+00  0.0000E+00
     -5.461  0.0000E+00  0.0000E+00
     -5.326  0.0000E+00  0.0000E+00
     -5.190  0.0000E+00  0.0000E+00
     -5.055  0.0000E+00  0.0000E+00
     -4.919  0.0000E+00  0.0000E+00
     -4.784  0.1969E-13  0.2668E-14
     -4.648  0.8157E-06  0.1105E-06
     -4.512  0.1010E-03  0.1380E-04
     -4.377  0.7950E-04  0.2457E-04
     -4.241  0.1242E-02  0.1929E-03
     -4.106  0.1611E-03  0.2148E-03
     -3.970  0.5213E-03  0.2854E-03
     -3.835  0.1386E-02  0.4733E-03
     -3.699  0.1277E-02  0.6464E-03
     -3.564  0.1083E-02  0.7932E-03
     -3.428  0.2948E-03  0.8332E-03
     -3.293  0.2505E-02  0.1173E-02
     -3.157  0.2060E-03  0.1201E-02
     -3.022  0.7834E-03  0.1307E-02
     -2.886  0.1953E-02  0.1571E-02
     -2.751  0.3372E-02  0.2028E-02
     -2.615  0.4673E-03  0.2092E-02
     -2.480  0.2308E-03  0.2123E-02
     -2.344  0.3651E-02  0.2618E-02
     -2.209  0.4825E-03  0.2683E-02
     -2.073  0.2460E-02  0.3017E-02
     -1.937  0.7592E-03  0.3120E-02
     -1.802  0.1928E-02  0.3381E-02
     -1.666  0.1661E-02  0.3606E-02
     -1.531  0.1039E-02  0.3747E-02
     -1.395  0.7083E-02  0.4707E-02
     -1.260  0.8621E-03  0.4823E-02
     -1.124  0.1517E-07  0.4823E-02
     -0.989  0.1243E-02  0.4992E-02
     -0.853  0.4074E-02  0.5544E-02
     -0.718  0.8131E-03  0.5654E-02
     -0.582  0.5455E-03  0.5728E-02
     -0.447  0.4698E-02  0.6365E-02
     -0.311  0.7637E-03  0.6468E-02
     -0.176  0.3114E-02  0.6890E-02
     -0.040  0.2014E-02  0.7163E-02
      0.095  0.6012E-02  0.7978E-02
      0.231  0.1632E-02  0.8199E-02
      0.366  0.1077E-02  0.8345E-02
      0.502  0.4866E-02  0.9005E-02
      0.638  0.5864E-03  0.9084E-02
      0.773  0.2461E-02  0.9418E-02
      0.909  0.1815E-02  0.9664E-02
      1.044  0.3533E-02  0.1014E-01
      1.180  0.6346E-03  0.1023E-01
      1.315  0.4169E-03  0.1029E-01
      1.451  0.8691E-02  0.1146E-01
      1.586  0.1098E-02  0.1161E-01
      1.722  0.2020E-02  0.1189E-01
      1.857  0.5404E-02  0.1262E-01
      1.993  0.5281E-02  0.1333E-01
      2.128  0.4859E-02  0.1399E-01
      2.264  0.6293E-03  0.1408E-01
      2.399  0.2441E-02  0.1441E-01
      2.535  0.2289E-02  0.1472E-01
      2.670  0.3931E-03  0.1477E-01
      2.806  0.4255E-02  0.1535E-01
      2.941  0.1652E-02  0.1557E-01
      3.077  0.2733E-02  0.1594E-01
      3.212  0.3576E-02  0.1643E-01
      3.348  0.4443E-02  0.1703E-01
      3.484  0.6213E-02  0.1787E-01
      3.619  0.3531E-02  0.1835E-01
      3.755  0.8657E-03  0.1847E-01
      3.890  0.3338E-02  0.1892E-01
      4.026  0.5498E-02  0.1966E-01
      4.161  0.3130E-02  0.2009E-01
      4.297  0.2315E-02  0.2040E-01
      4.432  0.5596E-03  0.2048E-01
      4.568  0.7624E-02  0.2151E-01
      4.703  0.2991E-02  0.2192E-01
      4.839  0.3376E-02  0.2237E-01
      4.974  0.2639E-02  0.2273E-01
      5.110  0.3169E-02  0.2316E-01
      5.245  0.9572E-03  0.2329E-01
      5.381  0.4573E-02  0.2391E-01
      5.516  0.4620E-02  0.2454E-01
      5.652  0.4267E-02  0.2512E-01
      5.787  0.1552E-02  0.2533E-01
      5.923  0.8361E-02  0.2646E-01
      6.059  0.4305E-02  0.2704E-01
      6.194  0.4580E-02  0.2766E-01
      6.330  0.2350E-02  0.2798E-01
      6.465  0.3357E-02  0.2844E-01
      6.601  0.4891E-02  0.2910E-01
      6.736  0.2313E-02  0.2941E-01
      6.872  0.5894E-02  0.3021E-01
      7.007  0.6878E-02  0.3114E-01
      7.143  0.1236E-02  0.3131E-01
      7.278  0.4257E-02  0.3189E-01
      7.414  0.1776E-02  0.3213E-01
      7.549  0.5020E-02  0.3281E-01
      7.685  0.5917E-02  0.3361E-01
      7.820  0.1103E-02  0.3376E-01
      7.956  0.7229E-02  0.3474E-01
      8.091  0.7123E-02  0.3571E-01
      8.227  0.4252E-02  0.3628E-01
      8.362  0.1671E-02  0.3651E-01
      8.498  0.2389E-02  0.3683E-01
      8.634  0.2807E-02  0.3721E-01
      8.769  0.5940E-02  0.3802E-01
      8.905  0.7946E-02  0.3910E-01
      9.040  0.2761E-02  0.3947E-01
      9.176  0.1043E-01  0.4088E-01
      9.311  0.5682E-02  0.4165E-01
      9.447  0.7354E-02  0.4265E-01
      9.582  0.5504E-03  0.4272E-01
      9.718  0.5283E-02  0.4344E-01
      9.853  0.3274E-02  0.4388E-01
      9.989  0.1494E-02  0.4409E-01
     10.124  0.5810E-02  0.4487E-01
     10.260  0.6863E-02  0.4580E-01
     10.395  0.1430E-02  0.4600E-01
     10.531  0.3798E-02  0.4651E-01
     10.666  0.3126E-02  0.4694E-01
     10.802  0.6330E-02  0.4779E-01
     10.937  0.4623E-02  0.4842E-01
     11.073  0.2208E-02  0.4872E-01
     11.209  0.4311E-02  0.4930E-01
     11.344  0.9760E-02  0.5063E-01
     11.480  0.2636E-02  0.5098E-01
     11.615  0.1229E-01  0.5265E-01
     11.751  0.2289E-02  0.5296E-01
     11.886  0.2411E-02  0.5329E-01
     12.022  0.2585E-02  0.5364E-01
     12.157  0.4690E-03  0.5370E-01
     12.293  0.8062E-02  0.5479E-01
     12.428  0.7445E-02  0.5580E-01
     12.564  0.2172E-02  0.5610E-01
     12.699  0.6285E-02  0.5695E-01
     12.835  0.9314E-02  0.5821E-01
     12.970  0.6971E-02  0.5915E-01
     13.106  0.2649E-02  0.5951E-01
     13.241  0.1922E-02  0.5977E-01
     13.377  0.6517E-02  0.6066E-01
     13.512  0.8081E-02  0.6175E-01
     13.648  0.2588E-02  0.6210E-01
     13.784  0.3682E-02  0.6260E-01
     13.919  0.1599E-02  0.6282E-01
     14.055  0.2432E-02  0.6315E-01
     14.190  0.7072E-02  0.6411E-01
     14.326  0.5590E-02  0.6486E-01
     14.461  0.5598E-02  0.6562E-01
     14.597  0.1197E-01  0.6725E-01
     14.732  0.8460E-02  0.6839E-01
     14.868  0.8302E-02  0.6952E-01
     15.003  0.4735E-02  0.7016E-01
     15.139  0.2435E-02  0.7049E-01
     15.274  0.1750E-02  0.7073E-01
     15.410  0.5416E-02  0.7146E-01
     15.545  0.6835E-02  0.7239E-01
     15.681  0.7183E-02  0.7336E-01
     15.816  0.8406E-02  0.7450E-01
     15.952  0.9293E-02  0.7576E-01
     16.087  0.3246E-02  0.7620E-01
     16.223  0.1157E-02  0.7636E-01
     16.358  0.6631E-02  0.7725E-01
     16.494  0.6957E-02  0.7820E-01
     16.630  0.9594E-02  0.7950E-01
     16.765  0.5747E-02  0.8028E-01
     16.901  0.7549E-02  0.8130E-01
     17.036  0.3586E-02  0.8178E-01
     17.172  0.3746E-02  0.8229E-01
     17.307  0.6001E-02  0.8311E-01
     17.443  0.5507E-02  0.8385E-01
     17.578  0.1651E-02  0.8408E-01
     17.714  0.6307E-03  0.8416E-01
     17.849  0.1111E-02  0.8431E-01
     17.985  0.8132E-03  0.8442E-01
     18.120  0.6638E-02  0.8532E-01
     18.256  0.3618E-03  0.8537E-01
     18.391  0.1799E-02  0.8561E-01
     18.527  0.7873E-02  0.8668E-01
     18.662  0.1172E-01  0.8827E-01
     18.798  0.7109E-02  0.8923E-01
     18.933  0.5029E-02  0.8991E-01
     19.069  0.1315E-01  0.9170E-01
     19.205  0.3848E-02  0.9222E-01
     19.340  0.9528E-02  0.9351E-01
     19.476  0.4164E-02  0.9407E-01
     19.611  0.2687E-02  0.9444E-01
     19.747  0.2298E-02  0.9475E-01
     19.882  0.2276E-02  0.9506E-01
     20.018  0.1096E-01  0.9654E-01
     20.153  0.1719E-01  0.9887E-01
     20.289  0.3217E-02  0.9931E-01
     20.424  0.4164E-02  0.9987E-01
     20.560  0.5632E-02  0.1006E+00
     20.695  0.8884E-02  0.1018E+00
     20.831  0.7840E-02  0.1029E+00
     20.966  0.9640E-02  0.1042E+00
     21.102  0.6595E-02  0.1051E+00
     21.237  0.1466E-03  0.1051E+00
     21.373  0.2530E-02  0.1055E+00
     21.508  0.1264E-01  0.1072E+00
     21.644  0.9866E-02  0.1085E+00
     21.780  0.4782E-02  0.1092E+00
     21.915  0.5037E-02  0.1098E+00
     22.051  0.8842E-02  0.1110E+00
     22.186  0.4961E-02  0.1117E+00
     22.322  0.7587E-02  0.1127E+00
     22.457  0.8757E-02  0.1139E+00
     22.593  0.5708E-02  0.1147E+00
     22.728  0.6172E-02  0.1155E+00
     22.864  0.3049E-02  0.1160E+00
     22.999  0.3001E-02  0.1164E+00
     23.135  0.1092E-01  0.1178E+00
     23.270  0.5337E-02  0.1186E+00
     23.406  0.7211E-02  0.1195E+00
     23.541  0.6750E-02  0.1205E+00
     23.677  0.6037E-02  0.1213E+00
     23.812  0.2086E-02  0.1216E+00
     23.948  0.5791E-02  0.1223E+00
     24.083  0.5167E-02  0.1230E+00
     24.219  0.3016E-02  0.1235E+00
     24.355  0.2604E-02  0.1238E+00
     24.490  0.6917E-02  0.1247E+00
     24.626  0.1169E-01  0.1263E+00
     24.761  0.1177E-01  0.1279E+00
     24.897  0.9685E-02  0.1292E+00
     25.032  0.2992E-02  0.1296E+00
     25.168  0.3614E-02  0.1301E+00
     25.303  0.8370E-02  0.1313E+00
     25.439  0.5814E-02  0.1321E+00
     25.574  0.8011E-02  0.1331E+00
     25.710  0.5684E-02  0.1339E+00
     25.845  0.7266E-02  0.1349E+00
     25.981  0.6765E-02  0.1358E+00
     26.116  0.6621E-02  0.1367E+00
     26.252  0.1231E-01  0.1384E+00
     26.387  0.2568E-02  0.1387E+00
     26.523  0.6745E-02  0.1396E+00
     26.658  0.2233E-02  0.1399E+00
     26.794  0.7172E-02  0.1409E+00
     26.930  0.3789E-02  0.1414E+00
     27.065  0.1512E-02  0.1416E+00
     27.201  0.3845E-02  0.1422E+00
     27.336  0.5880E-02  0.1429E+00
     27.472  0.1752E-01  0.1453E+00
     27.607  0.1461E-01  0.1473E+00
     27.743  0.6772E-02  0.1482E+00
     27.878  0.2519E-02  0.1486E+00
     28.014  0.7557E-02  0.1496E+00
     28.149  0.8051E-02  0.1507E+00
     28.285  0.5579E-02  0.1514E+00
     28.420  0.7549E-02  0.1525E+00
     28.556  0.1548E-02  0.1527E+00
     28.691  0.6533E-02  0.1536E+00
     28.827  0.4396E-02  0.1541E+00
     28.962  0.7759E-02  0.1552E+00
     29.098  0.7838E-02  0.1563E+00
     29.233  0.5569E-02  0.1570E+00
     29.369  0.2164E-02  0.1573E+00
     29.505  0.2949E-02  0.1577E+00
     29.640  0.4875E-02  0.1584E+00
     29.776  0.4473E-04  0.1584E+00
     29.911  0.2848E-11  0.1584E+00
     30.047  0.3351E-04  0.1584E+00
     30.182  0.4536E-02  0.1590E+00
     30.318  0.4153E-02  0.1596E+00
     30.453  0.1474E-03  0.1596E+00
     30.589  0.4800E-10  0.1596E+00
     30.724  0.0000E+00  0.1596E+00
     30.860  0.8016E-09  0.1596E+00
     30.995  0.1539E-03  0.1596E+00
     31.131  0.7314E-03  0.1597E+00
     31.266  0.1694E-05  0.1597E+00
     31.402  0.7739E-14  0.1597E+00
     31.537  0.0000E+00  0.1597E+00
     31.673  0.0000E+00  0.1597E+00
     31.808  0.2184E-15  0.1597E+00
     31.944  0.2640E-06  0.1597E+00
     32.079  0.4546E-03  0.1598E+00
     32.215  0.4962E-03  0.1598E+00
     32.351  0.4517E-03  0.1599E+00
     32.486  0.8081E-03  0.1600E+00
     32.622  0.6526E-05  0.1600E+00
     32.757  0.1575E-12  0.1600E+00
     32.893  0.0000E+00  0.1600E+00
     33.028  0.0000E+00  0.1600E+00
     33.164  0.0000E+00  0.1600E+00
     33.299  0.0000E+00  0.1600E+00
     33.435  0.0000E+00  0.1600E+00
     33.570  0.0000E+00  0.1600E+00
     33.706  0.0000E+00  0.1600E+00
     33.841  0.0000E+00  0.1600E+00
     33.977  0.0000E+00  0.1600E+00
     34.112  0.0000E+00  0.1600E+00
     34.248  0.0000E+00  0.1600E+00
