    1    1  100    1
  0.1559399E+02  0.2726003E-09  0.2726003E-09  0.2726003E-09  0.5000000E-15
  1.000000000000000E-004
  CAR 
 unknown system                          
      4     56      8
 
  0.0000000E+00  0.0000000E+00  0.0000000E+00  0.7513148E-03
    1       -4.561756   1.000000
    2       19.669318   0.000000
    3       19.669318   0.000000
    4       19.669318   0.000000
    5       21.363200   0.000000
    6       21.363201   0.000000
    7       21.363201   0.000000
    8       24.913220   0.000000
 
  0.9090909E-01  0.0000000E+00  0.0000000E+00  0.9015778E-02
    1       -4.319782   1.000000
    2       17.485036   0.000000
    3       18.285567   0.000000
    4       19.377771   0.000000
    5       20.633792   0.000000
    6       21.993029   0.000000
    7       23.154135   0.000000
    8       23.815304   0.000000
 
  0.1818182E+00  0.0000000E+00  0.0000000E+00  0.9015778E-02
    1       -3.595593   1.000000
    2       13.945153   0.000000
    3       16.696331   0.000000
    4       18.645049   0.000000
    5       19.276383   0.000000
    6       21.006281   0.000000
    7       24.462330   0.000000
    8       24.783645   0.000000
 
  0.2727273E+00  0.0000000E+00  0.0000000E+00  0.9015778E-02
    1       -2.394657   1.000000
    2       10.334978   0.000000
    3       15.475152   0.000000
    4       17.815606   0.000000
    5       18.047147   0.000000
    6       19.839907   0.000000
    7       25.523999   0.000000
    8       25.815893   0.000000
 
  0.3636364E+00  0.0000000E+00  0.0000000E+00  0.9015778E-02
    1       -0.727398   1.000000
    2        6.987291   1.000000
    3       14.656550   0.000000
    4       17.162190   0.000000
    5       17.171268   0.000000
    6       19.013628   0.000000
    7       26.779103   0.000000
    8       27.399862   0.000000
 
  0.4545455E+00  0.0000000E+00  0.0000000E+00  0.9015778E-02
    1        1.375774   1.000000
    2        4.028951   1.000000
    3       14.246847   0.000000
    4       16.725535   0.000000
    5       16.812858   0.000000
    6       18.588830   0.000000
    7       28.290244   0.000000
    8       28.870943   0.000000
 
  0.9090909E-01  0.9090909E-01  0.6938894E-17  0.1803156E-01
    1       -3.836683   1.000000
    2       15.549292   0.000000
    3       16.232569   0.000000
    4       18.045344   0.000000
    5       20.748385   0.000000
    6       22.095694   0.000000
    7       23.307475   0.000000
    8       24.429829   0.000000
 
  0.1818182E+00  0.9090909E-01  0.2081668E-16  0.3606311E-01
    1       -2.874073   1.000000
    2       12.250776   0.000000
    3       14.504249   0.000000
    4       16.853465   0.000000
    5       20.097775   0.000000
    6       21.542325   0.000000
    7       23.849175   0.000000
    8       26.192634   0.000000
 
  0.2727273E+00  0.9090909E-01  0.6938894E-17  0.3606311E-01
    1       -1.439523   1.000000
    2        8.781053   1.000000
    3       13.422817   0.000000
    4       15.897792   0.000000
    5       19.249132   0.000000
    6       21.033594   0.000000
    7       24.696009   0.000000
    8       27.964704   0.000000
 
  0.3636364E+00  0.9090909E-01  0.3469447E-16  0.3606311E-01
    1        0.451775   1.000000
    2        5.622040   1.000000
    3       12.775714   0.000000
    4       15.294378   0.000000
    5       18.664674   0.000000
    6       20.622357   0.000000
    7       26.133111   0.000000
    8       28.986559   0.000000
 
  0.4545455E+00  0.9090909E-01 -0.2081668E-16  0.1803156E-01
    1        2.497447   1.000000
    2        3.148716   1.000000
    3       12.559881   0.000000
    4       15.089680   0.000000
    5       18.463140   0.000000
    6       20.469035   0.000000
    7       27.823962   0.000000
    8       27.982688   0.000000
 
  0.1818182E+00  0.1818182E+00  0.1387779E-16  0.1803156E-01
    1       -1.677577   1.000000
    2       10.698018   0.000000
    3       11.289519   0.000000
    4       15.698511   0.000000
    5       20.586100   0.000000
    6       21.668091   0.000000
    7       25.302811   0.000000
    8       26.493337   0.000000
 
  0.2727273E+00  0.1818182E+00  0.1387779E-16  0.3606311E-01
    1       -0.016595   1.000000
    2        7.644698   1.000000
    3       10.142906   0.000000
    4       14.903501   0.000000
    5       20.308470   0.000000
    6       22.344248   0.000000
    7       25.563085   0.000000
    8       28.152100   0.000000
 
  0.3636364E+00  0.1818182E+00 -0.1387779E-16  0.3606311E-01
    1        2.078483   1.000000
    2        4.715330   1.000000
    3        9.684024   0.000000
    4       14.495035   0.000000
    5       19.980603   0.000000
    6       23.114694   0.000000
    7       25.965644   0.000000
    8       27.639248   0.000000
 
  0.2727273E+00  0.2727273E+00  0.2775558E-16  0.1803156E-01
    1        1.857406   1.000000
    2        6.735370   1.000000
    3        7.264082   1.000000
    4       14.302976   0.000000
    5       21.425684   0.000000
    6       22.558809   0.000000
    7       26.232196   0.000000
    8       28.366508   0.000000
 
  0.3636364E+00  0.2727273E+00  0.0000000E+00  0.1803156E-01
    1        3.871722   1.000000
    2        4.526198   1.000000
    3        6.811045   1.000000
    4       14.099636   0.000000
    5       21.603486   0.000000
    6       23.647000   0.000000
    7       24.747899   0.000000
    8       29.190895   0.000000
 
  0.9090909E-01  0.9090909E-01  0.9090909E-01  0.6010518E-02
    1       -3.114311   1.000000
    2       13.706282   0.000000
    3       14.827217   0.000000
    4       14.827217   0.000000
    5       22.460648   0.000000
    6       22.460648   0.000000
    7       24.743137   0.000000
    8       24.743137   0.000000
 
  0.1818182E+00  0.9090909E-01  0.9090909E-01  0.1803156E-01
    1       -1.916369   1.000000
    2       10.727195   0.000000
    3       12.902481   0.000000
    4       13.607206   0.000000
    5       22.330887   0.000000
    6       22.772980   0.000000
    7       25.777944   0.000000
    8       25.959382   0.000000
 
  0.2727273E+00  0.9090909E-01  0.9090909E-01  0.1803156E-01
    1       -0.253253   1.000000
    2        7.432659   1.000000
    3       11.984314   0.000000
    4       12.753767   0.000000
    5       21.997276   0.000000
    6       22.249069   0.000000
    7       27.206380   0.000000
    8       27.560160   0.000000
 
  0.3636364E+00  0.9090909E-01  0.9090909E-01  0.1803156E-01
    1        1.844716   1.000000
    2        4.488793   1.000000
    3       11.539575   0.000000
    4       12.319607   0.000000
    5       21.758529   0.000000
    6       21.918532   0.000000
    7       28.596751   0.000000
    8       29.090560   0.000000
 
 -0.9090909E-01  0.9090909E-01  0.9090909E-01  0.4507889E-02
    1       -4.078053   1.000000
    2       17.058626   0.000000
    3       17.058627   0.000000
    4       18.050464   0.000000
    5       21.435742   0.000000
    6       21.839147   0.000000
    7       22.863313   0.000000
    8       22.863313   0.000000
 
  0.1818182E+00  0.1818182E+00  0.9090909E-01  0.1803156E-01
    1       -0.489256   1.000000
    2        9.363718   0.000000
    3       10.004333   0.000000
    4       12.227882   0.000000
    5       23.306303   0.000000
    6       24.263737   0.000000
    7       26.421206   0.000000
    8       27.301173   0.000000
 
  0.2727273E+00  0.1818182E+00  0.9090909E-01  0.3606311E-01
    1        1.391732   1.000000
    2        6.516206   1.000000
    3        9.048644   0.934822
    4       11.559986   0.000000
    5       23.447510   0.000000
    6       24.798836   0.000000
    7       27.467171   0.000000
    8       28.829294   0.000000
 
  0.3636364E+00  0.1818182E+00  0.9090909E-01  0.1803156E-01
    1        3.423128   1.000000
    2        4.072782   1.000000
    3        8.811327   1.000000
    4       11.338981   0.000000
    5       23.386322   0.000000
    6       24.978316   0.000000
    7       28.357953   0.000000
    8       28.981481   0.000000
 
 -0.1818182E+00  0.1818182E+00  0.9090909E-01  0.1803156E-01
    1       -3.354672   1.000000
    2       14.068550   0.000000
    3       15.475679   0.000000
    4       17.383312   0.000000
    5       20.124865   0.000000
    6       20.898897   0.000000
    7       23.143466   0.000000
    8       25.276551   0.000000
 
  0.2727273E+00  0.2727273E+00  0.9090909E-01  0.1803156E-01
    1        3.453821   1.000000
    2        5.853133   1.000000
    3        6.369441   1.000000
    4       11.107211   0.000000
    5       24.549159   0.000000
    6       26.023376   0.000000
    7       27.621997   0.000000
    8       29.552036   0.000000
 
 -0.2727273E+00  0.2727273E+00  0.9090909E-01  0.1803156E-01
    1       -2.155100   1.000000
    2       10.534367   0.000000
    3       14.228510   0.000000
    4       16.559510   0.000000
    5       19.724620   0.000000
    6       20.016725   0.000000
    7       23.011211   0.000000
    8       28.402848   0.000000
 
 -0.1818182E+00  0.2727273E+00  0.9090909E-01  0.1803156E-01
    1       -2.394247   1.000000
    2       12.389329   0.000000
    3       12.846475   0.000000
    4       16.900982   0.000000
    5       19.047002   0.000000
    6       20.511025   0.000000
    7       24.697263   0.000000
    8       25.723051   0.000000
 
 -0.3636364E+00  0.3636364E+00  0.9090909E-01  0.1803156E-01
    1       -0.489812   1.000000
    2        7.207797   1.000000
    3       13.385283   0.000000
    4       15.823649   0.000000
    5       18.884001   0.000000
    6       20.024505   0.000000
    7       23.619629   0.000000
    8       28.690866   0.000000
 
 -0.2727273E+00  0.3636364E+00  0.9090909E-01  0.3606311E-01
    1       -0.963094   1.000000
    2        9.195350   0.004185
    3       11.565943   0.000000
    4       16.442044   0.000000
    5       19.011061   0.000000
    6       20.049907   0.000000
    7       24.507399   0.000000
    8       27.555464   0.000000
 
 -0.4545455E+00  0.4545455E+00  0.9090909E-01  0.1803156E-01
    1        1.611113   1.000000
    2        4.257370   1.000000
    3       12.961233   0.000000
    4       15.426014   0.000000
    5       18.451649   0.000000
    6       19.920147   0.000000
    7       25.091099   0.000000
    8       27.059078   0.000000
 
 -0.3636364E+00  0.4545455E+00  0.9090909E-01  0.3606311E-01
    1        0.923530   1.000000
    2        6.069907   1.000000
    3       10.898931   0.000000
    4       15.956102   0.000000
    5       18.679915   0.000000
    6       20.903123   0.000000
    7       24.076724   0.000000
    8       26.687251   0.000000
 
 -0.2727273E+00  0.4545455E+00  0.9090909E-01  0.1803156E-01
    1        0.691100   1.000000
    2        8.077475   1.000000
    3        8.576350   1.000000
    4       16.672854   0.000000
    5       19.193846   0.000000
    6       19.530988   0.000000
    7       25.182447   0.000000
    8       27.411252   0.000000
 
 -0.4545455E+00 -0.4545455E+00  0.9090909E-01  0.1803156E-01
    1        2.968659   1.000000
    2        3.603016   1.000000
    3       10.677225   0.000000
    4       15.774159   0.000000
    5       18.502333   0.000000
    6       21.595280   0.000000
    7       23.976037   0.000000
    8       25.692518   0.000000
 
 -0.3636364E+00 -0.4545455E+00  0.9090909E-01  0.3606311E-01
    1        2.776054   1.000000
    2        5.386909   1.000000
    3        7.905239   1.000000
    4       16.557963   0.000000
    5       19.024617   0.000000
    6       20.762400   0.000000
    7       23.022756   0.000000
    8       28.139487   0.000000
 
 -0.3636364E+00 -0.3636364E+00  0.9090909E-01  0.6010518E-02
    1        4.581762   1.000000
    2        5.426608   1.000000
    3        5.426608   1.000000
    4       16.652311   0.000000
    5       20.243280   0.000000
    6       20.916883   0.000000
    7       20.916883   0.000000
    8       31.028539   0.000000
 
  0.1818182E+00  0.1818182E+00  0.1818182E+00  0.6010518E-02
    1        1.159620   1.000000
    2        8.262713   1.000000
    3        9.122140   0.285676
    4        9.122140   0.285676
    5       25.832428   0.000000
    6       25.832428   0.000000
    7       28.040648   0.000000
    8       28.040649   0.000000
 
  0.2727273E+00  0.1818182E+00  0.1818182E+00  0.1803156E-01
    1        3.234676   1.000000
    2        5.838847   1.000000
    3        8.171352   1.000000
    4        8.676104   1.000000
    5       26.435921   0.000000
    6       26.791335   0.000000
    7       29.225059   0.000000
    8       29.404857   0.000000
 
 -0.1818182E+00  0.1818182E+00  0.1818182E+00  0.4507889E-02
    1       -2.633749   1.000000
    2       13.872796   0.000000
    3       13.872796   0.000000
    4       15.346609   0.000000
    5       17.636373   0.000000
    6       23.248802   0.000000
    7       24.499908   0.000000
    8       24.499908   0.000000
 
  0.2727273E+00  0.2727273E+00  0.1818182E+00  0.6010518E-02
    1        4.979678   1.000000
    2        5.918384   1.000000
    3        5.918384   1.000000
    4        8.229843   1.000000
    5       27.477940   0.000000
    6       28.888862   0.000000
    7       28.888862   0.000000
    8       30.259737   0.000000
 
 -0.2727273E+00  0.2727273E+00  0.1818182E+00  0.1803156E-01
    1       -1.438343   1.000000
    2       11.083100   0.000000
    3       12.605504   0.000000
    4       14.764945   0.000000
    5       17.033788   0.000000
    6       22.617037   0.000000
    7       24.500650   0.000000
    8       27.193861   0.000000
 
 -0.3636364E+00  0.3636364E+00  0.1818182E+00  0.1803156E-01
    1        0.220944   1.000000
    2        7.858279   1.000000
    3       11.748639   0.000000
    4       14.118909   0.000000
    5       18.021513   0.000000
    6       21.825424   0.000000
    7       23.543777   0.000000
    8       26.235922   0.000000
 
 -0.2727273E+00  0.3636364E+00  0.1818182E+00  0.1803156E-01
    1       -0.014321   1.000000
    2        9.809002   0.000000
    3       10.196945   0.000000
    4       14.768296   0.000000
    5       16.288424   0.000000
    6       22.363707   0.000000
    7       24.565997   0.000000
    8       26.821767   0.000000
 
 -0.4545455E+00  0.4545455E+00  0.1818182E+00  0.1803156E-01
    1        2.314078   1.000000
    2        4.938545   1.000000
    3       11.318048   0.000000
    4       13.717786   0.000000
    5       19.423859   0.000000
    6       21.409483   0.000000
    7       22.225988   0.000000
    8       25.327042   0.000000
 
 -0.3636364E+00  0.4545455E+00  0.1818182E+00  0.3606311E-01
    1        1.861949   1.000000
    2        6.947672   1.000000
    3        9.363186   0.000000
    4       14.631025   0.000000
    5       17.261762   0.000000
    6       21.395497   0.000000
    7       22.606050   0.000000
    8       27.389552   0.000000
 
 -0.4545455E+00 -0.4545455E+00  0.1818182E+00  0.1803156E-01
    1        3.902433   1.000000
    2        4.505907   1.000000
    3        9.135412   0.173237
    4       14.474892   0.000000
    5       18.555194   0.000000
    6       20.049396   0.000000
    7       22.061603   0.000000
    8       27.368423   0.000000
 
 -0.3636364E+00 -0.4545455E+00  0.1818182E+00  0.1803156E-01
    1        3.920862   1.000000
    2        6.305351   1.000000
    3        6.752100   1.000000
    4       15.752767   0.000000
    5       17.401401   0.000000
    6       19.300522   0.000000
    7       22.003090   0.000000
    8       30.126648   0.000000
 
 -0.2727273E+00  0.2727273E+00  0.2727273E+00  0.4507889E-02
    1       -0.250223   1.000000
    2       11.326475   0.000000
    3       11.326475   0.000000
    4       12.945076   0.000000
    5       14.721456   0.000000
    6       24.198083   0.000000
    7       25.564748   0.000000
    8       26.620823   0.000000
 
 -0.3636364E+00  0.3636364E+00  0.2727273E+00  0.1803156E-01
    1        1.398036   1.000000
    2        8.876440   1.000000
    3       10.463038   0.000000
    4       12.643930   0.000000
    5       14.728253   0.000000
    6       21.413964   0.000000
    7       25.241965   0.000000
    8       27.398788   0.000000
 
 -0.4545455E+00  0.4545455E+00  0.2727273E+00  0.1803156E-01
    1        3.475347   1.000000
    2        6.055749   1.000000
    3       10.029273   0.000000
    4       12.337513   0.000000
    5       16.305693   0.000000
    6       18.854610   0.000000
    7       24.854467   0.000000
    8       27.510583   0.000000
 
 -0.3636364E+00  0.4545455E+00  0.2727273E+00  0.1803156E-01
    1        3.255110   1.000000
    2        8.041406   1.000000
    3        8.405461   1.000000
    4       13.114646   0.000000
    5       14.407776   0.000000
    6       18.585431   0.000000
    7       25.541682   0.000000
    8       29.558300   0.000000
 
 -0.4545455E+00 -0.4545455E+00  0.2727273E+00  0.1803156E-01
    1        5.273786   1.000000
    2        5.836927   1.000000
    3        8.027316   1.000000
    4       13.287357   0.000000
    5       15.634954   0.000000
    6       16.486888   0.000000
    7       25.423493   0.000000
    8       30.158121   0.000000
 
 -0.3636364E+00  0.3636364E+00  0.3636364E+00  0.4507889E-02
    1        3.027712   1.000000
    2        9.595794   0.000000
    3        9.595794   0.000000
    4       11.209497   0.000000
    5       12.767328   0.000000
    6       18.355542   0.000000
    7       28.686785   0.000000
    8       29.364459   0.000000
 
 -0.4545455E+00  0.4545455E+00  0.3636364E+00  0.1803156E-01
    1        5.073019   1.000000
    2        7.541959   1.000000
    3        9.160293   0.049964
    4       11.269713   0.000000
    5       13.309099   0.000000
    6       15.637210   0.000000
    7       28.616050   0.000000
    8       30.255124   0.000000
 
 -0.4545455E+00 -0.4545455E+00  0.3636364E+00  0.6010518E-02
    1        6.897081   1.000000
    2        7.504590   1.000000
    3        7.504590   1.000000
    4       11.873170   0.000000
    5       13.461037   0.000000
    6       13.461037   0.000000
    7       29.106442   0.000000
    8       32.399825   0.000000
 
 -0.4545455E+00  0.4545455E+00  0.4545455E+00  0.4507889E-02
    1        7.034951   1.000000
    2        8.724130   1.000000
    3        8.724130   1.000000
    4       10.170029   0.000000
    5       11.787046   0.000000
    6       12.964448   0.000000
    7       32.062581   0.000000
    8       32.221275   0.000000
