       N       E                     dE             d eps       ncg     rms          rms(c)
DAV:   1    -0.313858906977E+01   -0.31386E+01   -0.14154E+03   968   0.273E+02
DAV:   2    -0.487152444498E+01   -0.17329E+01   -0.16292E+01  1360   0.240E+01
DAV:   3    -0.488067746105E+01   -0.91530E-02   -0.91510E-02   976   0.176E+00
DAV:   4    -0.488068568809E+01   -0.82270E-05   -0.82263E-05  1424   0.549E-02
DAV:   5    -0.488068568983E+01   -0.17402E-08   -0.27271E-08  1016   0.609E-04    0.229E+00
DAV:   6    -0.487001198383E+01    0.10674E-01   -0.42086E-03   936   0.282E-01    0.126E+00
DAV:   7    -0.486415688858E+01    0.58551E-02   -0.82265E-03  1000   0.392E-01    0.127E-01
DAV:   8    -0.486414549278E+01    0.11396E-04   -0.40124E-05  1264   0.469E-02    0.137E-02
DAV:   9    -0.486414630220E+01   -0.80942E-06   -0.45424E-07  1104   0.389E-03
   1 F= -.48641463E+01 E0= -.48635951E+01  d E =-.486415E+01
