<?xml version="1.0" encoding="ISO-8859-1"?>
<modeling>
 <generator>
  <i name="program" type="string">vasp </i>
  <i name="version" type="string">6.2.0  </i>
  <i name="subversion" type="string">18Jan21 (build Aug 12 2022 13:00:08) complex                          parallel </i>
  <i name="platform" type="string">LinuxIFC </i>
  <i name="date" type="string">2024 11 05 </i>
  <i name="time" type="string">05:45:54 </i>
 </generator>
 <incar>
  <i type="int" name="ISTART">     0</i>
  <i type="string" name="PREC">Accurate      (Accurate strictly avoids</i>
  <i type="logical" name="ADDGRID"> T  </i>
  <i type="int" name="ISPIN">     1</i>
  <i type="int" name="NELM">    90</i>
  <i type="int" name="NELMIN">     6</i>
  <i type="int" name="IBRION">     2</i>
  <i name="EDIFF">      0.00000100</i>
  <i name="EDIFFG">     -0.00200000</i>
  <i type="int" name="NSW">   100</i>
  <i type="int" name="ISIF">     2</i>
  <i type="int" name="ISYM">     2</i>
  <i name="ENCUT">    350.00000000</i>
  <i type="logical" name="LREAL"> F  </i>
  <i type="int" name="ISMEAR">     0</i>
  <i name="SIGMA">      0.05000000</i>
  <i type="logical" name="LWAVE"> F  </i>
  <i type="logical" name="LCHARG"> F  </i>
  <i type="logical" name="LASPH"> T  </i>
 </incar>
 <primitive_cell>
  <structure name="primitive_cell" >
   <crystal>
    <varray name="basis" >
     <v>       1.57385866       1.57385866       1.57385866 </v>
     <v>       1.57385866      -1.57385866      -1.57385866 </v>
     <v>      -1.57385866       1.57385866      -1.57385866 </v>
    </varray>
    <i name="volume">     15.59398713 </i>
    <varray name="rec_basis" >
     <v>       0.31769054       0.31769054       0.00000000 </v>
     <v>       0.31769054       0.00000000      -0.31769054 </v>
     <v>       0.00000000       0.31769054      -0.31769054 </v>
    </varray>
   </crystal>
   <varray name="positions" >
    <v>       0.00000000       0.00000000       0.00000000 </v>
   </varray>
  </structure>
  <varray name="primitive_index" >
   <v type="int" >        1 </v>
  </varray>
 </primitive_cell>
 <kpoints>
  <generation param="Monkhorst-Pack">
   <v type="int" name="divisions">      11       11       11 </v>
   <v name="usershift">      0.00000000       0.00000000       0.00000000 </v>
   <v name="genvec1">      0.09090909       0.00000000       0.00000000 </v>
   <v name="genvec2">      0.00000000       0.09090909       0.00000000 </v>
   <v name="genvec3">      0.00000000       0.00000000       0.09090909 </v>
   <v name="shift">      0.00000000       0.00000000       0.00000000 </v>
  </generation>
  <varray name="kpointlist" >
   <v>       0.00000000       0.00000000       0.00000000 </v>
   <v>       0.09090909       0.00000000       0.00000000 </v>
   <v>       0.18181818       0.00000000       0.00000000 </v>
   <v>       0.27272727       0.00000000       0.00000000 </v>
   <v>       0.36363636       0.00000000       0.00000000 </v>
   <v>       0.45454545       0.00000000       0.00000000 </v>
   <v>       0.09090909       0.09090909       0.00000000 </v>
   <v>       0.18181818       0.09090909       0.00000000 </v>
   <v>       0.27272727       0.09090909       0.00000000 </v>
   <v>       0.36363636       0.09090909       0.00000000 </v>
   <v>       0.45454545       0.09090909      -0.00000000 </v>
   <v>       0.18181818       0.18181818       0.00000000 </v>
   <v>       0.27272727       0.18181818       0.00000000 </v>
   <v>       0.36363636       0.18181818      -0.00000000 </v>
   <v>       0.27272727       0.27272727       0.00000000 </v>
   <v>       0.36363636       0.27272727       0.00000000 </v>
   <v>       0.09090909       0.09090909       0.09090909 </v>
   <v>       0.18181818       0.09090909       0.09090909 </v>
   <v>       0.27272727       0.09090909       0.09090909 </v>
   <v>       0.36363636       0.09090909       0.09090909 </v>
   <v>      -0.09090909       0.09090909       0.09090909 </v>
   <v>       0.18181818       0.18181818       0.09090909 </v>
   <v>       0.27272727       0.18181818       0.09090909 </v>
   <v>       0.36363636       0.18181818       0.09090909 </v>
   <v>      -0.18181818       0.18181818       0.09090909 </v>
   <v>       0.27272727       0.27272727       0.09090909 </v>
   <v>      -0.27272727       0.27272727       0.09090909 </v>
   <v>      -0.18181818       0.27272727       0.09090909 </v>
   <v>      -0.36363636       0.36363636       0.09090909 </v>
   <v>      -0.27272727       0.36363636       0.09090909 </v>
   <v>      -0.45454545       0.45454545       0.09090909 </v>
   <v>      -0.36363636       0.45454545       0.09090909 </v>
   <v>      -0.27272727       0.45454545       0.09090909 </v>
   <v>      -0.45454545      -0.45454545       0.09090909 </v>
   <v>      -0.36363636      -0.45454545       0.09090909 </v>
   <v>      -0.36363636      -0.36363636       0.09090909 </v>
   <v>       0.18181818       0.18181818       0.18181818 </v>
   <v>       0.27272727       0.18181818       0.18181818 </v>
   <v>      -0.18181818       0.18181818       0.18181818 </v>
   <v>       0.27272727       0.27272727       0.18181818 </v>
   <v>      -0.27272727       0.27272727       0.18181818 </v>
   <v>      -0.36363636       0.36363636       0.18181818 </v>
   <v>      -0.27272727       0.36363636       0.18181818 </v>
   <v>      -0.45454545       0.45454545       0.18181818 </v>
   <v>      -0.36363636       0.45454545       0.18181818 </v>
   <v>      -0.45454545      -0.45454545       0.18181818 </v>
   <v>      -0.36363636      -0.45454545       0.18181818 </v>
   <v>      -0.27272727       0.27272727       0.27272727 </v>
   <v>      -0.36363636       0.36363636       0.27272727 </v>
   <v>      -0.45454545       0.45454545       0.27272727 </v>
   <v>      -0.36363636       0.45454545       0.27272727 </v>
   <v>      -0.45454545      -0.45454545       0.27272727 </v>
   <v>      -0.36363636       0.36363636       0.36363636 </v>
   <v>      -0.45454545       0.45454545       0.36363636 </v>
   <v>      -0.45454545      -0.45454545       0.36363636 </v>
   <v>      -0.45454545       0.45454545       0.45454545 </v>
  </varray>
  <varray name="weights" >
   <v>       0.00075131 </v>
   <v>       0.00901578 </v>
   <v>       0.00901578 </v>
   <v>       0.00901578 </v>
   <v>       0.00901578 </v>
   <v>       0.00901578 </v>
   <v>       0.01803156 </v>
   <v>       0.03606311 </v>
   <v>       0.03606311 </v>
   <v>       0.03606311 </v>
   <v>       0.01803156 </v>
   <v>       0.01803156 </v>
   <v>       0.03606311 </v>
   <v>       0.03606311 </v>
   <v>       0.01803156 </v>
   <v>       0.01803156 </v>
   <v>       0.00601052 </v>
   <v>       0.01803156 </v>
   <v>       0.01803156 </v>
   <v>       0.01803156 </v>
   <v>       0.00450789 </v>
   <v>       0.01803156 </v>
   <v>       0.03606311 </v>
   <v>       0.01803156 </v>
   <v>       0.01803156 </v>
   <v>       0.01803156 </v>
   <v>       0.01803156 </v>
   <v>       0.01803156 </v>
   <v>       0.01803156 </v>
   <v>       0.03606311 </v>
   <v>       0.01803156 </v>
   <v>       0.03606311 </v>
   <v>       0.01803156 </v>
   <v>       0.01803156 </v>
   <v>       0.03606311 </v>
   <v>       0.00601052 </v>
   <v>       0.00601052 </v>
   <v>       0.01803156 </v>
   <v>       0.00450789 </v>
   <v>       0.00601052 </v>
   <v>       0.01803156 </v>
   <v>       0.01803156 </v>
   <v>       0.01803156 </v>
   <v>       0.01803156 </v>
   <v>       0.03606311 </v>
   <v>       0.01803156 </v>
   <v>       0.01803156 </v>
   <v>       0.00450789 </v>
   <v>       0.01803156 </v>
   <v>       0.01803156 </v>
   <v>       0.01803156 </v>
   <v>       0.01803156 </v>
   <v>       0.00450789 </v>
   <v>       0.01803156 </v>
   <v>       0.00601052 </v>
   <v>       0.00450789 </v>
  </varray>
 </kpoints>
 <parameters>
  <separator name="general" >
   <i type="string" name="SYSTEM">unknown system</i>
   <i type="logical" name="LCOMPAT"> F  </i>
  </separator>
  <separator name="electronic" >
   <i type="string" name="PREC">accura</i>
   <i name="ENMAX">    350.00000000</i>
   <i name="ENAUG">    322.06900000</i>
   <i name="EDIFF">      0.00000100</i>
   <i type="int" name="IALGO">    38</i>
   <i type="int" name="IWAVPR">    11</i>
   <i type="int" name="NBANDS">     8</i>
   <i type="int" name="NBANDSLOW">    -1</i>
   <i type="int" name="NBANDSHIGH">    -1</i>
   <i name="NELECT">      4.00000000</i>
   <i type="int" name="TURBO">     0</i>
   <i type="int" name="IRESTART">     0</i>
   <i type="int" name="NREBOOT">     0</i>
   <i type="int" name="NMIN">     0</i>
   <i name="EREF">      0.00000000</i>
   <separator name="electronic smearing" >
    <i type="int" name="ISMEAR">     0</i>
    <i name="SIGMA">      0.05000000</i>
    <i name="KSPACING">      0.50000000</i>
    <i type="logical" name="KGAMMA"> T  </i>
    <i type="logical" name="KBLOWUP"> T  </i>
   </separator>
   <separator name="electronic projectors" >
    <i type="logical" name="LREAL"> F  </i>
    <v name="ROPT">      0.00000000</v>
    <i type="int" name="LMAXPAW">  -100</i>
    <i type="int" name="LMAXMIX">     2</i>
    <i type="logical" name="NLSPLINE"> F  </i>
   </separator>
   <separator name="electronic startup" >
    <i type="int" name="ISTART">     0</i>
    <i type="int" name="ICHARG">     2</i>
    <i type="int" name="INIWAV">     1</i>
   </separator>
   <separator name="electronic spin" >
    <i type="int" name="ISPIN">     1</i>
    <i type="logical" name="LNONCOLLINEAR"> F  </i>
    <v name="MAGMOM">      1.00000000</v>
    <i name="NUPDOWN">     -1.00000000</i>
    <i type="logical" name="LSORBIT"> F  </i>
    <v name="SAXIS">      0.00000000      0.00000000      1.00000000</v>
    <i type="logical" name="LSPIRAL"> F  </i>
    <v name="QSPIRAL">      0.00000000      0.00000000      0.00000000</v>
    <i type="logical" name="LZEROZ"> F  </i>
   </separator>
   <separator name="electronic exchange-correlation" >
    <i type="logical" name="LASPH"> T  </i>
    <i type="logical" name="LMETAGGA"> F  </i>
   </separator>
   <separator name="electronic convergence" >
    <i type="int" name="NELM">    90</i>
    <i type="int" name="NELMDL">    -5</i>
    <i type="int" name="NELMIN">     6</i>
    <i name="ENINI">    350.00000000</i>
    <separator name="electronic convergence detail" >
     <i type="logical" name="LDIAG"> T  </i>
     <i type="logical" name="LSUBROT"> F  </i>
     <i name="WEIMIN">      0.00100000</i>
     <i name="EBREAK">      0.00000003</i>
     <i name="DEPER">      0.30000000</i>
     <i type="int" name="NRMM">     4</i>
     <i name="TIME">      0.40000000</i>
    </separator>
   </separator>
   <separator name="electronic mixer" >
    <i name="AMIX">      0.40000000</i>
    <i name="BMIX">      1.00000000</i>
    <i name="AMIN">      0.10000000</i>
    <i name="AMIX_MAG">      1.60000000</i>
    <i name="BMIX_MAG">      1.00000000</i>
    <separator name="electronic mixer details" >
     <i type="int" name="IMIX">     4</i>
     <i type="logical" name="MIXFIRST"> F  </i>
     <i type="int" name="MAXMIX">   -45</i>
     <i name="WC">    100.00000000</i>
     <i type="int" name="INIMIX">     1</i>
     <i type="int" name="MIXPRE">     1</i>
     <i type="int" name="MREMOVE">     5</i>
    </separator>
   </separator>
   <separator name="electronic dipolcorrection" >
    <i type="logical" name="LDIPOL"> F  </i>
    <i type="logical" name="LMONO"> F  </i>
    <i type="int" name="IDIPOL">     0</i>
    <i name="EPSILON">      1.00000000</i>
    <v name="DIPOL">   -100.00000000   -100.00000000   -100.00000000</v>
    <i name="EFIELD">      0.00000000</i>
   </separator>
  </separator>
  <separator name="grids" >
   <i type="int" name="NGX">    18</i>
   <i type="int" name="NGY">    18</i>
   <i type="int" name="NGZ">    18</i>
   <i type="int" name="NGXF">    36</i>
   <i type="int" name="NGYF">    36</i>
   <i type="int" name="NGZF">    36</i>
   <i type="logical" name="ADDGRID"> T  </i>
  </separator>
  <separator name="ionic" >
   <i type="int" name="NSW">   100</i>
   <i type="int" name="IBRION">     2</i>
   <i type="int" name="MDALGO">     0</i>
   <i type="int" name="ISIF">     2</i>
   <i name="PSTRESS">      0.00000000</i>
   <i name="EDIFFG">     -0.00200000</i>
   <i type="int" name="NFREE">     1</i>
   <i name="POTIM">      0.50000000</i>
   <i name="SMASS">     -3.00000000</i>
   <i name="SCALEE">      1.00000000</i>
  </separator>
  <separator name="ionic md" >
   <i name="TEBEG">      0.00010000</i>
   <i name="TEEND">      0.00010000</i>
   <i type="int" name="NBLOCK">     1</i>
   <i type="int" name="KBLOCK">   100</i>
   <i type="int" name="NPACO">   256</i>
   <i name="APACO">     16.00000000</i>
  </separator>
  <separator name="symmetry" >
   <i type="int" name="ISYM">     2</i>
   <i name="SYMPREC">      0.00001000</i>
  </separator>
  <separator name="dos" >
   <i type="int" name="LORBIT">     0</i>
   <v name="RWIGS">     -1.00000000</v>
   <i type="int" name="NEDOS">   301</i>
   <i name="EMIN">     10.00000000</i>
   <i name="EMAX">    -10.00000000</i>
   <i name="EFERMI">      0.00000000</i>
  </separator>
  <separator name="writing" >
   <i type="int" name="NWRITE">     2</i>
   <i type="logical" name="LWAVE"> F  </i>
   <i type="logical" name="LDOWNSAMPLE"> F  </i>
   <i type="logical" name="LCHARG"> F  </i>
   <i type="logical" name="LPARD"> F  </i>
   <i type="logical" name="LVTOT"> F  </i>
   <i type="logical" name="LVHAR"> F  </i>
   <i type="logical" name="LELF"> F  </i>
   <i type="logical" name="LOPTICS"> F  </i>
   <v name="STM">      0.00000000      0.00000000      0.00000000      0.00000000      0.00000000      0.00000000      0.00000000</v>
  </separator>
  <separator name="performance" >
   <i type="int" name="NPAR">     4</i>
   <i type="int" name="NSIM">     4</i>
   <i type="int" name="NBLK">    -1</i>
   <i type="logical" name="LPLANE"> T  </i>
   <i type="logical" name="LSCALAPACK"> T  </i>
   <i type="logical" name="LSCAAWARE"> F  </i>
   <i type="logical" name="LSCALU"> F  </i>
   <i type="logical" name="LASYNC"> F  </i>
   <i type="logical" name="LORBITALREAL"> F  </i>
  </separator>
  <separator name="miscellaneous" >
   <i type="int" name="IDIOT">     3</i>
   <i type="int" name="PHON_NSTRUCT">    -1</i>
   <i type="logical" name="LMUSIC"> F  </i>
   <v name="POMASS">     28.08500000</v>
   <v name="DARWINR">      0.00000000</v>
   <v name="DARWINV">      1.00000000</v>
   <i type="logical" name="LCORR"> T  </i>
  </separator>
  <i type="logical" name="GGA_COMPAT"> T  </i>
  <i type="logical" name="LBERRY"> F  </i>
  <i type="int" name="ICORELEVEL">     0</i>
  <i type="logical" name="LDAU"> F  </i>
  <i type="int" name="I_CONSTRAINED_M">     0</i>
  <separator name="electronic exchange-correlation" >
   <i type="string" name="GGA">--</i>
   <i type="int" name="VOSKOWN">     0</i>
   <i type="logical" name="LHFCALC"> F  </i>
   <i type="string" name="PRECFOCK"></i>
   <i type="logical" name="LSYMGRAD"> F  </i>
   <i type="logical" name="LHFONE"> F  </i>
   <i type="logical" name="LRHFCALC"> F  </i>
   <i type="logical" name="LTHOMAS"> F  </i>
   <i type="logical" name="LMODELHF"> F  </i>
   <i type="logical" name="LFOCKACE"> F  </i>
   <i name="ENCUT4O">     -1.00000000</i>
   <i type="int" name="EXXOEP">     0</i>
   <i type="int" name="FOURORBIT">     0</i>
   <i name="AEXX">      0.00000000</i>
   <i name="HFALPHA">      0.00000000</i>
   <i name="MCALPHA">      0.00000000</i>
   <i name="ALDAX">      1.00000000</i>
   <i name="AGGAX">      1.00000000</i>
   <i name="ALDAC">      1.00000000</i>
   <i name="AGGAC">      1.00000000</i>
   <i type="int" name="NKREDX">     1</i>
   <i type="int" name="NKREDY">     1</i>
   <i type="int" name="NKREDZ">     1</i>
   <i type="logical" name="SHIFTRED"> F  </i>
   <i type="logical" name="ODDONLY"> F  </i>
   <i type="logical" name="EVENONLY"> F  </i>
   <i type="int" name="LMAXFOCK">     0</i>
   <i type="int" name="NMAXFOCKAE">     0</i>
   <i type="logical" name="LFOCKAEDFT"> F  </i>
   <i name="HFSCREEN">      0.00000000</i>
   <i name="HFSCREENC">      0.00000000</i>
   <i type="int" name="NBANDSGWLOW">     0</i>
  </separator>
  <separator name="vdW DFT" >
   <i type="logical" name="LUSE_VDW"> F  </i>
   <i name="Zab_VDW">     -0.84910000</i>
   <i name="PARAM1">      0.12340000</i>
   <i name="PARAM2">      1.00000000</i>
   <i name="PARAM3">      0.00000000</i>
  </separator>
  <separator name="model GW" >
   <i type="int" name="MODEL_GW">     0</i>
   <i name="MODEL_EPS0">      9.35639228</i>
   <i name="MODEL_ALPHA">      1.00000000</i>
  </separator>
  <separator name="linear response parameters" >
   <i type="logical" name="LEPSILON"> F  </i>
   <i type="logical" name="LRPA"> F  </i>
   <i type="logical" name="LNABLA"> F  </i>
   <i type="logical" name="LVEL"> F  </i>
   <i type="int" name="KINTER">     0</i>
   <i name="CSHIFT">      0.10000000</i>
   <i name="OMEGAMAX">     -1.00000000</i>
   <i name="DEG_THRESHOLD">      0.00200000</i>
   <i name="RTIME">     -0.10000000</i>
   <i name="WPLASMAI">      0.00000000</i>
   <v name="DFIELD">      0.00000000      0.00000000      0.00000000</v>
   <v name="WPLASMA">      0.00000000      0.00000000      0.00000000      0.00000000      0.00000000      0.00000000      0.00000000      0.00000000      0.00000000</v>
  </separator>
  <separator name="orbital magnetization" >
   <i type="logical" name="NUCIND"> F  </i>
   <v name="MAGPOS">      0.00000000      0.00000000      0.00000000</v>
   <i type="logical" name="LNICSALL"> T  </i>
   <i type="logical" name="ORBITALMAG"> F  </i>
   <i type="logical" name="LMAGBLOCH"> F  </i>
   <i type="logical" name="LCHIMAG"> F  </i>
   <i type="logical" name="LGAUGE"> T  </i>
   <i type="int" name="MAGATOM">     0</i>
   <v name="MAGDIPOL">      0.00000000      0.00000000      0.00000000</v>
   <v name="AVECCONST">      0.00000000      0.00000000      0.00000000</v>
  </separator>
  <separator name="response functions" >
   <i type="logical" name="LFINITE_TEMPERATURE"> F  </i>
   <i type="logical" name="LADDER"> F  </i>
   <i type="logical" name="LRPAFORCE"> F  </i>
   <i type="logical" name="LFXC"> F  </i>
   <i type="logical" name="LHARTREE"> T  </i>
   <i type="int" name="IBSE">     0</i>
   <v type="int" name="KPOINT">    -1     0     0     0</v>
   <i type="logical" name="LTCTC"> F  </i>
   <i type="logical" name="LTCTE"> F  </i>
   <i type="logical" name="LTETE"> F  </i>
   <i type="logical" name="LTRIPLET"> F  </i>
   <i type="logical" name="LFXCEPS"> F  </i>
   <i type="logical" name="LFXHEG"> F  </i>
   <i type="int" name="NATURALO">     2</i>
   <i type="logical" name="LHOLEGF"> F  </i>
   <i type="logical" name="L2ORDER"> F  </i>
   <i type="logical" name="LDMP1"> F  </i>
   <i type="logical" name="LMP2LT"> F  </i>
   <i type="logical" name="LSMP2LT"> F  </i>
   <i type="logical" name="LGWLF"> F  </i>
   <i name="ENCUTGW">     -2.00000000</i>
   <i name="ENCUTGWSOFT">     -2.00000000</i>
   <i name="ENCUTLF">     -1.00000000</i>
   <i type="logical" name="LESF_SPLINES"> F  </i>
   <i type="int" name="LMAXMP2">    -1</i>
   <i name="SCISSOR">      0.00000000</i>
   <i type="int" name="NOMEGA">     0</i>
   <i type="int" name="NOMEGAR">     0</i>
   <i type="int" name="NBANDSGW">    -1</i>
   <i type="int" name="NBANDSO">    -1</i>
   <i type="int" name="NBANDSV">    -1</i>
   <i type="int" name="NELM">    90</i>
   <i type="int" name="NELMHF">     1</i>
   <i type="int" name="DIM">     3</i>
   <i type="int" name="IESPILON">     4</i>
   <i type="int" name="ANTIRES">     0</i>
   <i name="OMEGAMAX">    -30.00000000</i>
   <i name="OMEGAMIN">    -30.00000000</i>
   <i name="OMEGATL">   -200.00000000</i>
   <i type="int" name="OMEGAGRID">     0</i>
   <i name="CSHIFT">     -0.10000000</i>
   <i type="logical" name="LSELFENERGY"> F  </i>
   <i type="logical" name="LSPECTRAL"> F  </i>
   <i type="logical" name="LSPECTRALGW"> F  </i>
   <i type="logical" name="LSINGLES"> F  </i>
   <i type="logical" name="LFERMIGW"> F  </i>
   <i type="logical" name="ODDONLYGW"> F  </i>
   <i type="logical" name="EVENONLYGW"> F  </i>
   <i type="int" name="NKREDLFX">     1</i>
   <i type="int" name="NKREDLFY">     1</i>
   <i type="int" name="NKREDLFZ">     1</i>
   <i type="int" name="MAXMEM">  2800</i>
   <i type="int" name="TELESCOPE">     0</i>
   <i type="int" name="NTAUPAR">    -1</i>
   <i type="int" name="NOMEGAPAR">    -1</i>
   <i name="DAMP_NEWTON">      0.80000001</i>
   <i name="LAMBDA">      1.00000000</i>
  </separator>
  <separator name="External order field" >
   <i name="OFIELD_KAPPA">      0.00000000</i>
   <v name="OFIELD_K">      0.00000000      0.00000000      0.00000000</v>
   <i name="OFIELD_Q6_NEAR">      0.00000000</i>
   <i name="OFIELD_Q6_FAR">      0.00000000</i>
   <i name="OFIELD_A">      0.00000000</i>
  </separator>
 </parameters>
 <atominfo>
  <atoms>       1 </atoms>
  <types>       1 </types>
  <array name="atoms" >
   <dimension dim="1">ion</dimension>
   <field type="string">element</field>
   <field type="int">atomtype</field>
   <set>
    <rc><c>Si</c><c>   1</c></rc>
   </set>
  </array>
  <array name="atomtypes" >
   <dimension dim="1">type</dimension>
   <field type="int">atomspertype</field>
   <field type="string">element</field>
   <field>mass</field>
   <field>valence</field>
   <field type="string">pseudopotential</field>
   <set>
    <rc><c>   1</c><c>Si</c><c>     28.08500000</c><c>      4.00000000</c><c>  PAW_PBE Si 05Jan2001                  </c></rc>
   </set>
  </array>
 </atominfo>
 <structure name="initialpos" >
  <crystal>
   <varray name="basis" >
    <v>       1.57385866       1.57385866       1.57385866 </v>
    <v>       1.57385866      -1.57385866      -1.57385866 </v>
    <v>      -1.57385866       1.57385866      -1.57385866 </v>
   </varray>
   <i name="volume">     15.59398713 </i>
   <varray name="rec_basis" >
    <v>       0.31769054       0.31769054       0.00000000 </v>
    <v>       0.31769054       0.00000000      -0.31769054 </v>
    <v>       0.00000000       0.31769054      -0.31769054 </v>
   </varray>
  </crystal>
  <varray name="positions" >
   <v>       0.00000000       0.00000000       0.00000000 </v>
  </varray>
 </structure>
 <calculation>
  <scstep>
   <time name="dav">    0.27    0.27</time>
   <time name="total">    0.45    0.46</time>
   <energy>
    <i name="alphaZ">      2.15872506 </i>
    <i name="ewald">   -133.18651441 </i>
    <i name="hartreedc">     -0.74603290 </i>
    <i name="XCdc">     -9.00179013 </i>
    <i name="pawpsdc">     88.12379961 </i>
    <i name="pawaedc">    -70.53051779 </i>
    <i name="eentropy">     -0.00168576 </i>
    <i name="bandstr">     16.97980018 </i>
    <i name="atom">    103.06562707 </i>
    <i name="e_fr_energy">     -3.13858907 </i>
    <i name="e_wo_entrp">     -3.13690331 </i>
    <i name="e_0_energy">     -3.13774619 </i>
   </energy>
  </scstep>
  <scstep>
   <time name="dav">    0.38    0.39</time>
   <time name="total">    0.38    0.39</time>
   <energy>
    <i name="e_fr_energy">     -4.87152444 </i>
    <i name="e_wo_entrp">     -4.87054090 </i>
    <i name="e_0_energy">     -4.87103267 </i>
   </energy>
  </scstep>
  <scstep>
   <time name="dav">    0.28    0.28</time>
   <time name="total">    0.28    0.29</time>
   <energy>
    <i name="e_fr_energy">     -4.88067746 </i>
    <i name="e_wo_entrp">     -4.87965573 </i>
    <i name="e_0_energy">     -4.88016660 </i>
   </energy>
  </scstep>
  <scstep>
   <time name="dav">    0.40    0.40</time>
   <time name="total">    0.40    0.41</time>
   <energy>
    <i name="e_fr_energy">     -4.88068569 </i>
    <i name="e_wo_entrp">     -4.87966394 </i>
    <i name="e_0_energy">     -4.88017481 </i>
   </energy>
  </scstep>
  <scstep>
   <time name="dav">    0.29    0.30</time>
   <time name="total">    0.31    0.33</time>
   <energy>
    <i name="e_fr_energy">     -4.88068569 </i>
    <i name="e_wo_entrp">     -4.87966394 </i>
    <i name="e_0_energy">     -4.88017481 </i>
   </energy>
  </scstep>
  <scstep>
   <time name="dav">    0.26    0.26</time>
   <time name="total">    0.47    0.48</time>
   <energy>
    <i name="e_fr_energy">     -4.87001198 </i>
    <i name="e_wo_entrp">     -4.86895782 </i>
    <i name="e_0_energy">     -4.86948490 </i>
   </energy>
  </scstep>
  <scstep>
   <time name="dav">    0.28    0.28</time>
   <time name="total">    0.49    0.50</time>
   <energy>
    <i name="e_fr_energy">     -4.86415689 </i>
    <i name="e_wo_entrp">     -4.86305736 </i>
    <i name="e_0_energy">     -4.86360712 </i>
   </energy>
  </scstep>
  <scstep>
   <time name="dav">    0.35    0.35</time>
   <time name="total">    0.56    0.58</time>
   <energy>
    <i name="e_fr_energy">     -4.86414549 </i>
    <i name="e_wo_entrp">     -4.86304365 </i>
    <i name="e_0_energy">     -4.86359457 </i>
   </energy>
  </scstep>
  <scstep>
   <time name="dav">    0.31    0.31</time>
   <time name="total">    0.49    0.50</time>
   <energy>
    <i name="alphaZ">      2.15872506 </i>
    <i name="ewald">   -133.18651441 </i>
    <i name="hartreedc">     -0.53783487 </i>
    <i name="XCdc">     -8.96416795 </i>
    <i name="pawpsdc">    256.76589590 </i>
    <i name="pawaedc">   -239.17384211 </i>
    <i name="eentropy">     -0.00110237 </i>
    <i name="bandstr">     15.00906737 </i>
    <i name="atom">    103.06562707 </i>
    <i name="e_fr_energy">     -4.86414630 </i>
    <i name="e_wo_entrp">     -4.86304393 </i>
    <i name="e_0_energy">     -4.86359512 </i>
   </energy>
  </scstep>
  <structure>
   <crystal>
    <varray name="basis" >
     <v>       1.57385866       1.57385866       1.57385866 </v>
     <v>       1.57385866      -1.57385866      -1.57385866 </v>
     <v>      -1.57385866       1.57385866      -1.57385866 </v>
    </varray>
    <i name="volume">     15.59398713 </i>
    <varray name="rec_basis" >
     <v>       0.31769054       0.31769054       0.00000000 </v>
     <v>       0.31769054       0.00000000      -0.31769054 </v>
     <v>       0.00000000       0.31769054      -0.31769054 </v>
    </varray>
   </crystal>
   <varray name="positions" >
    <v>       0.00000000       0.00000000       0.00000000 </v>
   </varray>
  </structure>
  <varray name="forces" >
   <v>       0.00000000       0.00000000       0.00000000 </v>
  </varray>
  <varray name="stress" >
   <v>     -55.80643411       0.00000000       0.00000000 </v>
   <v>       0.00000000     -55.80643411      -0.00000000 </v>
   <v>      -0.00000000       0.00000000     -55.80643411 </v>
  </varray>
  <energy>
   <i name="e_fr_energy">     -4.86414630 </i>
   <i name="e_wo_entrp">     -4.86304393 </i>
   <i name="e_0_energy">     -4.86359512 </i>
  </energy>
  <time name="totalsc">    4.55    4.71</time>
  <eigenvalues>
   <array>
    <dimension dim="1">band</dimension>
    <dimension dim="2">kpoint</dimension>
    <dimension dim="3">spin</dimension>
    <field>eigene</field>
    <field>occ</field>
    <set>
     <set comment="spin 1">
      <set comment="kpoint 1">
       <r>   -4.5618    1.0000 </r>
       <r>   19.6693    0.0000 </r>
       <r>   19.6693    0.0000 </r>
       <r>   19.6693    0.0000 </r>
       <r>   21.3632    0.0000 </r>
       <r>   21.3632    0.0000 </r>
       <r>   21.3632    0.0000 </r>
       <r>   24.9132    0.0000 </r>
      </set>
      <set comment="kpoint 2">
       <r>   -4.3198    1.0000 </r>
       <r>   17.4850    0.0000 </r>
       <r>   18.2856    0.0000 </r>
       <r>   19.3778    0.0000 </r>
       <r>   20.6338    0.0000 </r>
       <r>   21.9930    0.0000 </r>
       <r>   23.1541    0.0000 </r>
       <r>   23.8153    0.0000 </r>
      </set>
      <set comment="kpoint 3">
       <r>   -3.5956    1.0000 </r>
       <r>   13.9452    0.0000 </r>
       <r>   16.6963    0.0000 </r>
       <r>   18.6450    0.0000 </r>
       <r>   19.2764    0.0000 </r>
       <r>   21.0063    0.0000 </r>
       <r>   24.4623    0.0000 </r>
       <r>   24.7836    0.0000 </r>
      </set>
      <set comment="kpoint 4">
       <r>   -2.3947    1.0000 </r>
       <r>   10.3350    0.0000 </r>
       <r>   15.4752    0.0000 </r>
       <r>   17.8156    0.0000 </r>
       <r>   18.0471    0.0000 </r>
       <r>   19.8399    0.0000 </r>
       <r>   25.5240    0.0000 </r>
       <r>   25.8159    0.0000 </r>
      </set>
      <set comment="kpoint 5">
       <r>   -0.7274    1.0000 </r>
       <r>    6.9873    1.0000 </r>
       <r>   14.6565    0.0000 </r>
       <r>   17.1622    0.0000 </r>
       <r>   17.1713    0.0000 </r>
       <r>   19.0136    0.0000 </r>
       <r>   26.7791    0.0000 </r>
       <r>   27.3999    0.0000 </r>
      </set>
      <set comment="kpoint 6">
       <r>    1.3758    1.0000 </r>
       <r>    4.0290    1.0000 </r>
       <r>   14.2468    0.0000 </r>
       <r>   16.7255    0.0000 </r>
       <r>   16.8129    0.0000 </r>
       <r>   18.5888    0.0000 </r>
       <r>   28.2902    0.0000 </r>
       <r>   28.8709    0.0000 </r>
      </set>
      <set comment="kpoint 7">
       <r>   -3.8367    1.0000 </r>
       <r>   15.5493    0.0000 </r>
       <r>   16.2326    0.0000 </r>
       <r>   18.0453    0.0000 </r>
       <r>   20.7484    0.0000 </r>
       <r>   22.0957    0.0000 </r>
       <r>   23.3075    0.0000 </r>
       <r>   24.4298    0.0000 </r>
      </set>
      <set comment="kpoint 8">
       <r>   -2.8741    1.0000 </r>
       <r>   12.2508    0.0000 </r>
       <r>   14.5042    0.0000 </r>
       <r>   16.8535    0.0000 </r>
       <r>   20.0978    0.0000 </r>
       <r>   21.5423    0.0000 </r>
       <r>   23.8492    0.0000 </r>
       <r>   26.1926    0.0000 </r>
      </set>
      <set comment="kpoint 9">
       <r>   -1.4395    1.0000 </r>
       <r>    8.7811    1.0000 </r>
       <r>   13.4228    0.0000 </r>
       <r>   15.8978    0.0000 </r>
       <r>   19.2491    0.0000 </r>
       <r>   21.0336    0.0000 </r>
       <r>   24.6960    0.0000 </r>
       <r>   27.9647    0.0000 </r>
      </set>
      <set comment="kpoint 10">
       <r>    0.4518    1.0000 </r>
       <r>    5.6220    1.0000 </r>
       <r>   12.7757    0.0000 </r>
       <r>   15.2944    0.0000 </r>
       <r>   18.6647    0.0000 </r>
       <r>   20.6224    0.0000 </r>
       <r>   26.1331    0.0000 </r>
       <r>   28.9866    0.0000 </r>
      </set>
      <set comment="kpoint 11">
       <r>    2.4974    1.0000 </r>
       <r>    3.1487    1.0000 </r>
       <r>   12.5599    0.0000 </r>
       <r>   15.0897    0.0000 </r>
       <r>   18.4631    0.0000 </r>
       <r>   20.4690    0.0000 </r>
       <r>   27.8240    0.0000 </r>
       <r>   27.9827    0.0000 </r>
      </set>
      <set comment="kpoint 12">
       <r>   -1.6776    1.0000 </r>
       <r>   10.6980    0.0000 </r>
       <r>   11.2895    0.0000 </r>
       <r>   15.6985    0.0000 </r>
       <r>   20.5861    0.0000 </r>
       <r>   21.6681    0.0000 </r>
       <r>   25.3028    0.0000 </r>
       <r>   26.4933    0.0000 </r>
      </set>
      <set comment="kpoint 13">
       <r>   -0.0166    1.0000 </r>
       <r>    7.6447    1.0000 </r>
       <r>   10.1429    0.0000 </r>
       <r>   14.9035    0.0000 </r>
       <r>   20.3085    0.0000 </r>
       <r>   22.3442    0.0000 </r>
       <r>   25.5631    0.0000 </r>
       <r>   28.1521    0.0000 </r>
      </set>
      <set comment="kpoint 14">
       <r>    2.0785    1.0000 </r>
       <r>    4.7153    1.0000 </r>
       <r>    9.6840    0.0000 </r>
       <r>   14.4950    0.0000 </r>
       <r>   19.9806    0.0000 </r>
       <r>   23.1147    0.0000 </r>
       <r>   25.9656    0.0000 </r>
       <r>   27.6392    0.0000 </r>
      </set>
      <set comment="kpoint 15">
       <r>    1.8574    1.0000 </r>
       <r>    6.7354    1.0000 </r>
       <r>    7.2641    1.0000 </r>
       <r>   14.3030    0.0000 </r>
       <r>   21.4257    0.0000 </r>
       <r>   22.5588    0.0000 </r>
       <r>   26.2322    0.0000 </r>
       <r>   28.3665    0.0000 </r>
      </set>
      <set comment="kpoint 16">
       <r>    3.8717    1.0000 </r>
       <r>    4.5262    1.0000 </r>
       <r>    6.8110    1.0000 </r>
       <r>   14.0996    0.0000 </r>
       <r>   21.6035    0.0000 </r>
       <r>   23.6470    0.0000 </r>
       <r>   24.7479    0.0000 </r>
       <r>   29.1909    0.0000 </r>
      </set>
      <set comment="kpoint 17">
       <r>   -3.1143    1.0000 </r>
       <r>   13.7063    0.0000 </r>
       <r>   14.8272    0.0000 </r>
       <r>   14.8272    0.0000 </r>
       <r>   22.4606    0.0000 </r>
       <r>   22.4606    0.0000 </r>
       <r>   24.7431    0.0000 </r>
       <r>   24.7431    0.0000 </r>
      </set>
      <set comment="kpoint 18">
       <r>   -1.9164    1.0000 </r>
       <r>   10.7272    0.0000 </r>
       <r>   12.9025    0.0000 </r>
       <r>   13.6072    0.0000 </r>
       <r>   22.3309    0.0000 </r>
       <r>   22.7730    0.0000 </r>
       <r>   25.7779    0.0000 </r>
       <r>   25.9594    0.0000 </r>
      </set>
      <set comment="kpoint 19">
       <r>   -0.2533    1.0000 </r>
       <r>    7.4327    1.0000 </r>
       <r>   11.9843    0.0000 </r>
       <r>   12.7538    0.0000 </r>
       <r>   21.9973    0.0000 </r>
       <r>   22.2491    0.0000 </r>
       <r>   27.2064    0.0000 </r>
       <r>   27.5602    0.0000 </r>
      </set>
      <set comment="kpoint 20">
       <r>    1.8447    1.0000 </r>
       <r>    4.4888    1.0000 </r>
       <r>   11.5396    0.0000 </r>
       <r>   12.3196    0.0000 </r>
       <r>   21.7585    0.0000 </r>
       <r>   21.9185    0.0000 </r>
       <r>   28.5968    0.0000 </r>
       <r>   29.0906    0.0000 </r>
      </set>
      <set comment="kpoint 21">
       <r>   -4.0781    1.0000 </r>
       <r>   17.0586    0.0000 </r>
       <r>   17.0586    0.0000 </r>
       <r>   18.0505    0.0000 </r>
       <r>   21.4357    0.0000 </r>
       <r>   21.8391    0.0000 </r>
       <r>   22.8633    0.0000 </r>
       <r>   22.8633    0.0000 </r>
      </set>
      <set comment="kpoint 22">
       <r>   -0.4893    1.0000 </r>
       <r>    9.3637    0.0000 </r>
       <r>   10.0043    0.0000 </r>
       <r>   12.2279    0.0000 </r>
       <r>   23.3063    0.0000 </r>
       <r>   24.2637    0.0000 </r>
       <r>   26.4212    0.0000 </r>
       <r>   27.3012    0.0000 </r>
      </set>
      <set comment="kpoint 23">
       <r>    1.3917    1.0000 </r>
       <r>    6.5162    1.0000 </r>
       <r>    9.0486    0.9348 </r>
       <r>   11.5600    0.0000 </r>
       <r>   23.4475    0.0000 </r>
       <r>   24.7988    0.0000 </r>
       <r>   27.4672    0.0000 </r>
       <r>   28.8293    0.0000 </r>
      </set>
      <set comment="kpoint 24">
       <r>    3.4231    1.0000 </r>
       <r>    4.0728    1.0000 </r>
       <r>    8.8113    1.0000 </r>
       <r>   11.3390    0.0000 </r>
       <r>   23.3863    0.0000 </r>
       <r>   24.9783    0.0000 </r>
       <r>   28.3580    0.0000 </r>
       <r>   28.9815    0.0000 </r>
      </set>
      <set comment="kpoint 25">
       <r>   -3.3547    1.0000 </r>
       <r>   14.0685    0.0000 </r>
       <r>   15.4757    0.0000 </r>
       <r>   17.3833    0.0000 </r>
       <r>   20.1249    0.0000 </r>
       <r>   20.8989    0.0000 </r>
       <r>   23.1435    0.0000 </r>
       <r>   25.2766    0.0000 </r>
      </set>
      <set comment="kpoint 26">
       <r>    3.4538    1.0000 </r>
       <r>    5.8531    1.0000 </r>
       <r>    6.3694    1.0000 </r>
       <r>   11.1072    0.0000 </r>
       <r>   24.5492    0.0000 </r>
       <r>   26.0234    0.0000 </r>
       <r>   27.6220    0.0000 </r>
       <r>   29.5520    0.0000 </r>
      </set>
      <set comment="kpoint 27">
       <r>   -2.1551    1.0000 </r>
       <r>   10.5344    0.0000 </r>
       <r>   14.2285    0.0000 </r>
       <r>   16.5595    0.0000 </r>
       <r>   19.7246    0.0000 </r>
       <r>   20.0167    0.0000 </r>
       <r>   23.0112    0.0000 </r>
       <r>   28.4028    0.0000 </r>
      </set>
      <set comment="kpoint 28">
       <r>   -2.3942    1.0000 </r>
       <r>   12.3893    0.0000 </r>
       <r>   12.8465    0.0000 </r>
       <r>   16.9010    0.0000 </r>
       <r>   19.0470    0.0000 </r>
       <r>   20.5110    0.0000 </r>
       <r>   24.6973    0.0000 </r>
       <r>   25.7231    0.0000 </r>
      </set>
      <set comment="kpoint 29">
       <r>   -0.4898    1.0000 </r>
       <r>    7.2078    1.0000 </r>
       <r>   13.3853    0.0000 </r>
       <r>   15.8236    0.0000 </r>
       <r>   18.8840    0.0000 </r>
       <r>   20.0245    0.0000 </r>
       <r>   23.6196    0.0000 </r>
       <r>   28.6909    0.0000 </r>
      </set>
      <set comment="kpoint 30">
       <r>   -0.9631    1.0000 </r>
       <r>    9.1953    0.0042 </r>
       <r>   11.5659    0.0000 </r>
       <r>   16.4420    0.0000 </r>
       <r>   19.0111    0.0000 </r>
       <r>   20.0499    0.0000 </r>
       <r>   24.5074    0.0000 </r>
       <r>   27.5555    0.0000 </r>
      </set>
      <set comment="kpoint 31">
       <r>    1.6111    1.0000 </r>
       <r>    4.2574    1.0000 </r>
       <r>   12.9612    0.0000 </r>
       <r>   15.4260    0.0000 </r>
       <r>   18.4516    0.0000 </r>
       <r>   19.9201    0.0000 </r>
       <r>   25.0911    0.0000 </r>
       <r>   27.0591    0.0000 </r>
      </set>
      <set comment="kpoint 32">
       <r>    0.9235    1.0000 </r>
       <r>    6.0699    1.0000 </r>
       <r>   10.8989    0.0000 </r>
       <r>   15.9561    0.0000 </r>
       <r>   18.6799    0.0000 </r>
       <r>   20.9031    0.0000 </r>
       <r>   24.0767    0.0000 </r>
       <r>   26.6873    0.0000 </r>
      </set>
      <set comment="kpoint 33">
       <r>    0.6911    1.0000 </r>
       <r>    8.0775    1.0000 </r>
       <r>    8.5764    1.0000 </r>
       <r>   16.6729    0.0000 </r>
       <r>   19.1938    0.0000 </r>
       <r>   19.5310    0.0000 </r>
       <r>   25.1824    0.0000 </r>
       <r>   27.4113    0.0000 </r>
      </set>
      <set comment="kpoint 34">
       <r>    2.9687    1.0000 </r>
       <r>    3.6030    1.0000 </r>
       <r>   10.6772    0.0000 </r>
       <r>   15.7742    0.0000 </r>
       <r>   18.5023    0.0000 </r>
       <r>   21.5953    0.0000 </r>
       <r>   23.9760    0.0000 </r>
       <r>   25.6925    0.0000 </r>
      </set>
      <set comment="kpoint 35">
       <r>    2.7761    1.0000 </r>
       <r>    5.3869    1.0000 </r>
       <r>    7.9052    1.0000 </r>
       <r>   16.5580    0.0000 </r>
       <r>   19.0246    0.0000 </r>
       <r>   20.7624    0.0000 </r>
       <r>   23.0228    0.0000 </r>
       <r>   28.1395    0.0000 </r>
      </set>
      <set comment="kpoint 36">
       <r>    4.5818    1.0000 </r>
       <r>    5.4266    1.0000 </r>
       <r>    5.4266    1.0000 </r>
       <r>   16.6523    0.0000 </r>
       <r>   20.2433    0.0000 </r>
       <r>   20.9169    0.0000 </r>
       <r>   20.9169    0.0000 </r>
       <r>   31.0285    0.0000 </r>
      </set>
      <set comment="kpoint 37">
       <r>    1.1596    1.0000 </r>
       <r>    8.2627    1.0000 </r>
       <r>    9.1221    0.2857 </r>
       <r>    9.1221    0.2857 </r>
       <r>   25.8324    0.0000 </r>
       <r>   25.8324    0.0000 </r>
       <r>   28.0406    0.0000 </r>
       <r>   28.0406    0.0000 </r>
      </set>
      <set comment="kpoint 38">
       <r>    3.2347    1.0000 </r>
       <r>    5.8388    1.0000 </r>
       <r>    8.1714    1.0000 </r>
       <r>    8.6761    1.0000 </r>
       <r>   26.4359    0.0000 </r>
       <r>   26.7913    0.0000 </r>
       <r>   29.2251    0.0000 </r>
       <r>   29.4049    0.0000 </r>
      </set>
      <set comment="kpoint 39">
       <r>   -2.6337    1.0000 </r>
       <r>   13.8728    0.0000 </r>
       <r>   13.8728    0.0000 </r>
       <r>   15.3466    0.0000 </r>
       <r>   17.6364    0.0000 </r>
       <r>   23.2488    0.0000 </r>
       <r>   24.4999    0.0000 </r>
       <r>   24.4999    0.0000 </r>
      </set>
      <set comment="kpoint 40">
       <r>    4.9797    1.0000 </r>
       <r>    5.9184    1.0000 </r>
       <r>    5.9184    1.0000 </r>
       <r>    8.2298    1.0000 </r>
       <r>   27.4779    0.0000 </r>
       <r>   28.8889    0.0000 </r>
       <r>   28.8889    0.0000 </r>
       <r>   30.2597    0.0000 </r>
      </set>
      <set comment="kpoint 41">
       <r>   -1.4383    1.0000 </r>
       <r>   11.0831    0.0000 </r>
       <r>   12.6055    0.0000 </r>
       <r>   14.7649    0.0000 </r>
       <r>   17.0338    0.0000 </r>
       <r>   22.6170    0.0000 </r>
       <r>   24.5006    0.0000 </r>
       <r>   27.1939    0.0000 </r>
      </set>
      <set comment="kpoint 42">
       <r>    0.2209    1.0000 </r>
       <r>    7.8583    1.0000 </r>
       <r>   11.7486    0.0000 </r>
       <r>   14.1189    0.0000 </r>
       <r>   18.0215    0.0000 </r>
       <r>   21.8254    0.0000 </r>
       <r>   23.5438    0.0000 </r>
       <r>   26.2359    0.0000 </r>
      </set>
      <set comment="kpoint 43">
       <r>   -0.0143    1.0000 </r>
       <r>    9.8090    0.0000 </r>
       <r>   10.1969    0.0000 </r>
       <r>   14.7683    0.0000 </r>
       <r>   16.2884    0.0000 </r>
       <r>   22.3637    0.0000 </r>
       <r>   24.5660    0.0000 </r>
       <r>   26.8218    0.0000 </r>
      </set>
      <set comment="kpoint 44">
       <r>    2.3141    1.0000 </r>
       <r>    4.9385    1.0000 </r>
       <r>   11.3180    0.0000 </r>
       <r>   13.7178    0.0000 </r>
       <r>   19.4239    0.0000 </r>
       <r>   21.4095    0.0000 </r>
       <r>   22.2260    0.0000 </r>
       <r>   25.3270    0.0000 </r>
      </set>
      <set comment="kpoint 45">
       <r>    1.8619    1.0000 </r>
       <r>    6.9477    1.0000 </r>
       <r>    9.3632    0.0000 </r>
       <r>   14.6310    0.0000 </r>
       <r>   17.2618    0.0000 </r>
       <r>   21.3955    0.0000 </r>
       <r>   22.6060    0.0000 </r>
       <r>   27.3896    0.0000 </r>
      </set>
      <set comment="kpoint 46">
       <r>    3.9024    1.0000 </r>
       <r>    4.5059    1.0000 </r>
       <r>    9.1354    0.1732 </r>
       <r>   14.4749    0.0000 </r>
       <r>   18.5552    0.0000 </r>
       <r>   20.0494    0.0000 </r>
       <r>   22.0616    0.0000 </r>
       <r>   27.3684    0.0000 </r>
      </set>
      <set comment="kpoint 47">
       <r>    3.9209    1.0000 </r>
       <r>    6.3054    1.0000 </r>
       <r>    6.7521    1.0000 </r>
       <r>   15.7528    0.0000 </r>
       <r>   17.4014    0.0000 </r>
       <r>   19.3005    0.0000 </r>
       <r>   22.0031    0.0000 </r>
       <r>   30.1266    0.0000 </r>
      </set>
      <set comment="kpoint 48">
       <r>   -0.2502    1.0000 </r>
       <r>   11.3265    0.0000 </r>
       <r>   11.3265    0.0000 </r>
       <r>   12.9451    0.0000 </r>
       <r>   14.7215    0.0000 </r>
       <r>   24.1981    0.0000 </r>
       <r>   25.5647    0.0000 </r>
       <r>   26.6208    0.0000 </r>
      </set>
      <set comment="kpoint 49">
       <r>    1.3980    1.0000 </r>
       <r>    8.8764    1.0000 </r>
       <r>   10.4630    0.0000 </r>
       <r>   12.6439    0.0000 </r>
       <r>   14.7283    0.0000 </r>
       <r>   21.4140    0.0000 </r>
       <r>   25.2420    0.0000 </r>
       <r>   27.3988    0.0000 </r>
      </set>
      <set comment="kpoint 50">
       <r>    3.4753    1.0000 </r>
       <r>    6.0557    1.0000 </r>
       <r>   10.0293    0.0000 </r>
       <r>   12.3375    0.0000 </r>
       <r>   16.3057    0.0000 </r>
       <r>   18.8546    0.0000 </r>
       <r>   24.8545    0.0000 </r>
       <r>   27.5106    0.0000 </r>
      </set>
      <set comment="kpoint 51">
       <r>    3.2551    1.0000 </r>
       <r>    8.0414    1.0000 </r>
       <r>    8.4055    1.0000 </r>
       <r>   13.1146    0.0000 </r>
       <r>   14.4078    0.0000 </r>
       <r>   18.5854    0.0000 </r>
       <r>   25.5417    0.0000 </r>
       <r>   29.5583    0.0000 </r>
      </set>
      <set comment="kpoint 52">
       <r>    5.2738    1.0000 </r>
       <r>    5.8369    1.0000 </r>
       <r>    8.0273    1.0000 </r>
       <r>   13.2874    0.0000 </r>
       <r>   15.6350    0.0000 </r>
       <r>   16.4869    0.0000 </r>
       <r>   25.4235    0.0000 </r>
       <r>   30.1581    0.0000 </r>
      </set>
      <set comment="kpoint 53">
       <r>    3.0277    1.0000 </r>
       <r>    9.5958    0.0000 </r>
       <r>    9.5958    0.0000 </r>
       <r>   11.2095    0.0000 </r>
       <r>   12.7673    0.0000 </r>
       <r>   18.3555    0.0000 </r>
       <r>   28.6868    0.0000 </r>
       <r>   29.3645    0.0000 </r>
      </set>
      <set comment="kpoint 54">
       <r>    5.0730    1.0000 </r>
       <r>    7.5420    1.0000 </r>
       <r>    9.1603    0.0500 </r>
       <r>   11.2697    0.0000 </r>
       <r>   13.3091    0.0000 </r>
       <r>   15.6372    0.0000 </r>
       <r>   28.6160    0.0000 </r>
       <r>   30.2551    0.0000 </r>
      </set>
      <set comment="kpoint 55">
       <r>    6.8971    1.0000 </r>
       <r>    7.5046    1.0000 </r>
       <r>    7.5046    1.0000 </r>
       <r>   11.8732    0.0000 </r>
       <r>   13.4610    0.0000 </r>
       <r>   13.4610    0.0000 </r>
       <r>   29.1064    0.0000 </r>
       <r>   32.3998    0.0000 </r>
      </set>
      <set comment="kpoint 56">
       <r>    7.0350    1.0000 </r>
       <r>    8.7241    1.0000 </r>
       <r>    8.7241    1.0000 </r>
       <r>   10.1700    0.0000 </r>
       <r>   11.7870    0.0000 </r>
       <r>   12.9644    0.0000 </r>
       <r>   32.0626    0.0000 </r>
       <r>   32.2213    0.0000 </r>
      </set>
     </set>
    </set>
   </array>
  </eigenvalues>
  <separator name="orbital magnetization" >
   <v name="MAGDIPOLOUT">      0.00000000      0.00000000      0.00000000</v>
  </separator>
  <dos>
   <i name="efermi">      9.10212647 </i>
   <total>
    <array>
     <dimension dim="1">gridpoints</dimension>
     <dimension dim="2">spin</dimension>
     <field>energy</field>
     <field>total</field>
     <field>integrated</field>
     <set>
      <set comment="spin 1">
       <r>    -6.4098     0.0000     0.0000 </r>
       <r>    -6.2743     0.0000     0.0000 </r>
       <r>    -6.1388     0.0000     0.0000 </r>
       <r>    -6.0033     0.0000     0.0000 </r>
       <r>    -5.8677     0.0000     0.0000 </r>
       <r>    -5.7322     0.0000     0.0000 </r>
       <r>    -5.5967     0.0000     0.0000 </r>
       <r>    -5.4612     0.0000     0.0000 </r>
       <r>    -5.3256     0.0000     0.0000 </r>
       <r>    -5.1901     0.0000     0.0000 </r>
       <r>    -5.0546     0.0000     0.0000 </r>
       <r>    -4.9191     0.0000     0.0000 </r>
       <r>    -4.7835     0.0000     0.0000 </r>
       <r>    -4.6480     0.0001     0.0000 </r>
       <r>    -4.5125     0.0101     0.0014 </r>
       <r>    -4.3769     0.0080     0.0025 </r>
       <r>    -4.2414     0.1242     0.0193 </r>
       <r>    -4.1059     0.0161     0.0215 </r>
       <r>    -3.9704     0.0521     0.0285 </r>
       <r>    -3.8348     0.1386     0.0473 </r>
       <r>    -3.6993     0.1277     0.0646 </r>
       <r>    -3.5638     0.1083     0.0793 </r>
       <r>    -3.4283     0.0295     0.0833 </r>
       <r>    -3.2927     0.2505     0.1173 </r>
       <r>    -3.1572     0.0206     0.1201 </r>
       <r>    -3.0217     0.0783     0.1307 </r>
       <r>    -2.8862     0.1953     0.1571 </r>
       <r>    -2.7506     0.3372     0.2028 </r>
       <r>    -2.6151     0.0467     0.2092 </r>
       <r>    -2.4796     0.0231     0.2123 </r>
       <r>    -2.3441     0.3651     0.2618 </r>
       <r>    -2.2085     0.0483     0.2683 </r>
       <r>    -2.0730     0.2460     0.3017 </r>
       <r>    -1.9375     0.0759     0.3120 </r>
       <r>    -1.8020     0.1928     0.3381 </r>
       <r>    -1.6664     0.1661     0.3606 </r>
       <r>    -1.5309     0.1039     0.3747 </r>
       <r>    -1.3954     0.7083     0.4707 </r>
       <r>    -1.2599     0.0862     0.4823 </r>
       <r>    -1.1243     0.0000     0.4823 </r>
       <r>    -0.9888     0.1243     0.4992 </r>
       <r>    -0.8533     0.4074     0.5544 </r>
       <r>    -0.7178     0.0813     0.5654 </r>
       <r>    -0.5822     0.0545     0.5728 </r>
       <r>    -0.4467     0.4698     0.6365 </r>
       <r>    -0.3112     0.0764     0.6468 </r>
       <r>    -0.1756     0.3114     0.6890 </r>
       <r>    -0.0401     0.2014     0.7163 </r>
       <r>     0.0954     0.6012     0.7978 </r>
       <r>     0.2309     0.1632     0.8199 </r>
       <r>     0.3665     0.1077     0.8345 </r>
       <r>     0.5020     0.4866     0.9005 </r>
       <r>     0.6375     0.0586     0.9084 </r>
       <r>     0.7730     0.2461     0.9418 </r>
       <r>     0.9086     0.1815     0.9664 </r>
       <r>     1.0441     0.3533     1.0143 </r>
       <r>     1.1796     0.0635     1.0229 </r>
       <r>     1.3151     0.0417     1.0285 </r>
       <r>     1.4507     0.8691     1.1463 </r>
       <r>     1.5862     0.1098     1.1612 </r>
       <r>     1.7217     0.2020     1.1886 </r>
       <r>     1.8572     0.5404     1.2618 </r>
       <r>     1.9928     0.5281     1.3334 </r>
       <r>     2.1283     0.4859     1.3992 </r>
       <r>     2.2638     0.0629     1.4078 </r>
       <r>     2.3993     0.2441     1.4408 </r>
       <r>     2.5349     0.2289     1.4719 </r>
       <r>     2.6704     0.0393     1.4772 </r>
       <r>     2.8059     0.4255     1.5348 </r>
       <r>     2.9414     0.1652     1.5572 </r>
       <r>     3.0770     0.2733     1.5943 </r>
       <r>     3.2125     0.3576     1.6427 </r>
       <r>     3.3480     0.4443     1.7030 </r>
       <r>     3.4835     0.6213     1.7872 </r>
       <r>     3.6191     0.3531     1.8350 </r>
       <r>     3.7546     0.0866     1.8467 </r>
       <r>     3.8901     0.3338     1.8920 </r>
       <r>     4.0257     0.5498     1.9665 </r>
       <r>     4.1612     0.3130     2.0089 </r>
       <r>     4.2967     0.2315     2.0403 </r>
       <r>     4.4322     0.0560     2.0479 </r>
       <r>     4.5678     0.7624     2.1512 </r>
       <r>     4.7033     0.2991     2.1917 </r>
       <r>     4.8388     0.3376     2.2375 </r>
       <r>     4.9743     0.2639     2.2732 </r>
       <r>     5.1099     0.3169     2.3162 </r>
       <r>     5.2454     0.0957     2.3292 </r>
       <r>     5.3809     0.4573     2.3911 </r>
       <r>     5.5164     0.4620     2.4538 </r>
       <r>     5.6520     0.4267     2.5116 </r>
       <r>     5.7875     0.1552     2.5326 </r>
       <r>     5.9230     0.8361     2.6459 </r>
       <r>     6.0585     0.4305     2.7043 </r>
       <r>     6.1941     0.4580     2.7664 </r>
       <r>     6.3296     0.2350     2.7982 </r>
       <r>     6.4651     0.3357     2.8437 </r>
       <r>     6.6006     0.4891     2.9100 </r>
       <r>     6.7362     0.2313     2.9413 </r>
       <r>     6.8717     0.5894     3.0212 </r>
       <r>     7.0072     0.6878     3.1144 </r>
       <r>     7.1427     0.1236     3.1312 </r>
       <r>     7.2783     0.4257     3.1889 </r>
       <r>     7.4138     0.1776     3.2129 </r>
       <r>     7.5493     0.5020     3.2810 </r>
       <r>     7.6848     0.5917     3.3612 </r>
       <r>     7.8204     0.1103     3.3761 </r>
       <r>     7.9559     0.7229     3.4741 </r>
       <r>     8.0914     0.7123     3.5706 </r>
       <r>     8.2270     0.4252     3.6282 </r>
       <r>     8.3625     0.1671     3.6509 </r>
       <r>     8.4980     0.2389     3.6833 </r>
       <r>     8.6335     0.2807     3.7213 </r>
       <r>     8.7691     0.5940     3.8018 </r>
       <r>     8.9046     0.7946     3.9095 </r>
       <r>     9.0401     0.2761     3.9469 </r>
       <r>     9.1756     1.0432     4.0883 </r>
       <r>     9.3112     0.5682     4.1653 </r>
       <r>     9.4467     0.7354     4.2650 </r>
       <r>     9.5822     0.0550     4.2724 </r>
       <r>     9.7177     0.5283     4.3440 </r>
       <r>     9.8533     0.3274     4.3884 </r>
       <r>     9.9888     0.1494     4.4086 </r>
       <r>    10.1243     0.5810     4.4874 </r>
       <r>    10.2598     0.6863     4.5804 </r>
       <r>    10.3954     0.1430     4.5998 </r>
       <r>    10.5309     0.3798     4.6512 </r>
       <r>    10.6664     0.3126     4.6936 </r>
       <r>    10.8019     0.6330     4.7794 </r>
       <r>    10.9375     0.4623     4.8420 </r>
       <r>    11.0730     0.2208     4.8720 </r>
       <r>    11.2085     0.4311     4.9304 </r>
       <r>    11.3440     0.9760     5.0627 </r>
       <r>    11.4796     0.2636     5.0984 </r>
       <r>    11.6151     1.2288     5.2649 </r>
       <r>    11.7506     0.2289     5.2959 </r>
       <r>    11.8861     0.2411     5.3286 </r>
       <r>    12.0217     0.2585     5.3637 </r>
       <r>    12.1572     0.0469     5.3700 </r>
       <r>    12.2927     0.8062     5.4793 </r>
       <r>    12.4283     0.7445     5.5802 </r>
       <r>    12.5638     0.2172     5.6096 </r>
       <r>    12.6993     0.6285     5.6948 </r>
       <r>    12.8348     0.9314     5.8210 </r>
       <r>    12.9704     0.6971     5.9155 </r>
       <r>    13.1059     0.2649     5.9514 </r>
       <r>    13.2414     0.1922     5.9774 </r>
       <r>    13.3769     0.6517     6.0658 </r>
       <r>    13.5125     0.8081     6.1753 </r>
       <r>    13.6480     0.2588     6.2104 </r>
       <r>    13.7835     0.3682     6.2603 </r>
       <r>    13.9190     0.1599     6.2819 </r>
       <r>    14.0546     0.2432     6.3149 </r>
       <r>    14.1901     0.7072     6.4107 </r>
       <r>    14.3256     0.5590     6.4865 </r>
       <r>    14.4611     0.5598     6.5623 </r>
       <r>    14.5967     1.1967     6.7245 </r>
       <r>    14.7322     0.8460     6.8392 </r>
       <r>    14.8677     0.8302     6.9517 </r>
       <r>    15.0032     0.4735     7.0159 </r>
       <r>    15.1388     0.2435     7.0489 </r>
       <r>    15.2743     0.1750     7.0726 </r>
       <r>    15.4098     0.5416     7.1460 </r>
       <r>    15.5453     0.6835     7.2386 </r>
       <r>    15.6809     0.7183     7.3360 </r>
       <r>    15.8164     0.8406     7.4499 </r>
       <r>    15.9519     0.9293     7.5758 </r>
       <r>    16.0874     0.3246     7.6198 </r>
       <r>    16.2230     0.1157     7.6355 </r>
       <r>    16.3585     0.6631     7.7254 </r>
       <r>    16.4940     0.6957     7.8197 </r>
       <r>    16.6296     0.9594     7.9497 </r>
       <r>    16.7651     0.5747     8.0276 </r>
       <r>    16.9006     0.7549     8.1299 </r>
       <r>    17.0361     0.3586     8.1785 </r>
       <r>    17.1717     0.3746     8.2293 </r>
       <r>    17.3072     0.6001     8.3106 </r>
       <r>    17.4427     0.5507     8.3852 </r>
       <r>    17.5782     0.1651     8.4076 </r>
       <r>    17.7138     0.0631     8.4161 </r>
       <r>    17.8493     0.1111     8.4312 </r>
       <r>    17.9848     0.0813     8.4422 </r>
       <r>    18.1203     0.6638     8.5322 </r>
       <r>    18.2559     0.0362     8.5371 </r>
       <r>    18.3914     0.1799     8.5614 </r>
       <r>    18.5269     0.7873     8.6681 </r>
       <r>    18.6624     1.1720     8.8270 </r>
       <r>    18.7980     0.7109     8.9233 </r>
       <r>    18.9335     0.5029     8.9915 </r>
       <r>    19.0690     1.3152     9.1697 </r>
       <r>    19.2045     0.3848     9.2219 </r>
       <r>    19.3401     0.9528     9.3510 </r>
       <r>    19.4756     0.4164     9.4074 </r>
       <r>    19.6111     0.2687     9.4439 </r>
       <r>    19.7466     0.2298     9.4750 </r>
       <r>    19.8822     0.2276     9.5058 </r>
       <r>    20.0177     1.0965     9.6544 </r>
       <r>    20.1532     1.7187     9.8874 </r>
       <r>    20.2887     0.3217     9.9310 </r>
       <r>    20.4243     0.4164     9.9874 </r>
       <r>    20.5598     0.5632    10.0637 </r>
       <r>    20.6953     0.8884    10.1841 </r>
       <r>    20.8308     0.7840    10.2904 </r>
       <r>    20.9664     0.9640    10.4210 </r>
       <r>    21.1019     0.6595    10.5104 </r>
       <r>    21.2374     0.0147    10.5124 </r>
       <r>    21.3730     0.2530    10.5467 </r>
       <r>    21.5085     1.2642    10.7180 </r>
       <r>    21.6440     0.9866    10.8517 </r>
       <r>    21.7795     0.4782    10.9165 </r>
       <r>    21.9151     0.5037    10.9848 </r>
       <r>    22.0506     0.8842    11.1046 </r>
       <r>    22.1861     0.4961    11.1719 </r>
       <r>    22.3216     0.7587    11.2747 </r>
       <r>    22.4572     0.8757    11.3934 </r>
       <r>    22.5927     0.5708    11.4707 </r>
       <r>    22.7282     0.6172    11.5544 </r>
       <r>    22.8637     0.3049    11.5957 </r>
       <r>    22.9993     0.3001    11.6364 </r>
       <r>    23.1348     1.0917    11.7843 </r>
       <r>    23.2703     0.5337    11.8566 </r>
       <r>    23.4058     0.7211    11.9544 </r>
       <r>    23.5414     0.6750    12.0458 </r>
       <r>    23.6769     0.6037    12.1277 </r>
       <r>    23.8124     0.2086    12.1559 </r>
       <r>    23.9479     0.5791    12.2344 </r>
       <r>    24.0835     0.5167    12.3044 </r>
       <r>    24.2190     0.3016    12.3453 </r>
       <r>    24.3545     0.2604    12.3806 </r>
       <r>    24.4900     0.6917    12.4743 </r>
       <r>    24.6256     1.1693    12.6328 </r>
       <r>    24.7611     1.1768    12.7923 </r>
       <r>    24.8966     0.9685    12.9236 </r>
       <r>    25.0321     0.2992    12.9641 </r>
       <r>    25.1677     0.3614    13.0131 </r>
       <r>    25.3032     0.8370    13.1265 </r>
       <r>    25.4387     0.5814    13.2053 </r>
       <r>    25.5743     0.8011    13.3139 </r>
       <r>    25.7098     0.5684    13.3909 </r>
       <r>    25.8453     0.7266    13.4894 </r>
       <r>    25.9808     0.6765    13.5811 </r>
       <r>    26.1164     0.6621    13.6708 </r>
       <r>    26.2519     1.2314    13.8377 </r>
       <r>    26.3874     0.2568    13.8725 </r>
       <r>    26.5229     0.6745    13.9639 </r>
       <r>    26.6585     0.2233    13.9942 </r>
       <r>    26.7940     0.7172    14.0914 </r>
       <r>    26.9295     0.3789    14.1427 </r>
       <r>    27.0650     0.1512    14.1632 </r>
       <r>    27.2006     0.3845    14.2153 </r>
       <r>    27.3361     0.5880    14.2950 </r>
       <r>    27.4716     1.7520    14.5324 </r>
       <r>    27.6071     1.4607    14.7304 </r>
       <r>    27.7427     0.6772    14.8222 </r>
       <r>    27.8782     0.2519    14.8563 </r>
       <r>    28.0137     0.7557    14.9587 </r>
       <r>    28.1492     0.8051    15.0679 </r>
       <r>    28.2848     0.5579    15.1435 </r>
       <r>    28.4203     0.7549    15.2458 </r>
       <r>    28.5558     0.1548    15.2668 </r>
       <r>    28.6913     0.6533    15.3553 </r>
       <r>    28.8269     0.4396    15.4149 </r>
       <r>    28.9624     0.7759    15.5200 </r>
       <r>    29.0979     0.7838    15.6263 </r>
       <r>    29.2334     0.5569    15.7017 </r>
       <r>    29.3690     0.2164    15.7311 </r>
       <r>    29.5045     0.2949    15.7710 </r>
       <r>    29.6400     0.4875    15.8371 </r>
       <r>    29.7756     0.0045    15.8377 </r>
       <r>    29.9111     0.0000    15.8377 </r>
       <r>    30.0466     0.0034    15.8382 </r>
       <r>    30.1821     0.4536    15.8996 </r>
       <r>    30.3177     0.4153    15.9559 </r>
       <r>    30.4532     0.0147    15.9579 </r>
       <r>    30.5887     0.0000    15.9579 </r>
       <r>    30.7242     0.0000    15.9579 </r>
       <r>    30.8598     0.0000    15.9579 </r>
       <r>    30.9953     0.0154    15.9600 </r>
       <r>    31.1308     0.0731    15.9699 </r>
       <r>    31.2663     0.0002    15.9699 </r>
       <r>    31.4019     0.0000    15.9699 </r>
       <r>    31.5374     0.0000    15.9699 </r>
       <r>    31.6729     0.0000    15.9699 </r>
       <r>    31.8084     0.0000    15.9699 </r>
       <r>    31.9440     0.0000    15.9700 </r>
       <r>    32.0795     0.0455    15.9761 </r>
       <r>    32.2150     0.0496    15.9828 </r>
       <r>    32.3505     0.0452    15.9890 </r>
       <r>    32.4861     0.0808    15.9999 </r>
       <r>    32.6216     0.0007    16.0000 </r>
       <r>    32.7571     0.0000    16.0000 </r>
       <r>    32.8926     0.0000    16.0000 </r>
       <r>    33.0282     0.0000    16.0000 </r>
       <r>    33.1637     0.0000    16.0000 </r>
       <r>    33.2992     0.0000    16.0000 </r>
       <r>    33.4347     0.0000    16.0000 </r>
       <r>    33.5703     0.0000    16.0000 </r>
       <r>    33.7058     0.0000    16.0000 </r>
       <r>    33.8413     0.0000    16.0000 </r>
       <r>    33.9769     0.0000    16.0000 </r>
       <r>    34.1124     0.0000    16.0000 </r>
       <r>    34.2479     0.0000    16.0000 </r>
      </set>
     </set>
    </array>
   </total>
  </dos>
 </calculation>
 <structure name="finalpos" >
  <crystal>
   <varray name="basis" >
    <v>       1.57385866       1.57385866       1.57385866 </v>
    <v>       1.57385866      -1.57385866      -1.57385866 </v>
    <v>      -1.57385866       1.57385866      -1.57385866 </v>
   </varray>
   <i name="volume">     15.59398713 </i>
   <varray name="rec_basis" >
    <v>       0.31769054       0.31769054       0.00000000 </v>
    <v>       0.31769054       0.00000000      -0.31769054 </v>
    <v>       0.00000000       0.31769054      -0.31769054 </v>
   </varray>
  </crystal>
  <varray name="positions" >
   <v>       0.00000000       0.00000000       0.00000000 </v>
  </varray>
 </structure>
</modeling>
