unknown system                          
           1
     1.573859    1.573859    1.573859
     1.573859   -1.573859   -1.573859
    -1.573859    1.573859   -1.573859
   Si
     1
Direct configuration=     1
   0.00000000  0.00000000  0.00000000
