   1   1   0   0
  0.1408159E+02  0.2710538E-09  0.2710538E-09  0.2710538E-09  0.5000000E-15
  1.000000000000000E-004
  CAR 
 unknown system                          
     38.39614584     -6.29409123  301     10.21697349      1.00000000
     -6.294  0.0000E+00  0.0000E+00
     -6.145  0.0000E+00  0.0000E+00
     -5.996  0.0000E+00  0.0000E+00
     -5.847  0.0000E+00  0.0000E+00
     -5.698  0.0000E+00  0.0000E+00
     -5.549  0.0000E+00  0.0000E+00
     -5.400  0.0000E+00  0.0000E+00
     -5.251  0.0000E+00  0.0000E+00
     -5.102  0.0000E+00  0.0000E+00
     -4.953  0.0000E+00  0.0000E+00
     -4.804  0.0000E+00  0.0000E+00
     -4.655  0.0000E+00  0.0000E+00
     -4.506  0.6809E-16  0.1014E-16
     -4.358  0.9760E-07  0.1454E-07
     -4.209  0.9363E-04  0.1396E-04
     -4.060  0.3812E-03  0.7075E-04
     -3.911  0.5534E-03  0.1532E-03
     -3.762  0.7088E-03  0.2588E-03
     -3.613  0.7881E-03  0.3762E-03
     -3.464  0.8630E-03  0.5047E-03
     -3.315  0.1027E-02  0.6577E-03
     -3.166  0.1038E-02  0.8123E-03
     -3.017  0.1181E-02  0.9882E-03
     -2.868  0.1120E-02  0.1155E-02
     -2.719  0.1377E-02  0.1360E-02
     -2.570  0.1270E-02  0.1549E-02
     -2.421  0.1411E-02  0.1760E-02
     -2.272  0.1489E-02  0.1981E-02
     -2.123  0.1494E-02  0.2204E-02
     -1.974  0.1561E-02  0.2437E-02
     -1.825  0.1697E-02  0.2689E-02
     -1.676  0.1470E-02  0.2908E-02
     -1.527  0.1877E-02  0.3188E-02
     -1.378  0.1807E-02  0.3457E-02
     -1.229  0.1755E-02  0.3719E-02
     -1.080  0.1799E-02  0.3987E-02
     -0.931  0.2096E-02  0.4299E-02
     -0.782  0.1915E-02  0.4584E-02
     -0.633  0.1781E-02  0.4849E-02
     -0.484  0.2365E-02  0.5202E-02
     -0.335  0.1906E-02  0.5486E-02
     -0.186  0.2214E-02  0.5815E-02
     -0.037  0.2062E-02  0.6123E-02
      0.112  0.2253E-02  0.6458E-02
      0.260  0.2353E-02  0.6809E-02
      0.409  0.2212E-02  0.7138E-02
      0.558  0.2322E-02  0.7484E-02
      0.707  0.2346E-02  0.7834E-02
      0.856  0.2611E-02  0.8223E-02
      1.005  0.2130E-02  0.8540E-02
      1.154  0.2748E-02  0.8949E-02
      1.303  0.2357E-02  0.9300E-02
      1.452  0.2681E-02  0.9700E-02
      1.601  0.2742E-02  0.1011E-01
      1.750  0.2491E-02  0.1048E-01
      1.899  0.2464E-02  0.1085E-01
      2.048  0.3101E-02  0.1131E-01
      2.197  0.2709E-02  0.1171E-01
      2.346  0.2732E-02  0.1212E-01
      2.495  0.2778E-02  0.1253E-01
      2.644  0.3230E-02  0.1301E-01
      2.793  0.2999E-02  0.1346E-01
      2.942  0.2776E-02  0.1387E-01
      3.091  0.2880E-02  0.1430E-01
      3.240  0.2547E-02  0.1468E-01
      3.389  0.2948E-02  0.1512E-01
      3.538  0.3001E-02  0.1557E-01
      3.687  0.3211E-02  0.1605E-01
      3.836  0.2703E-02  0.1645E-01
      3.985  0.2978E-02  0.1689E-01
      4.134  0.3430E-02  0.1740E-01
      4.283  0.3363E-02  0.1791E-01
      4.432  0.3040E-02  0.1836E-01
      4.581  0.2830E-02  0.1878E-01
      4.730  0.3923E-02  0.1936E-01
      4.878  0.3191E-02  0.1984E-01
      5.027  0.3280E-02  0.2033E-01
      5.176  0.3655E-02  0.2087E-01
      5.325  0.3367E-02  0.2137E-01
      5.474  0.3492E-02  0.2189E-01
      5.623  0.2566E-02  0.2228E-01
      5.772  0.3934E-02  0.2286E-01
      5.921  0.2808E-02  0.2328E-01
      6.070  0.3915E-02  0.2386E-01
      6.219  0.3546E-02  0.2439E-01
      6.368  0.3472E-02  0.2491E-01
      6.517  0.3624E-02  0.2545E-01
      6.666  0.4083E-02  0.2606E-01
      6.815  0.3629E-02  0.2660E-01
      6.964  0.3581E-02  0.2713E-01
      7.113  0.3292E-02  0.2762E-01
      7.262  0.3880E-02  0.2820E-01
      7.411  0.3596E-02  0.2874E-01
      7.560  0.3360E-02  0.2924E-01
      7.709  0.3634E-02  0.2978E-01
      7.858  0.4389E-02  0.3043E-01
      8.007  0.3882E-02  0.3101E-01
      8.156  0.4111E-02  0.3162E-01
      8.305  0.3740E-02  0.3218E-01
      8.454  0.3132E-02  0.3265E-01
      8.603  0.4283E-02  0.3328E-01
      8.752  0.4675E-02  0.3398E-01
      8.901  0.4221E-02  0.3461E-01
      9.050  0.3220E-02  0.3509E-01
      9.199  0.4026E-02  0.3569E-01
      9.347  0.4183E-02  0.3631E-01
      9.496  0.4411E-02  0.3697E-01
      9.645  0.4044E-02  0.3757E-01
      9.794  0.4491E-02  0.3824E-01
      9.943  0.4059E-02  0.3885E-01
     10.092  0.4136E-02  0.3946E-01
     10.241  0.4298E-02  0.4010E-01
     10.390  0.3950E-02  0.4069E-01
     10.539  0.4794E-02  0.4140E-01
     10.688  0.5015E-02  0.4215E-01
     10.837  0.3538E-02  0.4268E-01
     10.986  0.4209E-02  0.4331E-01
     11.135  0.5173E-02  0.4408E-01
     11.284  0.4596E-02  0.4476E-01
     11.433  0.3919E-02  0.4534E-01
     11.582  0.4928E-02  0.4608E-01
     11.731  0.4490E-02  0.4675E-01
     11.880  0.4931E-02  0.4748E-01
     12.029  0.4756E-02  0.4819E-01
     12.178  0.4578E-02  0.4887E-01
     12.327  0.4539E-02  0.4955E-01
     12.476  0.5069E-02  0.5030E-01
     12.625  0.5554E-02  0.5113E-01
     12.774  0.4149E-02  0.5175E-01
     12.923  0.5657E-02  0.5259E-01
     13.072  0.4976E-02  0.5333E-01
     13.221  0.4891E-02  0.5406E-01
     13.370  0.5441E-02  0.5487E-01
     13.519  0.6258E-02  0.5580E-01
     13.668  0.5146E-02  0.5657E-01
     13.817  0.6290E-02  0.5751E-01
     13.965  0.5046E-02  0.5826E-01
     14.114  0.5166E-02  0.5903E-01
     14.263  0.5736E-02  0.5988E-01
     14.412  0.4845E-02  0.6061E-01
     14.561  0.5091E-02  0.6136E-01
     14.710  0.4664E-02  0.6206E-01
     14.859  0.5528E-02  0.6288E-01
     15.008  0.4533E-02  0.6356E-01
     15.157  0.4868E-02  0.6428E-01
     15.306  0.4265E-02  0.6492E-01
     15.455  0.5425E-02  0.6573E-01
     15.604  0.4902E-02  0.6646E-01
     15.753  0.4001E-02  0.6705E-01
     15.902  0.3842E-02  0.6762E-01
     16.051  0.6059E-02  0.6853E-01
     16.200  0.4241E-02  0.6916E-01
     16.349  0.4823E-02  0.6988E-01
     16.498  0.4279E-02  0.7051E-01
     16.647  0.4947E-02  0.7125E-01
     16.796  0.5125E-02  0.7202E-01
     16.945  0.4181E-02  0.7264E-01
     17.094  0.4642E-02  0.7333E-01
     17.243  0.5455E-02  0.7414E-01
     17.392  0.4928E-02  0.7488E-01
     17.541  0.5176E-02  0.7565E-01
     17.690  0.5025E-02  0.7640E-01
     17.839  0.4301E-02  0.7704E-01
     17.988  0.5526E-02  0.7786E-01
     18.137  0.5984E-02  0.7875E-01
     18.286  0.4857E-02  0.7947E-01
     18.435  0.4736E-02  0.8018E-01
     18.583  0.5637E-02  0.8102E-01
     18.732  0.5067E-02  0.8177E-01
     18.881  0.6169E-02  0.8269E-01
     19.030  0.4951E-02  0.8343E-01
     19.179  0.5493E-02  0.8425E-01
     19.328  0.5282E-02  0.8504E-01
     19.477  0.5022E-02  0.8578E-01
     19.626  0.6014E-02  0.8668E-01
     19.775  0.5618E-02  0.8752E-01
     19.924  0.4635E-02  0.8821E-01
     20.073  0.5503E-02  0.8903E-01
     20.222  0.5901E-02  0.8991E-01
     20.371  0.5595E-02  0.9074E-01
     20.520  0.5429E-02  0.9155E-01
     20.669  0.6001E-02  0.9244E-01
     20.818  0.5809E-02  0.9331E-01
     20.967  0.6095E-02  0.9422E-01
     21.116  0.6500E-02  0.9518E-01
     21.265  0.6770E-02  0.9619E-01
     21.414  0.5803E-02  0.9706E-01
     21.563  0.5935E-02  0.9794E-01
     21.712  0.6104E-02  0.9885E-01
     21.861  0.5126E-02  0.9961E-01
     22.010  0.5500E-02  0.1004E+00
     22.159  0.5223E-02  0.1012E+00
     22.308  0.6239E-02  0.1021E+00
     22.457  0.6368E-02  0.1031E+00
     22.606  0.4727E-02  0.1038E+00
     22.755  0.5328E-02  0.1046E+00
     22.904  0.6895E-02  0.1056E+00
     23.052  0.5477E-02  0.1064E+00
     23.201  0.4476E-02  0.1071E+00
     23.350  0.7346E-02  0.1082E+00
     23.499  0.6308E-02  0.1091E+00
     23.648  0.6770E-02  0.1101E+00
     23.797  0.6274E-02  0.1111E+00
     23.946  0.7920E-02  0.1123E+00
     24.095  0.6890E-02  0.1133E+00
     24.244  0.7067E-02  0.1143E+00
     24.393  0.4646E-02  0.1150E+00
     24.542  0.6693E-02  0.1160E+00
     24.691  0.7490E-02  0.1171E+00
     24.840  0.6506E-02  0.1181E+00
     24.989  0.4621E-02  0.1188E+00
     25.138  0.6069E-02  0.1197E+00
     25.287  0.6393E-02  0.1207E+00
     25.436  0.7260E-02  0.1217E+00
     25.585  0.6607E-02  0.1227E+00
     25.734  0.6044E-02  0.1236E+00
     25.883  0.6638E-02  0.1246E+00
     26.032  0.7951E-02  0.1258E+00
     26.181  0.6364E-02  0.1267E+00
     26.330  0.5491E-02  0.1276E+00
     26.479  0.6625E-02  0.1285E+00
     26.628  0.7417E-02  0.1296E+00
     26.777  0.5824E-02  0.1305E+00
     26.926  0.5387E-02  0.1313E+00
     27.075  0.7349E-02  0.1324E+00
     27.224  0.6384E-02  0.1334E+00
     27.373  0.4414E-02  0.1340E+00
     27.522  0.6347E-02  0.1350E+00
     27.670  0.6396E-02  0.1359E+00
     27.819  0.5577E-02  0.1368E+00
     27.968  0.4772E-02  0.1375E+00
     28.117  0.6257E-02  0.1384E+00
     28.266  0.6564E-02  0.1394E+00
     28.415  0.4693E-02  0.1401E+00
     28.564  0.4629E-02  0.1408E+00
     28.713  0.6161E-02  0.1417E+00
     28.862  0.5064E-02  0.1424E+00
     29.011  0.4452E-02  0.1431E+00
     29.160  0.3580E-02  0.1436E+00
     29.309  0.6776E-02  0.1446E+00
     29.458  0.4678E-02  0.1453E+00
     29.607  0.5294E-02  0.1461E+00
     29.756  0.4056E-02  0.1467E+00
     29.905  0.5912E-02  0.1476E+00
     30.054  0.6003E-02  0.1485E+00
     30.203  0.5998E-02  0.1494E+00
     30.352  0.4321E-02  0.1500E+00
     30.501  0.5197E-02  0.1508E+00
     30.650  0.3795E-02  0.1514E+00
     30.799  0.4471E-02  0.1520E+00
     30.948  0.3426E-02  0.1526E+00
     31.097  0.3308E-02  0.1531E+00
     31.246  0.3328E-02  0.1535E+00
     31.395  0.2942E-02  0.1540E+00
     31.544  0.2427E-02  0.1543E+00
     31.693  0.2873E-02  0.1548E+00
     31.842  0.2607E-02  0.1552E+00
     31.991  0.1796E-02  0.1554E+00
     32.140  0.1991E-02  0.1557E+00
     32.288  0.2852E-02  0.1562E+00
     32.437  0.2054E-02  0.1565E+00
     32.586  0.1644E-02  0.1567E+00
     32.735  0.1963E-02  0.1570E+00
     32.884  0.1832E-02  0.1573E+00
     33.033  0.1367E-02  0.1575E+00
     33.182  0.1595E-02  0.1577E+00
     33.331  0.1942E-02  0.1580E+00
     33.480  0.1236E-02  0.1582E+00
     33.629  0.1444E-02  0.1584E+00
     33.778  0.1455E-02  0.1586E+00
     33.927  0.6880E-03  0.1587E+00
     34.076  0.1084E-02  0.1589E+00
     34.225  0.1051E-02  0.1590E+00
     34.374  0.1395E-02  0.1592E+00
     34.523  0.7299E-03  0.1594E+00
     34.672  0.7052E-03  0.1595E+00
     34.821  0.6201E-03  0.1595E+00
     34.970  0.5349E-03  0.1596E+00
     35.119  0.2603E-03  0.1597E+00
     35.268  0.6872E-03  0.1598E+00
     35.417  0.5450E-03  0.1599E+00
     35.566  0.1713E-03  0.1599E+00
     35.715  0.7298E-04  0.1599E+00
     35.864  0.2096E-03  0.1599E+00
     36.013  0.3914E-03  0.1600E+00
     36.162  0.1469E-04  0.1600E+00
     36.311  0.7286E-04  0.1600E+00
     36.460  0.7076E-04  0.1600E+00
     36.609  0.2774E-06  0.1600E+00
     36.758  0.2042E-15  0.1600E+00
     36.906  0.0000E+00  0.1600E+00
     37.055  0.0000E+00  0.1600E+00
     37.204  0.0000E+00  0.1600E+00
     37.353  0.0000E+00  0.1600E+00
     37.502  0.0000E+00  0.1600E+00
     37.651  0.0000E+00  0.1600E+00
     37.800  0.0000E+00  0.1600E+00
     37.949  0.0000E+00  0.1600E+00
     38.098  0.0000E+00  0.1600E+00
     38.247  0.0000E+00  0.1600E+00
     38.396  0.0000E+00  0.1600E+00
