    1    1  100    1
  0.1408159E+02  0.2710538E-09  0.2710538E-09  0.2710538E-09  0.5000000E-15
  1.000000000000000E-004
  CAR 
 unknown system                          
      4   1012      8
 
  0.2272727E-01  0.2272727E-01  0.2272727E-01  0.1878287E-03
    1       -4.262717   1.000000
    2       20.872940   0.000000
    3       21.215569   0.000000
    4       21.215576   0.000000
    5       22.310799   0.000000
    6       22.310807   0.000000
    7       22.497856   0.000000
    8       27.600939   0.000000
 
  0.6818182E-01  0.2272727E-01  0.2272727E-01  0.5634861E-03
    1       -4.182375   1.000000
    2       19.749991   0.000000
    3       20.290296   0.000000
    4       21.248170   0.000000
    5       22.379077   0.000000
    6       22.981896   0.000000
    7       23.281569   0.000000
    8       28.250299   0.000000
 
  0.1136364E+00  0.2272727E-01  0.2272727E-01  0.5634861E-03
    1       -3.981683   1.000000
    2       17.871528   0.000000
    3       19.725710   0.000000
    4       20.755298   0.000000
    5       23.090650   0.000000
    6       23.423054   0.000000
    7       24.005698   0.000000
    8       27.498515   0.000000
 
  0.1590909E+00  0.2272727E-01  0.2272727E-01  0.5634861E-03
    1       -3.660982   1.000000
    2       15.925994   0.000000
    3       19.243797   0.000000
    4       20.277893   0.000000
    5       23.541406   0.000000
    6       23.777679   0.000000
    7       24.627839   0.000000
    8       26.794471   0.000000
 
  0.2045455E+00  0.2272727E-01  0.2272727E-01  0.5634861E-03
    1       -3.220937   1.000000
    2       13.996078   0.000000
    3       18.854879   0.000000
    4       19.876087   0.000000
    5       23.508889   0.000000
    6       23.962653   0.000000
    7       24.734887   0.000000
    8       26.723503   0.000000
 
  0.2500000E+00  0.2272727E-01  0.2272727E-01  0.5634861E-03
    1       -2.662356   1.000000
    2       12.120329   0.000000
    3       18.562765   0.000000
    4       19.558896   0.000000
    5       23.441912   0.000000
    6       23.493288   0.000000
    7       24.222051   0.000000
    8       27.477063   0.000000
 
  0.2954545E+00  0.2272727E-01  0.2272727E-01  0.5634861E-03
    1       -1.986356   1.000000
    2       10.318859   0.001977
    3       18.366641   0.000000
    4       19.322426   0.000000
    5       22.815798   0.000000
    6       23.381693   0.000000
    7       23.521435   0.000000
    8       28.508894   0.000000
 
  0.3409091E+00  0.2272727E-01  0.2272727E-01  0.5634861E-03
    1       -1.194482   1.000000
    2        8.603702   1.000000
    3       18.263934   0.000000
    4       19.153982   0.000000
    5       22.166026   0.000000
    6       22.791095   0.000000
    7       23.398378   0.000000
    8       27.783503   0.000000
 
  0.3863636E+00  0.2272727E-01  0.2272727E-01  0.5634861E-03
    1       -0.288840   1.000000
    2        6.983345   1.000000
    3       18.249154   0.000000
    4       19.031193   0.000000
    5       21.633718   0.000000
    6       22.156999   0.000000
    7       23.440467   0.000000
    8       27.117052   0.000000
 
  0.4318182E+00  0.2272727E-01  0.2272727E-01  0.5634861E-03
    1        0.726510   1.000000
    2        5.465601   1.000000
    3       18.312058   0.000000
    4       18.920503   0.000000
    5       21.273651   0.000000
    6       21.627567   0.000000
    7       23.518623   0.000000
    8       26.587289   0.000000
 
  0.4772727E+00  0.2272727E-01  0.2272727E-01  0.5634861E-03
    1        1.835517   1.000000
    2        4.068407   1.000000
    3       18.434626   0.000000
    4       18.790327   0.000000
    5       21.133299   0.000000
    6       21.237514   0.000000
    7       23.592716   0.000000
    8       26.247838   0.000000
 
 -0.4772727E+00  0.2272727E-01  0.2272727E-01  0.5634861E-03
    1        2.525773   1.000000
    2        3.306190   1.000000
    3       18.587059   0.000000
    4       18.637843   0.000000
    5       21.019210   0.000000
    6       21.215854   0.000000
    7       23.621250   0.000000
    8       26.154299   0.000000
 
 -0.4318182E+00  0.2272727E-01  0.2272727E-01  0.5634861E-03
    1        1.458294   1.000000
    2        4.517561   1.000000
    3       18.492245   0.000000
    4       18.731962   0.000000
    5       21.009837   0.000000
    6       21.492693   0.000000
    7       23.581386   0.000000
    8       26.327613   0.000000
 
 -0.3863636E+00  0.2272727E-01  0.2272727E-01  0.5634861E-03
    1        0.376337   1.000000
    2        5.959506   1.000000
    3       18.388587   0.000000
    4       18.848366   0.000000
    5       21.230350   0.000000
    6       21.929427   0.000000
    7       23.509816   0.000000
    8       26.732671   0.000000
 
 -0.3409091E+00  0.2272727E-01  0.2272727E-01  0.5634861E-03
    1       -0.603163   1.000000
    2        7.512488   1.000000
    3       18.351667   0.000000
    4       18.952874   0.000000
    5       21.659436   0.000000
    6       22.491525   0.000000
    7       23.446016   0.000000
    8       27.310954   0.000000
 
 -0.2954545E+00  0.2272727E-01  0.2272727E-01  0.5634861E-03
    1       -1.471210   1.000000
    2        9.165289   1.000000
    3       18.396284   0.000000
    4       19.082339   0.000000
    5       22.240440   0.000000
    6       23.149683   0.000000
    7       23.425747   0.000000
    8       28.001319   0.000000
 
 -0.2500000E+00  0.2272727E-01  0.2272727E-01  0.5634861E-03
    1       -2.224657   1.000000
    2       10.910281   0.000000
    3       18.530804   0.000000
    4       19.267372   0.000000
    5       22.899620   0.000000
    6       23.469835   0.000000
    7       23.862154   0.000000
    8       28.066368   0.000000
 
 -0.2045455E+00  0.2272727E-01  0.2272727E-01  0.5634861E-03
    1       -2.861647   1.000000
    2       12.738137   0.000000
    3       18.759741   0.000000
    4       19.526244   0.000000
    5       23.370747   0.000000
    6       23.721010   0.000000
    7       24.526269   0.000000
    8       27.058150   0.000000
 
 -0.1590909E+00  0.2272727E-01  0.2272727E-01  0.5634861E-03
    1       -3.380842   1.000000
    2       14.634770   0.000000
    3       19.085280   0.000000
    4       19.868558   0.000000
    5       23.460215   0.000000
    6       24.022188   0.000000
    7       24.843602   0.000000
    8       26.531372   0.000000
 
 -0.1136364E+00  0.2272727E-01  0.2272727E-01  0.5634861E-03
    1       -3.781180   1.000000
    2       16.575559   0.000000
    3       19.508117   0.000000
    4       20.294239   0.000000
    5       23.288072   0.000000
    6       23.822409   0.000000
    7       24.474514   0.000000
    8       26.871736   0.000000
 
 -0.6818182E-01  0.2272727E-01  0.2272727E-01  0.5634861E-03
    1       -4.061931   1.000000
    2       18.513356   0.000000
    3       20.022221   0.000000
    4       20.788340   0.000000
    5       22.675109   0.000000
    6       23.547119   0.000000
    7       23.733489   0.000000
    8       27.671000   0.000000
 
 -0.2272727E-01  0.2272727E-01  0.2272727E-01  0.5634861E-03
    1       -4.222546   1.000000
    2       20.308230   0.000000
    3       20.618210   0.000000
    4       21.242063   0.000000
    5       22.062200   0.000000
    6       22.958231   0.000000
    7       22.990084   0.000000
    8       27.928109   0.000000
 
  0.6818182E-01  0.6818182E-01  0.2272727E-01  0.5634861E-03
    1       -4.142206   1.000000
    2       19.684137   0.000000
    3       19.966313   0.000000
    4       21.082040   0.000000
    5       21.646294   0.000000
    6       23.674652   0.000000
    7       23.703453   0.000000
    8       27.679726   0.000000
 
  0.1136364E+00  0.6818182E-01  0.2272727E-01  0.1126972E-02
    1       -3.981672   1.000000
    2       18.514472   0.000000
    3       19.096005   0.000000
    4       20.963143   0.000000
    5       21.684539   0.000000
    6       24.232869   0.000000
    7       24.519655   0.000000
    8       26.696753   0.000000
 
  0.1590909E+00  0.6818182E-01  0.2272727E-01  0.1126972E-02
    1       -3.701010   1.000000
    2       16.623166   0.000000
    3       18.582199   0.000000
    4       20.513607   0.000000
    5       22.345925   0.000000
    6       24.499701   0.000000
    7       25.219412   0.000000
    8       25.802774   0.000000
 
  0.2045455E+00  0.6818182E-01  0.2272727E-01  0.1126972E-02
    1       -3.300828   1.000000
    2       14.696115   0.000000
    3       18.164130   0.000000
    4       20.086300   0.000000
    5       22.766001   0.000000
    6       24.443872   0.000000
    7       25.415538   0.000000
    8       25.601940   0.000000
 
  0.2500000E+00  0.6818182E-01  0.2272727E-01  0.1126972E-02
    1       -2.781828   1.000000
    2       12.805699   0.000000
    3       17.844836   0.000000
    4       19.718482   0.000000
    5       22.546715   0.000000
    6       24.244247   0.000000
    7       25.193456   0.000000
    8       26.056285   0.000000
 
  0.2954545E+00  0.6818182E-01  0.2272727E-01  0.1126972E-02
    1       -2.145063   1.000000
    2       10.981149   0.000000
    3       17.624483   0.000000
    4       19.403082   0.000000
    5       21.958763   0.000000
    6       24.147195   0.000000
    7       24.533573   0.000000
    8       27.080156   0.000000
 
  0.3409091E+00  0.6818182E-01  0.2272727E-01  0.1126972E-02
    1       -1.391894   1.000000
    2        9.238285   1.000000
    3       17.503791   0.000000
    4       19.115883   0.000000
    5       21.378573   0.000000
    6       23.771426   0.000000
    7       24.157258   0.000000
    8       28.125905   0.000000
 
  0.3863636E+00  0.6818182E-01  0.2272727E-01  0.1126972E-02
    1       -0.524159   1.000000
    2        7.586924   1.000000
    3       17.479781   0.000000
    4       18.818861   0.000000
    5       20.955058   0.000000
    6       23.107804   0.000000
    7       24.157407   0.000000
    8       27.966217   0.000000
 
  0.4318182E+00  0.6818182E-01  0.2272727E-01  0.1126972E-02
    1        0.455012   1.000000
    2        6.035005   1.000000
    3       17.546028   0.000000
    4       18.491806   0.000000
    5       20.749016   0.000000
    6       22.517993   0.000000
    7       24.196310   0.000000
    8       27.471620   0.000000
 
  0.4772727E+00  0.6818182E-01  0.2272727E-01  0.1126972E-02
    1        1.536712   1.000000
    2        4.593725   1.000000
    3       17.677389   0.000000
    4       18.171973   0.000000
    5       20.750753   0.000000
    6       22.035107   0.000000
    7       24.234931   0.000000
    8       27.117024   0.000000
 
 -0.4772727E+00  0.6818182E-01  0.2272727E-01  0.1126972E-02
    1        2.604752   1.000000
    2        3.381835   1.000000
    3       17.683800   0.000000
    4       18.082608   0.000000
    5       20.911941   0.000000
    6       21.691764   0.000000
    7       24.241323   0.000000
    8       26.979239   0.000000
 
 -0.4318182E+00  0.6818182E-01  0.2272727E-01  0.1126972E-02
    1        1.913875   1.000000
    2        4.144623   1.000000
    3       17.466351   0.000000
    4       18.340503   0.000000
    5       21.116264   0.000000
    6       21.588880   0.000000
    7       24.193162   0.000000
    8       27.084924   0.000000
 
 -0.3863636E+00  0.6818182E-01  0.2272727E-01  0.1126972E-02
    1        0.805062   1.000000
    2        5.541177   1.000000
    3       17.281373   0.000000
    4       18.684779   0.000000
    5       21.197750   0.000000
    6       21.895880   0.000000
    7       24.112831   0.000000
    8       27.410103   0.000000
 
 -0.3409091E+00  0.6818182E-01  0.2272727E-01  0.1126972E-02
    1       -0.209954   1.000000
    2        7.058038   1.000000
    3       17.177205   0.000000
    4       19.043882   0.000000
    5       21.346170   0.000000
    6       22.437803   0.000000
    7       24.036854   0.000000
    8       27.897360   0.000000
 
 -0.2954545E+00  0.6818182E-01  0.2272727E-01  0.1126972E-02
    1       -1.115275   1.000000
    2        8.677016   1.000000
    3       17.165425   0.000000
    4       19.383293   0.000000
    5       21.681463   0.000000
    6       23.094838   0.000000
    7       23.994793   0.000000
    8       28.419305   0.000000
 
 -0.2500000E+00  0.6818182E-01  0.2272727E-01  0.1126972E-02
    1       -1.906866   1.000000
    2       10.390203   0.000000
    3       17.251081   0.000000
    4       19.702775   0.000000
    5       22.194842   0.000000
    6       23.811032   0.000000
    7       24.014483   0.000000
    8       27.722901   0.000000
 
 -0.2045455E+00  0.6818182E-01  0.2272727E-01  0.1126972E-02
    1       -2.582618   1.000000
    2       12.188603   0.000000
    3       17.437120   0.000000
    4       20.031050   0.000000
    5       22.782708   0.000000
    6       24.033576   0.000000
    7       24.589295   0.000000
    8       26.589419   0.000000
 
 -0.1590909E+00  0.6818182E-01  0.2272727E-01  0.1126972E-02
    1       -3.140988   1.000000
    2       14.059011   0.000000
    3       17.723767   0.000000
    4       20.397620   0.000000
    5       23.156077   0.000000
    6       24.149142   0.000000
    7       25.157173   0.000000
    8       25.845244   0.000000
 
 -0.1136364E+00  0.6818182E-01  0.2272727E-01  0.1126972E-02
    1       -3.580882   1.000000
    2       15.977954   0.000000
    3       18.109434   0.000000
    4       20.813054   0.000000
    5       22.914784   0.000000
    6       24.157486   0.000000
    7       25.183411   0.000000
    8       25.929300   0.000000
 
 -0.6818182E-01  0.6818182E-01  0.2272727E-01  0.1126972E-02
    1       -3.901451   1.000000
    2       17.894021   0.000000
    3       18.595968   0.000000
    4       21.229898   0.000000
    5       22.299179   0.000000
    6       23.923855   0.000000
    7       24.634975   0.000000
    8       26.705289   0.000000
 
 -0.2272727E-01  0.6818182E-01  0.2272727E-01  0.1126972E-02
    1       -4.102063   1.000000
    2       19.135151   0.000000
    3       19.706125   0.000000
    4       21.187897   0.000000
    5       22.140855   0.000000
    6       23.509590   0.000000
    7       23.834513   0.000000
    8       27.661181   0.000000
 
  0.1136364E+00  0.1136364E+00  0.2272727E-01  0.5634861E-03
    1       -3.861324   1.000000
    2       18.453480   0.000000
    3       18.719509   0.000000
    4       20.406710   0.000000
    5       20.648540   0.000000
    6       25.224770   0.000000
    7       25.286862   0.000000
    8       25.560618   0.000000
 
  0.1590909E+00  0.1136364E+00  0.2272727E-01  0.1126972E-02
    1       -3.620857   1.000000
    2       17.323505   0.000000
    3       17.923625   0.000000
    4       20.169299   0.000000
    5       20.670291   0.000000
    6       24.484591   0.000000
    7       25.834261   0.000000
    8       26.037826   0.000000
 
  0.2045455E+00  0.1136364E+00  0.2272727E-01  0.1126972E-02
    1       -3.260753   1.000000
    2       15.466856   0.000000
    3       17.469320   0.000000
    4       19.704683   0.000000
    5       21.240420   0.000000
    6       23.734562   0.000000
    7       26.071595   0.000000
    8       26.554570   0.000000
 
  0.2500000E+00  0.1136364E+00  0.2272727E-01  0.1126972E-02
    1       -2.781659   1.000000
    2       13.581998   0.000000
    3       17.117256   0.000000
    4       19.267423   0.000000
    5       21.247843   0.000000
    6       23.786920   0.000000
    7       26.174613   0.000000
    8       26.444000   0.000000
 
  0.2954545E+00  0.1136364E+00  0.2272727E-01  0.1126972E-02
    1       -2.184529   1.000000
    2       11.743682   0.000000
    3       16.866140   0.000000
    4       18.835110   0.000000
    5       20.761416   0.000000
    6       24.455436   0.000000
    7       25.851097   0.000000
    8       26.399358   0.000000
 
  0.3409091E+00  0.1136364E+00  0.2272727E-01  0.1126972E-02
    1       -1.470594   1.000000
    2        9.978341   1.000000
    3       16.716209   0.000000
    4       18.369251   0.000000
    5       20.294640   0.000000
    6       24.883443   0.000000
    7       25.309539   0.000000
    8       26.991938   0.000000
 
  0.3863636E+00  0.1136364E+00  0.2272727E-01  0.1126972E-02
    1       -0.641479   1.000000
    2        8.299400   1.000000
    3       16.662726   0.000000
    4       17.856771   0.000000
    5       20.018898   0.000000
    6       24.375805   0.000000
    7       25.378572   0.000000
    8       28.034493   0.000000
 
  0.4318182E+00  0.1136364E+00  0.2272727E-01  0.1126972E-02
    1        0.300279   1.000000
    2        6.716148   1.000000
    3       16.690648   0.000000
    4       17.349082   0.000000
    5       19.944610   0.000000
    6       23.767401   0.000000
    7       25.445213   0.000000
    8       28.800972   0.000000
 
  0.4772727E+00  0.1136364E+00  0.2272727E-01  0.1126972E-02
    1        1.349049   1.000000
    2        5.237759   1.000000
    3       16.643826   0.000000
    4       17.048257   0.000000
    5       20.036791   0.000000
    6       23.233303   0.000000
    7       25.446003   0.000000
    8       28.631982   0.000000
 
 -0.4772727E+00  0.1136364E+00  0.2272727E-01  0.1126972E-02
    1        2.470270   1.000000
    2        3.900873   1.000000
    3       16.298797   0.000000
    4       17.207641   0.000000
    5       20.267561   0.000000
    6       22.796617   0.000000
    7       25.385298   0.000000
    8       28.528971   0.000000
 
 -0.4318182E+00  0.1136364E+00  0.2272727E-01  0.1126972E-02
    1        2.470352   1.000000
    2        3.900749   1.000000
    3       15.960912   0.000000
    4       17.536807   0.000000
    5       20.620062   0.000000
    6       22.472908   0.000000
    7       25.277139   0.000000
    8       28.626607   0.000000
 
 -0.3863636E+00  0.1136364E+00  0.2272727E-01  0.1126972E-02
    1        1.349010   1.000000
    2        5.237206   1.000000
    3       15.704882   0.000000
    4       17.962654   0.000000
    5       21.073787   0.000000
    6       22.278892   0.000000
    7       25.145948   0.000000
    8       28.900718   0.000000
 
 -0.3409091E+00  0.1136364E+00  0.2272727E-01  0.1126972E-02
    1        0.300210   1.000000
    2        6.715358   1.000000
    3       15.544755   0.000000
    4       18.465553   0.000000
    5       21.584339   0.000000
    6       22.261180   0.000000
    7       25.024999   0.000000
    8       29.272939   0.000000
 
 -0.2954545E+00  0.1136364E+00  0.2272727E-01  0.1126972E-02
    1       -0.641570   1.000000
    2        8.297916   1.000000
    3       15.485037   0.000000
    4       19.024691   0.000000
    5       21.990238   0.000000
    6       22.581936   0.000000
    7       24.929463   0.000000
    8       28.750982   0.000000
 
 -0.2500000E+00  0.1136364E+00  0.2272727E-01  0.1126972E-02
    1       -1.470692   1.000000
    2        9.975474   1.000000
    3       15.529178   0.000000
    4       19.610872   0.000000
    5       22.286909   0.000000
    6       23.240609   0.000000
    7       24.866154   0.000000
    8       27.397636   0.000000
 
 -0.2045455E+00  0.1136364E+00  0.2272727E-01  0.1126972E-02
    1       -2.184623   1.000000
    2       11.738085   0.000000
    3       15.679680   0.000000
    4       20.189058   0.000000
    5       22.654590   0.000000
    6       23.993743   0.000000
    7       24.827942   0.000000
    8       26.185815   0.000000
 
 -0.1590909E+00  0.1136364E+00  0.2272727E-01  0.1126972E-02
    1       -2.781744   1.000000
    2       13.569281   0.000000
    3       15.939677   0.000000
    4       20.728389   0.000000
    5       22.983457   0.000000
    6       24.534520   0.000000
    7       24.929874   0.000000
    8       25.353684   0.000000
 
 -0.1136364E+00  0.1136364E+00  0.2272727E-01  0.1126972E-02
    1       -3.260824   1.000000
    2       15.419109   0.000000
    3       16.335023   0.000000
    4       21.177986   0.000000
    5       22.814100   0.000000
    6       24.664436   0.000000
    7       24.969970   0.000000
    8       25.471309   0.000000
 
 -0.6818182E-01  0.1136364E+00  0.2272727E-01  0.1126972E-02
    1       -3.620911   1.000000
    2       16.644185   0.000000
    3       17.458508   0.000000
    4       21.257324   0.000000
    5       22.523552   0.000000
    6       24.294791   0.000000
    7       25.214708   0.000000
    8       25.808795   0.000000
 
 -0.2272727E-01  0.1136364E+00  0.2272727E-01  0.1126972E-02
    1       -3.861354   1.000000
    2       17.238597   0.000000
    3       19.164694   0.000000
    4       20.729740   0.000000
    5       22.803955   0.000000
    6       23.863500   0.000000
    7       24.561828   0.000000
    8       26.767628   0.000000
 
  0.1590909E+00  0.1590909E+00  0.2272727E-01  0.5634861E-03
    1       -3.420662   1.000000
    2       17.319901   0.000000
    3       17.586236   0.000000
    4       19.351613   0.000000
    5       19.684940   0.000000
    6       23.283943   0.000000
    7       26.868524   0.000000
    8       26.917494   0.000000
 
  0.2045455E+00  0.1590909E+00  0.2272727E-01  0.1126972E-02
    1       -3.100782   1.000000
    2       16.237555   0.000000
    3       16.858867   0.000000
    4       19.121716   0.000000
    5       19.565111   0.000000
    6       22.355704   0.000000
    7       27.489453   0.000000
    8       27.578939   0.000000
 
  0.2500000E+00  0.1590909E+00  0.2272727E-01  0.1126972E-02
    1       -2.661855   1.000000
    2       14.429201   0.000000
    3       16.467875   0.000000
    4       18.573393   0.000000
    5       19.854154   0.000000
    6       22.109821   0.000000
    7       27.615276   0.000000
    8       27.835185   0.000000
 
  0.2954545E+00  0.1590909E+00  0.2272727E-01  0.1126972E-02
    1       -2.104693   1.000000
    2       12.597478   0.000000
    3       16.181029   0.000000
    4       17.963904   0.000000
    5       19.622444   0.000000
    6       22.785902   0.000000
    7       27.203532   0.000000
    8       27.887890   0.000000
 
  0.3409091E+00  0.1590909E+00  0.2272727E-01  0.1126972E-02
    1       -1.430454   1.000000
    2       10.818721   0.000000
    3       15.994113   0.000000
    4       17.293705   0.000000
    5       19.319440   0.000000
    6       23.859294   0.000000
    7       26.556293   0.000000
    8       27.945000   0.000000
 
  0.3863636E+00  0.1590909E+00  0.2272727E-01  0.1126972E-02
    1       -0.640574   1.000000
    2        9.117454   1.000000
    3       15.893861   0.000000
    4       16.621855   0.000000
    5       19.151438   0.000000
    6       24.963632   0.000000
    7       25.920674   0.000000
    8       28.091099   0.000000
 
  0.4318182E+00  0.1590909E+00  0.2272727E-01  0.1126972E-02
    1        0.262799   1.000000
    2        7.506384   1.000000
    3       15.744793   0.000000
    4       16.136151   0.000000
    5       19.129464   0.000000
    6       25.132769   0.000000
    7       26.063601   0.000000
    8       28.514872   0.000000
 
  0.4772727E+00  0.1590909E+00  0.2272727E-01  0.1126972E-02
    1        1.275704   1.000000
    2        5.995023   1.000000
    3       15.262743   0.000000
    4       16.153741   0.000000
    5       19.240221   0.000000
    6       24.606191   0.000000
    7       26.502052   0.000000
    8       29.415494   0.000000
 
 -0.4772727E+00  0.1590909E+00  0.2272727E-01  0.1126972E-02
    1        2.383107   1.000000
    2        4.601465   1.000000
    3       14.771191   0.000000
    4       16.368072   0.000000
    5       19.474187   0.000000
    6       24.136974   0.000000
    7       26.581357   0.000000
    8       30.431695   0.000000
 
 -0.4318182E+00  0.1590909E+00  0.2272727E-01  0.1126972E-02
    1        3.077990   1.000000
    2        3.834647   1.000000
    3       14.362959   0.000000
    4       16.694089   0.000000
    5       19.824187   0.000000
    6       23.760349   0.000000
    7       26.490495   0.000000
    8       30.542040   0.000000
 
 -0.3863636E+00  0.1590909E+00  0.2272727E-01  0.1126972E-02
    1        2.006183   1.000000
    2        5.048897   1.000000
    3       14.053174   0.000000
    4       17.120273   0.000000
    5       20.284961   0.000000
    6       23.488575   0.000000
    7       26.336060   0.000000
    8       30.732002   0.000000
 
 -0.3409091E+00  0.1590909E+00  0.2272727E-01  0.1126972E-02
    1        0.926141   1.000000
    2        6.484608   1.000000
    3       13.847015   0.000000
    4       17.639165   0.000000
    5       20.849213   0.000000
    6       23.328297   0.000000
    7       26.168725   0.000000
    8       30.050578   0.000000
 
 -0.2954545E+00  0.1590909E+00  0.2272727E-01  0.1126972E-02
    1       -0.051062   1.000000
    2        8.027698   1.000000
    3       13.747956   0.000000
    4       18.242183   0.000000
    5       21.508043   0.000000
    6       23.286975   0.000000
    7       26.002654   0.000000
    8       28.570619   0.000000
 
 -0.2500000E+00  0.1590909E+00  0.2272727E-01  0.1126972E-02
    1       -0.916915   1.000000
    2        9.664460   1.000000
    3       13.759303   0.000000
    4       18.914983   0.000000
    5       22.241690   0.000000
    6       23.372757   0.000000
    7       25.815378   0.000000
    8       27.174511   0.000000
 
 -0.2045455E+00  0.1590909E+00  0.2272727E-01  0.1126972E-02
    1       -1.668440   1.000000
    2       11.378414   0.000000
    3       13.888744   0.000000
    4       19.631786   0.000000
    5       23.002800   0.000000
    6       23.594694   0.000000
    7       25.428660   0.000000
    8       26.094197   0.000000
 
 -0.1590909E+00  0.1590909E+00  0.2272727E-01  0.1126972E-02
    1       -2.303780   1.000000
    2       13.107950   0.000000
    3       14.184903   0.000000
    4       20.337992   0.000000
    5       23.555167   0.000000
    6       23.915884   0.000000
    7       24.807831   0.000000
    8       25.584009   0.000000
 
 -0.1136364E+00  0.1590909E+00  0.2272727E-01  0.1126972E-02
    1       -2.821591   1.000000
    2       14.236527   0.000000
    3       15.240415   0.000000
    4       20.882873   0.000000
    5       23.168429   0.000000
    6       24.430953   0.000000
    7       25.068914   0.000000
    8       25.131973   0.000000
 
 -0.6818182E-01  0.1590909E+00  0.2272727E-01  0.1126972E-02
    1       -3.220871   1.000000
    2       14.750192   0.000000
    3       17.017993   0.000000
    4       20.862632   0.000000
    5       22.971871   0.000000
    6       24.442791   0.000000
    7       25.158906   0.000000
    8       25.514524   0.000000
 
 -0.2272727E-01  0.1590909E+00  0.2272727E-01  0.1126972E-02
    1       -3.500844   1.000000
    2       15.297903   0.000000
    3       18.714666   0.000000
    4       20.281249   0.000000
    5       23.300381   0.000000
    6       24.005604   0.000000
    7       25.061096   0.000000
    8       26.178605   0.000000
 
  0.2045455E+00  0.2045455E+00  0.2272727E-01  0.5634861E-03
    1       -2.821236   1.000000
    2       16.307900   0.000000
    3       16.582475   0.000000
    4       18.265093   0.000000
    5       18.477391   0.000000
    6       21.273275   0.000000
    7       28.524169   0.000000
    8       28.532042   0.000000
 
  0.2500000E+00  0.2045455E+00  0.2272727E-01  0.1126972E-02
    1       -2.422637   1.000000
    2       15.275769   0.000000
    3       15.915108   0.000000
    4       17.724564   0.000000
    5       18.424303   0.000000
    6       20.706628   0.000000
    7       28.914816   0.000000
    8       29.202789   0.000000
 
  0.2954545E+00  0.2045455E+00  0.2272727E-01  0.1126972E-02
    1       -1.905719   1.000000
    2       13.520997   0.000000
    3       15.585602   0.000000
    4       16.922491   0.000000
    5       18.597128   0.000000
    6       21.005848   0.000000
    7       28.635466   0.000000
    8       29.478868   0.000000
 
  0.3409091E+00  0.2045455E+00  0.2272727E-01  0.1126972E-02
    1       -1.271561   1.000000
    2       11.749479   0.000000
    3       15.348748   0.000000
    4       16.104924   0.000000
    5       18.487170   0.000000
    6       21.989574   0.000000
    7       28.046872   0.000000
    8       29.551452   0.000000
 
  0.3863636E+00  0.2045455E+00  0.2272727E-01  0.1126972E-02
    1       -0.521453   1.000000
    2       10.035162   1.000000
    3       15.074817   0.000000
    4       15.457707   0.000000
    5       18.384579   0.000000
    6       23.241557   0.000000
    7       27.387540   0.000000
    8       29.531337   0.000000
 
  0.4318182E+00  0.2045455E+00  0.2272727E-01  0.1126972E-02
    1        0.342744   1.000000
    2        8.401729   1.000000
    3       14.448605   0.000000
    4       15.331597   0.000000
    5       18.377411   0.000000
    6       24.583896   0.000000
    7       26.758182   0.000000
    8       29.477999   0.000000
 
  0.4772727E+00  0.2045455E+00  0.2272727E-01  0.1126972E-02
    1        1.317991   1.000000
    2        6.861890   1.000000
    3       13.805670   0.000000
    4       15.412798   0.000000
    5       18.482001   0.000000
    6       25.762170   0.000000
    7       26.328561   0.000000
    8       29.455643   0.000000
 
 -0.4772727E+00  0.2045455E+00  0.2272727E-01  0.1126972E-02
    1        2.396022   1.000000
    2        5.428847   1.000000
    3       13.245916   0.000000
    4       15.610549   0.000000
    5       18.700190   0.000000
    6       25.587487   0.000000
    7       27.069754   0.000000
    8       29.664198   0.000000
 
 -0.4318182E+00  0.2045455E+00  0.2272727E-01  0.1126972E-02
    1        3.470314   1.000000
    2        4.211084   1.000000
    3       12.784801   0.000000
    4       15.914062   0.000000
    5       19.029119   0.000000
    6       25.193910   0.000000
    7       27.524778   0.000000
    8       30.355842   0.000000
 