Automatically generated mesh
    1012
Reciprocal lattice
    0.02272727272727    0.02272727272727    0.02272727272727             8
    0.06818181818182    0.02272727272727    0.02272727272727            24
    0.11363636363637    0.02272727272727    0.02272727272727            24
    0.15909090909091    0.02272727272727    0.02272727272727            24
    0.20454545454545    0.02272727272727    0.02272727272727            24
    0.25000000000000    0.02272727272727    0.02272727272727            24
    0.29545454545455    0.02272727272727    0.02272727272727            24
    0.34090909090909    0.02272727272727    0.02272727272727            24
    0.38636363636363    0.02272727272727    0.02272727272727            24
    0.43181818181818    0.02272727272727    0.02272727272727            24
    0.47727272727273    0.02272727272727    0.02272727272727            24
   -0.47727272727273    0.02272727272727    0.02272727272727            24
   -0.43181818181818    0.02272727272727    0.02272727272727            24
   -0.38636363636363    0.02272727272727    0.02272727272727            24
   -0.34090909090909    0.02272727272727    0.02272727272727            24
   -0.29545454545455    0.02272727272727    0.02272727272727            24
   -0.25000000000000    0.02272727272727    0.02272727272727            24
   -0.20454545454545    0.02272727272727    0.02272727272727            24
   -0.15909090909091    0.02272727272727    0.02272727272727            24
   -0.11363636363637    0.02272727272727    0.02272727272727            24
   -0.06818181818182    0.02272727272727    0.02272727272727            24
   -0.02272727272727    0.02272727272727    0.02272727272727            24
    0.06818181818182    0.06818181818182    0.02272727272727            24
    0.11363636363637    0.06818181818182    0.02272727272727            48
    0.15909090909091    0.06818181818182    0.02272727272727            48
    0.20454545454545    0.06818181818182    0.02272727272727            48
    0.25000000000000    0.06818181818182    0.02272727272727            48
    0.29545454545455    0.06818181818182    0.02272727272727            48
    0.34090909090909    0.06818181818182    0.02272727272727            48
    0.38636363636363    0.06818181818182    0.02272727272727            48
    0.43181818181818    0.06818181818182    0.02272727272727            48
    0.47727272727273    0.06818181818182    0.02272727272727            48
   -0.47727272727273    0.06818181818182    0.02272727272727            48
   -0.43181818181818    0.06818181818182    0.02272727272727            48
   -0.38636363636363    0.06818181818182    0.02272727272727            48
   -0.34090909090909    0.06818181818182    0.02272727272727            48
   -0.29545454545455    0.06818181818182    0.02272727272727            48
   -0.25000000000000    0.06818181818182    0.02272727272727            48
   -0.20454545454545    0.06818181818182    0.02272727272727            48
   -0.15909090909091    0.06818181818182    0.02272727272727            48
   -0.11363636363637    0.06818181818182    0.02272727272727            48
   -0.06818181818182    0.06818181818182    0.02272727272727            48
   -0.02272727272727    0.06818181818182    0.02272727272727            48
    0.11363636363637    0.11363636363637    0.02272727272727            24
    0.15909090909091    0.11363636363637    0.02272727272727            48
    0.20454545454545    0.11363636363637    0.02272727272727            48
    0.25000000000000    0.11363636363637    0.02272727272727            48
    0.29545454545455    0.11363636363637    0.02272727272727            48
    0.34090909090909    0.11363636363637    0.02272727272727            48
    0.38636363636363    0.11363636363637    0.02272727272727            48
    0.43181818181818    0.11363636363637    0.02272727272727            48
    0.47727272727273    0.11363636363637    0.02272727272727            48
   -0.47727272727273    0.11363636363637    0.02272727272727            48
   -0.43181818181818    0.11363636363637    0.02272727272727            48
   -0.38636363636363    0.11363636363637    0.02272727272727            48
   -0.34090909090909    0.11363636363637    0.02272727272727            48
   -0.29545454545455    0.11363636363637    0.02272727272727            48
   -0.25000000000000    0.11363636363637    0.02272727272727            48
   -0.20454545454545    0.11363636363637    0.02272727272727            48
   -0.15909090909091    0.11363636363637    0.02272727272727            48
   -0.11363636363637    0.11363636363637    0.02272727272727            48
   -0.06818181818182    0.11363636363637    0.02272727272727            48
   -0.02272727272727    0.11363636363637    0.02272727272727            48
    0.15909090909091    0.15909090909091    0.02272727272727            24
    0.20454545454545    0.15909090909091    0.02272727272727            48
    0.25000000000000    0.15909090909091    0.02272727272727            48
    0.29545454545455    0.15909090909091    0.02272727272727            48
    0.34090909090909    0.15909090909091    0.02272727272727            48
    0.38636363636363    0.15909090909091    0.02272727272727            48
    0.43181818181818    0.15909090909091    0.02272727272727            48
    0.47727272727273    0.15909090909091    0.02272727272727            48
   -0.47727272727273    0.15909090909091    0.02272727272727            48
   -0.43181818181818    0.15909090909091    0.02272727272727            48
   -0.38636363636363    0.15909090909091    0.02272727272727            48
   -0.34090909090909    0.15909090909091    0.02272727272727            48
   -0.29545454545455    0.15909090909091    0.02272727272727            48
   -0.25000000000000    0.15909090909091    0.02272727272727            48
   -0.20454545454545    0.15909090909091    0.02272727272727            48
   -0.15909090909091    0.15909090909091    0.02272727272727            48
   -0.11363636363637    0.15909090909091    0.02272727272727            48
   -0.06818181818182    0.15909090909091    0.02272727272727            48
   -0.02272727272727    0.15909090909091    0.02272727272727            48
    0.20454545454545    0.20454545454545    0.02272727272727            24
    0.25000000000000    0.20454545454545    0.02272727272727            48
    0.29545454545455    0.20454545454545    0.02272727272727            48
    0.34090909090909    0.20454545454545    0.02272727272727            48
    0.38636363636363    0.20454545454545    0.02272727272727            48
    0.43181818181818    0.20454545454545    0.02272727272727            48
    0.47727272727273    0.20454545454545    0.02272727272727            48
   -0.47727272727273    0.20454545454545    0.02272727272727            48
   -0.43181818181818    0.20454545454545    0.02272727272727            48
   -0.38636363636363    0.20454545454545    0.02272727272727            48
   -0.34090909090909    0.20454545454545    0.02272727272727            48
   -0.29545454545455    0.20454545454545    0.02272727272727            48
   -0.25000000000000    0.20454545454545    0.02272727272727            48
   -0.20454545454545    0.20454545454545    0.02272727272727            48
   -0.15909090909091    0.20454545454545    0.02272727272727            48
   -0.11363636363637    0.20454545454545    0.02272727272727            48
   -0.06818181818182    0.20454545454545    0.02272727272727            48
   -0.02272727272727    0.20454545454545    0.02272727272727            48
    0.25000000000000    0.25000000000000    0.02272727272727            24
    0.29545454545455    0.25000000000000    0.02272727272727            48
    0.34090909090909    0.25000000000000    0.02272727272727            48
    0.38636363636363    0.25000000000000    0.02272727272727            48
    0.43181818181818    0.25000000000000    0.02272727272727            48
    0.47727272727273    0.25000000000000    0.02272727272727            48
   -0.47727272727273    0.25000000000000    0.02272727272727            48
   -0.43181818181818    0.25000000000000    0.02272727272727            48
   -0.38636363636363    0.25000000000000    0.02272727272727            48
   -0.34090909090909    0.25000000000000    0.02272727272727            48
   -0.29545454545455    0.25000000000000    0.02272727272727            48
   -0.25000000000000    0.25000000000000    0.02272727272727            48
   -0.20454545454545    0.25000000000000    0.02272727272727            48
   -0.15909090909091    0.25000000000000    0.02272727272727            48
   -0.11363636363637    0.25000000000000    0.02272727272727            48
   -0.06818181818182    0.25000000000000    0.02272727272727            48
   -0.02272727272727    0.25000000000000    0.02272727272727            48
    0.29545454545455    0.29545454545455    0.02272727272727            24
    0.34090909090909    0.29545454545455    0.02272727272727            48
    0.38636363636363    0.29545454545455    0.02272727272727            48
    0.43181818181818    0.29545454545455    0.02272727272727            48
    0.47727272727273    0.29545454545455    0.02272727272727            48
   -0.47727272727273    0.29545454545455    0.02272727272727            48
   -0.43181818181818    0.29545454545455    0.02272727272727            48
   -0.38636363636363    0.29545454545455    0.02272727272727            48
   -0.34090909090909    0.29545454545455    0.02272727272727            48
   -0.29545454545455    0.29545454545455    0.02272727272727            48
   -0.25000000000000    0.29545454545455    0.02272727272727            48
   -0.20454545454545    0.29545454545455    0.02272727272727            48
   -0.15909090909091    0.29545454545455    0.02272727272727            48
   -0.11363636363637    0.29545454545455    0.02272727272727            48
   -0.06818181818182    0.29545454545455    0.02272727272727            48
   -0.02272727272727    0.29545454545455    0.02272727272727            48
    0.34090909090909    0.34090909090909    0.02272727272727            24
    0.38636363636363    0.34090909090909    0.02272727272727            48
    0.43181818181818    0.34090909090909    0.02272727272727            48
    0.47727272727273    0.34090909090909    0.02272727272727            48
   -0.47727272727273    0.34090909090909    0.02272727272727            48
   -0.43181818181818    0.34090909090909    0.02272727272727            48
   -0.38636363636363    0.34090909090909    0.02272727272727            48
   -0.34090909090909    0.34090909090909    0.02272727272727            48
   -0.29545454545455    0.34090909090909    0.02272727272727            48
   -0.25000000000000    0.34090909090909    0.02272727272727            48
   -0.20454545454545    0.34090909090909    0.02272727272727            48
   -0.15909090909091    0.34090909090909    0.02272727272727            48
   -0.11363636363637    0.34090909090909    0.02272727272727            48
   -0.06818181818182    0.34090909090909    0.02272727272727            48
   -0.02272727272727    0.34090909090909    0.02272727272727            48
    0.38636363636363    0.38636363636363    0.02272727272727            24
    0.43181818181818    0.38636363636363    0.02272727272727            48
    0.47727272727273    0.38636363636363    0.02272727272727            48
   -0.47727272727273    0.38636363636363    0.02272727272727            48
   -0.43181818181818    0.38636363636363    0.02272727272727            48
   -0.38636363636363    0.38636363636363    0.02272727272727            48
   -0.34090909090909    0.38636363636363    0.02272727272727            48
   -0.29545454545455    0.38636363636363    0.02272727272727            48
   -0.25000000000000    0.38636363636363    0.02272727272727            48
   -0.20454545454545    0.38636363636363    0.02272727272727            48
   -0.15909090909091    0.38636363636363    0.02272727272727            48
   -0.11363636363637    0.38636363636363    0.02272727272727            48
   -0.06818181818182    0.38636363636363    0.02272727272727            48
   -0.02272727272727    0.38636363636363    0.02272727272727            48
    0.43181818181818    0.43181818181818    0.02272727272727            24
    0.47727272727273    0.43181818181818    0.02272727272727            48
   -0.47727272727273    0.43181818181818    0.02272727272727            48
   -0.43181818181818    0.43181818181818    0.02272727272727            48
   -0.38636363636363    0.43181818181818    0.02272727272727            48
   -0.34090909090909    0.43181818181818    0.02272727272727            48
   -0.29545454545455    0.43181818181818    0.02272727272727            48
   -0.25000000000000    0.43181818181818    0.02272727272727            48
   -0.20454545454545    0.43181818181818    0.02272727272727            48
   -0.15909090909091    0.43181818181818    0.02272727272727            48
   -0.11363636363637    0.43181818181818    0.02272727272727            48
   -0.06818181818182    0.43181818181818    0.02272727272727            48
   -0.02272727272727    0.43181818181818    0.02272727272727            48
    0.47727272727273    0.47727272727273    0.02272727272727            24
   -0.47727272727273    0.47727272727273    0.02272727272727            48
   -0.43181818181818    0.47727272727273    0.02272727272727            48
   -0.38636363636363    0.47727272727273    0.02272727272727            48
   -0.34090909090909    0.47727272727273    0.02272727272727            48
   -0.29545454545455    0.47727272727273    0.02272727272727            48
   -0.25000000000000    0.47727272727273    0.02272727272727            48
   -0.20454545454545    0.47727272727273    0.02272727272727            48
   -0.15909090909091    0.47727272727273    0.02272727272727            48
   -0.11363636363637    0.47727272727273    0.02272727272727            48
   -0.06818181818182    0.47727272727273    0.02272727272727            48
   -0.02272727272727    0.47727272727273    0.02272727272727            48
   -0.47727272727273   -0.47727272727273    0.02272727272727            24
   -0.43181818181818   -0.47727272727273    0.02272727272727            48
   -0.38636363636363   -0.47727272727273    0.02272727272727            48
   -0.34090909090909   -0.47727272727273    0.02272727272727            48
   -0.29545454545455   -0.47727272727273    0.02272727272727            48
   -0.25000000000000   -0.47727272727273    0.02272727272727            48
   -0.20454545454545   -0.47727272727273    0.02272727272727            48
   -0.15909090909091   -0.47727272727273    0.02272727272727            48
   -0.11363636363637   -0.47727272727273    0.02272727272727            48
   -0.06818181818182   -0.47727272727273    0.02272727272727            48
   -0.43181818181818   -0.43181818181818    0.02272727272727            24
   -0.38636363636363   -0.43181818181818    0.02272727272727            48
   -0.34090909090909   -0.43181818181818    0.02272727272727            48
   -0.29545454545455   -0.43181818181818    0.02272727272727            48
   -0.25000000000000   -0.43181818181818    0.02272727272727            48
   -0.20454545454545   -0.43181818181818    0.02272727272727            48
   -0.15909090909091   -0.43181818181818    0.02272727272727            48
   -0.11363636363637   -0.43181818181818    0.02272727272727            48
   -0.06818181818182   -0.43181818181818    0.02272727272727            48
   -0.38636363636363   -0.38636363636363    0.02272727272727            24
   -0.34090909090909   -0.38636363636363    0.02272727272727            48
   -0.29545454545455   -0.38636363636363    0.02272727272727            48
   -0.25000000000000   -0.38636363636363    0.02272727272727            48
   -0.20454545454545   -0.38636363636363    0.02272727272727            48
   -0.15909090909091   -0.38636363636363    0.02272727272727            48
   -0.11363636363637   -0.38636363636363    0.02272727272727            48
   -0.06818181818182   -0.38636363636363    0.02272727272727            48
   -0.34090909090909   -0.34090909090909    0.02272727272727            24
   -0.29545454545455   -0.34090909090909    0.02272727272727            48
   -0.25000000000000   -0.34090909090909    0.02272727272727            48
   -0.20454545454545   -0.34090909090909    0.02272727272727            48
   -0.15909090909091   -0.34090909090909    0.02272727272727            48
   -0.11363636363637   -0.34090909090909    0.02272727272727            48
   -0.06818181818182   -0.34090909090909    0.02272727272727            48
   -0.29545454545455   -0.29545454545455    0.02272727272727            24
   -0.25000000000000   -0.29545454545455    0.02272727272727            48
   -0.20454545454545   -0.29545454545455    0.02272727272727            48
   -0.15909090909091   -0.29545454545455    0.02272727272727            48
   -0.11363636363637   -0.29545454545455    0.02272727272727            48
   -0.06818181818182   -0.29545454545455    0.02272727272727            48
   -0.25000000000000   -0.25000000000000    0.02272727272727            24
   -0.20454545454545   -0.25000000000000    0.02272727272727            48
   -0.15909090909091   -0.25000000000000    0.02272727272727            48
   -0.11363636363637   -0.25000000000000    0.02272727272727            48
   -0.06818181818182   -0.25000000000000    0.02272727272727            48
   -0.20454545454545   -0.20454545454545    0.02272727272727            24
   -0.15909090909091   -0.20454545454545    0.02272727272727            48
   -0.11363636363637   -0.20454545454545    0.02272727272727            48
   -0.06818181818182   -0.20454545454545    0.02272727272727            48
   -0.15909090909091   -0.15909090909091    0.02272727272727            24
   -0.11363636363637   -0.15909090909091    0.02272727272727            48
   -0.06818181818182   -0.15909090909091    0.02272727272727            48
   -0.11363636363637   -0.11363636363637    0.02272727272727            24
   -0.06818181818182   -0.11363636363637    0.02272727272727            48
   -0.06818181818182   -0.06818181818182    0.02272727272727            24
    0.06818181818182    0.06818181818182    0.06818181818182             8
    0.11363636363637    0.06818181818182    0.06818181818182            24
    0.15909090909091    0.06818181818182    0.06818181818182            24
    0.20454545454545    0.06818181818182    0.06818181818182            24
    0.25000000000000    0.06818181818182    0.06818181818182            24
    0.29545454545455    0.06818181818182    0.06818181818182            24
    0.34090909090909    0.06818181818182    0.06818181818182            24
    0.38636363636363    0.06818181818182    0.06818181818182            24
    0.43181818181818    0.06818181818182    0.06818181818182            24
    0.47727272727273    0.06818181818182    0.06818181818182            24
   -0.47727272727273    0.06818181818182    0.06818181818182            24
   -0.43181818181818    0.06818181818182    0.06818181818182            24
   -0.38636363636363    0.06818181818182    0.06818181818182            24
   -0.34090909090909    0.06818181818182    0.06818181818182            24
   -0.29545454545455    0.06818181818182    0.06818181818182            24
   -0.25000000000000    0.06818181818182    0.06818181818182            24
   -0.20454545454545    0.06818181818182    0.06818181818182            24
   -0.15909090909091    0.06818181818182    0.06818181818182            24
   -0.11363636363637    0.06818181818182    0.06818181818182            24
   -0.06818181818182    0.06818181818182    0.06818181818182            24
    0.11363636363637    0.11363636363637    0.06818181818182            24
    0.15909090909091    0.11363636363637    0.06818181818182            48
    0.20454545454545    0.11363636363637    0.06818181818182            48
    0.25000000000000    0.11363636363637    0.06818181818182            48
    0.29545454545455    0.11363636363637    0.06818181818182            48
    0.34090909090909    0.11363636363637    0.06818181818182            48
    0.38636363636363    0.11363636363637    0.06818181818182            48
    0.43181818181818    0.11363636363637    0.06818181818182            48
    0.47727272727273    0.11363636363637    0.06818181818182            48
   -0.47727272727273    0.11363636363637    0.06818181818182            48
   -0.43181818181818    0.11363636363637    0.06818181818182            48
   -0.38636363636363    0.11363636363637    0.06818181818182            48
   -0.34090909090909    0.11363636363637    0.06818181818182            48
   -0.29545454545455    0.11363636363637    0.06818181818182            48
   -0.25000000000000    0.11363636363637    0.06818181818182            48
   -0.20454545454545    0.11363636363637    0.06818181818182            48
   -0.15909090909091    0.11363636363637    0.06818181818182            48
   -0.11363636363637    0.11363636363637    0.06818181818182            48
   -0.06818181818182    0.11363636363637    0.06818181818182            48
    0.15909090909091    0.15909090909091    0.06818181818182            24
    0.20454545454545    0.15909090909091    0.06818181818182            48
    0.25000000000000    0.15909090909091    0.06818181818182            48
    0.29545454545455    0.15909090909091    0.06818181818182            48
    0.34090909090909    0.15909090909091    0.06818181818182            48
    0.38636363636363    0.15909090909091    0.06818181818182            48
    0.43181818181818    0.15909090909091    0.06818181818182            48
    0.47727272727273    0.15909090909091    0.06818181818182            48
   -0.47727272727273    0.15909090909091    0.06818181818182            48
   -0.43181818181818    0.15909090909091    0.06818181818182            48
   -0.38636363636363    0.15909090909091    0.06818181818182            48
   -0.34090909090909    0.15909090909091    0.06818181818182            48
   -0.29545454545455    0.15909090909091    0.06818181818182            48
   -0.25000000000000    0.15909090909091    0.06818181818182            48
   -0.20454545454545    0.15909090909091    0.06818181818182            48
   -0.15909090909091    0.15909090909091    0.06818181818182            48
   -0.11363636363637    0.15909090909091    0.06818181818182            48
   -0.06818181818182    0.15909090909091    0.06818181818182            48
    0.20454545454545    0.20454545454545    0.06818181818182            24
    0.25000000000000    0.20454545454545    0.06818181818182            48
    0.29545454545455    0.20454545454545    0.06818181818182            48
    0.34090909090909    0.20454545454545    0.06818181818182            48
    0.38636363636363    0.20454545454545    0.06818181818182            48
    0.43181818181818    0.20454545454545    0.06818181818182            48
    0.47727272727273    0.20454545454545    0.06818181818182            48
   -0.47727272727273    0.20454545454545    0.06818181818182            48
   -0.43181818181818    0.20454545454545    0.06818181818182            48
   -0.38636363636363    0.20454545454545    0.06818181818182            48
   -0.34090909090909    0.20454545454545    0.06818181818182            48
   -0.29545454545455    0.20454545454545    0.06818181818182            48
   -0.25000000000000    0.20454545454545    0.06818181818182            48
   -0.20454545454545    0.20454545454545    0.06818181818182            48
   -0.15909090909091    0.20454545454545    0.06818181818182            48
   -0.11363636363637    0.20454545454545    0.06818181818182            48
   -0.06818181818182    0.20454545454545    0.06818181818182            48
    0.25000000000000    0.25000000000000    0.06818181818182            24
    0.29545454545455    0.25000000000000    0.06818181818182            48
    0.34090909090909    0.25000000000000    0.06818181818182            48
    0.38636363636363    0.25000000000000    0.06818181818182            48
    0.43181818181818    0.25000000000000    0.06818181818182            48
    0.47727272727273    0.25000000000000    0.06818181818182            48
   -0.47727272727273    0.25000000000000    0.06818181818182            48
   -0.43181818181818    0.25000000000000    0.06818181818182            48
   -0.38636363636363    0.25000000000000    0.06818181818182            48
   -0.34090909090909    0.25000000000000    0.06818181818182            48
   -0.29545454545455    0.25000000000000    0.06818181818182            48
   -0.25000000000000    0.25000000000000    0.06818181818182            48
   -0.20454545454545    0.25000000000000    0.06818181818182            48
   -0.15909090909091    0.25000000000000    0.06818181818182            48
   -0.11363636363637    0.25000000000000    0.06818181818182            48
   -0.06818181818182    0.25000000000000    0.06818181818182            48
    0.29545454545455    0.29545454545455    0.06818181818182            24
    0.34090909090909    0.29545454545455    0.06818181818182            48
    0.38636363636363    0.29545454545455    0.06818181818182            48
    0.43181818181818    0.29545454545455    0.06818181818182            48
    0.47727272727273    0.29545454545455    0.06818181818182            48
   -0.47727272727273    0.29545454545455    0.06818181818182            48
   -0.43181818181818    0.29545454545455    0.06818181818182            48
   -0.38636363636363    0.29545454545455    0.06818181818182            48
   -0.34090909090909    0.29545454545455    0.06818181818182            48
   -0.29545454545455    0.29545454545455    0.06818181818182            48
   -0.25000000000000    0.29545454545455    0.06818181818182            48
   -0.20454545454545    0.29545454545455    0.06818181818182            48
   -0.15909090909091    0.29545454545455    0.06818181818182            48
   -0.11363636363637    0.29545454545455    0.06818181818182            48
   -0.06818181818182    0.29545454545455    0.06818181818182            48
    0.34090909090909    0.34090909090909    0.06818181818182            24
    0.38636363636363    0.34090909090909    0.06818181818182            48
    0.43181818181818    0.34090909090909    0.06818181818182            48
    0.47727272727273    0.34090909090909    0.06818181818182            48
   -0.47727272727273    0.34090909090909    0.06818181818182            48
   -0.43181818181818    0.34090909090909    0.06818181818182            48
   -0.38636363636363    0.34090909090909    0.06818181818182            48
   -0.34090909090909    0.34090909090909    0.06818181818182            48
   -0.29545454545455    0.34090909090909    0.06818181818182            48
   -0.25000000000000    0.34090909090909    0.06818181818182            48
   -0.20454545454545    0.34090909090909    0.06818181818182            48
   -0.15909090909091    0.34090909090909    0.06818181818182            48
   -0.11363636363637    0.34090909090909    0.06818181818182            48
   -0.06818181818182    0.34090909090909    0.06818181818182            48
    0.38636363636363    0.38636363636363    0.06818181818182            24
    0.43181818181818    0.38636363636363    0.06818181818182            48
    0.47727272727273    0.38636363636363    0.06818181818182            48
   -0.47727272727273    0.38636363636363    0.06818181818182            48
   -0.43181818181818    0.38636363636363    0.06818181818182            48
   -0.38636363636363    0.38636363636363    0.06818181818182            48
   -0.34090909090909    0.38636363636363    0.06818181818182            48
   -0.29545454545455    0.38636363636363    0.06818181818182            48
   -0.25000000000000    0.38636363636363    0.06818181818182            48
   -0.20454545454545    0.38636363636363    0.06818181818182            48
   -0.15909090909091    0.38636363636363    0.06818181818182            48
   -0.11363636363637    0.38636363636363    0.06818181818182            48
   -0.06818181818182    0.38636363636363    0.06818181818182            48
    0.43181818181818    0.43181818181818    0.06818181818182            24
    0.47727272727273    0.43181818181818    0.06818181818182            48
   -0.47727272727273    0.43181818181818    0.06818181818182            48
   -0.43181818181818    0.43181818181818    0.06818181818182            48
   -0.38636363636363    0.43181818181818    0.06818181818182            48
   -0.34090909090909    0.43181818181818    0.06818181818182            48
   -0.29545454545455    0.43181818181818    0.06818181818182            48
   -0.25000000000000    0.43181818181818    0.06818181818182            48
   -0.20454545454545    0.43181818181818    0.06818181818182            48
   -0.15909090909091    0.43181818181818    0.06818181818182            48
   -0.11363636363637    0.43181818181818    0.06818181818182            48
   -0.06818181818182    0.43181818181818    0.06818181818182            48
    0.47727272727273    0.47727272727273    0.06818181818182            24
   -0.47727272727273    0.47727272727273    0.06818181818182            48
   -0.43181818181818    0.47727272727273    0.06818181818182            48
   -0.38636363636363    0.47727272727273    0.06818181818182            48
   -0.34090909090909    0.47727272727273    0.06818181818182            48
   -0.29545454545455    0.47727272727273    0.06818181818182            48
   -0.25000000000000    0.47727272727273    0.06818181818182            48
   -0.20454545454545    0.47727272727273    0.06818181818182            48
   -0.15909090909091    0.47727272727273    0.06818181818182            48
   -0.11363636363637    0.47727272727273    0.06818181818182            48
   -0.06818181818182    0.47727272727273    0.06818181818182            48
   -0.47727272727273   -0.47727272727273    0.06818181818182            24
   -0.43181818181818   -0.47727272727273    0.06818181818182            48