       N       E                     dE             d eps       ncg     rms          rms(c)
DAV:   1    -0.331011214070E+01   -0.33101E+01   -0.14377E+03 17960   0.274E+02
DAV:   2    -0.489792225059E+01   -0.15878E+01   -0.15117E+01 24360   0.236E+01
DAV:   3    -0.490510605877E+01   -0.71838E-02   -0.71814E-02 18272   0.160E+00
DAV:   4    -0.490511189233E+01   -0.58336E-05   -0.58333E-05 27200   0.451E-02
DAV:   5    -0.490511189454E+01   -0.22078E-08   -0.11626E-08 18360   0.309E-04    0.280E+00
DAV:   6    -0.489158932818E+01    0.13523E-01   -0.38939E-03 18672   0.273E-01    0.155E+00
DAV:   7    -0.488380700317E+01    0.77823E-02   -0.78876E-03 19176   0.388E-01    0.133E-01
DAV:   8    -0.488376845311E+01    0.38550E-04   -0.25313E-05 24416   0.398E-02    0.151E-02
DAV:   9    -0.488376879635E+01   -0.34324E-06   -0.32628E-07 20392   0.327E-03
   1 F= -.48837688E+01 E0= -.48835018E+01  d E =-.488377E+01
       N       E                     dE             d eps       ncg     rms          rms(c)
DAV:   1    -0.488786673653E+01   -0.40983E-02   -0.92016E-02 17704   0.119E+00    0.287E-01
DAV:   2    -0.488687319281E+01    0.99354E-03   -0.49034E-04 22520   0.161E-01    0.161E-01
DAV:   3    -0.488629202913E+01    0.58116E-03   -0.65535E-04 17856   0.108E-01    0.483E-02
DAV:   4    -0.488629118191E+01    0.84722E-06   -0.11865E-06 24296   0.935E-03    0.407E-02
DAV:   5    -0.488628761550E+01    0.35664E-05   -0.23740E-07 12648   0.336E-03    0.801E-03
DAV:   6    -0.488628784962E+01   -0.23412E-06   -0.75861E-09  9040   0.735E-04
   2 F= -.48862878E+01 E0= -.48860157E+01  d E =-.251905E-02
       N       E                     dE             d eps       ncg     rms          rms(c)
DAV:   1    -0.488635838634E+01   -0.70771E-04   -0.13749E-03 17616   0.147E-01    0.345E-02
DAV:   2    -0.488634350480E+01    0.14882E-04   -0.72863E-06 22408   0.196E-02    0.193E-02
DAV:   3    -0.488633519463E+01    0.83102E-05   -0.98899E-06 17856   0.132E-02    0.609E-03
DAV:   4    -0.488633523451E+01   -0.39882E-07   -0.17107E-08  8848   0.114E-03    0.515E-03
DAV:   5    -0.488633547305E+01   -0.23854E-06   -0.48189E-09  8272   0.523E-04    0.725E-04
DAV:   6    -0.488633544632E+01    0.26734E-07   -0.15494E-10  8328   0.101E-04
   3 F= -.48863354E+01 E0= -.48860645E+01  d E =-.256665E-02
