<?xml version="1.0" encoding="ISO-8859-1"?>
<modeling>
 <generator>
  <i name="program" type="string">vasp </i>
  <i name="version" type="string">6.2.0  </i>
  <i name="subversion" type="string">18Jan21 (build Aug 12 2022 13:00:08) complex                          parallel </i>
  <i name="platform" type="string">LinuxIFC </i>
  <i name="date" type="string">2024 11 03 </i>
  <i name="time" type="string">22:03:18 </i>
 </generator>
 <incar>
  <i type="int" name="ISTART">     0</i>
  <i type="string" name="PREC">Accurate      (Accurate strictly avoids</i>
  <i type="logical" name="ADDGRID"> T  </i>
  <i type="int" name="ISPIN">     1</i>
  <i type="int" name="NELM">    90</i>
  <i type="int" name="NELMIN">     6</i>
  <i type="int" name="IBRION">     2</i>
  <i name="EDIFF">      0.00000100</i>
  <i name="EDIFFG">     -0.00200000</i>
  <i type="int" name="NSW">   100</i>
  <i type="int" name="ISIF">     3</i>
  <i type="int" name="ISYM">     2</i>
  <i name="ENCUT">    350.00000000</i>
  <i type="logical" name="LREAL"> F  </i>
  <i type="int" name="ISMEAR">     0</i>
  <i name="SIGMA">      0.05000000</i>
  <i type="logical" name="LWAVE"> F  </i>
  <i type="logical" name="LCHARG"> F  </i>
  <i type="logical" name="LASPH"> T  </i>
 </incar>
 <primitive_cell>
  <structure name="primitive_cell" >
   <crystal>
    <varray name="basis" >
     <v>       2.34739500       0.00000000       1.35526800 </v>
     <v>       0.78246500       2.21314500       1.35526800 </v>
     <v>       0.00000000       0.00000000       2.71053800 </v>
    </varray>
    <i name="volume">     14.08158510 </i>
    <varray name="rec_basis" >
     <v>       0.42600415      -0.15061523       0.00000000 </v>
     <v>       0.00000000       0.45184568       0.00000000 </v>
     <v>      -0.21300192      -0.15061511       0.36893045 </v>
    </varray>
   </crystal>
   <varray name="positions" >
    <v>       0.00000000       0.00000000       0.00000000 </v>
   </varray>
  </structure>
  <varray name="primitive_index" >
   <v type="int" >        1 </v>
  </varray>
 </primitive_cell>
 <kpoints>
  <generation param="Monkhorst-Pack">
   <v type="int" name="divisions">      22       22       22 </v>
   <v name="usershift">      0.00000000       0.00000000       0.00000000 </v>
   <v name="genvec1">      0.04545455      -0.00000000       0.00000000 </v>
   <v name="genvec2">      0.00000000       0.04545455       0.00000000 </v>
   <v name="genvec3">      0.00000000       0.00000000       0.04545455 </v>
   <v name="shift">      0.50000000       0.50000000       0.50000000 </v>
  </generation>
  <varray name="kpointlist" >
   <v>       0.02272727       0.02272727       0.02272727 </v>
   <v>       0.06818182       0.02272727       0.02272727 </v>
   <v>       0.11363636       0.02272727       0.02272727 </v>
   <v>       0.15909091       0.02272727       0.02272727 </v>
   <v>       0.20454545       0.02272727       0.02272727 </v>
   <v>       0.25000000       0.02272727       0.02272727 </v>
   <v>       0.29545455       0.02272727       0.02272727 </v>
   <v>       0.34090909       0.02272727       0.02272727 </v>
   <v>       0.38636364       0.02272727       0.02272727 </v>
   <v>       0.43181818       0.02272727       0.02272727 </v>
   <v>       0.47727273       0.02272727       0.02272727 </v>
   <v>      -0.47727273       0.02272727       0.02272727 </v>
   <v>      -0.43181818       0.02272727       0.02272727 </v>
   <v>      -0.38636364       0.02272727       0.02272727 </v>
   <v>      -0.34090909       0.02272727       0.02272727 </v>
   <v>      -0.29545455       0.02272727       0.02272727 </v>
   <v>      -0.25000000       0.02272727       0.02272727 </v>
   <v>      -0.20454545       0.02272727       0.02272727 </v>
   <v>      -0.15909091       0.02272727       0.02272727 </v>
   <v>      -0.11363636       0.02272727       0.02272727 </v>
   <v>      -0.06818182       0.02272727       0.02272727 </v>
   <v>      -0.02272727       0.02272727       0.02272727 </v>
   <v>       0.06818182       0.06818182       0.02272727 </v>
   <v>       0.11363636       0.06818182       0.02272727 </v>
   <v>       0.15909091       0.06818182       0.02272727 </v>
   <v>       0.20454545       0.06818182       0.02272727 </v>
   <v>       0.25000000       0.06818182       0.02272727 </v>
   <v>       0.29545455       0.06818182       0.02272727 </v>
   <v>       0.34090909       0.06818182       0.02272727 </v>
   <v>       0.38636364       0.06818182       0.02272727 </v>
   <v>       0.43181818       0.06818182       0.02272727 </v>
   <v>       0.47727273       0.06818182       0.02272727 </v>
   <v>      -0.47727273       0.06818182       0.02272727 </v>
   <v>      -0.43181818       0.06818182       0.02272727 </v>
   <v>      -0.38636364       0.06818182       0.02272727 </v>
   <v>      -0.34090909       0.06818182       0.02272727 </v>
   <v>      -0.29545455       0.06818182       0.02272727 </v>
   <v>      -0.25000000       0.06818182       0.02272727 </v>
   <v>      -0.20454545       0.06818182       0.02272727 </v>
   <v>      -0.15909091       0.06818182       0.02272727 </v>
   <v>      -0.11363636       0.06818182       0.02272727 </v>
   <v>      -0.06818182       0.06818182       0.02272727 </v>
   <v>      -0.02272727       0.06818182       0.02272727 </v>
   <v>       0.11363636       0.11363636       0.02272727 </v>
   <v>       0.15909091       0.11363636       0.02272727 </v>
   <v>       0.20454545       0.11363636       0.02272727 </v>
   <v>       0.25000000       0.11363636       0.02272727 </v>
   <v>       0.29545455       0.11363636       0.02272727 </v>
   <v>       0.34090909       0.11363636       0.02272727 </v>
   <v>       0.38636364       0.11363636       0.02272727 </v>
   <v>       0.43181818       0.11363636       0.02272727 </v>
   <v>       0.47727273       0.11363636       0.02272727 </v>
   <v>      -0.47727273       0.11363636       0.02272727 </v>
   <v>      -0.43181818       0.11363636       0.02272727 </v>
   <v>      -0.38636364       0.11363636       0.02272727 </v>
   <v>      -0.34090909       0.11363636       0.02272727 </v>
   <v>      -0.29545455       0.11363636       0.02272727 </v>
   <v>      -0.25000000       0.11363636       0.02272727 </v>
   <v>      -0.20454545       0.11363636       0.02272727 </v>
   <v>      -0.15909091       0.11363636       0.02272727 </v>
   <v>      -0.11363636       0.11363636       0.02272727 </v>
   <v>      -0.06818182       0.11363636       0.02272727 </v>
   <v>      -0.02272727       0.11363636       0.02272727 </v>
   <v>       0.15909091       0.15909091       0.02272727 </v>
   <v>       0.20454545       0.15909091       0.02272727 </v>
   <v>       0.25000000       0.15909091       0.02272727 </v>
   <v>       0.29545455       0.15909091       0.02272727 </v>
   <v>       0.34090909       0.15909091       0.02272727 </v>
   <v>       0.38636364       0.15909091       0.02272727 </v>
   <v>       0.43181818       0.15909091       0.02272727 </v>
   <v>       0.47727273       0.15909091       0.02272727 </v>
   <v>      -0.47727273       0.15909091       0.02272727 </v>
   <v>      -0.43181818       0.15909091       0.02272727 </v>
   <v>      -0.38636364       0.15909091       0.02272727 </v>
   <v>      -0.34090909       0.15909091       0.02272727 </v>
   <v>      -0.29545455       0.15909091       0.02272727 </v>
   <v>      -0.25000000       0.15909091       0.02272727 </v>
   <v>      -0.20454545       0.15909091       0.02272727 </v>
   <v>      -0.15909091       0.15909091       0.02272727 </v>
   <v>      -0.11363636       0.15909091       0.02272727 </v>
   <v>      -0.06818182       0.15909091       0.02272727 </v>
   <v>      -0.02272727       0.15909091       0.02272727 </v>
   <v>       0.20454545       0.20454545       0.02272727 </v>
   <v>       0.25000000       0.20454545       0.02272727 </v>
   <v>       0.29545455       0.20454545       0.02272727 </v>
   <v>       0.34090909       0.20454545       0.02272727 </v>
   <v>       0.38636364       0.20454545       0.02272727 </v>
   <v>       0.43181818       0.20454545       0.02272727 </v>
   <v>       0.47727273       0.20454545       0.02272727 </v>
   <v>      -0.47727273       0.20454545       0.02272727 </v>
   <v>      -0.43181818       0.20454545       0.02272727 </v>
   <v>      -0.38636364       0.20454545       0.02272727 </v>
   <v>      -0.34090909       0.20454545       0.02272727 </v>
   <v>      -0.29545455       0.20454545       0.02272727 </v>
   <v>      -0.25000000       0.20454545       0.02272727 </v>
   <v>      -0.20454545       0.20454545       0.02272727 </v>
   <v>      -0.15909091       0.20454545       0.02272727 </v>
   <v>      -0.11363636       0.20454545       0.02272727 </v>
   <v>      -0.06818182       0.20454545       0.02272727 </v>
   <v>      -0.02272727       0.20454545       0.02272727 </v>
   <v>       0.25000000       0.25000000       0.02272727 </v>
   <v>       0.29545455       0.25000000       0.02272727 </v>
   <v>       0.34090909       0.25000000       0.02272727 </v>
   <v>       0.38636364       0.25000000       0.02272727 </v>
   <v>       0.43181818       0.25000000       0.02272727 </v>
   <v>       0.47727273       0.25000000       0.02272727 </v>
   <v>      -0.47727273       0.25000000       0.02272727 </v>
   <v>      -0.43181818       0.25000000       0.02272727 </v>
   <v>      -0.38636364       0.25000000       0.02272727 </v>
   <v>      -0.34090909       0.25000000       0.02272727 </v>
   <v>      -0.29545455       0.25000000       0.02272727 </v>
   <v>      -0.25000000       0.25000000       0.02272727 </v>
   <v>      -0.20454545       0.25000000       0.02272727 </v>
   <v>      -0.15909091       0.25000000       0.02272727 </v>
   <v>      -0.11363636       0.25000000       0.02272727 </v>
   <v>      -0.06818182       0.25000000       0.02272727 </v>
   <v>      -0.02272727       0.25000000       0.02272727 </v>
   <v>       0.29545455       0.29545455       0.02272727 </v>
   <v>       0.34090909       0.29545455       0.02272727 </v>
   <v>       0.38636364       0.29545455       0.02272727 </v>
   <v>       0.43181818       0.29545455       0.02272727 </v>
   <v>       0.47727273       0.29545455       0.02272727 </v>
   <v>      -0.47727273       0.29545455       0.02272727 </v>
   <v>      -0.43181818       0.29545455       0.02272727 </v>
   <v>      -0.38636364       0.29545455       0.02272727 </v>
   <v>      -0.34090909       0.29545455       0.02272727 </v>
   <v>      -0.29545455       0.29545455       0.02272727 </v>
   <v>      -0.25000000       0.29545455       0.02272727 </v>
   <v>      -0.20454545       0.29545455       0.02272727 </v>
   <v>      -0.15909091       0.29545455       0.02272727 </v>
   <v>      -0.11363636       0.29545455       0.02272727 </v>
   <v>      -0.06818182       0.29545455       0.02272727 </v>
   <v>      -0.02272727       0.29545455       0.02272727 </v>
   <v>       0.34090909       0.34090909       0.02272727 </v>
   <v>       0.38636364       0.34090909       0.02272727 </v>
   <v>       0.43181818       0.34090909       0.02272727 </v>
   <v>       0.47727273       0.34090909       0.02272727 </v>
   <v>      -0.47727273       0.34090909       0.02272727 </v>
   <v>      -0.43181818       0.34090909       0.02272727 </v>
   <v>      -0.38636364       0.34090909       0.02272727 </v>
   <v>      -0.34090909       0.34090909       0.02272727 </v>
   <v>      -0.29545455       0.34090909       0.02272727 </v>
   <v>      -0.25000000       0.34090909       0.02272727 </v>
   <v>      -0.20454545       0.34090909       0.02272727 </v>
   <v>      -0.15909091       0.34090909       0.02272727 </v>
   <v>      -0.11363636       0.34090909       0.02272727 </v>
   <v>      -0.06818182       0.34090909       0.02272727 </v>
   <v>      -0.02272727       0.34090909       0.02272727 </v>
   <v>       0.38636364       0.38636364       0.02272727 </v>
   <v>       0.43181818       0.38636364       0.02272727 </v>
   <v>       0.47727273       0.38636364       0.02272727 </v>
   <v>      -0.47727273       0.38636364       0.02272727 </v>
   <v>      -0.43181818       0.38636364       0.02272727 </v>
   <v>      -0.38636364       0.38636364       0.02272727 </v>
   <v>      -0.34090909       0.38636364       0.02272727 </v>
   <v>      -0.29545455       0.38636364       0.02272727 </v>
   <v>      -0.25000000       0.38636364       0.02272727 </v>
   <v>      -0.20454545       0.38636364       0.02272727 </v>
   <v>      -0.15909091       0.38636364       0.02272727 </v>
   <v>      -0.11363636       0.38636364       0.02272727 </v>
   <v>      -0.06818182       0.38636364       0.02272727 </v>
   <v>      -0.02272727       0.38636364       0.02272727 </v>
   <v>       0.43181818       0.43181818       0.02272727 </v>
   <v>       0.47727273       0.43181818       0.02272727 </v>
   <v>      -0.47727273       0.43181818       0.02272727 </v>
   <v>      -0.43181818       0.43181818       0.02272727 </v>
   <v>      -0.38636364       0.43181818       0.02272727 </v>
   <v>      -0.34090909       0.43181818       0.02272727 </v>
   <v>      -0.29545455       0.43181818       0.02272727 </v>
   <v>      -0.25000000       0.43181818       0.02272727 </v>
   <v>      -0.20454545       0.43181818       0.02272727 </v>
   <v>      -0.15909091       0.43181818       0.02272727 </v>
   <v>      -0.11363636       0.43181818       0.02272727 </v>
   <v>      -0.06818182       0.43181818       0.02272727 </v>
   <v>      -0.02272727       0.43181818       0.02272727 </v>
   <v>       0.47727273       0.47727273       0.02272727 </v>
   <v>      -0.47727273       0.47727273       0.02272727 </v>
   <v>      -0.43181818       0.47727273       0.02272727 </v>
   <v>      -0.38636364       0.47727273       0.02272727 </v>
   <v>      -0.34090909       0.47727273       0.02272727 </v>
   <v>      -0.29545455       0.47727273       0.02272727 </v>
   <v>      -0.25000000       0.47727273       0.02272727 </v>
   <v>      -0.20454545       0.47727273       0.02272727 </v>
   <v>      -0.15909091       0.47727273       0.02272727 </v>
   <v>      -0.11363636       0.47727273       0.02272727 </v>
   <v>      -0.06818182       0.47727273       0.02272727 </v>
   <v>      -0.02272727       0.47727273       0.02272727 </v>
   <v>      -0.47727273      -0.47727273       0.02272727 </v>
   <v>      -0.43181818      -0.47727273       0.02272727 </v>
   <v>      -0.38636364      -0.47727273       0.02272727 </v>
   <v>      -0.34090909      -0.47727273       0.02272727 </v>
   <v>      -0.29545455      -0.47727273       0.02272727 </v>
   <v>      -0.25000000      -0.47727273       0.02272727 </v>
   <v>      -0.20454545      -0.47727273       0.02272727 </v>
   <v>      -0.15909091      -0.47727273       0.02272727 </v>
   <v>      -0.11363636      -0.47727273       0.02272727 </v>
   <v>      -0.06818182      -0.47727273       0.02272727 </v>
   <v>      -0.43181818      -0.43181818       0.02272727 </v>
   <v>      -0.38636364      -0.43181818       0.02272727 </v>
   <v>      -0.34090909      -0.43181818       0.02272727 </v>
   <v>      -0.29545455      -0.43181818       0.02272727 </v>
   <v>      -0.25000000      -0.43181818       0.02272727 </v>
   <v>      -0.20454545      -0.43181818       0.02272727 </v>
   <v>      -0.15909091      -0.43181818       0.02272727 </v>
   <v>      -0.11363636      -0.43181818       0.02272727 </v>
   <v>      -0.06818182      -0.43181818       0.02272727 </v>
   <v>      -0.38636364      -0.38636364       0.02272727 </v>
   <v>      -0.34090909      -0.38636364       0.02272727 </v>
   <v>      -0.29545455      -0.38636364       0.02272727 </v>
   <v>      -0.25000000      -0.38636364       0.02272727 </v>
   <v>      -0.20454545      -0.38636364       0.02272727 </v>
   <v>      -0.15909091      -0.38636364       0.02272727 </v>
   <v>      -0.11363636      -0.38636364       0.02272727 </v>
   <v>      -0.06818182      -0.38636364       0.02272727 </v>
   <v>      -0.34090909      -0.34090909       0.02272727 </v>
   <v>      -0.29545455      -0.34090909       0.02272727 </v>
   <v>      -0.25000000      -0.34090909       0.02272727 </v>
   <v>      -0.20454545      -0.34090909       0.02272727 </v>
   <v>      -0.15909091      -0.34090909       0.02272727 </v>
   <v>      -0.11363636      -0.34090909       0.02272727 </v>
   <v>      -0.06818182      -0.34090909       0.02272727 </v>
   <v>      -0.29545455      -0.29545455       0.02272727 </v>
   <v>      -0.25000000      -0.29545455       0.02272727 </v>
   <v>      -0.20454545      -0.29545455       0.02272727 </v>
   <v>      -0.15909091      -0.29545455       0.02272727 </v>
   <v>      -0.11363636      -0.29545455       0.02272727 </v>
   <v>      -0.06818182      -0.29545455       0.02272727 </v>
   <v>      -0.25000000      -0.25000000       0.02272727 </v>
   <v>      -0.20454545      -0.25000000       0.02272727 </v>
   <v>      -0.15909091      -0.25000000       0.02272727 </v>
   <v>      -0.11363636      -0.25000000       0.02272727 </v>
   <v>      -0.06818182      -0.25000000       0.02272727 </v>
   <v>      -0.20454545      -0.20454545       0.02272727 </v>
   <v>      -0.15909091      -0.20454545       0.02272727 </v>
   <v>      -0.11363636      -0.20454545       0.02272727 </v>
   <v>      -0.06818182      -0.20454545       0.02272727 </v>
   <v>      -0.15909091      -0.15909091       0.02272727 </v>
   <v>      -0.11363636      -0.15909091       0.02272727 </v>
   <v>      -0.06818182      -0.15909091       0.02272727 </v>
   <v>      -0.11363636      -0.11363636       0.02272727 </v>
   <v>      -0.06818182      -0.11363636       0.02272727 </v>
   <v>      -0.06818182      -0.06818182       0.02272727 </v>
   <v>       0.06818182       0.06818182       0.06818182 </v>
   <v>       0.11363636       0.06818182       0.06818182 </v>
   <v>       0.15909091       0.06818182       0.06818182 </v>
   <v>       0.20454545       0.06818182       0.06818182 </v>
   <v>       0.25000000       0.06818182       0.06818182 </v>
   <v>       0.29545455       0.06818182       0.06818182 </v>
   <v>       0.34090909       0.06818182       0.06818182 </v>
   <v>       0.38636364       0.06818182       0.06818182 </v>
   <v>       0.43181818       0.06818182       0.06818182 </v>
   <v>       0.47727273       0.06818182       0.06818182 </v>
   <v>      -0.47727273       0.06818182       0.06818182 </v>
   <v>      -0.43181818       0.06818182       0.06818182 </v>
   <v>      -0.38636364       0.06818182       0.06818182 </v>
   <v>      -0.34090909       0.06818182       0.06818182 </v>
   <v>      -0.29545455       0.06818182       0.06818182 </v>
   <v>      -0.25000000       0.06818182       0.06818182 </v>
   <v>      -0.20454545       0.06818182       0.06818182 </v>
   <v>      -0.15909091       0.06818182       0.06818182 </v>
   <v>      -0.11363636       0.06818182       0.06818182 </v>
   <v>      -0.06818182       0.06818182       0.06818182 </v>
   <v>       0.11363636       0.11363636       0.06818182 </v>
   <v>       0.15909091       0.11363636       0.06818182 </v>
   <v>       0.20454545       0.11363636       0.06818182 </v>
   <v>       0.25000000       0.11363636       0.06818182 </v>
   <v>       0.29545455       0.11363636       0.06818182 </v>
   <v>       0.34090909       0.11363636       0.06818182 </v>
   <v>       0.38636364       0.11363636       0.06818182 </v>
   <v>       0.43181818       0.11363636       0.06818182 </v>
   <v>       0.47727273       0.11363636       0.06818182 </v>
   <v>      -0.47727273       0.11363636       0.06818182 </v>
   <v>      -0.43181818       0.11363636       0.06818182 </v>
   <v>      -0.38636364       0.11363636       0.06818182 </v>
   <v>      -0.34090909       0.11363636       0.06818182 </v>
   <v>      -0.29545455       0.11363636       0.06818182 </v>
   <v>      -0.25000000       0.11363636       0.06818182 </v>
   <v>      -0.20454545       0.11363636       0.06818182 </v>
   <v>      -0.15909091       0.11363636       0.06818182 </v>
   <v>      -0.11363636       0.11363636       0.06818182 </v>
   <v>      -0.06818182       0.11363636       0.06818182 </v>
   <v>       0.15909091       0.15909091       0.06818182 </v>
   <v>       0.20454545       0.15909091       0.06818182 </v>
   <v>       0.25000000       0.15909091       0.06818182 </v>
   <v>       0.29545455       0.15909091       0.06818182 </v>
   <v>       0.34090909       0.15909091       0.06818182 </v>
   <v>       0.38636364       0.15909091       0.06818182 </v>
   <v>       0.43181818       0.15909091       0.06818182 </v>
   <v>       0.47727273       0.15909091       0.06818182 </v>
   <v>      -0.47727273       0.15909091       0.06818182 </v>
   <v>      -0.43181818       0.15909091       0.06818182 </v>
   <v>      -0.38636364       0.15909091       0.06818182 </v>
   <v>      -0.34090909       0.15909091       0.06818182 </v>
   <v>      -0.29545455       0.15909091       0.06818182 </v>
   <v>      -0.25000000       0.15909091       0.06818182 </v>
   <v>      -0.20454545       0.15909091       0.06818182 </v>
   <v>      -0.15909091       0.15909091       0.06818182 </v>
   <v>      -0.11363636       0.15909091       0.06818182 </v>
   <v>      -0.06818182       0.15909091       0.06818182 </v>
   <v>       0.20454545       0.20454545       0.06818182 </v>
   <v>       0.25000000       0.20454545       0.06818182 </v>
   <v>       0.29545455       0.20454545       0.06818182 </v>
   <v>       0.34090909       0.20454545       0.06818182 </v>
   <v>       0.38636364       0.20454545       0.06818182 </v>
   <v>       0.43181818       0.20454545       0.06818182 </v>
   <v>       0.47727273       0.20454545       0.06818182 </v>
   <v>      -0.47727273       0.20454545       0.06818182 </v>
   <v>      -0.43181818       0.20454545       0.06818182 </v>
   <v>      -0.38636364       0.20454545       0.06818182 </v>
   <v>      -0.34090909       0.20454545       0.06818182 </v>
   <v>      -0.29545455       0.20454545       0.06818182 </v>
   <v>      -0.25000000       0.20454545       0.06818182 </v>
   <v>      -0.20454545       0.20454545       0.06818182 </v>
   <v>      -0.15909091       0.20454545       0.06818182 </v>
   <v>      -0.11363636       0.20454545       0.06818182 </v>
   <v>      -0.06818182       0.20454545       0.06818182 </v>
   <v>       0.25000000       0.25000000       0.06818182 </v>
   <v>       0.29545455       0.25000000       0.06818182 </v>
   <v>       0.34090909       0.25000000       0.06818182 </v>
   <v>       0.38636364       0.25000000       0.06818182 </v>
   <v>       0.43181818       0.25000000       0.06818182 </v>
   <v>       0.47727273       0.25000000       0.06818182 </v>
   <v>      -0.47727273       0.25000000       0.06818182 </v>
   <v>      -0.43181818       0.25000000       0.06818182 </v>
   <v>      -0.38636364       0.25000000       0.06818182 </v>
   <v>      -0.34090909       0.25000000       0.06818182 </v>
   <v>      -0.29545455       0.25000000       0.06818182 </v>
   <v>      -0.25000000       0.25000000       0.06818182 </v>
   <v>      -0.20454545       0.25000000       0.06818182 </v>
   <v>      -0.15909091       0.25000000       0.06818182 </v>
   <v>      -0.11363636       0.25000000       0.06818182 </v>
   <v>      -0.06818182       0.25000000       0.06818182 </v>
   <v>       0.29545455       0.29545455       0.06818182 </v>
   <v>       0.34090909       0.29545455       0.06818182 </v>
   <v>       0.38636364       0.29545455       0.06818182 </v>
   <v>       0.43181818       0.29545455       0.06818182 </v>
   <v>       0.47727273       0.29545455       0.06818182 </v>
   <v>      -0.47727273       0.29545455       0.06818182 </v>
   <v>      -0.43181818       0.29545455       0.06818182 </v>
   <v>      -0.38636364       0.29545455       0.06818182 </v>
   <v>      -0.34090909       0.29545455       0.06818182 </v>
   <v>      -0.29545455       0.29545455       0.06818182 </v>
   <v>      -0.25000000       0.29545455       0.06818182 </v>
   <v>      -0.20454545       0.29545455       0.06818182 </v>
   <v>      -0.15909091       0.29545455       0.06818182 </v>
   <v>      -0.11363636       0.29545455       0.06818182 </v>
   <v>      -0.06818182       0.29545455       0.06818182 </v>
   <v>       0.34090909       0.34090909       0.06818182 </v>
   <v>       0.38636364       0.34090909       0.06818182 </v>
   <v>       0.43181818       0.34090909       0.06818182 </v>
   <v>       0.47727273       0.34090909       0.06818182 </v>
   <v>      -0.47727273       0.34090909       0.06818182 </v>
   <v>      -0.43181818       0.34090909       0.06818182 </v>
   <v>      -0.38636364       0.34090909       0.06818182 </v>
   <v>      -0.34090909       0.34090909       0.06818182 </v>
   <v>      -0.29545455       0.34090909       0.06818182 </v>
   <v>      -0.25000000       0.34090909       0.06818182 </v>
   <v>      -0.20454545       0.34090909       0.06818182 </v>
   <v>      -0.15909091       0.34090909       0.06818182 </v>
   <v>      -0.11363636       0.34090909       0.06818182 </v>
   <v>      -0.06818182       0.34090909       0.06818182 </v>
   <v>       0.38636364       0.38636364       0.06818182 </v>
   <v>       0.43181818       0.38636364       0.06818182 </v>
   <v>       0.47727273       0.38636364       0.06818182 </v>
   <v>      -0.47727273       0.38636364       0.06818182 </v>
   <v>      -0.43181818       0.38636364       0.06818182 </v>
   <v>      -0.38636364       0.38636364       0.06818182 </v>
   <v>      -0.34090909       0.38636364       0.06818182 </v>
   <v>      -0.29545455       0.38636364       0.06818182 </v>
   <v>      -0.25000000       0.38636364       0.06818182 </v>
   <v>      -0.20454545       0.38636364       0.06818182 </v>
   <v>      -0.15909091       0.38636364       0.06818182 </v>
   <v>      -0.11363636       0.38636364       0.06818182 </v>
   <v>      -0.06818182       0.38636364       0.06818182 </v>
   <v>       0.43181818       0.43181818       0.06818182 </v>
   <v>       0.47727273       0.43181818       0.06818182 </v>
   <v>      -0.47727273       0.43181818       0.06818182 </v>
   <v>      -0.43181818       0.43181818       0.06818182 </v>
   <v>      -0.38636364       0.43181818       0.06818182 </v>
   <v>      -0.34090909       0.43181818       0.06818182 </v>
   <v>      -0.29545455       0.43181818       0.06818182 </v>
   <v>      -0.25000000       0.43181818       0.06818182 </v>
   <v>      -0.20454545       0.43181818       0.06818182 </v>
   <v>      -0.15909091       0.43181818       0.06818182 </v>
   <v>      -0.11363636       0.43181818       0.06818182 </v>
   <v>      -0.06818182       0.43181818       0.06818182 </v>
   <v>       0.47727273       0.47727273       0.06818182 </v>
   <v>      -0.47727273       0.47727273       0.06818182 </v>
   <v>      -0.43181818       0.47727273       0.06818182 </v>
   <v>      -0.38636364       0.47727273       0.06818182 </v>
   <v>      -0.34090909       0.47727273       0.06818182 </v>
   <v>      -0.29545455       0.47727273       0.06818182 </v>
   <v>      -0.25000000       0.47727273       0.06818182 </v>
   <v>      -0.20454545       0.47727273       0.06818182 </v>
   <v>      -0.15909091       0.47727273       0.06818182 </v>
   <v>      -0.11363636       0.47727273       0.06818182 </v>
   <v>      -0.06818182       0.47727273       0.06818182 </v>
   <v>      -0.47727273      -0.47727273       0.06818182 </v>
   <v>      -0.43181818      -0.47727273       0.06818182 </v>
   <v>      -0.38636364      -0.47727273       0.06818182 </v>
   <v>      -0.34090909      -0.47727273       0.06818182 </v>
   <v>      -0.29545455      -0.47727273       0.06818182 </v>
   <v>      -0.25000000      -0.47727273       0.06818182 </v>
   <v>      -0.20454545      -0.47727273       0.06818182 </v>
   <v>      -0.15909091      -0.47727273       0.06818182 </v>
   <v>      -0.11363636      -0.47727273       0.06818182 </v>
   <v>      -0.43181818      -0.43181818       0.06818182 </v>
   <v>      -0.38636364      -0.43181818       0.06818182 </v>
   <v>      -0.34090909      -0.43181818       0.06818182 </v>
   <v>      -0.29545455      -0.43181818       0.06818182 </v>
   <v>      -0.25000000      -0.43181818       0.06818182 </v>
   <v>      -0.20454545      -0.43181818       0.06818182 </v>
   <v>      -0.15909091      -0.43181818       0.06818182 </v>
   <v>      -0.11363636      -0.43181818       0.06818182 </v>
   <v>      -0.38636364      -0.38636364       0.06818182 </v>
   <v>      -0.34090909      -0.38636364       0.06818182 </v>
   <v>      -0.29545455      -0.38636364       0.06818182 </v>
   <v>      -0.25000000      -0.38636364       0.06818182 </v>
   <v>      -0.20454545      -0.38636364       0.06818182 </v>
   <v>      -0.15909091      -0.38636364       0.06818182 </v>
   <v>      -0.11363636      -0.38636364       0.06818182 </v>
   <v>      -0.34090909      -0.34090909       0.06818182 </v>
   <v>      -0.29545455      -0.34090909       0.06818182 </v>
   <v>      -0.25000000      -0.34090909       0.06818182 </v>
   <v>      -0.20454545      -0.34090909       0.06818182 </v>
   <v>      -0.15909091      -0.34090909       0.06818182 </v>
   <v>      -0.11363636      -0.34090909       0.06818182 </v>
   <v>      -0.29545455      -0.29545455       0.06818182 </v>
   <v>      -0.25000000      -0.29545455       0.06818182 </v>
   <v>      -0.20454545      -0.29545455       0.06818182 </v>
   <v>      -0.15909091      -0.29545455       0.06818182 </v>
   <v>      -0.11363636      -0.29545455       0.06818182 </v>
   <v>      -0.25000000      -0.25000000       0.06818182 </v>
   <v>      -0.20454545      -0.25000000       0.06818182 </v>
   <v>      -0.15909091      -0.25000000       0.06818182 </v>
   <v>      -0.11363636      -0.25000000       0.06818182 </v>
   <v>      -0.20454545      -0.20454545       0.06818182 </v>
   <v>      -0.15909091      -0.20454545       0.06818182 </v>
   <v>      -0.11363636      -0.20454545       0.06818182 </v>
   <v>      -0.15909091      -0.15909091       0.06818182 </v>
   <v>      -0.11363636      -0.15909091       0.06818182 </v>
   <v>      -0.11363636      -0.11363636       0.06818182 </v>
   <v>       0.11363636       0.11363636       0.11363636 </v>
   <v>       0.15909091       0.11363636       0.11363636 </v>
   <v>       0.20454545       0.11363636       0.11363636 </v>
   <v>       0.25000000       0.11363636       0.11363636 </v>
   <v>       0.29545455       0.11363636       0.11363636 </v>
   <v>       0.34090909       0.11363636       0.11363636 </v>
   <v>       0.38636364       0.11363636       0.11363636 </v>
   <v>       0.43181818       0.11363636       0.11363636 </v>
   <v>       0.47727273       0.11363636       0.11363636 </v>
   <v>      -0.47727273       0.11363636       0.11363636 </v>
   <v>      -0.43181818       0.11363636       0.11363636 </v>
   <v>      -0.38636364       0.11363636       0.11363636 </v>
   <v>      -0.34090909       0.11363636       0.11363636 </v>
   <v>      -0.29545455       0.11363636       0.11363636 </v>
   <v>      -0.25000000       0.11363636       0.11363636 </v>
   <v>      -0.20454545       0.11363636       0.11363636 </v>
   <v>      -0.15909091       0.11363636       0.11363636 </v>
   <v>      -0.11363636       0.11363636       0.11363636 </v>
   <v>       0.15909091       0.15909091       0.11363636 </v>
   <v>       0.20454545       0.15909091       0.11363636 </v>
   <v>       0.25000000       0.15909091       0.11363636 </v>
   <v>       0.29545455       0.15909091       0.11363636 </v>
   <v>       0.34090909       0.15909091       0.11363636 </v>
   <v>       0.38636364       0.15909091       0.11363636 </v>
   <v>       0.43181818       0.15909091       0.11363636 </v>
   <v>       0.47727273       0.15909091       0.11363636 </v>
   <v>      -0.47727273       0.15909091       0.11363636 </v>
   <v>      -0.43181818       0.15909091       0.11363636 </v>
   <v>      -0.38636364       0.15909091       0.11363636 </v>
   <v>      -0.34090909       0.15909091       0.11363636 </v>
   <v>      -0.29545455       0.15909091       0.11363636 </v>
   <v>      -0.25000000       0.15909091       0.11363636 </v>
   <v>      -0.20454545       0.15909091       0.11363636 </v>
   <v>      -0.15909091       0.15909091       0.11363636 </v>
   <v>      -0.11363636       0.15909091       0.11363636 </v>
   <v>       0.20454545       0.20454545       0.11363636 </v>
   <v>       0.25000000       0.20454545       0.11363636 </v>
   <v>       0.29545455       0.20454545       0.11363636 </v>
   <v>       0.34090909       0.20454545       0.11363636 </v>
   <v>       0.38636364       0.20454545       0.11363636 </v>
   <v>       0.43181818       0.20454545       0.11363636 </v>
   <v>       0.47727273       0.20454545       0.11363636 </v>
   <v>      -0.47727273       0.20454545       0.11363636 </v>
   <v>      -0.43181818       0.20454545       0.11363636 </v>
   <v>      -0.38636364       0.20454545       0.11363636 </v>
   <v>      -0.34090909       0.20454545       0.11363636 </v>
   <v>      -0.29545455       0.20454545       0.11363636 </v>
   <v>      -0.25000000       0.20454545       0.11363636 </v>
   <v>      -0.20454545       0.20454545       0.11363636 </v>
   <v>      -0.15909091       0.20454545       0.11363636 </v>
   <v>      -0.11363636       0.20454545       0.11363636 </v>
   <v>       0.25000000       0.25000000       0.11363636 </v>
   <v>       0.29545455       0.25000000       0.11363636 </v>
   <v>       0.34090909       0.25000000       0.11363636 </v>
   <v>       0.38636364       0.25000000       0.11363636 </v>
   <v>       0.43181818       0.25000000       0.11363636 </v>
   <v>       0.47727273       0.25000000       0.11363636 </v>
   <v>      -0.47727273       0.25000000       0.11363636 </v>
   <v>      -0.43181818       0.25000000       0.11363636 </v>
   <v>      -0.38636364       0.25000000       0.11363636 </v>
   <v>      -0.34090909       0.25000000       0.11363636 </v>
   <v>      -0.29545455       0.25000000       0.11363636 </v>
   <v>      -0.25000000       0.25000000       0.11363636 </v>
   <v>      -0.20454545       0.25000000       0.11363636 </v>
   <v>      -0.15909091       0.25000000       0.11363636 </v>
   <v>      -0.11363636       0.25000000       0.11363636 </v>
   <v>       0.29545455       0.29545455       0.11363636 </v>
   <v>       0.34090909       0.29545455       0.11363636 </v>
   <v>       0.38636364       0.29545455       0.11363636 </v>
   <v>       0.43181818       0.29545455       0.11363636 </v>
   <v>       0.47727273       0.29545455       0.11363636 </v>
   <v>      -0.47727273       0.29545455       0.11363636 </v>
   <v>      -0.43181818       0.29545455       0.11363636 </v>
   <v>      -0.38636364       0.29545455       0.11363636 </v>
   <v>      -0.34090909       0.29545455       0.11363636 </v>
   <v>      -0.29545455       0.29545455       0.11363636 </v>
   <v>      -0.25000000       0.29545455       0.11363636 </v>
   <v>      -0.20454545       0.29545455       0.11363636 </v>
   <v>      -0.15909091       0.29545455       0.11363636 </v>
   <v>      -0.11363636       0.29545455       0.11363636 </v>
   <v>       0.34090909       0.34090909       0.11363636 </v>
   <v>       0.38636364       0.34090909       0.11363636 </v>
   <v>       0.43181818       0.34090909       0.11363636 </v>
   <v>       0.47727273       0.34090909       0.11363636 </v>
   <v>      -0.47727273       0.34090909       0.11363636 </v>
   <v>      -0.43181818       0.34090909       0.11363636 </v>
   <v>      -0.38636364       0.34090909       0.11363636 </v>
   <v>      -0.34090909       0.34090909       0.11363636 </v>
   <v>      -0.29545455       0.34090909       0.11363636 </v>
   <v>      -0.25000000       0.34090909       0.11363636 </v>
   <v>      -0.20454545       0.34090909       0.11363636 </v>
   <v>      -0.15909091       0.34090909       0.11363636 </v>
   <v>      -0.11363636       0.34090909       0.11363636 </v>
   <v>       0.38636364       0.38636364       0.11363636 </v>
   <v>       0.43181818       0.38636364       0.11363636 </v>
   <v>       0.47727273       0.38636364       0.11363636 </v>
   <v>      -0.47727273       0.38636364       0.11363636 </v>
   <v>      -0.43181818       0.38636364       0.11363636 </v>
   <v>      -0.38636364       0.38636364       0.11363636 </v>
   <v>      -0.34090909       0.38636364       0.11363636 </v>
   <v>      -0.29545455       0.38636364       0.11363636 </v>
   <v>      -0.25000000       0.38636364       0.11363636 </v>
   <v>      -0.20454545       0.38636364       0.11363636 </v>
   <v>      -0.15909091       0.38636364       0.11363636 </v>
   <v>      -0.11363636       0.38636364       0.11363636 </v>
   <v>       0.43181818       0.43181818       0.11363636 </v>
   <v>       0.47727273       0.43181818       0.11363636 </v>
   <v>      -0.47727273       0.43181818       0.11363636 </v>
   <v>      -0.43181818       0.43181818       0.11363636 </v>
   <v>      -0.38636364       0.43181818       0.11363636 </v>
   <v>      -0.34090909       0.43181818       0.11363636 </v>
   <v>      -0.29545455       0.43181818       0.11363636 </v>
   <v>      -0.25000000       0.43181818       0.11363636 </v>
   <v>      -0.20454545       0.43181818       0.11363636 </v>
   <v>      -0.15909091       0.43181818       0.11363636 </v>
   <v>      -0.11363636       0.43181818       0.11363636 </v>
   <v>       0.47727273       0.47727273       0.11363636 </v>
   <v>      -0.47727273       0.47727273       0.11363636 </v>
   <v>      -0.43181818       0.47727273       0.11363636 </v>
   <v>      -0.38636364       0.47727273       0.11363636 </v>
   <v>      -0.34090909       0.47727273       0.11363636 </v>
   <v>      -0.29545455       0.47727273       0.11363636 </v>
   <v>      -0.25000000       0.47727273       0.11363636 </v>
   <v>      -0.20454545       0.47727273       0.11363636 </v>
   <v>      -0.15909091       0.47727273       0.11363636 </v>
   <v>      -0.11363636       0.47727273       0.11363636 </v>
   <v>      -0.47727273      -0.47727273       0.11363636 </v>
   <v>      -0.43181818      -0.47727273       0.11363636 </v>
   <v>      -0.38636364      -0.47727273       0.11363636 </v>
   <v>      -0.34090909      -0.47727273       0.11363636 </v>
   <v>      -0.29545455      -0.47727273       0.11363636 </v>
   <v>      -0.25000000      -0.47727273       0.11363636 </v>
   <v>      -0.20454545      -0.47727273       0.11363636 </v>
   <v>      -0.15909091      -0.47727273       0.11363636 </v>
   <v>      -0.43181818      -0.43181818       0.11363636 </v>
   <v>      -0.38636364      -0.43181818       0.11363636 </v>
   <v>      -0.34090909      -0.43181818       0.11363636 </v>
   <v>      -0.29545455      -0.43181818       0.11363636 </v>
   <v>      -0.25000000      -0.43181818       0.11363636 </v>
   <v>      -0.20454545      -0.43181818       0.11363636 </v>
   <v>      -0.15909091      -0.43181818       0.11363636 </v>
   <v>      -0.38636364      -0.38636364       0.11363636 </v>
   <v>      -0.34090909      -0.38636364       0.11363636 </v>
   <v>      -0.29545455      -0.38636364       0.11363636 </v>
   <v>      -0.25000000      -0.38636364       0.11363636 </v>
   <v>      -0.20454545      -0.38636364       0.11363636 </v>
   <v>      -0.15909091      -0.38636364       0.11363636 </v>
   <v>      -0.34090909      -0.34090909       0.11363636 </v>
   <v>      -0.29545455      -0.34090909       0.11363636 </v>
   <v>      -0.25000000      -0.34090909       0.11363636 </v>
   <v>      -0.20454545      -0.34090909       0.11363636 </v>
   <v>      -0.15909091      -0.34090909       0.11363636 </v>
   <v>      -0.29545455      -0.29545455       0.11363636 </v>
   <v>      -0.25000000      -0.29545455       0.11363636 </v>
   <v>      -0.20454545      -0.29545455       0.11363636 </v>
   <v>      -0.15909091      -0.29545455       0.11363636 </v>
   <v>      -0.25000000      -0.25000000       0.11363636 </v>
   <v>      -0.20454545      -0.25000000       0.11363636 </v>
   <v>      -0.15909091      -0.25000000       0.11363636 </v>
   <v>      -0.20454545      -0.20454545       0.11363636 </v>
   <v>      -0.15909091      -0.20454545       0.11363636 </v>
   <v>      -0.15909091      -0.15909091       0.11363636 </v>
   <v>       0.15909091       0.15909091       0.15909091 </v>
   <v>       0.20454545       0.15909091       0.15909091 </v>
   <v>       0.25000000       0.15909091       0.15909091 </v>
   <v>       0.29545455       0.15909091       0.15909091 </v>
   <v>       0.34090909       0.15909091       0.15909091 </v>
   <v>       0.38636364       0.15909091       0.15909091 </v>
   <v>       0.43181818       0.15909091       0.15909091 </v>
   <v>       0.47727273       0.15909091       0.15909091 </v>
   <v>      -0.47727273       0.15909091       0.15909091 </v>
   <v>      -0.43181818       0.15909091       0.15909091 </v>
   <v>      -0.38636364       0.15909091       0.15909091 </v>
   <v>      -0.34090909       0.15909091       0.15909091 </v>
   <v>      -0.29545455       0.15909091       0.15909091 </v>
   <v>      -0.25000000       0.15909091       0.15909091 </v>
   <v>      -0.20454545       0.15909091       0.15909091 </v>
   <v>      -0.15909091       0.15909091       0.15909091 </v>
   <v>       0.20454545       0.20454545       0.15909091 </v>
   <v>       0.25000000       0.20454545       0.15909091 </v>
   <v>       0.29545455       0.20454545       0.15909091 </v>
   <v>       0.34090909       0.20454545       0.15909091 </v>
   <v>       0.38636364       0.20454545       0.15909091 </v>
   <v>       0.43181818       0.20454545       0.15909091 </v>
   <v>       0.47727273       0.20454545       0.15909091 </v>
   <v>      -0.47727273       0.20454545       0.15909091 </v>
   <v>      -0.43181818       0.20454545       0.15909091 </v>
   <v>      -0.38636364       0.20454545       0.15909091 </v>
   <v>      -0.34090909       0.20454545       0.15909091 </v>
   <v>      -0.29545455       0.20454545       0.15909091 </v>
   <v>      -0.25000000       0.20454545       0.15909091 </v>
   <v>      -0.20454545       0.20454545       0.15909091 </v>
   <v>      -0.15909091       0.20454545       0.15909091 </v>
   <v>       0.25000000       0.25000000       0.15909091 </v>
   <v>       0.29545455       0.25000000       0.15909091 </v>
   <v>       0.34090909       0.25000000       0.15909091 </v>
   <v>       0.38636364       0.25000000       0.15909091 </v>
   <v>       0.43181818       0.25000000       0.15909091 </v>
   <v>       0.47727273       0.25000000       0.15909091 </v>
   <v>      -0.47727273       0.25000000       0.15909091 </v>
   <v>      -0.43181818       0.25000000       0.15909091 </v>
   <v>      -0.38636364       0.25000000       0.15909091 </v>
   <v>      -0.34090909       0.25000000       0.15909091 </v>
   <v>      -0.29545455       0.25000000       0.15909091 </v>
   <v>      -0.25000000       0.25000000       0.15909091 </v>
   <v>      -0.20454545       0.25000000       0.15909091 </v>
   <v>      -0.15909091       0.25000000       0.15909091 </v>
   <v>       0.29545455       0.29545455       0.15909091 </v>
   <v>       0.34090909       0.29545455       0.15909091 </v>
   <v>       0.38636364       0.29545455       0.15909091 </v>
   <v>       0.43181818       0.29545455       0.15909091 </v>
   <v>       0.47727273       0.29545455       0.15909091 </v>
   <v>      -0.47727273       0.29545455       0.15909091 </v>
   <v>      -0.43181818       0.29545455       0.15909091 </v>
   <v>      -0.38636364       0.29545455       0.15909091 </v>
   <v>      -0.34090909       0.29545455       0.15909091 </v>
   <v>      -0.29545455       0.29545455       0.15909091 </v>
   <v>      -0.25000000       0.29545455       0.15909091 </v>
   <v>      -0.20454545       0.29545455       0.15909091 </v>
   <v>      -0.15909091       0.29545455       0.15909091 </v>
   <v>       0.34090909       0.34090909       0.15909091 </v>
   <v>       0.38636364       0.34090909       0.15909091 </v>
   <v>       0.43181818       0.34090909       0.15909091 </v>
   <v>       0.47727273       0.34090909       0.15909091 </v>
   <v>      -0.47727273       0.34090909       0.15909091 </v>
   <v>      -0.43181818       0.34090909       0.15909091 </v>
   <v>      -0.38636364       0.34090909       0.15909091 </v>
   <v>      -0.34090909       0.34090909       0.15909091 </v>
   <v>      -0.29545455       0.34090909       0.15909091 </v>
   <v>      -0.25000000       0.34090909       0.15909091 </v>
   <v>      -0.20454545       0.34090909       0.15909091 </v>
   <v>      -0.15909091       0.34090909       0.15909091 </v>
   <v>       0.38636364       0.38636364       0.15909091 </v>
   <v>       0.43181818       0.38636364       0.15909091 </v>
   <v>       0.47727273       0.38636364       0.15909091 </v>
   <v>      -0.47727273       0.38636364       0.15909091 </v>
   <v>      -0.43181818       0.38636364       0.15909091 </v>
   <v>      -0.38636364       0.38636364       0.15909091 </v>
   <v>      -0.34090909       0.38636364       0.15909091 </v>
   <v>      -0.29545455       0.38636364       0.15909091 </v>
   <v>      -0.25000000       0.38636364       0.15909091 </v>
   <v>      -0.20454545       0.38636364       0.15909091 </v>
   <v>      -0.15909091       0.38636364       0.15909091 </v>
   <v>       0.43181818       0.43181818       0.15909091 </v>
   <v>       0.47727273       0.43181818       0.15909091 </v>
   <v>      -0.47727273       0.43181818       0.15909091 </v>
   <v>      -0.43181818       0.43181818       0.15909091 </v>
   <v>      -0.38636364       0.43181818       0.15909091 </v>
   <v>      -0.34090909       0.43181818       0.15909091 </v>
   <v>      -0.29545455       0.43181818       0.15909091 </v>
   <v>      -0.25000000       0.43181818       0.15909091 </v>
   <v>      -0.20454545       0.43181818       0.15909091 </v>
   <v>      -0.15909091       0.43181818       0.15909091 </v>
   <v>       0.47727273       0.47727273       0.15909091 </v>
   <v>      -0.47727273       0.47727273       0.15909091 </v>
   <v>      -0.43181818       0.47727273       0.15909091 </v>
   <v>      -0.38636364       0.47727273       0.15909091 </v>
   <v>      -0.34090909       0.47727273       0.15909091 </v>
   <v>      -0.29545455       0.47727273       0.15909091 </v>
   <v>      -0.25000000       0.47727273       0.15909091 </v>
   <v>      -0.20454545       0.47727273       0.15909091 </v>
   <v>      -0.15909091       0.47727273       0.15909091 </v>
   <v>      -0.47727273      -0.47727273       0.15909091 </v>
   <v>      -0.43181818      -0.47727273       0.15909091 </v>
   <v>      -0.38636364      -0.47727273       0.15909091 </v>
   <v>      -0.34090909      -0.47727273       0.15909091 </v>
   <v>      -0.29545455      -0.47727273       0.15909091 </v>
   <v>      -0.25000000      -0.47727273       0.15909091 </v>
   <v>      -0.20454545      -0.47727273       0.15909091 </v>
   <v>      -0.43181818      -0.43181818       0.15909091 </v>
   <v>      -0.38636364      -0.43181818       0.15909091 </v>
   <v>      -0.34090909      -0.43181818       0.15909091 </v>
   <v>      -0.29545455      -0.43181818       0.15909091 </v>
   <v>      -0.25000000      -0.43181818       0.15909091 </v>
   <v>      -0.20454545      -0.43181818       0.15909091 </v>
   <v>      -0.38636364      -0.38636364       0.15909091 </v>
   <v>      -0.34090909      -0.38636364       0.15909091 </v>
   <v>      -0.29545455      -0.38636364       0.15909091 </v>
   <v>      -0.25000000      -0.38636364       0.15909091 </v>
   <v>      -0.20454545      -0.38636364       0.15909091 </v>
   <v>      -0.34090909      -0.34090909       0.15909091 </v>
   <v>      -0.29545455      -0.34090909       0.15909091 </v>
   <v>      -0.25000000      -0.34090909       0.15909091 </v>
   <v>      -0.20454545      -0.34090909       0.15909091 </v>
   <v>      -0.29545455      -0.29545455       0.15909091 </v>
   <v>      -0.25000000      -0.29545455       0.15909091 </v>
   <v>      -0.20454545      -0.29545455       0.15909091 </v>
   <v>      -0.25000000      -0.25000000       0.15909091 </v>
   <v>      -0.20454545      -0.25000000       0.15909091 </v>
   <v>      -0.20454545      -0.20454545       0.15909091 </v>
   <v>       0.20454545       0.20454545       0.20454545 </v>
   <v>       0.25000000       0.20454545       0.20454545 </v>
   <v>       0.29545455       0.20454545       0.20454545 </v>
   <v>       0.34090909       0.20454545       0.20454545 </v>
   <v>       0.38636364       0.20454545       0.20454545 </v>
   <v>       0.43181818       0.20454545       0.20454545 </v>
   <v>       0.47727273       0.20454545       0.20454545 </v>
   <v>      -0.47727273       0.20454545       0.20454545 </v>
   <v>      -0.43181818       0.20454545       0.20454545 </v>
   <v>      -0.38636364       0.20454545       0.20454545 </v>
   <v>      -0.34090909       0.20454545       0.20454545 </v>
   <v>      -0.29545455       0.20454545       0.20454545 </v>
   <v>      -0.25000000       0.20454545       0.20454545 </v>
   <v>      -0.20454545       0.20454545       0.20454545 </v>
   <v>       0.25000000       0.25000000       0.20454545 </v>
   <v>       0.29545455       0.25000000       0.20454545 </v>
   <v>       0.34090909       0.25000000       0.20454545 </v>
   <v>       0.38636364       0.25000000       0.20454545 </v>
   <v>       0.43181818       0.25000000       0.20454545 </v>
   <v>       0.47727273       0.25000000       0.20454545 </v>
   <v>      -0.47727273       0.25000000       0.20454545 </v>
   <v>      -0.43181818       0.25000000       0.20454545 </v>
   <v>      -0.38636364       0.25000000       0.20454545 </v>
   <v>      -0.34090909       0.25000000       0.20454545 </v>
   <v>      -0.29545455       0.25000000       0.20454545 </v>
   <v>      -0.25000000       0.25000000       0.20454545 </v>
   <v>      -0.20454545       0.25000000       0.20454545 </v>
   <v>       0.29545455       0.29545455       0.20454545 </v>
   <v>       0.34090909       0.29545455       0.20454545 </v>
   <v>       0.38636364       0.29545455       0.20454545 </v>
   <v>       0.43181818       0.29545455       0.20454545 </v>
   <v>       0.47727273       0.29545455       0.20454545 </v>
   <v>      -0.47727273       0.29545455       0.20454545 </v>
   <v>      -0.43181818       0.29545455       0.20454545 </v>
   <v>      -0.38636364       0.29545455       0.20454545 </v>
   <v>      -0.34090909       0.29545455       0.20454545 </v>
   <v>      -0.29545455       0.29545455       0.20454545 </v>
   <v>      -0.25000000       0.29545455       0.20454545 </v>
   <v>      -0.20454545       0.29545455       0.20454545 </v>
   <v>       0.34090909       0.34090909       0.20454545 </v>
   <v>       0.38636364       0.34090909       0.20454545 </v>
   <v>       0.43181818       0.34090909       0.20454545 </v>
   <v>       0.47727273       0.34090909       0.20454545 </v>
   <v>      -0.47727273       0.34090909       0.20454545 </v>
   <v>      -0.43181818       0.34090909       0.20454545 </v>
   <v>      -0.38636364       0.34090909       0.20454545 </v>
   <v>      -0.34090909       0.34090909       0.20454545 </v>
   <v>      -0.29545455       0.34090909       0.20454545 </v>
   <v>      -0.25000000       0.34090909       0.20454545 </v>
   <v>      -0.20454545       0.34090909       0.20454545 </v>
   <v>       0.38636364       0.38636364       0.20454545 </v>
   <v>       0.43181818       0.38636364       0.20454545 </v>
   <v>       0.47727273       0.38636364       0.20454545 </v>
   <v>      -0.47727273       0.38636364       0.20454545 </v>
   <v>      -0.43181818       0.38636364       0.20454545 </v>
   <v>      -0.38636364       0.38636364       0.20454545 </v>
   <v>      -0.34090909       0.38636364       0.20454545 </v>
   <v>      -0.29545455       0.38636364       0.20454545 </v>
   <v>      -0.25000000       0.38636364       0.20454545 </v>
   <v>      -0.20454545       0.38636364       0.20454545 </v>
   <v>       0.43181818       0.43181818       0.20454545 </v>
   <v>       0.47727273       0.43181818       0.20454545 </v>
   <v>      -0.47727273       0.43181818       0.20454545 </v>
   <v>      -0.43181818       0.43181818       0.20454545 </v>
   <v>      -0.38636364       0.43181818       0.20454545 </v>
   <v>      -0.34090909       0.43181818       0.20454545 </v>
   <v>      -0.29545455       0.43181818       0.20454545 </v>
   <v>      -0.25000000       0.43181818       0.20454545 </v>
   <v>      -0.20454545       0.43181818       0.20454545 </v>
   <v>       0.47727273       0.47727273       0.20454545 </v>
   <v>      -0.47727273       0.47727273       0.20454545 </v>
   <v>      -0.43181818       0.47727273       0.20454545 </v>
   <v>      -0.38636364       0.47727273       0.20454545 </v>
   <v>      -0.34090909       0.47727273       0.20454545 </v>
   <v>      -0.29545455       0.47727273       0.20454545 </v>
   <v>      -0.25000000       0.47727273       0.20454545 </v>
   <v>      -0.20454545       0.47727273       0.20454545 </v>
   <v>      -0.47727273      -0.47727273       0.20454545 </v>
   <v>      -0.43181818      -0.47727273       0.20454545 </v>
   <v>      -0.38636364      -0.47727273       0.20454545 </v>
   <v>      -0.34090909      -0.47727273       0.20454545 </v>
   <v>      -0.29545455      -0.47727273       0.20454545 </v>
   <v>      -0.25000000      -0.47727273       0.20454545 </v>
   <v>      -0.43181818      -0.43181818       0.20454545 </v>
   <v>      -0.38636364      -0.43181818       0.20454545 </v>
   <v>      -0.34090909      -0.43181818       0.20454545 </v>
   <v>      -0.29545455      -0.43181818       0.20454545 </v>
   <v>      -0.25000000      -0.43181818       0.20454545 </v>
   <v>      -0.38636364      -0.38636364       0.20454545 </v>
   <v>      -0.34090909      -0.38636364       0.20454545 </v>
   <v>      -0.29545455      -0.38636364       0.20454545 </v>
   <v>      -0.25000000      -0.38636364       0.20454545 </v>
   <v>      -0.34090909      -0.34090909       0.20454545 </v>
   <v>      -0.29545455      -0.34090909       0.20454545 </v>
   <v>      -0.25000000      -0.34090909       0.20454545 </v>
   <v>      -0.29545455      -0.29545455       0.20454545 </v>
   <v>      -0.25000000      -0.29545455       0.20454545 </v>
   <v>      -0.25000000      -0.25000000       0.20454545 </v>
   <v>       0.25000000       0.25000000       0.25000000 </v>
   <v>       0.29545455       0.25000000       0.25000000 </v>
   <v>       0.34090909       0.25000000       0.25000000 </v>
   <v>       0.38636364       0.25000000       0.25000000 </v>
   <v>       0.43181818       0.25000000       0.25000000 </v>
   <v>       0.47727273       0.25000000       0.25000000 </v>
   <v>      -0.47727273       0.25000000       0.25000000 </v>
   <v>      -0.43181818       0.25000000       0.25000000 </v>
   <v>      -0.38636364       0.25000000       0.25000000 </v>
   <v>      -0.34090909       0.25000000       0.25000000 </v>
   <v>      -0.29545455       0.25000000       0.25000000 </v>
   <v>      -0.25000000       0.25000000       0.25000000 </v>
   <v>       0.29545455       0.29545455       0.25000000 </v>
   <v>       0.34090909       0.29545455       0.25000000 </v>
   <v>       0.38636364       0.29545455       0.25000000 </v>
   <v>       0.43181818       0.29545455       0.25000000 </v>
   <v>       0.47727273       0.29545455       0.25000000 </v>
   <v>      -0.47727273       0.29545455       0.25000000 </v>
   <v>      -0.43181818       0.29545455       0.25000000 </v>
   <v>      -0.38636364       0.29545455       0.25000000 </v>
   <v>      -0.34090909       0.29545455       0.25000000 </v>
   <v>      -0.29545455       0.29545455       0.25000000 </v>
   <v>      -0.25000000       0.29545455       0.25000000 </v>
   <v>       0.34090909       0.34090909       0.25000000 </v>
   <v>       0.38636364       0.34090909       0.25000000 </v>
   <v>       0.43181818       0.34090909       0.25000000 </v>
   <v>       0.47727273       0.34090909       0.25000000 </v>
   <v>      -0.47727273       0.34090909       0.25000000 </v>
   <v>      -0.43181818       0.34090909       0.25000000 </v>
   <v>      -0.38636364       0.34090909       0.25000000 </v>
   <v>      -0.34090909       0.34090909       0.25000000 </v>
   <v>      -0.29545455       0.34090909       0.25000000 </v>
   <v>      -0.25000000       0.34090909       0.25000000 </v>
   <v>       0.38636364       0.38636364       0.25000000 </v>
   <v>       0.43181818       0.38636364       0.25000000 </v>
   <v>       0.47727273       0.38636364       0.25000000 </v>
   <v>      -0.47727273       0.38636364       0.25000000 </v>
   <v>      -0.43181818       0.38636364       0.25000000 </v>
   <v>      -0.38636364       0.38636364       0.25000000 </v>
   <v>      -0.34090909       0.38636364       0.25000000 </v>
   <v>      -0.29545455       0.38636364       0.25000000 </v>
   <v>      -0.25000000       0.38636364       0.25000000 </v>
   <v>       0.43181818       0.43181818       0.25000000 </v>
   <v>       0.47727273       0.43181818       0.25000000 </v>
   <v>      -0.47727273       0.43181818       0.25000000 </v>
   <v>      -0.43181818       0.43181818       0.25000000 </v>
   <v>      -0.38636364       0.43181818       0.25000000 </v>
   <v>      -0.34090909       0.43181818       0.25000000 </v>
   <v>      -0.29545455       0.43181818       0.25000000 </v>
   <v>      -0.25000000       0.43181818       0.25000000 </v>
   <v>       0.47727273       0.47727273       0.25000000 </v>
   <v>      -0.47727273       0.47727273       0.25000000 </v>
   <v>      -0.43181818       0.47727273       0.25000000 </v>
   <v>      -0.38636364       0.47727273       0.25000000 </v>
   <v>      -0.34090909       0.47727273       0.25000000 </v>
   <v>      -0.29545455       0.47727273       0.25000000 </v>
   <v>      -0.25000000       0.47727273       0.25000000 </v>
   <v>      -0.47727273      -0.47727273       0.25000000 </v>
   <v>      -0.43181818      -0.47727273       0.25000000 </v>
   <v>      -0.38636364      -0.47727273       0.25000000 </v>
   <v>      -0.34090909      -0.47727273       0.25000000 </v>
   <v>      -0.29545455      -0.47727273       0.25000000 </v>
   <v>      -0.43181818      -0.43181818       0.25000000 </v>
   <v>      -0.38636364      -0.43181818       0.25000000 </v>
   <v>      -0.34090909      -0.43181818       0.25000000 </v>
   <v>      -0.29545455      -0.43181818       0.25000000 </v>
   <v>      -0.38636364      -0.38636364       0.25000000 </v>
   <v>      -0.34090909      -0.38636364       0.25000000 </v>
   <v>      -0.29545455      -0.38636364       0.25000000 </v>
   <v>      -0.34090909      -0.34090909       0.25000000 </v>
   <v>      -0.29545455      -0.34090909       0.25000000 </v>
   <v>      -0.29545455      -0.29545455       0.25000000 </v>
   <v>       0.29545455       0.29545455       0.29545455 </v>
   <v>       0.34090909       0.29545455       0.29545455 </v>
   <v>       0.38636364       0.29545455       0.29545455 </v>
   <v>       0.43181818       0.29545455       0.29545455 </v>
   <v>       0.47727273       0.29545455       0.29545455 </v>
   <v>      -0.47727273       0.29545455       0.29545455 </v>
   <v>      -0.43181818       0.29545455       0.29545455 </v>
   <v>      -0.38636364       0.29545455       0.29545455 </v>
   <v>      -0.34090909       0.29545455       0.29545455 </v>
   <v>      -0.29545455       0.29545455       0.29545455 </v>
   <v>       0.34090909       0.34090909       0.29545455 </v>
   <v>       0.38636364       0.34090909       0.29545455 </v>
   <v>       0.43181818       0.34090909       0.29545455 </v>
   <v>       0.47727273       0.34090909       0.29545455 </v>
   <v>      -0.47727273       0.34090909       0.29545455 </v>
   <v>      -0.43181818       0.34090909       0.29545455 </v>
   <v>      -0.38636364       0.34090909       0.29545455 </v>
   <v>      -0.34090909       0.34090909       0.29545455 </v>
   <v>      -0.29545455       0.34090909       0.29545455 </v>
   <v>       0.38636364       0.38636364       0.29545455 </v>
   <v>       0.43181818       0.38636364       0.29545455 </v>
   <v>       0.47727273       0.38636364       0.29545455 </v>
   <v>      -0.47727273       0.38636364       0.29545455 </v>
   <v>      -0.43181818       0.38636364       0.29545455 </v>
   <v>      -0.38636364       0.38636364       0.29545455 </v>
   <v>      -0.34090909       0.38636364       0.29545455 </v>
   <v>      -0.29545455       0.38636364       0.29545455 </v>
   <v>       0.43181818       0.43181818       0.29545455 </v>
   <v>       0.47727273       0.43181818       0.29545455 </v>
   <v>      -0.47727273       0.43181818       0.29545455 </v>
   <v>      -0.43181818       0.43181818       0.29545455 </v>
   <v>      -0.38636364       0.43181818       0.29545455 </v>
   <v>      -0.34090909       0.43181818       0.29545455 </v>
   <v>      -0.29545455       0.43181818       0.29545455 </v>
   <v>       0.47727273       0.47727273       0.29545455 </v>
   <v>      -0.47727273       0.47727273       0.29545455 </v>
   <v>      -0.43181818       0.47727273       0.29545455 </v>
   <v>      -0.38636364       0.47727273       0.29545455 </v>
   <v>      -0.34090909       0.47727273       0.29545455 </v>
   <v>      -0.29545455       0.47727273       0.29545455 </v>
   <v>      -0.47727273      -0.47727273       0.29545455 </v>
   <v>      -0.43181818      -0.47727273       0.29545455 </v>
   <v>      -0.38636364      -0.47727273       0.29545455 </v>
   <v>      -0.34090909      -0.47727273       0.29545455 </v>
   <v>      -0.43181818      -0.43181818       0.29545455 </v>
   <v>      -0.38636364      -0.43181818       0.29545455 </v>
   <v>      -0.34090909      -0.43181818       0.29545455 </v>
   <v>      -0.38636364      -0.38636364       0.29545455 </v>
   <v>      -0.34090909      -0.38636364       0.29545455 </v>
   <v>      -0.34090909      -0.34090909       0.29545455 </v>
   <v>       0.34090909       0.34090909       0.34090909 </v>
   <v>       0.38636364       0.34090909       0.34090909 </v>
   <v>       0.43181818       0.34090909       0.34090909 </v>
   <v>       0.47727273       0.34090909       0.34090909 </v>
   <v>      -0.47727273       0.34090909       0.34090909 </v>
   <v>      -0.43181818       0.34090909       0.34090909 </v>
   <v>      -0.38636364       0.34090909       0.34090909 </v>
   <v>      -0.34090909       0.34090909       0.34090909 </v>
   <v>       0.38636364       0.38636364       0.34090909 </v>
   <v>       0.43181818       0.38636364       0.34090909 </v>
   <v>       0.47727273       0.38636364       0.34090909 </v>
   <v>      -0.47727273       0.38636364       0.34090909 </v>
   <v>      -0.43181818       0.38636364       0.34090909 </v>
   <v>      -0.38636364       0.38636364       0.34090909 </v>
   <v>      -0.34090909       0.38636364       0.34090909 </v>
   <v>       0.43181818       0.43181818       0.34090909 </v>
   <v>       0.47727273       0.43181818       0.34090909 </v>
   <v>      -0.47727273       0.43181818       0.34090909 </v>
   <v>      -0.43181818       0.43181818       0.34090909 </v>
   <v>      -0.38636364       0.43181818       0.34090909 </v>
   <v>      -0.34090909       0.43181818       0.34090909 </v>
   <v>       0.47727273       0.47727273       0.34090909 </v>
   <v>      -0.47727273       0.47727273       0.34090909 </v>
   <v>      -0.43181818       0.47727273       0.34090909 </v>
   <v>      -0.38636364       0.47727273       0.34090909 </v>
   <v>      -0.34090909       0.47727273       0.34090909 </v>
   <v>      -0.47727273      -0.47727273       0.34090909 </v>
   <v>      -0.43181818      -0.47727273       0.34090909 </v>
   <v>      -0.38636364      -0.47727273       0.34090909 </v>
   <v>      -0.43181818      -0.43181818       0.34090909 </v>
   <v>      -0.38636364      -0.43181818       0.34090909 </v>
   <v>      -0.38636364      -0.38636364       0.34090909 </v>
   <v>       0.38636364       0.38636364       0.38636364 </v>
   <v>       0.43181818       0.38636364       0.38636364 </v>
   <v>       0.47727273       0.38636364       0.38636364 </v>
   <v>      -0.47727273       0.38636364       0.38636364 </v>
   <v>      -0.43181818       0.38636364       0.38636364 </v>
   <v>      -0.38636364       0.38636364       0.38636364 </v>
   <v>       0.43181818       0.43181818       0.38636364 </v>
   <v>       0.47727273       0.43181818       0.38636364 </v>
   <v>      -0.47727273       0.43181818       0.38636364 </v>
   <v>      -0.43181818       0.43181818       0.38636364 </v>
   <v>      -0.38636364       0.43181818       0.38636364 </v>
   <v>       0.47727273       0.47727273       0.38636364 </v>
   <v>      -0.47727273       0.47727273       0.38636364 </v>
   <v>      -0.43181818       0.47727273       0.38636364 </v>
   <v>      -0.38636364       0.47727273       0.38636364 </v>
   <v>      -0.47727273      -0.47727273       0.38636364 </v>
   <v>      -0.43181818      -0.47727273       0.38636364 </v>
   <v>      -0.43181818      -0.43181818       0.38636364 </v>
   <v>       0.43181818       0.43181818       0.43181818 </v>
   <v>       0.47727273       0.43181818       0.43181818 </v>
   <v>      -0.47727273       0.43181818       0.43181818 </v>
   <v>      -0.43181818       0.43181818       0.43181818 </v>
   <v>       0.47727273       0.47727273       0.43181818 </v>
   <v>      -0.47727273       0.47727273       0.43181818 </v>
   <v>      -0.43181818       0.47727273       0.43181818 </v>
   <v>      -0.47727273      -0.47727273       0.43181818 </v>
   <v>       0.47727273       0.47727273       0.47727273 </v>
   <v>      -0.47727273       0.47727273       0.47727273 </v>
  </varray>
  <varray name="weights" >
   <v>       0.00018783 </v>
   <v>       0.00056349 </v>
   <v>       0.00056349 </v>
   <v>       0.00056349 </v>
   <v>       0.00056349 </v>
   <v>       0.00056349 </v>
   <v>       0.00056349 </v>
   <v>       0.00056349 </v>
   <v>       0.00056349 </v>
   <v>       0.00056349 </v>
   <v>       0.00056349 </v>
   <v>       0.00056349 </v>
   <v>       0.00056349 </v>
   <v>       0.00056349 </v>
   <v>       0.00056349 </v>
   <v>       0.00056349 </v>
   <v>       0.00056349 </v>
   <v>       0.00056349 </v>
   <v>       0.00056349 </v>
   <v>       0.00056349 </v>
   <v>       0.00056349 </v>
   <v>       0.00056349 </v>
   <v>       0.00056349 </v>
   <v>       0.00112697 </v>
   <v>       0.00112697 </v>
   <v>       0.00112697 </v>
   <v>       0.00112697 </v>
   <v>       0.00112697 </v>
   <v>       0.00112697 </v>
   <v>       0.00112697 </v>
   <v>       0.00112697 </v>
   <v>       0.00112697 </v>
   <v>       0.00112697 </v>
   <v>       0.00112697 </v>
   <v>       0.00112697 </v>
   <v>       0.00112697 </v>
   <v>       0.00112697 </v>
   <v>       0.00112697 </v>
   <v>       0.00112697 </v>
   <v>       0.00112697 </v>
   <v>       0.00112697 </v>
   <v>       0.00112697 </v>
   <v>       0.00112697 </v>
   <v>       0.00056349 </v>
   <v>       0.00112697 </v>
   <v>       0.00112697 </v>
   <v>       0.00112697 </v>
   <v>       0.00112697 </v>
   <v>       0.00112697 </v>
   <v>       0.00112697 </v>
   <v>       0.00112697 </v>
   <v>       0.00112697 </v>
   <v>       0.00112697 </v>
   <v>       0.00112697 </v>
   <v>       0.00112697 </v>
   <v>       0.00112697 </v>
   <v>       0.00112697 </v>
   <v>       0.00112697 </v>
   <v>       0.00112697 </v>
   <v>       0.00112697 </v>
   <v>       0.00112697 </v>
   <v>       0.00112697 </v>
   <v>       0.00112697 </v>
   <v>       0.00056349 </v>
   <v>       0.00112697 </v>
   <v>       0.00112697 </v>
   <v>       0.00112697 </v>
   <v>       0.00112697 </v>
   <v>       0.00112697 </v>
   <v>       0.00112697 </v>
   <v>       0.00112697 </v>
   <v>       0.00112697 </v>
   <v>       0.00112697 </v>
   <v>       0.00112697 </v>
   <v>       0.00112697 </v>
   <v>       0.00112697 </v>
   <v>       0.00112697 </v>
   <v>       0.00112697 </v>
   <v>       0.00112697 </v>
   <v>       0.00112697 </v>
   <v>       0.00112697 </v>
   <v>       0.00112697 </v>
   <v>       0.00056349 </v>
   <v>       0.00112697 </v>
   <v>       0.00112697 </v>
   <v>       0.00112697 </v>
   <v>       0.00112697 </v>
   <v>       0.00112697 </v>
   <v>       0.00112697 </v>
   <v>       0.00112697 </v>
   <v>       0.00112697 </v>
   <v>       0.00112697 </v>
   <v>       0.00112697 </v>
   <v>       0.00112697 </v>
   <v>       0.00112697 </v>
   <v>       0.00112697 </v>
   <v>       0.00112697 </v>
   <v>       0.00112697 </v>
   <v>       0.00112697 </v>
   <v>       0.00112697 </v>
   <v>       0.00056349 </v>
   <v>       0.00112697 </v>
   <v>       0.00112697 </v>
   <v>       0.00112697 </v>
   <v>       0.00112697 </v>
   <v>       0.00112697 </v>
   <v>       0.00112697 </v>
   <v>       0.00112697 </v>
   <v>       0.00112697 </v>
   <v>       0.00112697 </v>
   <v>       0.00112697 </v>
   <v>       0.00112697 </v>
   <v>       0.00112697 </v>
   <v>       0.00112697 </v>
   <v>       0.00112697 </v>
   <v>       0.00112697 </v>
   <v>       0.00112697 </v>
   <v>       0.00056349 </v>
   <v>       0.00112697 </v>
   <v>       0.00112697 </v>
   <v>       0.00112697 </v>
   <v>       0.00112697 </v>
   <v>       0.00112697 </v>
   <v>       0.00112697 </v>
   <v>       0.00112697 </v>
   <v>       0.00112697 </v>
   <v>       0.00112697 </v>
   <v>       0.00112697 </v>
   <v>       0.00112697 </v>
   <v>       0.00112697 </v>
   <v>       0.00112697 </v>
   <v>       0.00112697 </v>
   <v>       0.00112697 </v>
   <v>       0.00056349 </v>
   <v>       0.00112697 </v>
   <v>       0.00112697 </v>
   <v>       0.00112697 </v>
   <v>       0.00112697 </v>
   <v>       0.00112697 </v>
   <v>       0.00112697 </v>
   <v>       0.00112697 </v>
   <v>       0.00112697 </v>
   <v>       0.00112697 </v>
   <v>       0.00112697 </v>
   <v>       0.00112697 </v>
   <v>       0.00112697 </v>
   <v>       0.00112697 </v>
   <v>       0.00112697 </v>
   <v>       0.00056349 </v>
   <v>       0.00112697 </v>
   <v>       0.00112697 </v>
   <v>       0.00112697 </v>
   <v>       0.00112697 </v>
   <v>       0.00112697 </v>
   <v>       0.00112697 </v>
   <v>       0.00112697 </v>
   <v>       0.00112697 </v>
   <v>       0.00112697 </v>
   <v>       0.00112697 </v>
   <v>       0.00112697 </v>
   <v>       0.00112697 </v>
   <v>       0.00112697 </v>
   <v>       0.00056349 </v>
   <v>       0.00112697 </v>
   <v>       0.00112697 </v>
   <v>       0.00112697 </v>
   <v>       0.00112697 </v>
   <v>       0.00112697 </v>
   <v>       0.00112697 </v>
   <v>       0.00112697 </v>
   <v>       0.00112697 </v>
   <v>       0.00112697 </v>
   <v>       0.00112697 </v>
   <v>       0.00112697 </v>
   <v>       0.00112697 </v>
   <v>       0.00056349 </v>
   <v>       0.00112697 </v>
   <v>       0.00112697 </v>
   <v>       0.00112697 </v>
   <v>       0.00112697 </v>
   <v>       0.00112697 </v>
   <v>       0.00112697 </v>
   <v>       0.00112697 </v>
   <v>       0.00112697 </v>
   <v>       0.00112697 </v>
   <v>       0.00112697 </v>
   <v>       0.00112697 </v>
   <v>       0.00056349 </v>
   <v>       0.00112697 </v>
   <v>       0.00112697 </v>
   <v>       0.00112697 </v>
   <v>       0.00112697 </v>
   <v>       0.00112697 </v>
   <v>       0.00112697 </v>
   <v>       0.00112697 </v>
   <v>       0.00112697 </v>
   <v>       0.00112697 </v>
   <v>       0.00056349 </v>
   <v>       0.00112697 </v>
   <v>       0.00112697 </v>
   <v>       0.00112697 </v>
   <v>       0.00112697 </v>
   <v>       0.00112697 </v>
   <v>       0.00112697 </v>
   <v>       0.00112697 </v>
   <v>       0.00112697 </v>
   <v>       0.00056349 </v>
   <v>       0.00112697 </v>
   <v>       0.00112697 </v>
   <v>       0.00112697 </v>
   <v>       0.00112697 </v>
   <v>       0.00112697 </v>
   <v>       0.00112697 </v>
   <v>       0.00112697 </v>
   <v>       0.00056349 </v>
   <v>       0.00112697 </v>
   <v>       0.00112697 </v>
   <v>       0.00112697 </v>
   <v>       0.00112697 </v>
   <v>       0.00112697 </v>
   <v>       0.00112697 </v>
   <v>       0.00056349 </v>
   <v>       0.00112697 </v>
   <v>       0.00112697 </v>
   <v>       0.00112697 </v>
   <v>       0.00112697 </v>
   <v>       0.00112697 </v>
   <v>       0.00056349 </v>
   <v>       0.00112697 </v>
   <v>       0.00112697 </v>
   <v>       0.00112697 </v>
   <v>       0.00112697 </v>
   <v>       0.00056349 </v>
   <v>       0.00112697 </v>
   <v>       0.00112697 </v>
   <v>       0.00112697 </v>
   <v>       0.00056349 </v>
   <v>       0.00112697 </v>
   <v>       0.00112697 </v>
   <v>       0.00056349 </v>
   <v>       0.00112697 </v>
   <v>       0.00056349 </v>
   <v>       0.00018783 </v>
   <v>       0.00056349 </v>
   <v>       0.00056349 </v>
   <v>       0.00056349 </v>
   <v>       0.00056349 </v>
   <v>       0.00056349 </v>
   <v>       0.00056349 </v>
   <v>       0.00056349 </v>
   <v>       0.00056349 </v>
   <v>       0.00056349 </v>
   <v>       0.00056349 </v>
   <v>       0.00056349 </v>
   <v>       0.00056349 </v>
   <v>       0.00056349 </v>
   <v>       0.00056349 </v>
   <v>       0.00056349 </v>
   <v>       0.00056349 </v>
   <v>       0.00056349 </v>
   <v>       0.00056349 </v>
   <v>       0.00056349 </v>
   <v>       0.00056349 </v>
   <v>       0.00112697 </v>
   <v>       0.00112697 </v>
   <v>       0.00112697 </v>
   <v>       0.00112697 </v>
   <v>       0.00112697 </v>
   <v>       0.00112697 </v>
   <v>       0.00112697 </v>
   <v>       0.00112697 </v>
   <v>       0.00112697 </v>
   <v>       0.00112697 </v>
   <v>       0.00112697 </v>
   <v>       0.00112697 </v>
   <v>       0.00112697 </v>
   <v>       0.00112697 </v>
   <v>       0.00112697 </v>
   <v>       0.00112697 </v>
   <v>       0.00112697 </v>
   <v>       0.00112697 </v>
   <v>       0.00056349 </v>
   <v>       0.00112697 </v>
   <v>       0.00112697 </v>
   <v>       0.00112697 </v>
   <v>       0.00112697 </v>
   <v>       0.00112697 </v>
   <v>       0.00112697 </v>
   <v>       0.00112697 </v>
   <v>       0.00112697 </v>
   <v>       0.00112697 </v>
   <v>       0.00112697 </v>
   <v>       0.00112697 </v>
   <v>       0.00112697 </v>
   <v>       0.00112697 </v>
   <v>       0.00112697 </v>
   <v>       0.00112697 </v>
   <v>       0.00112697 </v>
   <v>       0.00112697 </v>
   <v>       0.00056349 </v>
   <v>       0.00112697 </v>
   <v>       0.00112697 </v>
   <v>       0.00112697 </v>
   <v>       0.00112697 </v>
   <v>       0.00112697 </v>
   <v>       0.00112697 </v>
   <v>       0.00112697 </v>
   <v>       0.00112697 </v>
   <v>       0.00112697 </v>
   <v>       0.00112697 </v>
   <v>       0.00112697 </v>
   <v>       0.00112697 </v>
   <v>       0.00112697 </v>
   <v>       0.00112697 </v>
   <v>       0.00112697 </v>
   <v>       0.00112697 </v>
   <v>       0.00056349 </v>
   <v>       0.00112697 </v>
   <v>       0.00112697 </v>
   <v>       0.00112697 </v>
   <v>       0.00112697 </v>
   <v>       0.00112697 </v>
   <v>       0.00112697 </v>
   <v>       0.00112697 </v>
   <v>       0.00112697 </v>
   <v>       0.00112697 </v>
   <v>       0.00112697 </v>
   <v>       0.00112697 </v>
   <v>       0.00112697 </v>
   <v>       0.00112697 </v>
   <v>       0.00112697 </v>
   <v>       0.00112697 </v>
   <v>       0.00056349 </v>
   <v>       0.00112697 </v>
   <v>       0.00112697 </v>
   <v>       0.00112697 </v>
   <v>       0.00112697 </v>
   <v>       0.00112697 </v>
   <v>       0.00112697 </v>
   <v>       0.00112697 </v>
   <v>       0.00112697 </v>
   <v>       0.00112697 </v>
   <v>       0.00112697 </v>
   <v>       0.00112697 </v>
   <v>       0.00112697 </v>
   <v>       0.00112697 </v>
   <v>       0.00112697 </v>
   <v>       0.00056349 </v>
   <v>       0.00112697 </v>
   <v>       0.00112697 </v>
   <v>       0.00112697 </v>
   <v>       0.00112697 </v>
   <v>       0.00112697 </v>
   <v>       0.00112697 </v>
   <v>       0.00112697 </v>
   <v>       0.00112697 </v>
   <v>       0.00112697 </v>
   <v>       0.00112697 </v>
   <v>       0.00112697 </v>
   <v>       0.00112697 </v>
   <v>       0.00112697 </v>
   <v>       0.00056349 </v>
   <v>       0.00112697 </v>
   <v>       0.00112697 </v>
   <v>       0.00112697 </v>
   <v>       0.00112697 </v>
   <v>       0.00112697 </v>
   <v>       0.00112697 </v>
   <v>       0.00112697 </v>
   <v>       0.00112697 </v>
   <v>       0.00112697 </v>
   <v>       0.00112697 </v>
   <v>       0.00112697 </v>
   <v>       0.00112697 </v>
   <v>       0.00056349 </v>
   <v>       0.00112697 </v>
   <v>       0.00112697 </v>
   <v>       0.00112697 </v>
   <v>       0.00112697 </v>
   <v>       0.00112697 </v>
   <v>       0.00112697 </v>
   <v>       0.00112697 </v>
   <v>       0.00112697 </v>
   <v>       0.00112697 </v>
   <v>       0.00112697 </v>
   <v>       0.00112697 </v>
   <v>       0.00056349 </v>
   <v>       0.00112697 </v>
   <v>       0.00112697 </v>
   <v>       0.00112697 </v>
   <v>       0.00112697 </v>
   <v>       0.00112697 </v>
   <v>       0.00112697 </v>
   <v>       0.00112697 </v>
   <v>       0.00112697 </v>
   <v>       0.00112697 </v>
   <v>       0.00112697 </v>
   <v>       0.00056349 </v>
   <v>       0.00112697 </v>
   <v>       0.00112697 </v>
   <v>       0.00112697 </v>
   <v>       0.00112697 </v>
   <v>       0.00112697 </v>
   <v>       0.00112697 </v>
   <v>       0.00112697 </v>
   <v>       0.00112697 </v>
   <v>       0.00056349 </v>
   <v>       0.00112697 </v>
   <v>       0.00112697 </v>
   <v>       0.00112697 </v>
   <v>       0.00112697 </v>
   <v>       0.00112697 </v>
   <v>       0.00112697 </v>
   <v>       0.00112697 </v>
   <v>       0.00056349 </v>
   <v>       0.00112697 </v>
   <v>       0.00112697 </v>
   <v>       0.00112697 </v>
   <v>       0.00112697 </v>
   <v>       0.00112697 </v>
   <v>       0.00112697 </v>
   <v>       0.00056349 </v>
   <v>       0.00112697 </v>
   <v>       0.00112697 </v>
   <v>       0.00112697 </v>
   <v>       0.00112697 </v>
   <v>       0.00112697 </v>
   <v>       0.00056349 </v>
   <v>       0.00112697 </v>
   <v>       0.00112697 </v>
   <v>       0.00112697 </v>
   <v>       0.00112697 </v>
   <v>       0.00056349 </v>
   <v>       0.00112697 </v>
   <v>       0.00112697 </v>
   <v>       0.00112697 </v>
   <v>       0.00056349 </v>
   <v>       0.00112697 </v>
   <v>       0.00112697 </v>
   <v>       0.00056349 </v>
   <v>       0.00112697 </v>
   <v>       0.00056349 </v>
   <v>       0.00018783 </v>
   <v>       0.00056349 </v>
   <v>       0.00056349 </v>
   <v>       0.00056349 </v>
   <v>       0.00056349 </v>
   <v>       0.00056349 </v>
   <v>       0.00056349 </v>
   <v>       0.00056349 </v>
   <v>       0.00056349 </v>
   <v>       0.00056349 </v>
   <v>       0.00056349 </v>
   <v>       0.00056349 </v>
   <v>       0.00056349 </v>
   <v>       0.00056349 </v>
   <v>       0.00056349 </v>
   <v>       0.00056349 </v>
   <v>       0.00056349 </v>
   <v>       0.00056349 </v>
   <v>       0.00056349 </v>
   <v>       0.00112697 </v>
   <v>       0.00112697 </v>
   <v>       0.00112697 </v>
   <v>       0.00112697 </v>
   <v>       0.00112697 </v>
   <v>       0.00112697 </v>
   <v>       0.00112697 </v>
[...]
       <r>    3.1958    1.0000 </r>
       <r>    3.9479    1.0000 </r>
       <r>   14.0716    0.0000 </r>
       <r>   15.9290    0.0000 </r>
       <r>   20.0320    0.0000 </r>
       <r>   23.7878    0.0000 </r>
       <r>   27.1460    0.0000 </r>
       <r>   31.0317    0.0000 </r>
      </set>
      <set comment="kpoint 1002">
       <r>    3.3531    1.0000 </r>
       <r>    4.0977    1.0000 </r>
       <r>   13.0719    0.0000 </r>
       <r>   16.3985    0.0000 </r>
       <r>   19.1093    0.0000 </r>
       <r>   24.9155    0.0000 </r>
       <r>   27.1659    0.0000 </r>
       <r>   30.9459    0.0000 </r>
      </set>
      <set comment="kpoint 1003">
       <r>    1.0745    1.0000 </r>
       <r>    4.9716    1.0000 </r>
       <r>   18.7394    0.0000 </r>
       <r>   18.7394    0.0000 </r>
       <r>   21.3147    0.0000 </r>
       <r>   21.3147    0.0000 </r>
       <r>   23.4393    0.0000 </r>
       <r>   26.2960    0.0000 </r>
      </set>
      <set comment="kpoint 1004">
       <r>    1.4975    1.0000 </r>
       <r>    4.5556    1.0000 </r>
       <r>   17.7749    0.0000 </r>
       <r>   18.7261    0.0000 </r>
       <r>   21.3348    0.0000 </r>
       <r>   21.3351    0.0000 </r>
       <r>   23.8560    0.0000 </r>
       <r>   26.7818    0.0000 </r>
      </set>
      <set comment="kpoint 1005">
       <r>    2.0314    1.0000 </r>
       <r>    4.2589    1.0000 </r>
       <r>   16.2879    0.0000 </r>
       <r>   18.0228    0.0000 </r>
       <r>   20.7491    0.0000 </r>
       <r>   22.2554    0.0000 </r>
       <r>   24.8260    0.0000 </r>
       <r>   28.1903    0.0000 </r>
      </set>
      <set comment="kpoint 1006">
       <r>    2.6661    1.0000 </r>
       <r>    4.0905    1.0000 </r>
       <r>   14.6757    0.0000 </r>
       <r>   17.1907    0.0000 </r>
       <r>   19.9337    0.0000 </r>
       <r>   23.5059    0.0000 </r>
       <r>   26.0061    0.0000 </r>
       <r>   30.0418    0.0000 </r>
      </set>
      <set comment="kpoint 1007">
       <r>    1.8747    1.0000 </r>
       <r>    4.1065    1.0000 </r>
       <r>   18.2145    0.0000 </r>
       <r>   18.2591    0.0000 </r>
       <r>   20.7791    0.0000 </r>
       <r>   21.7690    0.0000 </r>
       <r>   23.9340    0.0000 </r>
       <r>   26.6530    0.0000 </r>
      </set>
      <set comment="kpoint 1008">
       <r>    2.3527    1.0000 </r>
       <r>    3.7867    1.0000 </r>
       <r>   17.0965    0.0000 </r>
       <r>   17.6965    0.0000 </r>
       <r>   21.0250    0.0000 </r>
       <r>   21.8116    0.0000 </r>
       <r>   24.7205    0.0000 </r>
       <r>   27.6076    0.0000 </r>
      </set>
      <set comment="kpoint 1009">
       <r>    2.8811    1.0000 </r>
       <r>    3.6463    1.0000 </r>
       <r>   15.6336    0.0000 </r>
       <r>   16.7942    0.0000 </r>
       <r>   20.7704    0.0000 </r>
       <r>   22.4996    0.0000 </r>
       <r>   25.9179    0.0000 </r>
       <r>   29.2196    0.0000 </r>
      </set>
      <set comment="kpoint 1010">
       <r>    2.7232    1.0000 </r>
       <r>    3.4952    1.0000 </r>
       <r>   16.6002    0.0000 </r>
       <r>   17.6639    0.0000 </r>
       <r>   20.3566    0.0000 </r>
       <r>   22.5380    0.0000 </r>
       <r>   24.9488    0.0000 </r>
       <r>   28.0259    0.0000 </r>
      </set>
      <set comment="kpoint 1011">
       <r>    2.1958    1.0000 </r>
       <r>    3.6344    1.0000 </r>
       <r>   18.7614    0.0000 </r>
       <r>   18.7614    0.0000 </r>
       <r>   21.0919    0.0000 </r>
       <r>   21.0919    0.0000 </r>
       <r>   23.5040    0.0000 </r>
       <r>   26.0314    0.0000 </r>
      </set>
      <set comment="kpoint 1012">
       <r>    2.5652    1.0000 </r>
       <r>    3.3440    1.0000 </r>
       <r>   17.9950    0.0000 </r>
       <r>   18.4509    0.0000 </r>
       <r>   20.9768    0.0000 </r>
       <r>   21.4712    0.0000 </r>
       <r>   23.9239    0.0000 </r>
       <r>   26.5919    0.0000 </r>
      </set>
     </set>
    </set>
   </array>
  </eigenvalues>
  <separator name="orbital magnetization" >
   <v name="MAGDIPOLOUT">      0.00000000      0.00000000      0.00000000</v>
  </separator>
  <dos>
   <i name="efermi">     10.21697349 </i>
   <total>
    <array>
     <dimension dim="1">gridpoints</dimension>
     <dimension dim="2">spin</dimension>
     <field>energy</field>
     <field>total</field>
     <field>integrated</field>
     <set>
      <set comment="spin 1">
       <r>    -6.2941     0.0000     0.0000 </r>
       <r>    -6.1451     0.0000     0.0000 </r>
       <r>    -5.9962     0.0000     0.0000 </r>
       <r>    -5.8472     0.0000     0.0000 </r>
       <r>    -5.6982     0.0000     0.0000 </r>
       <r>    -5.5493     0.0000     0.0000 </r>
       <r>    -5.4003     0.0000     0.0000 </r>
       <r>    -5.2513     0.0000     0.0000 </r>
       <r>    -5.1024     0.0000     0.0000 </r>
       <r>    -4.9534     0.0000     0.0000 </r>
       <r>    -4.8044     0.0000     0.0000 </r>
       <r>    -4.6554     0.0000     0.0000 </r>
       <r>    -4.5065     0.0000     0.0000 </r>
       <r>    -4.3575     0.0000     0.0000 </r>
       <r>    -4.2085     0.0094     0.0014 </r>
       <r>    -4.0596     0.0381     0.0071 </r>
       <r>    -3.9106     0.0553     0.0153 </r>
       <r>    -3.7616     0.0709     0.0259 </r>
       <r>    -3.6127     0.0788     0.0376 </r>
       <r>    -3.4637     0.0863     0.0505 </r>
       <r>    -3.3147     0.1027     0.0658 </r>
       <r>    -3.1658     0.1038     0.0812 </r>
       <r>    -3.0168     0.1181     0.0988 </r>
       <r>    -2.8678     0.1120     0.1155 </r>
       <r>    -2.7189     0.1377     0.1360 </r>
       <r>    -2.5699     0.1270     0.1549 </r>
       <r>    -2.4209     0.1411     0.1760 </r>
       <r>    -2.2720     0.1489     0.1981 </r>
       <r>    -2.1230     0.1494     0.2204 </r>
       <r>    -1.9740     0.1561     0.2437 </r>
       <r>    -1.8251     0.1697     0.2689 </r>
       <r>    -1.6761     0.1470     0.2908 </r>
       <r>    -1.5271     0.1877     0.3188 </r>
       <r>    -1.3782     0.1807     0.3457 </r>
       <r>    -1.2292     0.1755     0.3719 </r>
       <r>    -1.0802     0.1799     0.3987 </r>
       <r>    -0.9313     0.2096     0.4299 </r>
       <r>    -0.7823     0.1915     0.4584 </r>
       <r>    -0.6333     0.1781     0.4849 </r>
       <r>    -0.4844     0.2365     0.5202 </r>
       <r>    -0.3354     0.1906     0.5486 </r>
       <r>    -0.1864     0.2214     0.5815 </r>
       <r>    -0.0375     0.2062     0.6123 </r>
       <r>     0.1115     0.2253     0.6458 </r>
       <r>     0.2605     0.2353     0.6809 </r>
       <r>     0.4094     0.2212     0.7138 </r>
       <r>     0.5584     0.2322     0.7484 </r>
       <r>     0.7074     0.2346     0.7834 </r>
       <r>     0.8563     0.2611     0.8223 </r>
       <r>     1.0053     0.2130     0.8540 </r>
       <r>     1.1543     0.2748     0.8949 </r>
       <r>     1.3032     0.2357     0.9300 </r>
       <r>     1.4522     0.2681     0.9700 </r>
       <r>     1.6012     0.2742     1.0108 </r>
       <r>     1.7502     0.2491     1.0479 </r>
       <r>     1.8991     0.2464     1.0847 </r>
       <r>     2.0481     0.3101     1.1308 </r>
       <r>     2.1971     0.2709     1.1712 </r>
       <r>     2.3460     0.2732     1.2119 </r>
       <r>     2.4950     0.2778     1.2533 </r>
       <r>     2.6440     0.3230     1.3014 </r>
       <r>     2.7929     0.2999     1.3461 </r>
       <r>     2.9419     0.2776     1.3874 </r>
       <r>     3.0909     0.2880     1.4303 </r>
       <r>     3.2398     0.2547     1.4683 </r>
       <r>     3.3888     0.2948     1.5122 </r>
       <r>     3.5378     0.3001     1.5569 </r>
       <r>     3.6867     0.3211     1.6047 </r>
       <r>     3.8357     0.2703     1.6450 </r>
       <r>     3.9847     0.2978     1.6894 </r>
       <r>     4.1336     0.3430     1.7405 </r>
       <r>     4.2826     0.3363     1.7906 </r>
       <r>     4.4316     0.3040     1.8359 </r>
       <r>     4.5805     0.2830     1.8780 </r>
       <r>     4.7295     0.3923     1.9365 </r>
       <r>     4.8785     0.3191     1.9840 </r>
       <r>     5.0274     0.3280     2.0329 </r>
       <r>     5.1764     0.3655     2.0873 </r>
       <r>     5.3254     0.3367     2.1375 </r>
       <r>     5.4743     0.3492     2.1895 </r>
       <r>     5.6233     0.2566     2.2277 </r>
       <r>     5.7723     0.3934     2.2863 </r>
       <r>     5.9212     0.2808     2.3282 </r>
       <r>     6.0702     0.3915     2.3865 </r>
       <r>     6.2192     0.3546     2.4393 </r>
       <r>     6.3681     0.3472     2.4910 </r>
       <r>     6.5171     0.3624     2.5450 </r>
       <r>     6.6661     0.4083     2.6058 </r>
       <r>     6.8150     0.3629     2.6599 </r>
       <r>     6.9640     0.3581     2.7132 </r>
       <r>     7.1130     0.3292     2.7623 </r>
       <r>     7.2619     0.3880     2.8201 </r>
       <r>     7.4109     0.3596     2.8736 </r>
       <r>     7.5599     0.3360     2.9237 </r>
       <r>     7.7088     0.3634     2.9778 </r>
       <r>     7.8578     0.4389     3.0432 </r>
       <r>     8.0068     0.3882     3.1010 </r>
       <r>     8.1558     0.4111     3.1623 </r>
       <r>     8.3047     0.3740     3.2180 </r>
       <r>     8.4537     0.3132     3.2646 </r>
       <r>     8.6027     0.4283     3.3285 </r>
       <r>     8.7516     0.4675     3.3981 </r>
       <r>     8.9006     0.4221     3.4610 </r>
       <r>     9.0496     0.3220     3.5089 </r>
       <r>     9.1985     0.4026     3.5689 </r>
       <r>     9.3475     0.4183     3.6312 </r>
       <r>     9.4965     0.4411     3.6969 </r>
       <r>     9.6454     0.4044     3.7572 </r>
       <r>     9.7944     0.4491     3.8241 </r>
       <r>     9.9434     0.4059     3.8845 </r>
       <r>    10.0923     0.4136     3.9461 </r>
       <r>    10.2413     0.4298     4.0102 </r>
       <r>    10.3903     0.3950     4.0690 </r>
       <r>    10.5392     0.4794     4.1404 </r>
       <r>    10.6882     0.5015     4.2151 </r>
       <r>    10.8372     0.3538     4.2678 </r>
       <r>    10.9861     0.4209     4.3305 </r>
       <r>    11.1351     0.5173     4.4076 </r>
       <r>    11.2841     0.4596     4.4761 </r>
       <r>    11.4330     0.3919     4.5344 </r>
       <r>    11.5820     0.4928     4.6078 </r>
       <r>    11.7310     0.4490     4.6747 </r>
       <r>    11.8799     0.4931     4.7482 </r>
       <r>    12.0289     0.4756     4.8190 </r>
       <r>    12.1779     0.4578     4.8872 </r>
       <r>    12.3268     0.4539     4.9548 </r>
       <r>    12.4758     0.5069     5.0304 </r>
       <r>    12.6248     0.5554     5.1131 </r>
       <r>    12.7737     0.4149     5.1749 </r>
       <r>    12.9227     0.5657     5.2592 </r>
       <r>    13.0717     0.4976     5.3333 </r>
       <r>    13.2206     0.4891     5.4062 </r>
       <r>    13.3696     0.5441     5.4872 </r>
       <r>    13.5186     0.6258     5.5804 </r>
       <r>    13.6675     0.5146     5.6571 </r>
       <r>    13.8165     0.6290     5.7508 </r>
       <r>    13.9655     0.5046     5.8259 </r>
       <r>    14.1145     0.5166     5.9029 </r>
       <r>    14.2634     0.5736     5.9884 </r>
       <r>    14.4124     0.4845     6.0605 </r>
       <r>    14.5614     0.5091     6.1364 </r>
       <r>    14.7103     0.4664     6.2058 </r>
       <r>    14.8593     0.5528     6.2882 </r>
       <r>    15.0083     0.4533     6.3557 </r>
       <r>    15.1572     0.4868     6.4282 </r>
       <r>    15.3062     0.4265     6.4918 </r>
       <r>    15.4552     0.5425     6.5726 </r>
       <r>    15.6041     0.4902     6.6456 </r>
       <r>    15.7531     0.4001     6.7052 </r>
       <r>    15.9021     0.3842     6.7624 </r>
       <r>    16.0510     0.6059     6.8527 </r>
       <r>    16.2000     0.4241     6.9159 </r>
       <r>    16.3490     0.4823     6.9877 </r>
       <r>    16.4979     0.4279     7.0515 </r>
       <r>    16.6469     0.4947     7.1252 </r>
       <r>    16.7959     0.5125     7.2015 </r>
       <r>    16.9448     0.4181     7.2638 </r>
       <r>    17.0938     0.4642     7.3329 </r>
       <r>    17.2428     0.5455     7.4142 </r>
       <r>    17.3917     0.4928     7.4876 </r>
       <r>    17.5407     0.5176     7.5647 </r>
       <r>    17.6897     0.5025     7.6396 </r>
       <r>    17.8386     0.4301     7.7037 </r>
       <r>    17.9876     0.5526     7.7860 </r>
       <r>    18.1366     0.5984     7.8751 </r>
       <r>    18.2855     0.4857     7.9475 </r>
       <r>    18.4345     0.4736     8.0180 </r>
       <r>    18.5835     0.5637     8.1020 </r>
       <r>    18.7324     0.5067     8.1775 </r>
       <r>    18.8814     0.6169     8.2694 </r>
       <r>    19.0304     0.4951     8.3431 </r>
       <r>    19.1793     0.5493     8.4250 </r>
       <r>    19.3283     0.5282     8.5036 </r>
       <r>    19.4773     0.5022     8.5785 </r>
       <r>    19.6262     0.6014     8.6680 </r>
       <r>    19.7752     0.5618     8.7517 </r>
       <r>    19.9242     0.4635     8.8208 </r>
       <r>    20.0731     0.5503     8.9027 </r>
       <r>    20.2221     0.5901     8.9907 </r>
       <r>    20.3711     0.5595     9.0740 </r>
       <r>    20.5201     0.5429     9.1549 </r>
       <r>    20.6690     0.6001     9.2443 </r>
       <r>    20.8180     0.5809     9.3308 </r>
       <r>    20.9670     0.6095     9.4216 </r>
       <r>    21.1159     0.6500     9.5184 </r>
       <r>    21.2649     0.6770     9.6193 </r>
       <r>    21.4139     0.5803     9.7057 </r>
       <r>    21.5628     0.5935     9.7941 </r>
       <r>    21.7118     0.6104     9.8851 </r>
       <r>    21.8608     0.5126     9.9614 </r>
       <r>    22.0097     0.5500    10.0434 </r>
       <r>    22.1587     0.5223    10.1212 </r>
       <r>    22.3077     0.6239    10.2141 </r>
       <r>    22.4566     0.6368    10.3090 </r>
       <r>    22.6056     0.4727    10.3794 </r>
       <r>    22.7546     0.5328    10.4588 </r>
       <r>    22.9035     0.6895    10.5615 </r>
       <r>    23.0525     0.5477    10.6431 </r>
       <r>    23.2015     0.4476    10.7097 </r>
       <r>    23.3504     0.7346    10.8192 </r>
       <r>    23.4994     0.6308    10.9132 </r>
       <r>    23.6484     0.6770    11.0140 </r>
       <r>    23.7973     0.6274    11.1075 </r>
       <r>    23.9463     0.7920    11.2255 </r>
       <r>    24.0953     0.6890    11.3281 </r>
       <r>    24.2442     0.7067    11.4334 </r>
       <r>    24.3932     0.4646    11.5026 </r>
       <r>    24.5422     0.6693    11.6023 </r>
       <r>    24.6911     0.7490    11.7139 </r>
       <r>    24.8401     0.6506    11.8108 </r>
       <r>    24.9891     0.4621    11.8796 </r>
       <r>    25.1380     0.6069    11.9700 </r>
       <r>    25.2870     0.6393    12.0653 </r>
       <r>    25.4360     0.7260    12.1734 </r>
       <r>    25.5849     0.6607    12.2718 </r>
       <r>    25.7339     0.6044    12.3619 </r>
       <r>    25.8829     0.6638    12.4607 </r>
       <r>    26.0318     0.7951    12.5792 </r>
       <r>    26.1808     0.6364    12.6740 </r>
       <r>    26.3298     0.5491    12.7558 </r>
       <r>    26.4787     0.6625    12.8545 </r>
       <r>    26.6277     0.7417    12.9650 </r>
       <r>    26.7767     0.5824    13.0517 </r>
       <r>    26.9257     0.5387    13.1320 </r>
       <r>    27.0746     0.7349    13.2414 </r>
       <r>    27.2236     0.6384    13.3366 </r>
       <r>    27.3726     0.4414    13.4023 </r>
       <r>    27.5215     0.6347    13.4969 </r>
       <r>    27.6705     0.6396    13.5921 </r>
       <r>    27.8195     0.5577    13.6752 </r>
       <r>    27.9684     0.4772    13.7463 </r>
       <r>    28.1174     0.6257    13.8395 </r>
       <r>    28.2664     0.6564    13.9373 </r>
       <r>    28.4153     0.4693    14.0072 </r>
       <r>    28.5643     0.4629    14.0762 </r>
       <r>    28.7133     0.6161    14.1679 </r>
       <r>    28.8622     0.5064    14.2434 </r>
       <r>    29.0112     0.4452    14.3097 </r>
       <r>    29.1602     0.3580    14.3630 </r>
       <r>    29.3091     0.6776    14.4640 </r>
       <r>    29.4581     0.4678    14.5337 </r>
       <r>    29.6071     0.5294    14.6125 </r>
       <r>    29.7560     0.4056    14.6729 </r>
       <r>    29.9050     0.5912    14.7610 </r>
       <r>    30.0540     0.6003    14.8504 </r>
       <r>    30.2029     0.5998    14.9398 </r>
       <r>    30.3519     0.4321    15.0041 </r>
       <r>    30.5009     0.5197    15.0816 </r>
       <r>    30.6498     0.3795    15.1381 </r>
       <r>    30.7988     0.4471    15.2047 </r>
       <r>    30.9478     0.3426    15.2558 </r>
       <r>    31.0967     0.3308    15.3050 </r>
       <r>    31.2457     0.3328    15.3546 </r>
       <r>    31.3947     0.2942    15.3984 </r>
       <r>    31.5436     0.2427    15.4346 </r>
       <r>    31.6926     0.2873    15.4774 </r>
       <r>    31.8416     0.2607    15.5162 </r>
       <r>    31.9905     0.1796    15.5430 </r>
       <r>    32.1395     0.1991    15.5726 </r>
       <r>    32.2885     0.2852    15.6151 </r>
       <r>    32.4374     0.2054    15.6457 </r>
       <r>    32.5864     0.1644    15.6702 </r>
       <r>    32.7354     0.1963    15.6994 </r>
       <r>    32.8843     0.1832    15.7267 </r>
       <r>    33.0333     0.1367    15.7471 </r>
       <r>    33.1823     0.1595    15.7709 </r>
       <r>    33.3313     0.1942    15.7998 </r>
       <r>    33.4802     0.1236    15.8182 </r>
       <r>    33.6292     0.1444    15.8397 </r>
       <r>    33.7782     0.1455    15.8614 </r>
       <r>    33.9271     0.0688    15.8716 </r>
       <r>    34.0761     0.1084    15.8878 </r>
       <r>    34.2251     0.1051    15.9034 </r>
       <r>    34.3740     0.1395    15.9242 </r>
       <r>    34.5230     0.0730    15.9351 </r>
       <r>    34.6720     0.0705    15.9456 </r>
       <r>    34.8209     0.0620    15.9548 </r>
       <r>    34.9699     0.0535    15.9628 </r>
       <r>    35.1189     0.0260    15.9667 </r>
       <r>    35.2678     0.0687    15.9769 </r>
       <r>    35.4168     0.0545    15.9850 </r>
       <r>    35.5658     0.0171    15.9876 </r>
       <r>    35.7147     0.0073    15.9887 </r>
       <r>    35.8637     0.0210    15.9918 </r>
       <r>    36.0127     0.0391    15.9976 </r>
       <r>    36.1616     0.0015    15.9979 </r>
       <r>    36.3106     0.0073    15.9989 </r>
       <r>    36.4596     0.0071    16.0000 </r>
       <r>    36.6085     0.0000    16.0000 </r>
       <r>    36.7575     0.0000    16.0000 </r>
       <r>    36.9065     0.0000    16.0000 </r>
       <r>    37.0554     0.0000    16.0000 </r>
       <r>    37.2044     0.0000    16.0000 </r>
       <r>    37.3534     0.0000    16.0000 </r>
       <r>    37.5023     0.0000    16.0000 </r>
       <r>    37.6513     0.0000    16.0000 </r>
       <r>    37.8003     0.0000    16.0000 </r>
       <r>    37.9492     0.0000    16.0000 </r>
       <r>    38.0982     0.0000    16.0000 </r>
       <r>    38.2472     0.0000    16.0000 </r>
       <r>    38.3961     0.0000    16.0000 </r>
      </set>
     </set>
    </array>
   </total>
  </dos>
 </calculation>
 <structure name="finalpos" >
  <crystal>
   <varray name="basis" >
    <v>       2.36753323      -0.00000000       1.36689480 </v>
    <v>       0.78917774       2.23213150       1.36689480 </v>
    <v>      -0.00000001      -0.00000001       2.73379162 </v>
   </varray>
   <i name="volume">     14.44711967 </i>
   <varray name="rec_basis" >
    <v>       0.42238055      -0.14933409       0.00000000 </v>
    <v>       0.00000000       0.44800228       0.00000000 </v>
    <v>      -0.21119012      -0.14933398       0.36579233 </v>
   </varray>
  </crystal>
  <varray name="positions" >
   <v>       0.00000000       0.00000000       0.00000000 </v>
  </varray>
 </structure>
</modeling>
