unknown system                          
           1
     2.347395    0.000000    1.355268
     0.782465    2.213145    1.355268
     0.000000    0.000000    2.710538
   Si
     1
Direct configuration=     1
   0.00000000  0.00000000  0.00000000
unknown system                          
           1
     2.370326   -0.000000    1.368507
     0.790109    2.234765    1.368507
    -0.000000   -0.000000    2.737017
   Si
     1
Direct configuration=     2
   0.00000000  0.00000000  0.00000000
unknown system                          
           1
     2.367533   -0.000000    1.366895
     0.789178    2.232132    1.366895
    -0.000000   -0.000000    2.733792
   Si
     1
Direct configuration=     3
   0.00000000  0.00000000  0.00000000
