unknown system                          
   1.00000000000000     
     2.798108   -0.000000    0.000000
     0.000000    2.798108    0.000000
    -0.000000   -0.000000    2.798108
   Fe
     2
Direct
  0.000000  0.000000  0.000000
  0.500000  0.500000  0.500000
 
   36   36   36
  199.00      194.03      179.82      158.32      132.27      104.68      78.331      55.341      37.018      23.784    
  15.289      10.574      8.3658      7.2852      6.5168      5.9960      5.6764      5.5141      5.4620      5.5141    
  5.6764      5.9960      6.5168      7.2852      8.3658      10.574      15.289      23.784      37.018      55.341    
  78.331      104.68      132.27      158.32      179.82      194.03      194.03      189.20      175.40      154.48    
  129.12      102.24      76.526      54.082      36.197      23.293      15.031      10.464      8.3300      7.2688    
  6.5067      5.9925      5.6766      5.5167      5.4650      5.5167      5.6766      5.9925      6.5067      7.2688    
  8.3300      10.464      15.031      23.293      36.197      54.082      76.526      102.24      129.12      154.48    
  175.40      189.20      179.82      175.40      162.72      143.48      120.07      95.179      71.311      50.444    
  33.825      21.883      14.296      10.155      8.2292      7.2193      6.4769      5.9818      5.6770      5.5239    
  5.4738      5.5239      5.6770      5.9818      6.4769      7.2193      8.2292      10.155      14.296      21.883    
  33.825      50.444      71.311      95.179      120.07      143.48      162.72      175.40      158.32      154.48    
  143.48      126.71      106.22      84.336      63.271      44.831      30.184      19.741      13.204      9.7087    
  8.0787      7.1350      6.4288      5.9635      5.6778      5.5347      5.4877      5.5347      5.6778      5.9635    
  6.4288      7.1350      8.0787      9.7087      13.204      19.741      30.184      44.831      63.271      84.336    
  106.22      126.71      143.48      154.48      132.27      129.12      120.07      106.22      89.214      70.951    
  53.321      37.900      25.724      17.167      11.931      9.2103      7.8921      7.0156      6.3655      5.9379    
  5.6790      5.5469      5.5055      5.5469      5.6790      5.9379      6.3655      7.0156      7.8921      9.2103    
  11.931      17.167      25.724      37.900      53.321      70.951      89.214      106.22      120.07      129.12    
  104.68      102.24      95.179      84.336      70.951      56.529      42.598      30.474      21.023      14.530    
  10.686      8.7348      7.6702      6.8667      6.2895      5.9063      5.6793      5.5596      5.5250      5.5596    
  5.6793      5.9063      6.2895      6.8667      7.6702      8.7348      10.686      14.530      21.023      30.474    
  42.598      56.529      70.951      84.336      95.179      102.24      78.331      76.526      71.311      63.271    
  53.321      42.598      32.292      23.431      16.673      12.188      9.6380      8.3078      7.4083      6.7013    
  6.2031      5.8726      5.6764      5.5724      5.5421      5.5724      5.6764      5.8726      6.2031      6.7013    
  7.4083      8.3078      9.6380      12.188      16.673      23.431      32.292      42.598      53.321      63.271    
  71.311      76.526      55.341      54.082      50.444      44.831      37.900      30.474      23.431      17.509    
  13.154      10.388      8.8508      7.8944      7.1196      6.5307      6.1114      5.8379      5.6699      5.5834    
  5.5551      5.5834      5.6699      5.8379      6.1114      6.5307      7.1196      7.8944      8.8508      10.388    
  13.154      17.509      23.431      30.474      37.900      44.831      50.444      54.082      37.018      36.197    
  33.825      30.184      25.724      21.023      16.673      13.154      10.684      9.1782      8.2347      7.4649    
  6.8352      6.3600      6.0241      5.8002      5.6622      5.5880      5.5650      5.5880      5.6622      5.8002    
  6.0241      6.3600      6.8352      7.4649      8.2347      9.1782      10.684      13.154      16.673      21.023    
  25.724      30.184      33.825      36.197      23.784      23.293      21.883      19.741      17.167      14.530    
  12.188      10.388      9.1782      8.3580      7.6605      7.0536      6.5688      6.2025      5.9409      5.7628    
  5.6501      5.5879      5.5683      5.5879      5.6501      5.7628      5.9409      6.2025      6.5688      7.0536    
  7.6605      8.3580      9.1782      10.388      12.188      14.530      17.167      19.741      21.883      23.293    
  15.289      15.031      14.296      13.204      11.931      10.686      9.6380      8.8508      8.2347      7.6605    
  7.1332      6.6887      6.3327      6.0625      5.8647      5.7261      5.6342      5.5821      5.5650      5.5821    
  5.6342      5.7261      5.8647      6.0625      6.3327      6.6887      7.1332      7.6605      8.2347      8.8508    
  9.6380      10.686      11.931      13.204      14.296      15.031      10.574      10.464      10.155      9.7087    
  9.2103      8.7348      8.3078      7.8944      7.4649      7.0536      6.6887      6.3806      6.1336      5.9415    
  5.7956      5.6877      5.6134      5.5695      5.5551      5.5695      5.6134      5.6877      5.7956      5.9415    
  6.1336      6.3806      6.6887      7.0536      7.4649      7.8944      8.3078      8.7348      9.2103      9.7087    
  10.155      10.464      8.3658      8.3300      8.2292      8.0787      7.8921      7.6702      7.4083      7.1196    
  6.8352      6.5688      6.3327      6.1336      5.9701      5.8374      5.7311      5.6495      5.5904      5.5544    
  5.5421      5.5544      5.5904      5.6495      5.7311      5.8374      5.9701      6.1336      6.3327      6.5688    
  6.8352      7.1196      7.4083      7.6702      7.8921      8.0787      8.2292      8.3300      7.2852      7.2688    
  7.2193      7.1350      7.0156      6.8667      6.7013      6.5307      6.3600      6.2025      6.0625      5.9415    
  5.8374      5.7480      5.6735      5.6121      5.5652      5.5352      5.5250      5.5352      5.5652      5.6121    
  5.6735      5.7480      5.8374      5.9415      6.0625      6.2025      6.3600      6.5307      6.7013      6.8667    
  7.0156      7.1350      7.2193      7.2688      6.5168      6.5067      6.4769      6.4288      6.3655      6.2895    
  6.2031      6.1114      6.0241      5.9409      5.8647      5.7956      5.7311      5.6735      5.6210      5.5748    
  5.5378      5.5139      5.5055      5.5139      5.5378      5.5748      5.6210      5.6735      5.7311      5.7956    
  5.8647      5.9409      6.0241      6.1114      6.2031      6.2895      6.3655      6.4288      6.4769      6.5067    
  5.9960      5.9925      5.9818      5.9635      5.9379      5.9063      5.8726      5.8379      5.8002      5.7628    
  5.7261      5.6877      5.6495      5.6121      5.5748      5.5402      5.5122      5.4940      5.4877      5.4940    
  5.5122      5.5402      5.5748      5.6121      5.6495      5.6877      5.7261      5.7628      5.8002      5.8379    
  5.8726      5.9063      5.9379      5.9635      5.9818      5.9925      5.6764      5.6766      5.6770      5.6778    
  5.6790      5.6793      5.6764      5.6699      5.6622      5.6501      5.6342      5.6134      5.5904      5.5652    
  5.5378      5.5122      5.4916      5.4784      5.4738      5.4784      5.4916      5.5122      5.5378      5.5652    
  5.5904      5.6134      5.6342      5.6501      5.6622      5.6699      5.6764      5.6793      5.6790      5.6778    
  5.6770      5.6766      5.5141      5.5167      5.5239      5.5347      5.5469      5.5596      5.5724      5.5834    
  5.5880      5.5879      5.5821      5.5695      5.5544      5.5352      5.5139      5.4940      5.4784      5.4684    
  5.4650      5.4684      5.4784      5.4940      5.5139      5.5352      5.5544      5.5695      5.5821      5.5879    
  5.5880      5.5834      5.5724      5.5596      5.5469      5.5347      5.5239      5.5167      5.4620      5.4650    
  5.4738      5.4877      5.5055      5.5250      5.5421      5.5551      5.5650      5.5683      5.5650      5.5551    
  5.5421      5.5250      5.5055      5.4877      5.4738      5.4650      5.4620      5.4650      5.4738      5.4877    
  5.5055      5.5250      5.5421      5.5551      5.5650      5.5683      5.5650      5.5551      5.5421      5.5250    
  5.5055      5.4877      5.4738      5.4650      5.5141      5.5167      5.5239      5.5347      5.5469      5.5596    
  5.5724      5.5834      5.5880      5.5879      5.5821      5.5695      5.5544      5.5352      5.5139      5.4940    
  5.4784      5.4684      5.4650      5.4684      5.4784      5.4940      5.5139      5.5352      5.5544      5.5695    
  5.5821      5.5879      5.5880      5.5834      5.5724      5.5596      5.5469      5.5347      5.5239      5.5167    
  5.6764      5.6766      5.6770      5.6778      5.6790      5.6793      5.6764      5.6699      5.6622      5.6501    
  5.6342      5.6134      5.5904      5.5652      5.5378      5.5122      5.4916      5.4784      5.4738      5.4784    
  5.4916      5.5122      5.5378      5.5652      5.5904      5.6134      5.6342      5.6501      5.6622      5.6699    
  5.6764      5.6793      5.6790      5.6778      5.6770      5.6766      5.9960      5.9925      5.9818      5.9635    
  5.9379      5.9063      5.8726      5.8379      5.8002      5.7628      5.7261      5.6877      5.6495      5.6121    
  5.5748      5.5402      5.5122      5.4940      5.4877      5.4940      5.5122      5.5402      5.5748      5.6121    
  5.6495      5.6877      5.7261      5.7628      5.8002      5.8379      5.8726      5.9063      5.9379      5.9635    
  5.9818      5.9925      6.5168      6.5067      6.4769      6.4288      6.3655      6.2895      6.2031      6.1114    
  6.0241      5.9409      5.8647      5.7956      5.7311      5.6735      5.6210      5.5748      5.5378      5.5139    
  5.5055      5.5139      5.5378      5.5748      5.6210      5.6735      5.7311      5.7956      5.8647      5.9409    
  6.0241      6.1114      6.2031      6.2895      6.3655      6.4288      6.4769      6.5067      7.2852      7.2688    
  7.2193      7.1350      7.0156      6.8667      6.7013      6.5307      6.3600      6.2025      6.0625      5.9415    
  5.8374      5.7480      5.6735      5.6121      5.5652      5.5352      5.5250      5.5352      5.5652      5.6121    
  5.6735      5.7480      5.8374      5.9415      6.0625      6.2025      6.3600      6.5307      6.7013      6.8667    
  7.0156      7.1350      7.2193      7.2688      8.3658      8.3300      8.2292      8.0787      7.8921      7.6702    
  7.4083      7.1196      6.8352      6.5688      6.3327      6.1336      5.9701      5.8374      5.7311      5.6495    
  5.5904      5.5544      5.5421      5.5544      5.5904      5.6495      5.7311      5.8374      5.9701      6.1336    
  6.3327      6.5688      6.8352      7.1196      7.4083      7.6702      7.8921      8.0787      8.2292      8.3300    
  10.574      10.464      10.155      9.7087      9.2103      8.7348      8.3078      7.8944      7.4649      7.0536    
  6.6887      6.3806      6.1336      5.9415      5.7956      5.6877      5.6134      5.5695      5.5551      5.5695    
  5.6134      5.6877      5.7956      5.9415      6.1336      6.3806      6.6887      7.0536      7.4649      7.8944    
  8.3078      8.7348      9.2103      9.7087      10.155      10.464      15.289      15.031      14.296      13.204    
  11.931      10.686      9.6380      8.8508      8.2347      7.6605      7.1332      6.6887      6.3327      6.0625    
  5.8647      5.7261      5.6342      5.5821      5.5650      5.5821      5.6342      5.7261      5.8647      6.0625    
  6.3327      6.6887      7.1332      7.6605      8.2347      8.8508      9.6380      10.686      11.931      13.204    
  14.296      15.031      23.784      23.293      21.883      19.741      17.167      14.530      12.188      10.388    
  9.1782      8.3580      7.6605      7.0536      6.5688      6.2025      5.9409      5.7628      5.6501      5.5879    
  5.5683      5.5879      5.6501      5.7628      5.9409      6.2025      6.5688      7.0536      7.6605      8.3580    
  9.1782      10.388      12.188      14.530      17.167      19.741      21.883      23.293      37.018      36.197    
  33.825      30.184      25.724      21.023      16.673      13.154      10.684      9.1782      8.2347      7.4649    
  6.8352      6.3600      6.0241      5.8002      5.6622      5.5880      5.5650      5.5880      5.6622      5.8002    
  6.0241      6.3600      6.8352      7.4649      8.2347      9.1782      10.684      13.154      16.673      21.023    
  25.724      30.184      33.825      36.197      55.341      54.082      50.444      44.831      37.900      30.474    
  23.431      17.509      13.154      10.388      8.8508      7.8944      7.1196      6.5307      6.1114      5.8379    
  5.6699      5.5834      5.5551      5.5834      5.6699      5.8379      6.1114      6.5307      7.1196      7.8944    
  8.8508      10.388      13.154      17.509      23.431      30.474      37.900      44.831      50.444      54.082    
  78.331      76.526      71.311      63.271      53.321      42.598      32.292      23.431      16.673      12.188    
  9.6380      8.3078      7.4083      6.7013      6.2031      5.8726      5.6764      5.5724      5.5421      5.5724    
  5.6764      5.8726      6.2031      6.7013      7.4083      8.3078      9.6380      12.188      16.673      23.431    
  32.292      42.598      53.321      63.271      71.311      76.526      104.68      102.24      95.179      84.336    
  70.951      56.529      42.598      30.474      21.023      14.530      10.686      8.7348      7.6702      6.8667    
  6.2895      5.9063      5.6793      5.5596      5.5250      5.5596      5.6793      5.9063      6.2895      6.8667    
  7.6702      8.7348      10.686      14.530      21.023      30.474      42.598      56.529      70.951      84.336    
  95.179      102.24      132.27      129.12      120.07      106.22      89.214      70.951      53.321      37.900    
  25.724      17.167      11.931      9.2103      7.8921      7.0156      6.3655      5.9379      5.6790      5.5469    
  5.5055      5.5469      5.6790      5.9379      6.3655      7.0156      7.8921      9.2103      11.931      17.167    
  25.724      37.900      53.321      70.951      89.214      106.22      120.07      129.12      158.32      154.48    
  143.48      126.71      106.22      84.336      63.271      44.831      30.184      19.741      13.204      9.7087    
  8.0787      7.1350      6.4288      5.9635      5.6778      5.5347      5.4877      5.5347      5.6778      5.9635    
  6.4288      7.1350      8.0787      9.7087      13.204      19.741      30.184      44.831      63.271      84.336    
  106.22      126.71      143.48      154.48      179.82      175.40      162.72      143.48      120.07      95.179    
  71.311      50.444      33.825      21.883      14.296      10.155      8.2292      7.2193      6.4769      5.9818    
  5.6770      5.5239      5.4738      5.5239      5.6770      5.9818      6.4769      7.2193      8.2292      10.155    
  14.296      21.883      33.825      50.444      71.311      95.179      120.07      143.48      162.72      175.40    
  194.03      189.20      175.40      154.48      129.12      102.24      76.526      54.082      36.197      23.293    
  15.031      10.464      8.3300      7.2688      6.5067      5.9925      5.6766      5.5167      5.4650      5.5167    
  5.6766      5.9925      6.5067      7.2688      8.3300      10.464      15.031      23.293      36.197      54.082    
  76.526      102.24      129.12      154.48      175.40      189.20      194.03      189.20      175.40      154.48    
  129.12      102.24      76.526      54.082      36.197      23.293      15.031      10.464      8.3300      7.2688    
  6.5067      5.9925      5.6766      5.5167      5.4650      5.5167      5.6766      5.9925      6.5067      7.2688    
  8.3300      10.464      15.031      23.293      36.197      54.082      76.526      102.24      129.12      154.48    
  175.40      189.20      189.20      184.51      171.09      150.75      126.05      99.847      74.762      52.850    
  35.394      22.814      14.780      10.358      8.2961      7.2530      6.4972      5.9895      5.6772      5.5196    
  5.4684      5.5196      5.6772      5.9895      6.4972      7.2530      8.2961      10.358      14.780      22.814    
  35.394      52.850      74.762      99.847      126.05      150.75      171.09      184.51      175.40      171.09    
  158.77      140.03      117.23      92.958      69.663      49.292      33.076      21.440      14.069      10.062    
  8.2003      7.2049      6.4691      5.9800      5.6790      5.5280      5.4784      5.5280      5.6790      5.9800    
  6.4691      7.2049      8.2003      10.062      14.069      21.440      33.076      49.292      69.663      92.958    
  117.23      140.03      158.77      171.09      154.48      150.75      140.03      123.70      103.72      82.369    
  61.805      43.806      29.522      19.355      13.012      9.6354      8.0562      7.1227      6.4240      5.9639    
  5.6818      5.5402      5.4940      5.5402      5.6818      5.9639      6.4240      7.1227      8.0562      9.6354    
  13.012      19.355      29.522      43.806      61.805      82.369      103.72      123.70      140.03      150.75    
  129.12      126.05      117.23      103.72      87.124      69.295      52.083      37.037      25.173      16.856    
  11.785      9.1595      7.8758      7.0065      6.3639      5.9408      5.6853      5.5544      5.5139      5.5544    
  5.6853      5.9408      6.3639      7.0065      7.8758      9.1595      11.785      16.856      25.173      37.037    
  52.083      69.295      87.124      103.72      117.23      126.05      102.24      99.847      92.958      82.369    
  69.295      55.210      41.614      29.795      20.598      14.302      10.587      8.7045      7.6582      6.8618    
  6.2914      5.9124      5.6880      5.5694      5.5352      5.5694      5.6880      5.9124      6.2914      6.8618    
  7.6582      8.7045      10.587      14.302      20.598      29.795      41.614      55.210      69.295      82.369    
  92.958      99.847      76.526      74.762      69.663      61.805      52.083      41.614      31.564      22.937    
  16.378      12.041      9.5827      8.2908      7.4002      6.7010      6.2082      5.8817      5.6874      5.5846    
  5.5544      5.5846      5.6874      5.8817      6.2082      6.7010      7.4002      8.2908      9.5827      12.041    
  16.378      22.937      31.564      41.614      52.083      61.805      69.663      74.762      54.082      52.850    
  49.292      43.806      37.037      29.795      22.937      17.188      12.975      10.309      8.8253      7.8840    
  7.1167      6.5347      6.1203      5.8499      5.6834      5.5976      5.5695      5.5976      5.6834      5.8499    
  6.1203      6.5347      7.1167      7.8840      8.8253      10.309      12.975      17.188      22.937      29.795    
  37.037      43.806      49.292      52.850      36.197      35.394      33.076      29.522      25.173      20.598    
  16.378      12.975      10.595      9.1455      8.2221      7.4599      6.8379      6.3684      6.0364      5.8149    
  5.6784      5.6048      5.5821      5.6048      5.6784      5.8149      6.0364      6.3684      6.8379      7.4599    
  8.2221      9.1455      10.595      12.975      16.378      20.598      25.173      29.522      33.076      35.394    
  23.293      22.814      21.440      19.355      16.856      14.302      12.041      10.309      9.1455      8.3444    
  7.6542      7.0552      6.5766      6.2151      5.9571      5.7811      5.6693      5.6075      5.5879      5.6075    
  5.6693      5.7811      5.9571      6.2151      6.5766      7.0552      7.6542      8.3444      9.1455      10.309    
  12.041      14.302      16.856      19.355      21.440      22.814      15.031      14.780      14.069      13.012    
  11.785      10.587      9.5827      8.8253      8.2221      7.6542      7.1344      6.6961      6.3456      6.0796    
  5.8841      5.7469      5.6561      5.6048      5.5880      5.6048      5.6561      5.7469      5.8841      6.0796    
  6.3456      6.6961      7.1344      7.6542      8.2221      8.8253      9.5827      10.587      11.785      13.012    
  14.069      14.780      10.464      10.358      10.062      9.6354      9.1595      8.7045      8.2908      7.8840    
  7.4599      7.0552      6.6961      6.3935      6.1511      5.9615      5.8185      5.7133      5.6408      5.5976    
  5.5834      5.5976      5.6408      5.7133      5.8185      5.9615      6.1511      6.3935      6.6961      7.0552    
  7.4599      7.8840      8.2908      8.7045      9.1595      9.6354      10.062      10.358      8.3300      8.2961    
  8.2003      8.0562      7.8758      7.6582      7.4002      7.1167      6.8379      6.5766      6.3456      6.1511    
  5.9904      5.8619      5.7594      5.6792      5.6205      5.5846      5.5724      5.5846      5.6205      5.6792    
  5.7594      5.8619      5.9904      6.1511      6.3456      6.5766      6.8379      7.1167      7.4002      7.6582    
  7.8758      8.0562      8.2003      8.2961      7.2688      7.2530      7.2049      7.1227      7.0065      6.8618    
  6.7010      6.5347      6.3684      6.2151      6.0796      5.9615      5.8619      5.7769      5.7038      5.6434    
  5.5979      5.5694      5.5596      5.5694      5.5979      5.6434      5.7038      5.7769      5.8619      5.9615    
  6.0796      6.2151      6.3684      6.5347      6.7010      6.8618      7.0065      7.1227      7.2049      7.2530    
  6.5067      6.4972      6.4691      6.4240      6.3639      6.2914      6.2082      6.1203      6.0364      5.9571    
  5.8841      5.8185      5.7594      5.7038      5.6532      5.6099      5.5762      5.5544      5.5469      5.5544    
  5.5762      5.6099      5.6532      5.7038      5.7594      5.8185      5.8841      5.9571      6.0364      6.1203    
  6.2082      6.2914      6.3639      6.4240      6.4691      6.4972      5.9925      5.9895      5.9800      5.9639    
  5.9408      5.9124      5.8817      5.8499      5.8149      5.7811      5.7469      5.7133      5.6792      5.6434    
  5.6099      5.5801      5.5562      5.5402      5.5347      5.5402      5.5562      5.5801      5.6099      5.6434    
  5.6792      5.7133      5.7469      5.7811      5.8149      5.8499      5.8817      5.9124      5.9408      5.9639    
  5.9800      5.9895      5.6766      5.6772      5.6790      5.6818      5.6853      5.6880      5.6874      5.6834    
  5.6784      5.6693      5.6561      5.6408      5.6205      5.5979      5.5762      5.5562      5.5393      5.5280    
  5.5239      5.5280      5.5393      5.5562      5.5762      5.5979      5.6205      5.6408      5.6561      5.6693    
  5.6784      5.6834      5.6874      5.6880      5.6853      5.6818      5.6790      5.6772      5.5167      5.5196    
  5.5280      5.5402      5.5544      5.5694      5.5846      5.5976      5.6048      5.6075      5.6048      5.5976    
  5.5846      5.5694      5.5544      5.5402      5.5280      5.5196      5.5167      5.5196      5.5280      5.5402    
  5.5544      5.5694      5.5846      5.5976      5.6048      5.6075      5.6048      5.5976      5.5846      5.5694    
  5.5544      5.5402      5.5280      5.5196      5.4650      5.4684      5.4784      5.4940      5.5139      5.5352    
  5.5544      5.5695      5.5821      5.5879      5.5880      5.5834      5.5724      5.5596      5.5469      5.5347    
  5.5239      5.5167      5.5141      5.5167      5.5239      5.5347      5.5469      5.5596      5.5724      5.5834    
  5.5880      5.5879      5.5821      5.5695      5.5544      5.5352      5.5139      5.4940      5.4784      5.4684    
  5.5167      5.5196      5.5280      5.5402      5.5544      5.5694      5.5846      5.5976      5.6048      5.6075    
  5.6048      5.5976      5.5846      5.5694      5.5544      5.5402      5.5280      5.5196      5.5167      5.5196    
  5.5280      5.5402      5.5544      5.5694      5.5846      5.5976      5.6048      5.6075      5.6048      5.5976    
  5.5846      5.5694      5.5544      5.5402      5.5280      5.5196      5.6766      5.6772      5.6790      5.6818    
  5.6853      5.6880      5.6874      5.6834      5.6784      5.6693      5.6561      5.6408      5.6205      5.5979    
  5.5762      5.5562      5.5393      5.5280      5.5239      5.5280      5.5393      5.5562      5.5762      5.5979    
  5.6205      5.6408      5.6561      5.6693      5.6784      5.6834      5.6874      5.6880      5.6853      5.6818    
  5.6790      5.6772      5.9925      5.9895      5.9800      5.9639      5.9408      5.9124      5.8817      5.8499    
  5.8149      5.7811      5.7469      5.7133      5.6792      5.6434      5.6099      5.5801      5.5562      5.5402    
  5.5347      5.5402      5.5562      5.5801      5.6099      5.6434      5.6792      5.7133      5.7469      5.7811    
  5.8149      5.8499      5.8817      5.9124      5.9408      5.9639      5.9800      5.9895      6.5067      6.4972    
  6.4691      6.4240      6.3639      6.2914      6.2082      6.1203      6.0364      5.9571      5.8841      5.8185    
  5.7594      5.7038      5.6532      5.6099      5.5762      5.5544      5.5469      5.5544      5.5762      5.6099    
  5.6532      5.7038      5.7594      5.8185      5.8841      5.9571      6.0364      6.1203      6.2082      6.2914    
  6.3639      6.4240      6.4691      6.4972      7.2688      7.2530      7.2049      7.1227      7.0065      6.8618    
  6.7010      6.5347      6.3684      6.2151      6.0796      5.9615      5.8619      5.7769      5.7038      5.6434    
  5.5979      5.5694      5.5596      5.5694      5.5979      5.6434      5.7038      5.7769      5.8619      5.9615    
  6.0796      6.2151      6.3684      6.5347      6.7010      6.8618      7.0065      7.1227      7.2049      7.2530    
  8.3300      8.2961      8.2003      8.0562      7.8758      7.6582      7.4002      7.1167      6.8379      6.5766    
  6.3456      6.1511      5.9904      5.8619      5.7594      5.6792      5.6205      5.5846      5.5724      5.5846    
  5.6205      5.6792      5.7594      5.8619      5.9904      6.1511      6.3456      6.5766      6.8379      7.1167    
  7.4002      7.6582      7.8758      8.0562      8.2003      8.2961      10.464      10.358      10.062      9.6354    
  9.1595      8.7045      8.2908      7.8840      7.4599      7.0552      6.6961      6.3935      6.1511      5.9615    
  5.8185      5.7133      5.6408      5.5976      5.5834      5.5976      5.6408      5.7133      5.8185      5.9615    
  6.1511      6.3935      6.6961      7.0552      7.4599      7.8840      8.2908      8.7045      9.1595      9.6354    
  10.062      10.358      15.031      14.780      14.069      13.012      11.785      10.587      9.5827      8.8253    
  8.2221      7.6542      7.1344      6.6961      6.3456      6.0796      5.8841      5.7469      5.6561      5.6048    
  5.5880      5.6048      5.6561      5.7469      5.8841      6.0796      6.3456      6.6961      7.1344      7.6542    
  8.2221      8.8253      9.5827      10.587      11.785      13.012      14.069      14.780      23.293      22.814    
  21.440      19.355      16.856      14.302      12.041      10.309      9.1455      8.3444      7.6542      7.0552    
  6.5766      6.2151      5.9571      5.7811      5.6693      5.6075      5.5879      5.6075      5.6693      5.7811    
  5.9571      6.2151      6.5766      7.0552      7.6542      8.3444      9.1455      10.309      12.041      14.302    
  16.856      19.355      21.440      22.814      36.197      35.394      33.076      29.522      25.173      20.598    
  16.378      12.975      10.595      9.1455      8.2221      7.4599      6.8379      6.3684      6.0364      5.8149    
  5.6784      5.6048      5.5821      5.6048      5.6784      5.8149      6.0364      6.3684      6.8379      7.4599    
  8.2221      9.1455      10.595      12.975      16.378      20.598      25.173      29.522      33.076      35.394    
  54.082      52.850      49.292      43.806      37.037      29.795      22.937      17.188      12.975      10.309    
  8.8253      7.8840      7.1167      6.5347      6.1203      5.8499      5.6834      5.5976      5.5695      5.5976    
  5.6834      5.8499      6.1203      6.5347      7.1167      7.8840      8.8253      10.309      12.975      17.188    
  22.937      29.795      37.037      43.806      49.292      52.850      76.526      74.762      69.663      61.805    
  52.083      41.614      31.564      22.937      16.378      12.041      9.5827      8.2908      7.4002      6.7010    
  6.2082      5.8817      5.6874      5.5846      5.5544      5.5846      5.6874      5.8817      6.2082      6.7010    
  7.4002      8.2908      9.5827      12.041      16.378      22.937      31.564      41.614      52.083      61.805    
  69.663      74.762      102.24      99.847      92.958      82.369      69.295      55.210      41.614      29.795    
  20.598      14.302      10.587      8.7045      7.6582      6.8618      6.2914      5.9124      5.6880      5.5694    
  5.5352      5.5694      5.6880      5.9124      6.2914      6.8618      7.6582      8.7045      10.587      14.302    
  20.598      29.795      41.614      55.210      69.295      82.369      92.958      99.847      129.12      126.05    