unknown system                          
   1.00000000000000     
     2.828006   -0.000000    0.000000
     0.000000    2.828006    0.000000
    -0.000000   -0.000000    2.828006
   Fe
     2
Direct
 -0.000000 -0.000000  0.000000
  0.500000  0.500000  0.500000
 
   36   36   36
 0.19153282596E+03 0.18686543932E+03 0.17350928244E+03 0.15324888396E+03 0.12862656609E+03
 0.10243699612E+03 0.77265211607E+02 0.55129724030E+02 0.37297133673E+02 0.24232814933E+02
 0.15680880589E+02 0.10811115495E+02 0.84700494018E+01 0.73685557625E+01 0.66184493662E+01
 0.60975546159E+01 0.57778527335E+01 0.56119649883E+01 0.55604620971E+01 0.56119649883E+01
 0.57778527335E+01 0.60975546159E+01 0.66184493662E+01 0.73685557625E+01 0.84700494018E+01
 0.10811115495E+02 0.15680880589E+02 0.24232814933E+02 0.37297133673E+02 0.55129724030E+02
 0.77265211607E+02 0.10243699612E+03 0.12862656609E+03 0.15324888396E+03 0.17350928244E+03
 0.18686543932E+03 0.18686543932E+03 0.18232804616E+03 0.16933935741E+03 0.14962166626E+03
 0.12563616207E+03 0.10009663777E+03 0.75525798239E+02 0.53904188076E+02 0.36488217205E+02
 0.23741255316E+02 0.15416208128E+02 0.10693767815E+02 0.84311112371E+01 0.73532370733E+01
 0.66087821391E+01 0.60944571012E+01 0.57782641952E+01 0.56150135264E+01 0.55637902520E+01
 0.56150135264E+01 0.57782641952E+01 0.60944571012E+01 0.66087821391E+01 0.73532370733E+01
 0.84311112371E+01 0.10693767815E+02 0.15416208128E+02 0.23741255316E+02 0.36488217205E+02
 0.53904188076E+02 0.75525798239E+02 0.10009663777E+03 0.12563616207E+03 0.14962166626E+03
 0.16933935741E+03 0.18232804616E+03 0.17350928244E+03 0.16933935741E+03 0.15738923822E+03
 0.13920879691E+03 0.11703062669E+03 0.93343407559E+02 0.70495986216E+02 0.50362091867E+02
 0.34151363216E+02 0.22327430551E+02 0.14662485109E+02 0.10363826167E+02 0.83225793472E+01
 0.73068357901E+01 0.65802764961E+01 0.60848721730E+01 0.57794056476E+01 0.56233708109E+01
 0.55733965010E+01 0.56233708109E+01 0.57794056476E+01 0.60848721730E+01 0.65802764961E+01
 0.73068357901E+01 0.83225793472E+01 0.10363826167E+02 0.14662485109E+02 0.22327430551E+02
 0.34151363216E+02 0.50362091867E+02 0.70495986216E+02 0.93343407559E+02 0.11703062669E+03
 0.13920879691E+03 0.15738923822E+03 0.16933935741E+03 0.15324888396E+03 0.14962166626E+03
 0.13920879691E+03 0.12331399439E+03 0.10384190313E+03 0.82953241957E+02 0.62734636469E+02
 0.44890898116E+02 0.30556582069E+02 0.20174531104E+02 0.13534952282E+02 0.98853224969E+01
 0.81634698564E+01 0.72285473521E+01 0.65335493182E+01 0.60686461134E+01 0.57810184802E+01
 0.56360408580E+01 0.55884206447E+01 0.56360408580E+01 0.57810184802E+01 0.60686461134E+01
 0.65335493182E+01 0.72285473521E+01 0.81634698564E+01 0.98853224969E+01 0.13534952282E+02
 0.20174531104E+02 0.30556582069E+02 0.44890898116E+02 0.62734636469E+02 0.82953241957E+02
 0.10384190313E+03 0.12331399439E+03 0.13920879691E+03 0.14962166626E+03 0.12862656609E+03
 0.12563616207E+03 0.11703062669E+03 0.10384190313E+03 0.87602543774E+02 0.70099574801E+02
 0.53106264375E+02 0.38115920153E+02 0.26137782954E+02 0.17573349453E+02 0.12212345726E+02
 0.93472704902E+01 0.79732734391E+01 0.71162412897E+01 0.64717003104E+01 0.60449842142E+01
 0.57830654442E+01 0.56503782697E+01 0.56076105443E+01 0.56503782697E+01 0.57830654442E+01
 0.60449842142E+01 0.64717003104E+01 0.71162412897E+01 0.79732734391E+01 0.93472704902E+01
 0.12212345726E+02 0.17573349453E+02 0.26137782954E+02 0.38115920153E+02 0.53106264375E+02
 0.70099574801E+02 0.87602543774E+02 0.10384190313E+03 0.11703062669E+03 0.12563616207E+03
 0.10243699612E+03 0.10009663777E+03 0.93343407559E+02 0.82953241957E+02 0.70099574801E+02
 0.56197935684E+02 0.42688591194E+02 0.30822462936E+02 0.21448060764E+02 0.14885148399E+02
 0.10901261579E+02 0.88355975714E+01 0.77572197321E+01 0.69730053739E+01 0.63974891667E+01
 0.60147643179E+01 0.57847024778E+01 0.56647964582E+01 0.56288025443E+01 0.56647964582E+01
 0.57847024778E+01 0.60147643179E+01 0.63974891667E+01 0.69730053739E+01 0.77572197321E+01
 0.88355975714E+01 0.10901261579E+02 0.14885148399E+02 0.21448060764E+02 0.30822462936E+02
 0.42688591194E+02 0.56197935684E+02 0.70099574801E+02 0.82953241957E+02 0.93343407559E+02
 0.10009663777E+03 0.77265211607E+02 0.75525798239E+02 0.70495986216E+02 0.62734636469E+02
 0.53106264375E+02 0.42688591194E+02 0.32606034478E+02 0.23848135874E+02 0.17064194316E+02
 0.12465529226E+02 0.97835692826E+01 0.83903507703E+01 0.75075707469E+01 0.68099217167E+01
 0.63133536719E+01 0.59808083706E+01 0.57835278583E+01 0.56781902558E+01 0.56480981026E+01
 0.56781902558E+01 0.57835278583E+01 0.59808083706E+01 0.63133536719E+01 0.68099217167E+01
 0.75075707469E+01 0.83903507703E+01 0.97835692826E+01 0.12465529226E+02 0.17064194316E+02
 0.23848135874E+02 0.32606034478E+02 0.42688591194E+02 0.53106264375E+02 0.62734636469E+02
 0.70495986216E+02 0.75525798239E+02 0.55129724030E+02 0.53904188076E+02 0.50362091867E+02
 0.44890898116E+02 0.38115920153E+02 0.30822462936E+02 0.23848135874E+02 0.17909048069E+02
 0.13461973531E+02 0.10572539840E+02 0.89441921913E+01 0.79843094845E+01 0.72273716317E+01
 0.66411518000E+01 0.62220737221E+01 0.59462702240E+01 0.57776763065E+01 0.56902596779E+01
 0.56623870320E+01 0.56902596779E+01 0.57776763065E+01 0.59462702240E+01 0.62220737221E+01
 0.66411518000E+01 0.72273716317E+01 0.79843094845E+01 0.89441921913E+01 0.10572539840E+02
 0.13461973531E+02 0.17909048069E+02 0.23848135874E+02 0.30822462936E+02 0.38115920153E+02
 0.44890898116E+02 0.50362091867E+02 0.53904188076E+02 0.37297133673E+02 0.36488217205E+02
 0.34151363216E+02 0.30556582069E+02 0.26137782954E+02 0.21448060764E+02 0.17064194316E+02
 0.13461973531E+02 0.10883561947E+02 0.92833645522E+01 0.83195998876E+01 0.75696488092E+01
 0.69456500777E+01 0.64719419453E+01 0.61335397847E+01 0.59087263925E+01 0.57695301429E+01
 0.56957769420E+01 0.56723877760E+01 0.56957769420E+01 0.57695301429E+01 0.59087263925E+01
 0.61335397847E+01 0.64719419453E+01 0.69456500777E+01 0.75696488092E+01 0.83195998876E+01
 0.92833645522E+01 0.10883561947E+02 0.13461973531E+02 0.17064194316E+02 0.21448060764E+02
 0.26137782954E+02 0.30556582069E+02 0.34151363216E+02 0.36488217205E+02 0.24232814933E+02
 0.23741255316E+02 0.22327430551E+02 0.20174531104E+02 0.17573349453E+02 0.14885148399E+02
 0.12465529226E+02 0.10572539840E+02 0.92833645522E+01 0.84417706532E+01 0.77626043682E+01
 0.71639393281E+01 0.66811360100E+01 0.63128525615E+01 0.60496742436E+01 0.58703306126E+01
 0.57578210782E+01 0.56956953235E+01 0.56764866889E+01 0.56956953235E+01 0.57578210782E+01
 0.58703306126E+01 0.60496742436E+01 0.63128525615E+01 0.66811360100E+01 0.71639393281E+01
 0.77626043682E+01 0.84417706532E+01 0.92833645522E+01 0.10572539840E+02 0.12465529226E+02
 0.14885148399E+02 0.17573349453E+02 0.20174531104E+02 0.22327430551E+02 0.23741255316E+02
 0.15680880589E+02 0.15416208128E+02 0.14662485109E+02 0.13534952282E+02 0.12212345726E+02
 0.10901261579E+02 0.97835692826E+01 0.89441921913E+01 0.83195998876E+01 0.77626043682E+01
 0.72434884429E+01 0.68011282931E+01 0.64436959787E+01 0.61715184529E+01 0.59720730969E+01
 0.58328218382E+01 0.57409723696E+01 0.56893789164E+01 0.56723877760E+01 0.56893789164E+01
 0.57409723696E+01 0.58328218382E+01 0.59720730969E+01 0.61715184529E+01 0.64436959787E+01
 0.68011282931E+01 0.72434884429E+01 0.77626043682E+01 0.83195998876E+01 0.89441921913E+01
 0.97835692826E+01 0.10901261579E+02 0.12212345726E+02 0.13534952282E+02 0.14662485109E+02
 0.15416208128E+02 0.10811115495E+02 0.10693767815E+02 0.10363826167E+02 0.98853224969E+01
 0.93472704902E+01 0.88355975714E+01 0.83903507703E+01 0.79843094845E+01 0.75696488092E+01
 0.71639393281E+01 0.68011282931E+01 0.64918036282E+01 0.62428347537E+01 0.60485487569E+01
 0.59013132129E+01 0.57932978489E+01 0.57197249143E+01 0.56764809770E+01 0.56623870320E+01
 0.56764809770E+01 0.57197249143E+01 0.57932978489E+01 0.59013132129E+01 0.60485487569E+01
 0.62428347537E+01 0.64918036282E+01 0.68011282931E+01 0.71639393281E+01 0.75696488092E+01
 0.79843094845E+01 0.83903507703E+01 0.88355975714E+01 0.93472704902E+01 0.98853224969E+01
 0.10363826167E+02 0.10693767815E+02 0.84700494018E+01 0.84311112371E+01 0.83225793472E+01
 0.81634698564E+01 0.79732734391E+01 0.77572197321E+01 0.75075707469E+01 0.72273716317E+01
 0.69456500777E+01 0.66811360100E+01 0.64436959787E+01 0.62428347537E+01 0.60770578462E+01
 0.59426791630E+01 0.58361433188E+01 0.57547701784E+01 0.56960412030E+01 0.56602860828E+01
 0.56480981026E+01 0.56602860828E+01 0.56960412030E+01 0.57547701784E+01 0.58361433188E+01
 0.59426791630E+01 0.60770578462E+01 0.62428347537E+01 0.64436959787E+01 0.66811360100E+01
 0.69456500777E+01 0.72273716317E+01 0.75075707469E+01 0.77572197321E+01 0.79732734391E+01
 0.81634698564E+01 0.83225793472E+01 0.84311112371E+01 0.73685557625E+01 0.73532370733E+01
 0.73068357901E+01 0.72285473521E+01 0.71162412897E+01 0.69730053739E+01 0.68099217167E+01
 0.66411518000E+01 0.64719419453E+01 0.63128525615E+01 0.61715184529E+01 0.60485487569E+01
 0.59426791630E+01 0.58528154376E+01 0.57779660734E+01 0.57161071085E+01 0.56689823191E+01
 0.56389867394E+01 0.56288025443E+01 0.56389867394E+01 0.56689823191E+01 0.57161071085E+01
 0.57779660734E+01 0.58528154376E+01 0.59426791630E+01 0.60485487569E+01 0.61715184529E+01
 0.63128525615E+01 0.64719419453E+01 0.66411518000E+01 0.68099217167E+01 0.69730053739E+01
 0.71162412897E+01 0.72285473521E+01 0.73068357901E+01 0.73532370733E+01 0.66184493662E+01
 0.66087821391E+01 0.65802764961E+01 0.65335493182E+01 0.64717003104E+01 0.63974891667E+01
 0.63133536719E+01 0.62220737221E+01 0.61335397847E+01 0.60496742436E+01 0.59720730969E+01
 0.59013132129E+01 0.58361433188E+01 0.57779660734E+01 0.57244213928E+01 0.56774368471E+01
 0.56399880846E+01 0.56160372244E+01 0.56076105443E+01 0.56160372244E+01 0.56399880846E+01
 0.56774368471E+01 0.57244213928E+01 0.57779660734E+01 0.58361433188E+01 0.59013132129E+01
 0.59720730969E+01 0.60496742436E+01 0.61335397847E+01 0.62220737221E+01 0.63133536719E+01
 0.63974891667E+01 0.64717003104E+01 0.65335493182E+01 0.65802764961E+01 0.66087821391E+01
 0.60975546159E+01 0.60944571012E+01 0.60848721730E+01 0.60686461134E+01 0.60449842142E+01
 0.60147643179E+01 0.59808083706E+01 0.59462702240E+01 0.59087263925E+01 0.58703306126E+01
 0.58328218382E+01 0.57932978489E+01 0.57547701784E+01 0.57161071085E+01 0.56774368471E+01
 0.56418098229E+01 0.56133044236E+01 0.55947704942E+01 0.55884206447E+01 0.55947704942E+01
 0.56133044236E+01 0.56418098229E+01 0.56774368471E+01 0.57161071085E+01 0.57547701784E+01
 0.57932978489E+01 0.58328218382E+01 0.58703306126E+01 0.59087263925E+01 0.59462702240E+01
 0.59808083706E+01 0.60147643179E+01 0.60449842142E+01 0.60686461134E+01 0.60848721730E+01
 0.60944571012E+01 0.57778527335E+01 0.57782641952E+01 0.57794056476E+01 0.57810184802E+01
 0.57830654442E+01 0.57847024778E+01 0.57835278583E+01 0.57776763065E+01 0.57695301429E+01
 0.57578210782E+01 0.57409723696E+01 0.57197249143E+01 0.56960412030E+01 0.56689823191E+01
 0.56399880846E+01 0.56133044236E+01 0.55919169146E+01 0.55781939212E+01 0.55733965010E+01
 0.55781939212E+01 0.55919169146E+01 0.56133044236E+01 0.56399880846E+01 0.56689823191E+01
 0.56960412030E+01 0.57197249143E+01 0.57409723696E+01 0.57578210782E+01 0.57695301429E+01
 0.57776763065E+01 0.57835278583E+01 0.57847024778E+01 0.57830654442E+01 0.57810184802E+01
 0.57794056476E+01 0.57782641952E+01 0.56119649883E+01 0.56150135264E+01 0.56233708109E+01
 0.56360408580E+01 0.56503782697E+01 0.56647964582E+01 0.56781902558E+01 0.56902596779E+01
 0.56957769420E+01 0.56956953235E+01 0.56893789164E+01 0.56764809770E+01 0.56602860828E+01
 0.56389867394E+01 0.56160372244E+01 0.55947704942E+01 0.55781939212E+01 0.55674043852E+01
 0.55637902520E+01 0.55674043852E+01 0.55781939212E+01 0.55947704942E+01 0.56160372244E+01
 0.56389867394E+01 0.56602860828E+01 0.56764809770E+01 0.56893789164E+01 0.56956953235E+01
 0.56957769420E+01 0.56902596779E+01 0.56781902558E+01 0.56647964582E+01 0.56503782697E+01
 0.56360408580E+01 0.56233708109E+01 0.56150135264E+01 0.55604620971E+01 0.55637902520E+01
 0.55733965010E+01 0.55884206447E+01 0.56076105443E+01 0.56288025443E+01 0.56480981026E+01
 0.56623870320E+01 0.56723877760E+01 0.56764866889E+01 0.56723877760E+01 0.56623870320E+01
 0.56480981026E+01 0.56288025443E+01 0.56076105443E+01 0.55884206447E+01 0.55733965010E+01
 0.55637902520E+01 0.55604620971E+01 0.55637902520E+01 0.55733965010E+01 0.55884206447E+01
 0.56076105443E+01 0.56288025443E+01 0.56480981026E+01 0.56623870320E+01 0.56723877760E+01
 0.56764866889E+01 0.56723877760E+01 0.56623870320E+01 0.56480981026E+01 0.56288025443E+01
 0.56076105443E+01 0.55884206447E+01 0.55733965010E+01 0.55637902520E+01 0.56119649883E+01
 0.56150135264E+01 0.56233708109E+01 0.56360408580E+01 0.56503782697E+01 0.56647964582E+01
 0.56781902558E+01 0.56902596779E+01 0.56957769420E+01 0.56956953235E+01 0.56893789164E+01
 0.56764809770E+01 0.56602860828E+01 0.56389867394E+01 0.56160372244E+01 0.55947704942E+01
 0.55781939212E+01 0.55674043852E+01 0.55637902520E+01 0.55674043852E+01 0.55781939212E+01
 0.55947704942E+01 0.56160372244E+01 0.56389867394E+01 0.56602860828E+01 0.56764809770E+01
 0.56893789164E+01 0.56956953235E+01 0.56957769420E+01 0.56902596779E+01 0.56781902558E+01
 0.56647964582E+01 0.56503782697E+01 0.56360408580E+01 0.56233708109E+01 0.56150135264E+01
 0.57778527335E+01 0.57782641952E+01 0.57794056476E+01 0.57810184802E+01 0.57830654442E+01
 0.57847024778E+01 0.57835278583E+01 0.57776763065E+01 0.57695301429E+01 0.57578210782E+01
 0.57409723696E+01 0.57197249143E+01 0.56960412030E+01 0.56689823191E+01 0.56399880846E+01
 0.56133044236E+01 0.55919169146E+01 0.55781939212E+01 0.55733965010E+01 0.55781939212E+01
 0.55919169146E+01 0.56133044236E+01 0.56399880846E+01 0.56689823191E+01 0.56960412030E+01
 0.57197249143E+01 0.57409723696E+01 0.57578210782E+01 0.57695301429E+01 0.57776763065E+01
 0.57835278583E+01 0.57847024778E+01 0.57830654442E+01 0.57810184802E+01 0.57794056476E+01
 0.57782641952E+01 0.60975546159E+01 0.60944571012E+01 0.60848721730E+01 0.60686461134E+01
 0.60449842142E+01 0.60147643179E+01 0.59808083706E+01 0.59462702240E+01 0.59087263925E+01
 0.58703306126E+01 0.58328218382E+01 0.57932978489E+01 0.57547701784E+01 0.57161071085E+01
 0.56774368471E+01 0.56418098229E+01 0.56133044236E+01 0.55947704942E+01 0.55884206447E+01
 0.55947704942E+01 0.56133044236E+01 0.56418098229E+01 0.56774368471E+01 0.57161071085E+01
 0.57547701784E+01 0.57932978489E+01 0.58328218382E+01 0.58703306126E+01 0.59087263925E+01
 0.59462702240E+01 0.59808083706E+01 0.60147643179E+01 0.60449842142E+01 0.60686461134E+01
 0.60848721730E+01 0.60944571012E+01 0.66184493662E+01 0.66087821391E+01 0.65802764961E+01
 0.65335493182E+01 0.64717003104E+01 0.63974891667E+01 0.63133536719E+01 0.62220737221E+01
 0.61335397847E+01 0.60496742436E+01 0.59720730969E+01 0.59013132129E+01 0.58361433188E+01
 0.57779660734E+01 0.57244213928E+01 0.56774368471E+01 0.56399880846E+01 0.56160372244E+01
 0.56076105443E+01 0.56160372244E+01 0.56399880846E+01 0.56774368471E+01 0.57244213928E+01
 0.57779660734E+01 0.58361433188E+01 0.59013132129E+01 0.59720730969E+01 0.60496742436E+01
 0.61335397847E+01 0.62220737221E+01 0.63133536719E+01 0.63974891667E+01 0.64717003104E+01
 0.65335493182E+01 0.65802764961E+01 0.66087821391E+01 0.73685557625E+01 0.73532370733E+01
 0.73068357901E+01 0.72285473521E+01 0.71162412897E+01 0.69730053739E+01 0.68099217167E+01
 0.66411518000E+01 0.64719419453E+01 0.63128525615E+01 0.61715184529E+01 0.60485487569E+01
 0.59426791630E+01 0.58528154376E+01 0.57779660734E+01 0.57161071085E+01 0.56689823191E+01
 0.56389867394E+01 0.56288025443E+01 0.56389867394E+01 0.56689823191E+01 0.57161071085E+01
 0.57779660734E+01 0.58528154376E+01 0.59426791630E+01 0.60485487569E+01 0.61715184529E+01
 0.63128525615E+01 0.64719419453E+01 0.66411518000E+01 0.68099217167E+01 0.69730053739E+01
 0.71162412897E+01 0.72285473521E+01 0.73068357901E+01 0.73532370733E+01 0.84700494018E+01
 0.84311112371E+01 0.83225793472E+01 0.81634698564E+01 0.79732734391E+01 0.77572197321E+01
 0.75075707469E+01 0.72273716317E+01 0.69456500777E+01 0.66811360100E+01 0.64436959787E+01
 0.62428347537E+01 0.60770578462E+01 0.59426791630E+01 0.58361433188E+01 0.57547701784E+01
 0.56960412030E+01 0.56602860828E+01 0.56480981026E+01 0.56602860828E+01 0.56960412030E+01
 0.57547701784E+01 0.58361433188E+01 0.59426791630E+01 0.60770578462E+01 0.62428347537E+01
 0.64436959787E+01 0.66811360100E+01 0.69456500777E+01 0.72273716317E+01 0.75075707469E+01
 0.77572197321E+01 0.79732734391E+01 0.81634698564E+01 0.83225793472E+01 0.84311112371E+01
 0.10811115495E+02 0.10693767815E+02 0.10363826167E+02 0.98853224969E+01 0.93472704902E+01
 0.88355975714E+01 0.83903507703E+01 0.79843094845E+01 0.75696488092E+01 0.71639393281E+01
 0.68011282931E+01 0.64918036282E+01 0.62428347537E+01 0.60485487569E+01 0.59013132129E+01
 0.57932978489E+01 0.57197249143E+01 0.56764809770E+01 0.56623870320E+01 0.56764809770E+01
 0.57197249143E+01 0.57932978489E+01 0.59013132129E+01 0.60485487569E+01 0.62428347537E+01
 0.64918036282E+01 0.68011282931E+01 0.71639393281E+01 0.75696488092E+01 0.79843094845E+01
 0.83903507703E+01 0.88355975714E+01 0.93472704902E+01 0.98853224969E+01 0.10363826167E+02
 0.10693767815E+02 0.15680880589E+02 0.15416208128E+02 0.14662485109E+02 0.13534952282E+02
 0.12212345726E+02 0.10901261579E+02 0.97835692826E+01 0.89441921913E+01 0.83195998876E+01
 0.77626043682E+01 0.72434884429E+01 0.68011282931E+01 0.64436959787E+01 0.61715184529E+01
 0.59720730969E+01 0.58328218382E+01 0.57409723696E+01 0.56893789164E+01 0.56723877760E+01
 0.56893789164E+01 0.57409723696E+01 0.58328218382E+01 0.59720730969E+01 0.61715184529E+01
 0.64436959787E+01 0.68011282931E+01 0.72434884429E+01 0.77626043682E+01 0.83195998876E+01
 0.89441921913E+01 0.97835692826E+01 0.10901261579E+02 0.12212345726E+02 0.13534952282E+02
 0.14662485109E+02 0.15416208128E+02 0.24232814933E+02 0.23741255316E+02 0.22327430551E+02
 0.20174531104E+02 0.17573349453E+02 0.14885148399E+02 0.12465529226E+02 0.10572539840E+02
 0.92833645522E+01 0.84417706532E+01 0.77626043682E+01 0.71639393281E+01 0.66811360100E+01
 0.63128525615E+01 0.60496742436E+01 0.58703306126E+01 0.57578210782E+01 0.56956953235E+01
 0.56764866889E+01 0.56956953235E+01 0.57578210782E+01 0.58703306126E+01 0.60496742436E+01
 0.63128525615E+01 0.66811360100E+01 0.71639393281E+01 0.77626043682E+01 0.84417706532E+01
 0.92833645522E+01 0.10572539840E+02 0.12465529226E+02 0.14885148399E+02 0.17573349453E+02
 0.20174531104E+02 0.22327430551E+02 0.23741255316E+02 0.37297133673E+02 0.36488217205E+02
 0.34151363216E+02 0.30556582069E+02 0.26137782954E+02 0.21448060764E+02 0.17064194316E+02
 0.13461973531E+02 0.10883561947E+02 0.92833645522E+01 0.83195998876E+01 0.75696488092E+01
 0.69456500777E+01 0.64719419453E+01 0.61335397847E+01 0.59087263925E+01 0.57695301429E+01
 0.56957769420E+01 0.56723877760E+01 0.56957769420E+01 0.57695301429E+01 0.59087263925E+01
 0.61335397847E+01 0.64719419453E+01 0.69456500777E+01 0.75696488092E+01 0.83195998876E+01
 0.92833645522E+01 0.10883561947E+02 0.13461973531E+02 0.17064194316E+02 0.21448060764E+02
 0.26137782954E+02 0.30556582069E+02 0.34151363216E+02 0.36488217205E+02 0.55129724030E+02
 0.53904188076E+02 0.50362091867E+02 0.44890898116E+02 0.38115920153E+02 0.30822462936E+02
 0.23848135874E+02 0.17909048069E+02 0.13461973531E+02 0.10572539840E+02 0.89441921913E+01
 0.79843094845E+01 0.72273716317E+01 0.66411518000E+01 0.62220737221E+01 0.59462702240E+01
 0.57776763065E+01 0.56902596779E+01 0.56623870320E+01 0.56902596779E+01 0.57776763065E+01
 0.59462702240E+01 0.62220737221E+01 0.66411518000E+01 0.72273716317E+01 0.79843094845E+01
 0.89441921913E+01 0.10572539840E+02 0.13461973531E+02 0.17909048069E+02 0.23848135874E+02
 0.30822462936E+02 0.38115920153E+02 0.44890898116E+02 0.50362091867E+02 0.53904188076E+02
 0.77265211607E+02 0.75525798239E+02 0.70495986216E+02 0.62734636469E+02 0.53106264375E+02
 0.42688591194E+02 0.32606034478E+02 0.23848135874E+02 0.17064194316E+02 0.12465529226E+02
 0.97835692826E+01 0.83903507703E+01 0.75075707469E+01 0.68099217167E+01 0.63133536719E+01
 0.59808083706E+01 0.57835278583E+01 0.56781902558E+01 0.56480981026E+01 0.56781902558E+01
 0.57835278583E+01 0.59808083706E+01 0.63133536719E+01 0.68099217167E+01 0.75075707469E+01
 0.83903507703E+01 0.97835692826E+01 0.12465529226E+02 0.17064194316E+02 0.23848135874E+02
 0.32606034478E+02 0.42688591194E+02 0.53106264375E+02 0.62734636469E+02 0.70495986216E+02
 0.75525798239E+02 0.10243699612E+03 0.10009663777E+03 0.93343407559E+02 0.82953241957E+02
 0.70099574801E+02 0.56197935684E+02 0.42688591194E+02 0.30822462936E+02 0.21448060764E+02
 0.14885148399E+02 0.10901261579E+02 0.88355975714E+01 0.77572197321E+01 0.69730053739E+01
 0.63974891667E+01 0.60147643179E+01 0.57847024778E+01 0.56647964582E+01 0.56288025443E+01
 0.56647964582E+01 0.57847024778E+01 0.60147643179E+01 0.63974891667E+01 0.69730053739E+01
 0.77572197321E+01 0.88355975714E+01 0.10901261579E+02 0.14885148399E+02 0.21448060764E+02
 0.30822462936E+02 0.42688591194E+02 0.56197935684E+02 0.70099574801E+02 0.82953241957E+02
 0.93343407559E+02 0.10009663777E+03 0.12862656609E+03 0.12563616207E+03 0.11703062669E+03
 0.10384190313E+03 0.87602543774E+02 0.70099574801E+02 0.53106264375E+02 0.38115920153E+02
 0.26137782954E+02 0.17573349453E+02 0.12212345726E+02 0.93472704902E+01 0.79732734391E+01
 0.71162412897E+01 0.64717003104E+01 0.60449842142E+01 0.57830654442E+01 0.56503782697E+01
 0.56076105443E+01 0.56503782697E+01 0.57830654442E+01 0.60449842142E+01 0.64717003104E+01
 0.71162412897E+01 0.79732734391E+01 0.93472704902E+01 0.12212345726E+02 0.17573349453E+02
 0.26137782954E+02 0.38115920153E+02 0.53106264375E+02 0.70099574801E+02 0.87602543774E+02
 0.10384190313E+03 0.11703062669E+03 0.12563616207E+03 0.15324888396E+03 0.14962166626E+03
 0.13920879691E+03 0.12331399439E+03 0.10384190313E+03 0.82953241957E+02 0.62734636469E+02
 0.44890898116E+02 0.30556582069E+02 0.20174531104E+02 0.13534952282E+02 0.98853224969E+01
 0.81634698564E+01 0.72285473521E+01 0.65335493182E+01 0.60686461134E+01 0.57810184802E+01
 0.56360408580E+01 0.55884206447E+01 0.56360408580E+01 0.57810184802E+01 0.60686461134E+01
 0.65335493182E+01 0.72285473521E+01 0.81634698564E+01 0.98853224969E+01 0.13534952282E+02
 0.20174531104E+02 0.30556582069E+02 0.44890898116E+02 0.62734636469E+02 0.82953241957E+02
 0.10384190313E+03 0.12331399439E+03 0.13920879691E+03 0.14962166626E+03 0.17350928244E+03
 0.16933935741E+03 0.15738923822E+03 0.13920879691E+03 0.11703062669E+03 0.93343407559E+02
 0.70495986216E+02 0.50362091867E+02 0.34151363216E+02 0.22327430551E+02 0.14662485109E+02
 0.10363826167E+02 0.83225793472E+01 0.73068357901E+01 0.65802764961E+01 0.60848721730E+01
 0.57794056476E+01 0.56233708109E+01 0.55733965010E+01 0.56233708109E+01 0.57794056476E+01
 0.60848721730E+01 0.65802764961E+01 0.73068357901E+01 0.83225793472E+01 0.10363826167E+02
 0.14662485109E+02 0.22327430551E+02 0.34151363216E+02 0.50362091867E+02 0.70495986216E+02
 0.93343407559E+02 0.11703062669E+03 0.13920879691E+03 0.15738923822E+03 0.16933935741E+03
 0.18686543932E+03 0.18232804616E+03 0.16933935741E+03 0.14962166626E+03 0.12563616207E+03
 0.10009663777E+03 0.75525798239E+02 0.53904188076E+02 0.36488217205E+02 0.23741255316E+02
 0.15416208128E+02 0.10693767815E+02 0.84311112371E+01 0.73532370733E+01 0.66087821391E+01
 0.60944571012E+01 0.57782641952E+01 0.56150135264E+01 0.55637902520E+01 0.56150135264E+01
 0.57782641952E+01 0.60944571012E+01 0.66087821391E+01 0.73532370733E+01 0.84311112371E+01
 0.10693767815E+02 0.15416208128E+02 0.23741255316E+02 0.36488217205E+02 0.53904188076E+02
 0.75525798239E+02 0.10009663777E+03 0.12563616207E+03 0.14962166626E+03 0.16933935741E+03
 0.18232804616E+03 0.18686543932E+03 0.18232804616E+03 0.16933935741E+03 0.14962166626E+03
 0.12563616207E+03 0.10009663777E+03 0.75525798239E+02 0.53904188076E+02 0.36488217205E+02
 0.23741255316E+02 0.15416208128E+02 0.10693767815E+02 0.84311112371E+01 0.73532370733E+01
 0.66087821391E+01 0.60944571012E+01 0.57782641952E+01 0.56150135264E+01 0.55637902520E+01
 0.56150135264E+01 0.57782641952E+01 0.60944571012E+01 0.66087821391E+01 0.73532370733E+01
 0.84311112371E+01 0.10693767815E+02 0.15416208128E+02 0.23741255316E+02 0.36488217205E+02
 0.53904188076E+02 0.75525798239E+02 0.10009663777E+03 0.12563616207E+03 0.14962166626E+03
 0.16933935741E+03 0.18232804616E+03 0.18232804616E+03 0.17791608756E+03 0.16528214783E+03
 0.14608902521E+03 0.12272004730E+03 0.97811051688E+02 0.73824684878E+02 0.52704941563E+02
 0.35697170501E+02 0.23261557566E+02 0.15159328122E+02 0.10581084244E+02 0.83941863857E+01
 0.73384800531E+01 0.65997624205E+01 0.60918228161E+01 0.57790539901E+01 0.56183273383E+01
 0.55674043852E+01 0.56183273383E+01 0.57790539901E+01 0.60918228161E+01 0.65997624205E+01
 0.73384800531E+01 0.83941863857E+01 0.10581084244E+02 0.15159328122E+02 0.23261557566E+02
 0.35697170501E+02 0.52704941563E+02 0.73824684878E+02 0.97811051688E+02 0.12272004730E+03
 0.14608902521E+03 0.16528214783E+03 0.17791608756E+03 0.16933935741E+03 0.16528214783E+03
 0.15365113223E+03 0.13594431860E+03 0.11432558044E+03 0.91214804237E+02 0.68906060793E+02
 0.49239608498E+02 0.33412641171E+02 0.21882755117E+02 0.14428446584E+02 0.10264428016E+02
 0.82914482559E+01 0.72936532378E+01 0.65728493648E+01 0.60835773317E+01 0.57815312150E+01
 0.56277999202E+01 0.55781939212E+01 0.56277999202E+01 0.57815312150E+01 0.60835773317E+01
 0.65728493648E+01 0.72936532378E+01 0.82914482559E+01 0.10264428016E+02 0.14428446584E+02
 0.21882755117E+02 0.33412641171E+02 0.49239608498E+02 0.68906060793E+02 0.91214804237E+02
 0.11432558044E+03 0.13594431860E+03 0.15365113223E+03 0.16528214783E+03 0.14962166626E+03
 0.14608902521E+03 0.13594431860E+03 0.12045022417E+03 0.10145533728E+03 0.81064063465E+02
 0.61316619440E+02 0.43889655952E+02 0.29901139113E+02 0.19785697097E+02 0.13336757106E+02
 0.98060483561E+01 0.81399170182E+01 0.72175252007E+01 0.65288602324E+01 0.60692794937E+01
 0.57850192392E+01 0.56418223700E+01 0.55947704942E+01 0.56418223700E+01 0.57850192392E+01
 0.60692794937E+01 0.65288602324E+01 0.72175252007E+01 0.81399170182E+01 0.98060483561E+01
 0.13336757106E+02 0.19785697097E+02 0.29901139113E+02 0.43889655952E+02 0.61316619440E+02
 0.81064063465E+02 0.10145533728E+03 0.12045022417E+03 0.13594431860E+03 0.14608902521E+03
 0.12563616207E+03 0.12272004730E+03 0.11432558044E+03 0.10145533728E+03 0.85599848007E+02
 0.68504179731E+02 0.51904578113E+02 0.37270163825E+02 0.25589721314E+02 0.17256903103E+02
 0.12059057365E+02 0.92915969901E+01 0.79571058852E+01 0.71078846557E+01 0.64702201411E+01
 0.60479907071E+01 0.57894693359E+01 0.56580309640E+01 0.56160372244E+01 0.56580309640E+01
 0.57894693359E+01 0.60479907071E+01 0.64702201411E+01 0.71078846557E+01 0.79571058852E+01
 0.92915969901E+01 0.12059057365E+02 0.17256903103E+02 0.25589721314E+02 0.37270163825E+02
 0.51904578113E+02 0.68504179731E+02 0.85599848007E+02 0.10145533728E+03 0.11432558044E+03
 0.12272004730E+03 0.10009663777E+03 0.97811051688E+02 0.91214804237E+02 0.81064063465E+02
 0.68504179731E+02 0.54920836851E+02 0.41727710980E+02 0.30152075518E+02 0.21022285562E+02
 0.14650149162E+02 0.10796122813E+02 0.88023675662E+01 0.77462590065E+01 0.69683288517E+01
 0.63994283942E+01 0.60205679145E+01 0.57932798892E+01 0.56743868303E+01 0.56389867394E+01
 0.56743868303E+01 0.57932798892E+01 0.60205679145E+01 0.63994283942E+01 0.69683288517E+01
 0.77462590065E+01 0.88023675662E+01 0.10796122813E+02 0.14650149162E+02 0.21022285562E+02
 0.30152075518E+02 0.41727710980E+02 0.54920836851E+02 0.68504179731E+02 0.81064063465E+02
 0.91214804237E+02 0.97811051688E+02 0.75525798239E+02 0.73824684878E+02 0.68906060793E+02
 0.61316619440E+02 0.51904578113E+02 0.41727710980E+02 0.31889320045E+02 0.23356067451E+02
 0.16763995310E+02 0.12310840788E+02 0.97229481101E+01 0.83731034196E+01 0.75003791347E+01
 0.68096692496E+01 0.63183769053E+01 0.59896766436E+01 0.57943942968E+01 0.56902276569E+01
 0.56602860828E+01 0.56902276569E+01 0.57943942968E+01 0.59896766436E+01 0.63183769053E+01
 0.68096692496E+01 0.75003791347E+01 0.83731034196E+01 0.97229481101E+01 0.12310840788E+02
 0.16763995310E+02 0.23356067451E+02 0.31889320045E+02 0.41727710980E+02 0.51904578113E+02
 0.61316619440E+02 0.68906060793E+02 0.73824684878E+02 0.53904188076E+02 0.52704941563E+02
 0.49239608498E+02 0.43889655952E+02 0.37270163825E+02 0.30152075518E+02 0.23356067451E+02
 0.17583790334E+02 0.13276181028E+02 0.10486939818E+02 0.89164462798E+01 0.79749212076E+01
 0.72246539049E+01 0.66452344634E+01 0.62307406956E+01 0.59579714891E+01 0.57908231170E+01
 0.57042327708E+01 0.56764809770E+01 0.57042327708E+01 0.57908231170E+01 0.59579714891E+01
 0.62307406956E+01 0.66452344634E+01 0.72246539049E+01 0.79749212076E+01 0.89164462798E+01
 0.10486939818E+02 0.13276181028E+02 0.17583790334E+02 0.23356067451E+02 0.30152075518E+02
 0.37270163825E+02 0.43889655952E+02 0.49239608498E+02 0.52704941563E+02 0.36488217205E+02
 0.35697170501E+02 0.33412641171E+02 0.29901139113E+02 0.25589721314E+02 0.21022285562E+02
 0.16763995310E+02 0.13276181028E+02 0.10787970341E+02 0.92473576217E+01 0.83078074582E+01
 0.75651031857E+01 0.69484397399E+01 0.64800641465E+01 0.61456310562E+01 0.59232633163E+01
 0.57856646493E+01 0.57124936527E+01 0.56893789164E+01 0.57124936527E+01 0.57856646493E+01
 0.59232633163E+01 0.61456310562E+01 0.64800641465E+01 0.69484397399E+01 0.75651031857E+01
 0.83078074582E+01 0.92473576217E+01 0.10787970341E+02 0.13276181028E+02 0.16763995310E+02
 0.21022285562E+02 0.25589721314E+02 0.29901139113E+02 0.33412641171E+02 0.35697170501E+02
 0.23741255316E+02 0.23261557566E+02 0.21882755117E+02 0.19785697097E+02 0.17256903103E+02
 0.14650149162E+02 0.12310840788E+02 0.10486939818E+02 0.92473576217E+01 0.84288303972E+01