   2   2   1   0
  0.1173411E+02  0.2863036E-09  0.2863036E-09  0.2863036E-09  0.5000000E-15
  1.000000000000000E-004
  CAR 
 unknown system                          
     47.33883918     -4.96808847  301      5.86891041      1.00000000
     -4.968  0.0000E+00  0.0000E+00  0.0000E+00  0.0000E+00
     -4.794  0.0000E+00  0.0000E+00  0.0000E+00  0.0000E+00
     -4.619  0.0000E+00  0.0000E+00  0.0000E+00  0.0000E+00
     -4.445  0.0000E+00  0.0000E+00  0.0000E+00  0.0000E+00
     -4.271 -0.7475E-35  0.0000E+00 -0.1303E-35  0.0000E+00
     -4.096 -0.7241E-29 -0.1277E-34 -0.1263E-29 -0.2227E-35
     -3.922 -0.1523E-23 -0.1169E-28 -0.2655E-24 -0.2038E-29
     -3.748 -0.6737E-19 -0.2323E-23 -0.1175E-19 -0.4051E-24
     -3.573 -0.6713E-15 -0.9739E-19 -0.1171E-15 -0.1698E-19
     -3.399 -0.1472E-11 -0.9142E-15 -0.2567E-12 -0.1594E-15
     -3.225 -0.7279E-09 -0.1894E-11 -0.1272E-09 -0.3304E-12
     -3.050 -0.8304E-07 -0.8857E-09 -0.1460E-07 -0.1548E-09
     -2.876 -0.2104E-05 -0.9556E-07 -0.3814E-06 -0.1682E-07
     -2.701 -0.6113E-05 -0.2279E-05 -0.1447E-05 -0.4142E-06
     -2.527  0.6422E-04 -0.5664E-05  0.9750E-05 -0.1402E-05
     -2.353  0.2300E-03  0.6922E-04  0.4986E-04  0.1067E-04
     -2.178  0.4059E-03  0.2338E-03  0.1206E-03  0.5144E-04
     -2.004  0.4652E-03  0.4078E-03  0.2017E-03  0.1225E-03
     -1.830  0.5715E-03  0.4591E-03  0.3014E-03  0.2026E-03
     -1.655  0.7067E-03  0.5650E-03  0.4246E-03  0.3011E-03
     -1.481  0.7257E-03  0.6937E-03  0.5511E-03  0.4220E-03
     -1.307  0.7257E-03  0.7139E-03  0.6777E-03  0.5465E-03
     -1.132  0.1047E-02  0.6914E-03  0.8602E-03  0.6671E-03
     -0.958  0.1031E-02  0.9925E-03  0.1040E-02  0.8401E-03
     -0.784  0.8563E-03  0.1030E-02  0.1189E-02  0.1020E-02
     -0.609  0.1277E-02  0.7839E-03  0.1412E-02  0.1156E-02
     -0.435  0.1440E-02  0.1117E-02  0.1663E-02  0.1351E-02
     -0.260  0.1303E-02  0.1370E-02  0.1890E-02  0.1590E-02
     -0.086  0.1439E-02  0.1206E-02  0.2141E-02  0.1800E-02
      0.088  0.1697E-02  0.1208E-02  0.2437E-02  0.2011E-02
      0.263  0.2100E-02  0.1427E-02  0.2803E-02  0.2260E-02
      0.437  0.2179E-02  0.1502E-02  0.3183E-02  0.2522E-02
      0.611  0.2158E-02  0.1894E-02  0.3560E-02  0.2852E-02
      0.786  0.3309E-02  0.1738E-02  0.4137E-02  0.3155E-02
      0.960  0.5854E-02  0.1468E-02  0.5157E-02  0.3411E-02
      1.134  0.9321E-02  0.2282E-02  0.6782E-02  0.3809E-02
      1.309  0.1184E-01  0.2407E-02  0.8846E-02  0.4228E-02
      1.483  0.1427E-01  0.2432E-02  0.1133E-01  0.4652E-02
      1.657  0.1775E-01  0.2689E-02  0.1443E-01  0.5121E-02
      1.832  0.1817E-01  0.2855E-02  0.1760E-01  0.5619E-02
      2.006  0.1264E-01  0.4010E-02  0.1980E-01  0.6318E-02
      2.181  0.9854E-02  0.5190E-02  0.2152E-01  0.7223E-02
      2.355  0.8859E-02  0.6431E-02  0.2306E-01  0.8344E-02
      2.529  0.2295E-01  0.6937E-02  0.2707E-01  0.9554E-02
      2.704  0.2941E-01  0.7464E-02  0.3219E-01  0.1086E-01
      2.878  0.2222E-01  0.7618E-02  0.3607E-01  0.1218E-01
      3.052  0.2003E-01  0.9894E-02  0.3956E-01  0.1391E-01
      3.227  0.2496E-01  0.1251E-01  0.4391E-01  0.1609E-01
      3.401  0.2902E-01  0.1259E-01  0.4897E-01  0.1828E-01
      3.575  0.2243E-01  0.9766E-02  0.5288E-01  0.1999E-01
      3.750  0.1180E-01  0.6455E-02  0.5494E-01  0.2111E-01
      3.924  0.8811E-02  0.6790E-02  0.5647E-01  0.2230E-01
      4.098  0.8291E-02  0.1643E-01  0.5792E-01  0.2516E-01
      4.273  0.1031E-01  0.2584E-01  0.5972E-01  0.2967E-01
      4.447  0.1643E-01  0.2500E-01  0.6258E-01  0.3403E-01
      4.622  0.2751E-01  0.2330E-01  0.6738E-01  0.3809E-01
      4.796  0.3990E-01  0.2220E-01  0.7434E-01  0.4196E-01
      4.970  0.5065E-01  0.2398E-01  0.8317E-01  0.4614E-01
      5.145  0.3812E-01  0.2387E-01  0.8981E-01  0.5030E-01
      5.319  0.2043E-01  0.1943E-01  0.9337E-01  0.5369E-01
      5.493  0.1522E-01  0.1307E-01  0.9603E-01  0.5597E-01
      5.668  0.1566E-01  0.7160E-02  0.9876E-01  0.5722E-01
      5.842  0.1518E-01  0.4901E-02  0.1014E+00  0.5807E-01
      6.016  0.1373E-01  0.4946E-02  0.1038E+00  0.5893E-01
      6.191  0.8800E-02  0.5314E-02  0.1053E+00  0.5986E-01
      6.365  0.4778E-02  0.6682E-02  0.1062E+00  0.6102E-01
      6.539  0.3479E-02  0.8793E-02  0.1068E+00  0.6256E-01
      6.714  0.2096E-02  0.1313E-01  0.1071E+00  0.6485E-01
      6.888  0.2941E-02  0.1552E-01  0.1077E+00  0.6755E-01
      7.063  0.3018E-02  0.1900E-01  0.1082E+00  0.7087E-01
      7.237  0.2881E-02  0.2479E-01  0.1087E+00  0.7519E-01
      7.411  0.2962E-02  0.2634E-01  0.1092E+00  0.7978E-01
      7.586  0.2946E-02  0.2598E-01  0.1097E+00  0.8431E-01
      7.760  0.2660E-02  0.4156E-01  0.1102E+00  0.9156E-01
      7.934  0.2929E-02  0.4327E-01  0.1107E+00  0.9910E-01
      8.109  0.2695E-02  0.2119E-01  0.1112E+00  0.1028E+00
      8.283  0.2220E-02  0.1312E-01  0.1115E+00  0.1051E+00
      8.457  0.2421E-02  0.7347E-02  0.1120E+00  0.1064E+00
      8.632  0.3258E-02  0.5091E-02  0.1125E+00  0.1073E+00
      8.806  0.2820E-02  0.4337E-02  0.1130E+00  0.1080E+00
      8.980  0.2188E-02  0.3209E-02  0.1134E+00  0.1086E+00
      9.155  0.1634E-02  0.4275E-02  0.1137E+00  0.1093E+00
      9.329  0.2952E-02  0.4420E-02  0.1142E+00  0.1101E+00
      9.503  0.2386E-02  0.3062E-02  0.1146E+00  0.1106E+00
      9.678  0.1297E-02  0.2779E-02  0.1148E+00  0.1111E+00
      9.852  0.2238E-02  0.3667E-02  0.1152E+00  0.1117E+00
     10.027  0.2611E-02  0.3121E-02  0.1157E+00  0.1123E+00
     10.201  0.2932E-02  0.3591E-02  0.1162E+00  0.1129E+00
     10.375  0.1662E-02  0.2829E-02  0.1165E+00  0.1134E+00
     10.550  0.8229E-03  0.2165E-02  0.1166E+00  0.1138E+00
     10.724  0.9722E-03  0.3060E-02  0.1168E+00  0.1143E+00
     10.898  0.1970E-02  0.2532E-02  0.1171E+00  0.1148E+00
     11.073  0.2307E-02  0.2116E-02  0.1176E+00  0.1151E+00
     11.247  0.1943E-02  0.2844E-02  0.1179E+00  0.1156E+00
     11.421  0.1028E-02  0.3000E-02  0.1181E+00  0.1161E+00
     11.596  0.1037E-02  0.1800E-02  0.1183E+00  0.1165E+00
     11.770  0.1690E-02  0.1174E-02  0.1185E+00  0.1167E+00
     11.944  0.1257E-02  0.1561E-02  0.1188E+00  0.1169E+00
     12.119  0.2990E-03  0.2361E-02  0.1188E+00  0.1173E+00
     12.293  0.6713E-03  0.2732E-02  0.1189E+00  0.1178E+00
     12.468  0.7452E-03  0.1524E-02  0.1191E+00  0.1181E+00
     12.642  0.9765E-03  0.6766E-03  0.1192E+00  0.1182E+00
     12.816  0.1249E-02  0.1337E-02  0.1195E+00  0.1184E+00
     12.991  0.6947E-03  0.1633E-02  0.1196E+00  0.1187E+00
     13.165  0.4962E-03  0.7014E-03  0.1197E+00  0.1188E+00
     13.339  0.1375E-02  0.1108E-02  0.1199E+00  0.1190E+00
     13.514  0.3777E-02  0.1140E-02  0.1206E+00  0.1192E+00
     13.688  0.5219E-02  0.9012E-03  0.1215E+00  0.1194E+00
     13.862  0.4993E-02  0.7146E-03  0.1223E+00  0.1195E+00
     14.037  0.4371E-02  0.6908E-03  0.1231E+00  0.1196E+00
     14.211  0.4253E-02  0.2314E-03  0.1238E+00  0.1197E+00
     14.385  0.3739E-02  0.8937E-04  0.1245E+00  0.1197E+00
     14.560  0.3603E-02  0.1349E-02  0.1251E+00  0.1199E+00
     14.734  0.3500E-02  0.4758E-02  0.1257E+00  0.1208E+00
     14.909  0.2961E-02  0.7134E-02  0.1262E+00  0.1220E+00
     15.083  0.2317E-02  0.6592E-02  0.1267E+00  0.1232E+00
     15.257  0.3504E-02  0.3956E-02  0.1273E+00  0.1238E+00
     15.432  0.3722E-02  0.3354E-02  0.1279E+00  0.1244E+00
     15.606  0.2758E-02  0.4857E-02  0.1284E+00  0.1253E+00
     15.780  0.3821E-02  0.4071E-02  0.1291E+00  0.1260E+00
     15.955  0.4688E-02  0.3859E-02  0.1299E+00  0.1267E+00
     16.129  0.3232E-02  0.2545E-02  0.1304E+00  0.1271E+00
     16.303  0.3655E-02  0.3297E-02  0.1311E+00  0.1277E+00
     16.478  0.4340E-02  0.4195E-02  0.1318E+00  0.1284E+00
     16.652  0.3589E-02  0.4760E-02  0.1325E+00  0.1292E+00
     16.826  0.3597E-02  0.4987E-02  0.1331E+00  0.1301E+00
     17.001  0.3773E-02  0.3343E-02  0.1337E+00  0.1307E+00
     17.175  0.4703E-02  0.3911E-02  0.1346E+00  0.1314E+00
     17.350  0.3777E-02  0.3883E-02  0.1352E+00  0.1321E+00
     17.524  0.2115E-02  0.3721E-02  0.1356E+00  0.1327E+00
     17.698  0.3621E-02  0.4164E-02  0.1362E+00  0.1334E+00
     17.873  0.4204E-02  0.4504E-02  0.1370E+00  0.1342E+00
     18.047  0.3704E-02  0.4989E-02  0.1376E+00  0.1351E+00
     18.221  0.4542E-02  0.3076E-02  0.1384E+00  0.1356E+00
     18.396  0.4199E-02  0.2136E-02  0.1391E+00  0.1360E+00
     18.570  0.2706E-02  0.3734E-02  0.1396E+00  0.1366E+00
     18.744  0.2662E-02  0.4802E-02  0.1401E+00  0.1375E+00
     18.919  0.2634E-02  0.4487E-02  0.1405E+00  0.1383E+00
     19.093  0.3886E-02  0.4700E-02  0.1412E+00  0.1391E+00
     19.267  0.4812E-02  0.3502E-02  0.1420E+00  0.1397E+00
     19.442  0.4607E-02  0.2069E-02  0.1428E+00  0.1401E+00
     19.616  0.3293E-02  0.2668E-02  0.1434E+00  0.1405E+00
     19.791  0.2852E-02  0.4276E-02  0.1439E+00  0.1413E+00
     19.965  0.2139E-02  0.4566E-02  0.1443E+00  0.1421E+00
     20.139  0.2841E-02  0.4680E-02  0.1448E+00  0.1429E+00
     20.314  0.3827E-02  0.4061E-02  0.1454E+00  0.1436E+00
     20.488  0.4152E-02  0.2452E-02  0.1462E+00  0.1440E+00
     20.662  0.4534E-02  0.2691E-02  0.1470E+00  0.1445E+00
     20.837  0.3587E-02  0.3234E-02  0.1476E+00  0.1450E+00
     21.011  0.2302E-02  0.3382E-02  0.1480E+00  0.1456E+00
     21.185  0.3074E-02  0.4498E-02  0.1485E+00  0.1464E+00
     21.360  0.2441E-02  0.5009E-02  0.1490E+00  0.1473E+00
     21.534  0.2996E-02  0.2744E-02  0.1495E+00  0.1478E+00
     21.708  0.3629E-02  0.3148E-02  0.1501E+00  0.1483E+00
     21.883  0.4937E-02  0.2917E-02  0.1510E+00  0.1488E+00
     22.057  0.4600E-02  0.2634E-02  0.1518E+00  0.1493E+00
     22.232  0.2995E-02  0.3489E-02  0.1523E+00  0.1499E+00
     22.406  0.2875E-02  0.3973E-02  0.1528E+00  0.1506E+00
     22.580  0.3674E-02  0.4643E-02  0.1534E+00  0.1514E+00
     22.755  0.4488E-02  0.3702E-02  0.1542E+00  0.1520E+00
     22.929  0.3929E-02  0.2898E-02  0.1549E+00  0.1525E+00
     23.103  0.3549E-02  0.3607E-02  0.1555E+00  0.1532E+00
     23.278  0.5946E-02  0.3566E-02  0.1566E+00  0.1538E+00
     23.452  0.5920E-02  0.4691E-02  0.1576E+00  0.1546E+00
     23.626  0.4239E-02  0.4089E-02  0.1583E+00  0.1553E+00
     23.801  0.3482E-02  0.5555E-02  0.1589E+00  0.1563E+00
     23.975  0.4690E-02  0.6414E-02  0.1598E+00  0.1574E+00
     24.149  0.4897E-02  0.5670E-02  0.1606E+00  0.1584E+00
     24.324  0.5371E-02  0.4564E-02  0.1615E+00  0.1592E+00
     24.498  0.5778E-02  0.4532E-02  0.1626E+00  0.1600E+00
     24.673  0.5306E-02  0.4339E-02  0.1635E+00  0.1607E+00
     24.847  0.4817E-02  0.5657E-02  0.1643E+00  0.1617E+00
     25.021  0.4094E-02  0.6349E-02  0.1650E+00  0.1628E+00
     25.196  0.5262E-02  0.5358E-02  0.1659E+00  0.1638E+00
     25.370  0.4819E-02  0.4402E-02  0.1668E+00  0.1645E+00
     25.544  0.4536E-02  0.4057E-02  0.1676E+00  0.1653E+00
     25.719  0.5473E-02  0.5864E-02  0.1685E+00  0.1663E+00
     25.893  0.5320E-02  0.5068E-02  0.1695E+00  0.1672E+00
     26.067  0.6109E-02  0.4655E-02  0.1705E+00  0.1680E+00
     26.242  0.5497E-02  0.5007E-02  0.1715E+00  0.1688E+00
     26.416  0.4737E-02  0.6440E-02  0.1723E+00  0.1700E+00
     26.590  0.4608E-02  0.5719E-02  0.1731E+00  0.1710E+00
     26.765  0.4116E-02  0.4467E-02  0.1738E+00  0.1717E+00
     26.939  0.4629E-02  0.5679E-02  0.1746E+00  0.1727E+00
     27.113  0.4574E-02  0.5465E-02  0.1754E+00  0.1737E+00
     27.288  0.4140E-02  0.3919E-02  0.1762E+00  0.1744E+00
     27.462  0.4390E-02  0.3649E-02  0.1769E+00  0.1750E+00
     27.637  0.4134E-02  0.3948E-02  0.1776E+00  0.1757E+00
     27.811  0.3717E-02  0.5218E-02  0.1783E+00  0.1766E+00
     27.985  0.2698E-02  0.3767E-02  0.1788E+00  0.1773E+00
     28.160  0.3245E-02  0.3909E-02  0.1793E+00  0.1779E+00
     28.334  0.3489E-02  0.4021E-02  0.1799E+00  0.1786E+00
     28.508  0.4043E-02  0.2894E-02  0.1806E+00  0.1791E+00
     28.683  0.3103E-02  0.3558E-02  0.1812E+00  0.1798E+00
     28.857  0.2932E-02  0.2965E-02  0.1817E+00  0.1803E+00
     29.031  0.3568E-02  0.2786E-02  0.1823E+00  0.1808E+00
     29.206  0.2311E-02  0.3861E-02  0.1827E+00  0.1814E+00
     29.380  0.1801E-02  0.4367E-02  0.1830E+00  0.1822E+00
     29.554  0.2719E-02  0.2200E-02  0.1835E+00  0.1826E+00
     29.729  0.2453E-02  0.1662E-02  0.1839E+00  0.1829E+00
     29.903  0.2869E-02  0.3177E-02  0.1844E+00  0.1834E+00
     30.078  0.4619E-02  0.2916E-02  0.1852E+00  0.1839E+00
     30.252  0.5463E-02  0.2254E-02  0.1862E+00  0.1843E+00
     30.426  0.4108E-02  0.4297E-02  0.1869E+00  0.1851E+00
     30.601  0.5372E-02  0.5897E-02  0.1878E+00  0.1861E+00
     30.775  0.6213E-02  0.4362E-02  0.1889E+00  0.1869E+00
     30.949  0.5546E-02  0.5067E-02  0.1899E+00  0.1878E+00
     31.124  0.5737E-02  0.6964E-02  0.1909E+00  0.1890E+00
     31.298  0.5426E-02  0.5878E-02  0.1918E+00  0.1900E+00
     31.472  0.4838E-02  0.5146E-02  0.1927E+00  0.1909E+00
     31.647  0.4334E-02  0.5576E-02  0.1934E+00  0.1919E+00
     31.821  0.4231E-02  0.5092E-02  0.1942E+00  0.1927E+00
     31.995  0.4321E-02  0.4960E-02  0.1949E+00  0.1936E+00
     32.170  0.2344E-02  0.3945E-02  0.1953E+00  0.1943E+00
     32.344  0.9840E-03  0.3505E-02  0.1955E+00  0.1949E+00
     32.519  0.1516E-02  0.2291E-02  0.1958E+00  0.1953E+00
     32.693  0.2581E-02  0.1135E-02  0.1962E+00  0.1955E+00
     32.867  0.1344E-02  0.2930E-02  0.1965E+00  0.1960E+00
     33.042  0.1323E-02  0.2265E-02  0.1967E+00  0.1964E+00
     33.216  0.1797E-02  0.1215E-02  0.1970E+00  0.1966E+00
     33.390  0.1408E-02  0.2392E-02  0.1972E+00  0.1970E+00
     33.565  0.6371E-03  0.1562E-02  0.1974E+00  0.1973E+00
     33.739  0.8296E-03  0.4537E-03  0.1975E+00  0.1974E+00
     33.913  0.6948E-03  0.8061E-03  0.1976E+00  0.1975E+00
     34.088  0.5554E-04  0.5329E-03  0.1976E+00  0.1976E+00
     34.262  0.3241E-03  0.4275E-05  0.1977E+00  0.1976E+00
     34.436  0.9980E-03  0.6518E-03  0.1979E+00  0.1977E+00
     34.611  0.1200E-02  0.1390E-02  0.1981E+00  0.1980E+00
     34.785  0.1630E-03  0.6552E-03  0.1981E+00  0.1981E+00
     34.960  0.3708E-03  0.3926E-04  0.1982E+00  0.1981E+00
     35.134  0.1142E-02  0.1004E-02  0.1984E+00  0.1983E+00
     35.308  0.1002E-02  0.1370E-02  0.1985E+00  0.1985E+00
     35.483  0.5939E-03  0.7322E-03  0.1986E+00  0.1986E+00
     35.657  0.1729E-03  0.6751E-04  0.1987E+00  0.1987E+00
     35.831  0.4102E-03  0.3033E-03  0.1987E+00  0.1987E+00
     36.006  0.2736E-03  0.4985E-03  0.1988E+00  0.1988E+00
     36.180  0.1874E-03  0.1711E-03  0.1988E+00  0.1988E+00
     36.354  0.2213E-03  0.6726E-04  0.1989E+00  0.1988E+00
     36.529  0.5754E-03  0.5731E-03  0.1990E+00  0.1989E+00
     36.703  0.5188E-03  0.5979E-03  0.1991E+00  0.1990E+00
     36.877  0.9456E-04  0.1219E-03  0.1991E+00  0.1991E+00
     37.052  0.2338E-03  0.3689E-03  0.1991E+00  0.1991E+00
     37.226  0.7444E-03  0.7643E-03  0.1992E+00  0.1993E+00
     37.401  0.5945E-03  0.5357E-03  0.1993E+00  0.1994E+00
     37.575  0.4228E-03  0.3981E-03  0.1994E+00  0.1994E+00
     37.749  0.3554E-03  0.2900E-03  0.1995E+00  0.1995E+00
     37.924  0.3736E-04  0.6058E-04  0.1995E+00  0.1995E+00
     38.098 -0.2342E-04 -0.2091E-04  0.1995E+00  0.1995E+00
     38.272  0.5988E-04  0.1024E-03  0.1995E+00  0.1995E+00
     38.447  0.2199E-03  0.2091E-03  0.1995E+00  0.1995E+00
     38.621  0.5691E-04  0.2459E-04  0.1995E+00  0.1995E+00
     38.795  0.1410E-03  0.2476E-03  0.1996E+00  0.1996E+00
     38.970  0.4288E-03  0.4049E-03  0.1996E+00  0.1997E+00
     39.144  0.1271E-03  0.3165E-04  0.1997E+00  0.1997E+00
     39.318 -0.3484E-04  0.2676E-05  0.1997E+00  0.1997E+00
     39.493  0.2194E-03  0.3860E-03  0.1997E+00  0.1997E+00
     39.667  0.4548E-03  0.4897E-03  0.1998E+00  0.1998E+00
     39.842  0.3234E-03  0.2390E-03  0.1998E+00  0.1999E+00
     40.016  0.1944E-03  0.6467E-04  0.1999E+00  0.1999E+00
     40.190  0.1137E-04 -0.5758E-05  0.1999E+00  0.1999E+00
     40.365 -0.7088E-05 -0.2327E-05  0.1999E+00  0.1999E+00
     40.539 -0.7462E-06 -0.5728E-06  0.1999E+00  0.1999E+00
     40.713 -0.4554E-05 -0.5949E-05  0.1999E+00  0.1999E+00
     40.888  0.9226E-05  0.2414E-04  0.1999E+00  0.1999E+00
     41.062  0.1279E-03  0.1430E-03  0.1999E+00  0.1999E+00
     41.236  0.9524E-04  0.6309E-04  0.1999E+00  0.1999E+00
     41.411 -0.1249E-04  0.1390E-04  0.1999E+00  0.1999E+00
     41.585  0.7210E-04  0.1988E-03  0.1999E+00  0.1999E+00
     41.759  0.2233E-03  0.1330E-03  0.2000E+00  0.2000E+00
     41.934  0.6077E-04 -0.7749E-05  0.2000E+00  0.2000E+00
     42.108 -0.1351E-04 -0.5428E-05  0.2000E+00  0.2000E+00
     42.283  0.6048E-05  0.7181E-04  0.2000E+00  0.2000E+00
     42.457  0.9652E-04  0.9646E-04  0.2000E+00  0.2000E+00
     42.631  0.7181E-04  0.7255E-05  0.2000E+00  0.2000E+00
     42.806 -0.1910E-05 -0.3452E-05  0.2000E+00  0.2000E+00
     42.980 -0.2001E-05 -0.1915E-06  0.2000E+00  0.2000E+00
     43.154 -0.6516E-07 -0.1670E-08  0.2000E+00  0.2000E+00
     43.329 -0.3666E-09 -0.2837E-11  0.2000E+00  0.2000E+00
     43.503 -0.4104E-12 -0.9931E-15  0.2000E+00  0.2000E+00
     43.677 -0.9544E-16 -0.2490E-16  0.2000E+00  0.2000E+00
     43.852 -0.1825E-17 -0.9893E-13  0.2000E+00  0.2000E+00
     44.026 -0.1127E-13 -0.8178E-10  0.2000E+00  0.2000E+00
     44.200 -0.1454E-10 -0.1340E-07  0.2000E+00  0.2000E+00
     44.375 -0.3784E-08 -0.3741E-06  0.2000E+00  0.2000E+00
     44.549 -0.1794E-06 -0.1240E-06  0.2000E+00  0.2000E+00
     44.723 -0.8039E-06  0.1281E-04  0.2000E+00  0.2000E+00
     44.898  0.7879E-05  0.1542E-04  0.2000E+00  0.2000E+00
     45.072  0.1828E-04  0.8349E-06  0.2000E+00  0.2000E+00
     45.247  0.3699E-05 -0.5279E-06  0.2000E+00  0.2000E+00
     45.421 -0.7854E-06 -0.2645E-07  0.2000E+00  0.2000E+00
     45.595 -0.7513E-07 -0.2127E-09  0.2000E+00  0.2000E+00
     45.770 -0.9766E-09 -0.3347E-12  0.2000E+00  0.2000E+00
     45.944 -0.2412E-11 -0.1087E-15  0.2000E+00  0.2000E+00
     46.118 -0.1217E-14 -0.6218E-20  0.2000E+00  0.2000E+00
     46.293 -0.1244E-18  0.0000E+00  0.2000E+00  0.2000E+00
     46.467  0.0000E+00  0.0000E+00  0.2000E+00  0.2000E+00
     46.641  0.0000E+00  0.0000E+00  0.2000E+00  0.2000E+00
     46.816  0.0000E+00  0.0000E+00  0.2000E+00  0.2000E+00
     46.990  0.0000E+00  0.0000E+00  0.2000E+00  0.2000E+00
     47.164  0.0000E+00  0.0000E+00  0.2000E+00  0.2000E+00
     47.339  0.0000E+00  0.0000E+00  0.2000E+00  0.2000E+00
     47.33883918     -4.96808847  301      5.86891041      1.00000000
     -4.968  0.0000E+00  0.0000E+00  0.0000E+00  0.0000E+00  0.0000E+00  0.0000E+00  0.0000E+00  0.0000E+00  0.0000E+00  0.0000E+00  0.0000E+00  0.0000E+00  0.0000E+00  0.0000E+00  0.0000E+00  0.0000E+00  0.0000E+00  0.0000E+00
     -4.794  0.0000E+00  0.0000E+00  0.0000E+00  0.0000E+00  0.0000E+00  0.0000E+00  0.0000E+00  0.0000E+00  0.0000E+00  0.0000E+00  0.0000E+00  0.0000E+00  0.0000E+00  0.0000E+00  0.0000E+00  0.0000E+00  0.0000E+00  0.0000E+00
     -4.619  0.0000E+00  0.0000E+00  0.0000E+00  0.0000E+00  0.0000E+00  0.0000E+00  0.0000E+00  0.0000E+00  0.0000E+00  0.0000E+00  0.0000E+00  0.0000E+00  0.0000E+00  0.0000E+00  0.0000E+00  0.0000E+00  0.0000E+00  0.0000E+00
     -4.445  0.0000E+00  0.0000E+00  0.0000E+00  0.0000E+00  0.0000E+00  0.0000E+00  0.0000E+00  0.0000E+00  0.0000E+00  0.0000E+00  0.0000E+00  0.0000E+00  0.0000E+00  0.0000E+00  0.0000E+00  0.0000E+00  0.0000E+00  0.0000E+00
     -4.271 -0.2749E-33  0.0000E+00 -0.4085E-38  0.0000E+00 -0.4085E-38  0.0000E+00 -0.4085E-38  0.0000E+00 -0.3703E-46  0.0000E+00 -0.3703E-46  0.0000E+00 -0.3974E-40  0.0000E+00 -0.3703E-46  0.0000E+00 -0.3974E-40  0.0000E+00
     -4.096 -0.2662E-27 -0.4695E-33 -0.8096E-32 -0.6982E-38 -0.8096E-32 -0.6982E-38 -0.8096E-32 -0.6982E-38 -0.6106E-36 -0.1144E-46 -0.6106E-36 -0.1144E-46 -0.7855E-34 -0.4777E-40 -0.6106E-36 -0.1144E-46 -0.7855E-34 -0.4777E-40
     -3.922 -0.5599E-22 -0.4298E-27 -0.3468E-26 -0.1312E-31 -0.3468E-26 -0.1312E-31 -0.3468E-26 -0.1312E-31 -0.5310E-30 -0.7012E-36 -0.5310E-30 -0.7012E-36 -0.3355E-28 -0.8950E-34 -0.5310E-30 -0.7012E-36 -0.3355E-28 -0.8950E-34
     -3.748 -0.2476E-17 -0.8540E-22 -0.3219E-21 -0.5325E-26 -0.3219E-21 -0.5325E-26 -0.3219E-21 -0.5325E-26 -0.9985E-25 -0.5802E-30 -0.9985E-25 -0.5802E-30 -0.3096E-23 -0.3623E-28 -0.9985E-25 -0.5802E-30 -0.3096E-23 -0.3623E-28
     -3.573 -0.2467E-13 -0.3579E-17 -0.6260E-17 -0.4684E-21 -0.6260E-17 -0.4684E-21 -0.6260E-17 -0.4684E-21 -0.3934E-20 -0.1038E-24 -0.3934E-20 -0.1038E-24 -0.5953E-19 -0.3169E-23 -0.3934E-20 -0.1038E-24 -0.5953E-19 -0.3169E-23
     -3.399 -0.5403E-10 -0.3358E-13 -0.2710E-13 -0.8630E-17 -0.2710E-13 -0.8630E-17 -0.2710E-13 -0.8630E-17 -0.3400E-16 -0.3887E-20 -0.3400E-16 -0.3887E-20 -0.2518E-15 -0.5769E-19 -0.3400E-16 -0.3887E-20 -0.2518E-15 -0.5769E-19
     -3.225 -0.2669E-07 -0.6952E-10 -0.2561E-10 -0.3540E-13 -0.2561E-10 -0.3540E-13 -0.2561E-10 -0.3540E-13 -0.6281E-13 -0.3195E-16 -0.6281E-13 -0.3195E-16 -0.2272E-12 -0.2311E-15 -0.6281E-13 -0.3195E-16 -0.2272E-12 -0.2311E-15
     -3.050 -0.3037E-05 -0.3247E-07 -0.5308E-08 -0.3168E-10 -0.5308E-08 -0.3168E-10 -0.5308E-08 -0.3168E-10 -0.2456E-10 -0.5610E-13 -0.2456E-10 -0.5610E-13 -0.4325E-10 -0.1973E-12 -0.2456E-10 -0.5610E-13 -0.4325E-10 -0.1973E-12
     -2.876 -0.7665E-04 -0.3494E-05 -0.2360E-06 -0.6219E-08 -0.2360E-06 -0.6219E-08 -0.2360E-06 -0.6219E-08 -0.1974E-08 -0.2084E-10 -0.1974E-08 -0.2084E-10 -0.1696E-08 -0.3547E-10 -0.1974E-08 -0.2084E-10 -0.1696E-08 -0.3547E-10
     -2.701 -0.2194E-03 -0.8300E-04 -0.1797E-05 -0.2612E-06 -0.1797E-05 -0.2612E-06 -0.1797E-05 -0.2612E-06 -0.2914E-07 -0.1587E-08 -0.2914E-07 -0.1587E-08 -0.1531E-07 -0.1307E-08 -0.2914E-07 -0.1587E-08 -0.1531E-07 -0.1307E-08
     -2.527  0.2349E-02 -0.2027E-03  0.4178E-05 -0.1836E-05  0.4178E-05 -0.1836E-05  0.4178E-05 -0.1836E-05 -0.3686E-07 -0.2191E-07 -0.3686E-07 -0.2191E-07 -0.7493E-07 -0.1098E-07 -0.3686E-07 -0.2191E-07 -0.7493E-07 -0.1098E-07
     -2.353  0.8326E-02  0.2530E-02  0.4473E-04  0.4917E-05  0.4473E-04  0.4917E-05  0.4473E-04  0.4917E-05  0.4403E-06 -0.2015E-07  0.4403E-06 -0.2015E-07  0.3827E-06 -0.5060E-07  0.4403E-06 -0.2015E-07  0.3827E-06 -0.5060E-07
     -2.178  0.1442E-01  0.8455E-02  0.1650E-03  0.4687E-04  0.1650E-03  0.4687E-04  0.1650E-03  0.4687E-04  0.3619E-05  0.3477E-06  0.3619E-05  0.3477E-06  0.3408E-05  0.2993E-06  0.3619E-05  0.3477E-06  0.3408E-05  0.2993E-06
     -2.004  0.1631E-01  0.1448E-01  0.2582E-03  0.1688E-03  0.2582E-03  0.1688E-03  0.2582E-03  0.1688E-03  0.1011E-04  0.2655E-05  0.1011E-04  0.2655E-05  0.5051E-05  0.2418E-05  0.1011E-04  0.2655E-05  0.5051E-05  0.2418E-05
     -1.830  0.1955E-01  0.1609E-01  0.4660E-03  0.2578E-03  0.4660E-03  0.2578E-03  0.4660E-03  0.2578E-03  0.2241E-04  0.7134E-05  0.2241E-04  0.7134E-05  0.2103E-04  0.3410E-05  0.2241E-04  0.7134E-05  0.2103E-04  0.3410E-05
     -1.655  0.2380E-01  0.1932E-01  0.6863E-03  0.4658E-03  0.6863E-03  0.4658E-03  0.6863E-03  0.4658E-03  0.4155E-04  0.1555E-04  0.4155E-04  0.1555E-04  0.3955E-04  0.1396E-04  0.4155E-04  0.1555E-04  0.3955E-04  0.1396E-04
     -1.481  0.2393E-01  0.2337E-01  0.8402E-03  0.6785E-03  0.8402E-03  0.6785E-03  0.8402E-03  0.6785E-03  0.8354E-04  0.2745E-04  0.8354E-04  0.2745E-04  0.4232E-04  0.2591E-04  0.8354E-04  0.2745E-04  0.4232E-04  0.2591E-04
     -1.307  0.2337E-01  0.2357E-01  0.9915E-03  0.8368E-03  0.9915E-03  0.8368E-03  0.9915E-03  0.8368E-03  0.9595E-04  0.5576E-04  0.9595E-04  0.5576E-04  0.8991E-04  0.2666E-04  0.9595E-04  0.5576E-04  0.8991E-04  0.2666E-04
     -1.132  0.3289E-01  0.2235E-01  0.1629E-02  0.9477E-03  0.1629E-02  0.9477E-03  0.1629E-02  0.9477E-03  0.1929E-03  0.6095E-04  0.1929E-03  0.6095E-04  0.1948E-03  0.5225E-04  0.1929E-03  0.6095E-04  0.1948E-03  0.5225E-04
     -0.958  0.3179E-01  0.3133E-01  0.1736E-02  0.1563E-02  0.1736E-02  0.1563E-02  0.1736E-02  0.1563E-02  0.2757E-03  0.1160E-03  0.2757E-03  0.1160E-03  0.1961E-03  0.1156E-03  0.2757E-03  0.1160E-03  0.1961E-03  0.1156E-03
     -0.784  0.2562E-01  0.3197E-01  0.1597E-02  0.1765E-02  0.1597E-02  0.1765E-02  0.1597E-02  0.1765E-02  0.3381E-03  0.1738E-03  0.3381E-03  0.1738E-03  0.1960E-03  0.1243E-03  0.3381E-03  0.1738E-03  0.1960E-03  0.1243E-03
     -0.609  0.3695E-01  0.2379E-01  0.2626E-02  0.1473E-02  0.2626E-02  0.1473E-02  0.2626E-02  0.1473E-02  0.5465E-03  0.1884E-03  0.5465E-03  0.1884E-03  0.5442E-03  0.9287E-04  0.5465E-03  0.1884E-03  0.5442E-03  0.9287E-04
     -0.435  0.4064E-01  0.3282E-01  0.3163E-02  0.2352E-02  0.3163E-02  0.2352E-02  0.3163E-02  0.2352E-02  0.7165E-03  0.3045E-03  0.7165E-03  0.3045E-03  0.7273E-03  0.2640E-03  0.7165E-03  0.3045E-03  0.7273E-03  0.2640E-03
     -0.260  0.3544E-01  0.3948E-01  0.2968E-02  0.3078E-02  0.2968E-02  0.3078E-02  0.2968E-02  0.3078E-02  0.1008E-02  0.3987E-03  0.1008E-02  0.3987E-03  0.7468E-03  0.3969E-03  0.1008E-02  0.3987E-03  0.7468E-03  0.3969E-03
     -0.086  0.3761E-01  0.3393E-01  0.3454E-02  0.2867E-02  0.3454E-02  0.2867E-02  0.3454E-02  0.2867E-02  0.1461E-02  0.4682E-03  0.1461E-02  0.4682E-03  0.9386E-03  0.3848E-03  0.1461E-02  0.4682E-03  0.9386E-03  0.3848E-03
      0.088  0.4237E-01  0.3283E-01  0.4348E-02  0.3045E-02  0.4348E-02  0.3045E-02  0.4348E-02  0.3045E-02  0.1713E-02  0.7253E-03  0.1713E-02  0.7253E-03  0.1796E-02  0.4008E-03  0.1713E-02  0.7253E-03  0.1796E-02  0.4008E-03
      0.263  0.4974E-01  0.3789E-01  0.5473E-02  0.3813E-02  0.5473E-02  0.3813E-02  0.5473E-02  0.3813E-02  0.2743E-02  0.8531E-03  0.2743E-02  0.8531E-03  0.2784E-02  0.6143E-03  0.2743E-02  0.8531E-03  0.2784E-02  0.6143E-03
      0.437  0.4902E-01  0.3836E-01  0.5646E-02  0.4291E-02  0.5646E-02  0.4291E-02  0.5646E-02  0.4291E-02  0.3951E-02  0.8826E-03  0.3951E-02  0.8826E-03  0.2946E-02  0.1039E-02  0.3951E-02  0.8826E-03  0.2946E-02  0.1039E-02
      0.611  0.4482E-01  0.4683E-01  0.5465E-02  0.5525E-02  0.5465E-02  0.5525E-02  0.5465E-02  0.5525E-02  0.5010E-02  0.1595E-02  0.5010E-02  0.1595E-02  0.3802E-02  0.1331E-02  0.5010E-02  0.1595E-02  0.3802E-02  0.1331E-02
      0.786  0.6242E-01  0.4175E-01  0.8394E-02  0.5203E-02  0.8394E-02  0.5203E-02  0.8394E-02  0.5203E-02  0.8945E-02  0.1816E-02  0.8945E-02  0.1816E-02  0.7792E-02  0.1209E-02  0.8945E-02  0.1816E-02  0.7792E-02  0.1209E-02
      0.960  0.8123E-01  0.3364E-01  0.9815E-02  0.4483E-02  0.9815E-02  0.4483E-02  0.9815E-02  0.4483E-02  0.2657E-01  0.1900E-02  0.2657E-01  0.1900E-02  0.2508E-01  0.1287E-02  0.2657E-01  0.1900E-02  0.2508E-01  0.1287E-02
      1.134  0.9041E-01  0.4978E-01  0.1010E-01  0.7263E-02  0.1010E-01  0.7263E-02  0.1010E-01  0.7263E-02  0.4918E-01  0.3167E-02  0.4918E-01  0.3167E-02  0.6344E-01  0.2648E-02  0.4918E-01  0.3167E-02  0.6344E-01  0.2648E-02
      1.309  0.8970E-01  0.5056E-01  0.1286E-01  0.7850E-02  0.1286E-01  0.7850E-02  0.1286E-01  0.7850E-02  0.5477E-01  0.3417E-02  0.5477E-01  0.3417E-02  0.1067E+00  0.3476E-02  0.5477E-01  0.3417E-02  0.1067E+00  0.3476E-02
      1.483  0.8523E-01  0.4795E-01  0.1575E-01  0.7726E-02  0.1575E-01  0.7726E-02  0.1575E-01  0.7726E-02  0.6116E-01  0.4786E-02  0.6116E-01  0.4786E-02  0.1491E+00  0.3850E-02  0.6116E-01  0.4786E-02  0.1491E+00  0.3850E-02
      1.657  0.7560E-01  0.5028E-01  0.2011E-01  0.8334E-02  0.2011E-01  0.8334E-02  0.2011E-01  0.8334E-02  0.6485E-01  0.6703E-02  0.6485E-01  0.6703E-02  0.2195E+00  0.4255E-02  0.6485E-01  0.6703E-02  0.2195E+00  0.4255E-02
      1.832  0.6375E-01  0.4888E-01  0.2118E-01  0.8493E-02  0.2118E-01  0.8493E-02  0.2118E-01  0.8493E-02  0.7238E-01  0.8008E-02  0.7238E-01  0.8008E-02  0.2242E+00  0.6506E-02  0.7238E-01  0.8008E-02  0.2242E+00  0.6506E-02
      2.006  0.3457E-01  0.6300E-01  0.1314E-01  0.1184E-01  0.1314E-01  0.1184E-01  0.1314E-01  0.1184E-01  0.6842E-01  0.1244E-01  0.6842E-01  0.1244E-01  0.1399E+00  0.1094E-01  0.6842E-01  0.1244E-01  0.1399E+00  0.1094E-01
      2.181  0.1989E-01  0.7089E-01  0.9705E-02  0.1216E-01  0.9705E-02  0.1216E-01  0.9705E-02  0.1216E-01  0.6309E-01  0.2220E-01  0.6309E-01  0.2220E-01  0.1010E+00  0.1751E-01  0.6309E-01  0.2220E-01  0.1010E+00  0.1751E-01
      2.355  0.7078E-02  0.7424E-01  0.8842E-02  0.1120E-01  0.8842E-02  0.1120E-01  0.8842E-02  0.1120E-01  0.6202E-01  0.3555E-01  0.6202E-01  0.3555E-01  0.9021E-01  0.2538E-01  0.6202E-01  0.3555E-01  0.9021E-01  0.2538E-01
      2.529  0.2664E-02  0.7276E-01  0.1869E-01  0.1301E-01  0.1869E-01  0.1301E-01  0.1869E-01  0.1301E-01  0.2433E+00  0.3821E-01  0.2433E+00  0.3821E-01  0.1359E+00  0.3024E-01  0.2433E+00  0.3821E-01  0.1359E+00  0.3024E-01
      2.704  0.4253E-02  0.7022E-01  0.2106E-01  0.1476E-01  0.2106E-01  0.1476E-01  0.2106E-01  0.1476E-01  0.3328E+00  0.4093E-01  0.3328E+00  0.4093E-01  0.1505E+00  0.3621E-01  0.3328E+00  0.4093E-01  0.1505E+00  0.3621E-01
      2.878  0.6785E-02  0.6032E-01  0.1578E-01  0.1408E-01  0.1578E-01  0.1408E-01  0.1578E-01  0.1408E-01  0.2450E+00  0.4172E-01  0.2450E+00  0.4172E-01  0.1222E+00  0.4548E-01  0.2450E+00  0.4172E-01  0.1222E+00  0.4548E-01
      3.052  0.1007E-01  0.5324E-01  0.1987E-01  0.1657E-01  0.1987E-01  0.1657E-01  0.1987E-01  0.1657E-01  0.2230E+00  0.4400E-01  0.2230E+00  0.4400E-01  0.9512E-01  0.9089E-01  0.2230E+00  0.4400E-01  0.9512E-01  0.9089E-01
      3.227  0.1561E-01  0.4872E-01  0.3056E-01  0.1999E-01  0.3056E-01  0.1999E-01  0.3056E-01  0.1999E-01  0.2702E+00  0.4661E-01  0.2702E+00  0.4661E-01  0.1183E+00  0.1401E+00  0.2702E+00  0.4661E-01  0.1183E+00  0.1401E+00
      3.401  0.1969E-01  0.3668E-01  0.3408E-01  0.1846E-01  0.3408E-01  0.1846E-01  0.3408E-01  0.1846E-01  0.3191E+00  0.5131E-01  0.3191E+00  0.5131E-01  0.1339E+00  0.1454E+00  0.3191E+00  0.5131E-01  0.1339E+00  0.1454E+00
      3.575  0.1535E-01  0.2276E-01  0.2521E-01  0.1292E-01  0.2521E-01  0.1292E-01  0.2521E-01  0.1292E-01  0.2537E+00  0.5027E-01  0.2537E+00  0.5027E-01  0.9684E-01  0.1046E+00  0.2537E+00  0.5027E-01  0.9684E-01  0.1046E+00
      3.750  0.9353E-02  0.1019E-01  0.1684E-01  0.8904E-02  0.1684E-01  0.8904E-02  0.1684E-01  0.8904E-02  0.1299E+00  0.3292E-01  0.1299E+00  0.3292E-01  0.4880E-01  0.7198E-01  0.1299E+00  0.3292E-01  0.4880E-01  0.7198E-01