    2    2  100    2
  0.1173411E+02  0.2863035E-09  0.2863035E-09  0.2863035E-09  0.5000000E-15
  1.000000000000000E-004
  CAR 
 unknown system                          
     16    165     20
 
  0.0000000E+00  0.0000000E+00  0.0000000E+00  0.2441406E-03
    1       -2.590501     -2.422578   1.000000   1.000000
    2        0.997898      2.815495   1.000000   1.000000
    3        0.997898      2.815636   1.000000   1.000000
    4        3.564095      5.458969   1.000000   1.006786
    5        3.564096      5.459102   1.000000   1.006801
    6        3.564096      5.459113   1.000000   1.006802
    7        4.779561      7.528444   1.000000  -0.000000
    8        4.779562      7.528608   1.000000  -0.000000
    9        5.999811      8.167856   0.057025  -0.000000
   10        5.999813      8.167980   0.057021  -0.000000
   11        5.999813      8.167992   0.057021  -0.000000
   12       15.837615     16.107365   0.000000   0.000000
   13       15.837615     16.107366   0.000000   0.000000
   14       15.837615     16.107369   0.000000   0.000000
   15       21.566409     22.627075   0.000000   0.000000
   16       21.566411     22.627088   0.000000   0.000000
   17       26.734657     27.837459   0.000000   0.000000
   18       30.937153     30.688452   0.000000   0.000000
   19       30.937153     30.688452   0.000000   0.000000
   20       30.937153     30.688452   0.000000   0.000000
 
  0.6250000E-01  0.0000000E+00  0.0000000E+00  0.1464844E-02
    1       -2.508973     -2.340707   1.000000   1.000000
    2        1.032895      2.845345   1.000000   1.000000
    3        1.034485      2.857123   1.000000   1.000000
    4        3.563362      5.455206   1.000000   1.006367
    5        3.563363      5.455350   1.000000   1.006382
    6        3.586480      5.483745   1.000000   1.010084
    7        4.743052      7.480904   1.000000  -0.000000
    8        4.794011      7.546831   1.000000  -0.000000
    9        5.930687      8.076619   0.251912  -0.000000
   10        5.930689      8.076754   0.251905  -0.000000
   11        5.975697      8.140905   0.111837  -0.000000
   12       15.240591     15.615380   0.000000   0.000000
   13       15.992600     16.285170   0.000000   0.000000
   14       15.992600     16.285171   0.000000   0.000000
   15       21.590107     22.643451   0.000000   0.000000
   16       22.020646     22.991957   0.000000   0.000000
   17       26.997241     28.087193   0.000000   0.000000
   18       30.371971     30.197841   0.000000   0.000000
   19       30.868117     30.653833   0.000000   0.000000
   20       30.868117     30.653834   0.000000   0.000000
 
  0.1250000E+00  0.0000000E+00  0.0000000E+00  0.1464844E-02
    1       -2.267220     -2.097467   1.000000   1.000000
    2        1.136368      2.924745   1.000000   1.000000
    3        1.137945      2.980144   1.000000   1.000000
    4        3.563130      5.446357   1.000000   1.005461
    5        3.563131      5.446500   1.000000   1.005474
    6        3.652894      5.556887   1.000000   1.024912
    7        4.634752      7.339910   1.000000  -0.000000
    8        4.836288      7.599337   1.000000  -0.000000
    9        5.737832      7.827940   0.943326  -0.000000
   10        5.737833      7.828073   0.943322  -0.000000
   11        5.903619      8.059971   0.355558  -0.000000
   12       13.896143     14.460085   0.000000   0.000000
   13       16.441377     16.791573   0.000000   0.000000
   14       16.441377     16.791575   0.000000   0.000000
   15       21.661265     22.693143   0.000000   0.000000
   16       22.854080     23.697149   0.000000   0.000000
   17       27.873116     28.914813   0.000000   0.000000
   18       29.206356     29.152105   0.000000   0.000000
   19       30.569327     30.477916   0.000000   0.000000
   20       30.569327     30.477918   0.000000   0.000000
 
  0.1875000E+00  0.0000000E+00  0.0000000E+00  0.1464844E-02
    1       -1.874168     -1.700174   1.000000   1.000000
    2        1.290560      3.025819   1.000000   1.000000
    3        1.305205      3.181543   1.000000   1.000000
    4        3.569677      5.440447   1.000000   1.004915
    5        3.569679      5.440589   1.000000   1.004927
    6        3.761126      5.676184   1.000000   1.020930
    7        4.458395      7.111003   1.000000  -0.000000
    8        4.905162      7.480956   1.000000  -0.000000
    9        5.459011      7.481087   1.006791  -0.000000
   10        5.459012      7.681278   1.006791  -0.000000
   11        5.786872      7.928979   0.816868  -0.000000
   12       12.320993     13.081496   0.000000   0.000000
   13       17.144193     17.565346   0.000000   0.000000
   14       17.144194     17.565350   0.000000   0.000000
   15       21.784037     22.780117   0.000000   0.000000
   16       23.500377     24.262332   0.000000   0.000000
   17       27.956219     28.015175   0.000000   0.000000
   18       29.434757     29.986304   0.000000   0.000000
   19       29.862441     29.986309   0.000000   0.000000
   20       29.862442     30.394482   0.000000   0.000000
 
  0.2500000E+00  0.0000000E+00  0.0000000E+00  0.1464844E-02
    1       -1.346831     -1.162116   1.000000   1.000000
    2        1.460845      3.098372   1.000000   1.000000
    3        1.533941      3.455701   1.000000   1.000000
    4        3.590758      5.447100   1.000000   1.005533
    5        3.590759      5.447241   1.000000   1.005546
    6        3.907505      5.837681   1.000000   0.630373
    7        4.219970      6.802660   1.000000  -0.000000
    8        4.999337      7.094946   1.000000  -0.000000
    9        5.137077      7.095077   1.000001  -0.000000
   10        5.137079      7.753537   1.000001  -0.000000
   11        5.630375      7.783744   1.035292  -0.000000
   12       10.738206     11.720262  -0.000000   0.000000
   13       18.054084     18.542704   0.000000   0.000000
   14       18.054084     18.542708   0.000000   0.000000
   15       21.964382     22.910480   0.000000   0.000000
   16       23.924988     24.623577   0.000000   0.000000
   17       26.786384     26.956567   0.000000   0.000000
   18       28.741776     29.080973   0.000000   0.000000
   19       28.741777     29.080979   0.000000   0.000000
   20       30.603886     31.034322   0.000000   0.000000
 
  0.3125000E+00  0.1232595E-31  0.0000000E+00  0.1464844E-02
    1       -0.713659     -0.503794   1.000000   1.000000
    2        1.604383      3.072695   1.000000   1.000000
    3        1.814955      3.794750   1.000000   1.000000
    4        3.636713      5.479410   1.000000   1.009437
    5        3.636714      5.479549   1.000000   1.009458
    6        3.928922      6.035990   1.000000   0.001442
    7        4.087004      6.428522   1.000000  -0.000276
    8        4.809373      6.715291   1.000000  -0.000000
    9        4.809374      6.715421   1.000000  -0.000000
   10        5.125897      7.541313   1.000001  -0.000000
   11        5.440752      7.900744   1.004942  -0.000000
   12        9.252624     10.512196  -0.000000  -0.000000
   13       19.128534     19.672704   0.000000   0.000000
   14       19.128534     19.672708   0.000000   0.000000
   15       22.210802     23.092947   0.000000   0.000000
   16       24.277198     24.908746   0.000000   0.000000
   17       25.746685     26.029444   0.000000   0.000000
   18       27.383158     27.866332   0.000000   0.000000
   19       27.383159     27.866339   0.000000   0.000000
   20       29.152496     29.571756   0.000000   0.000000
 
  0.3750000E+00  0.0000000E+00  0.0000000E+00  0.1464844E-02
    1       -0.021984      0.243661   1.000000   1.000000
    2        1.656944      2.867195   1.000000   1.000000
    3        2.138394      4.188061   1.000000   1.000000
    4        3.596490      5.549417   1.000000   1.023183
    5        3.717141      5.549555   1.000000   1.023215
    6        3.717142      6.004420   1.000000   0.048211
    7        4.293319      6.264295   1.000000  -0.008607
    8        4.502558      6.370533   1.000000  -0.001117
    9        4.502560      6.370664   1.000000  -0.001113
   10        5.225840      7.301231   1.000027  -0.000000
   11        5.308671      8.033755   1.000272  -0.000000
   12        7.939006      9.549667  -0.000000  -0.000000
   13       20.333017     20.917788   0.000000   0.000000
   14       20.333018     20.917791   0.000000   0.000000
   15       22.533779     23.338667   0.000000   0.000000
   16       24.673832     25.236614   0.000000   0.000000
   17       24.848502     25.244898   0.000000   0.000000
   18       25.931325     26.495317   0.000000   0.000000
   19       25.931326     26.495322   0.000000   0.000000
   20       27.864262     28.278623   0.000000   0.000000
 
  0.4375000E+00  0.1232595E-31  0.0000000E+00  0.1464844E-02
    1        0.651925      1.032713   1.000000   1.000000
    2        1.543014      2.432665   1.000000   1.000000
    3        2.492398      4.622449   1.000000   1.000000
    4        3.236227      5.548933   1.000000   1.023071
    5        3.840340      5.667805   1.000000   1.025691
    6        3.840341      5.667941   1.000000   1.025623
    7        4.233526      6.076871   1.000000  -0.028780
    8        4.233527      6.077004   1.000000  -0.028833
    9        4.519041      6.514531   1.000000  -0.000025
   10        4.994370      7.043093   1.000000  -0.000000
   11        5.602051      8.201902   1.033872  -0.000000
   12        6.868833      8.875156  -0.000000  -0.000000
   13       21.639421     22.248814   0.000000   0.000000
   14       21.639422     22.248815   0.000000   0.000000
   15       22.945654     23.661122   0.000000   0.000000
   16       24.089021     24.597609   0.000000   0.000000
   17       24.464260     25.068186   0.000000   0.000000
   18       24.464261     25.068190   0.000000   0.000000
   19       25.192093     25.692549   0.000000   0.000000
   20       26.769770     27.193749   0.000000   0.000000
 
  0.5000000E+00  0.0000000E+00  0.0000000E+00  0.7324219E-03
    1        1.203706      1.793062   1.000000   1.000000
    2        1.203706      1.793062   1.000000   1.000000
    3        2.863470      5.082265   1.000000   1.000000
    4        2.863470      5.082265   1.000000   1.000000
    5        4.012037      5.842597   1.000000   0.610280
    6        4.012037      5.842597   1.000000   0.610280
    7        4.012039      5.842731   1.000000   0.609730
    8        4.012039      5.842731   1.000000   0.609730
    9        4.755873      6.777699   1.000000  -0.000000
   10        4.755873      6.777699   1.000000  -0.000000
   11        6.094573      8.454899  -0.033830  -0.000000
   12        6.094573      8.454899  -0.033830  -0.000000
   13       23.024670     23.641335   0.000000   0.000000
   14       23.024670     23.641335   0.000000   0.000000
   15       23.024671     23.641336   0.000000   0.000000
   16       23.024671     23.641336   0.000000   0.000000
   17       23.460096     24.075718   0.000000   0.000000
   18       23.460096     24.075718   0.000000   0.000000
   19       25.881532     26.334136   0.000000   0.000000
   20       25.881532     26.334136   0.000000   0.000000
 
  0.6250000E-01  0.6250000E-01  0.0000000E+00  0.2929688E-02
    1       -2.427983     -2.259296   1.000000   1.000000
    2        1.067212      2.882000   1.000000   1.000000
    3        1.070890      2.890711   1.000000   1.000000
    4        3.519574      5.405522   1.000000   1.002522
    5        3.560720      5.449535   1.000000   1.005774
    6        3.651726      5.554357   1.000000   1.024327
    7        4.735310      7.469630   1.000000  -0.000000
    8        4.783149      7.532558   1.000000  -0.000000
    9        5.806649      7.926120   0.749829  -0.000000
   10        5.861171      7.985190   0.532722  -0.000000
   11        6.010299      8.179664   0.037726  -0.000000
   12       15.255408     15.666628   0.000000   0.000000
   13       15.520332     15.903651   0.000000   0.000000
   14       16.143331     16.455961   0.000000   0.000000
   15       21.824220     22.828972   0.000000   0.000000
   16       22.297281     23.218217   0.000000   0.000000
   17       27.240434     28.320565   0.000000   0.000000
   18       29.874374     29.791241   0.000000   0.000000
   19       30.697978     30.500951   0.000000   0.000000
   20       30.822835     30.634319   0.000000   0.000000
 
  0.1250000E+00  0.6250000E-01  0.0000000E+00  0.5859375E-02
    1       -2.187909     -2.017460   1.000000   1.000000
    2        1.166779      2.964821   1.000000   1.000000
    3        1.176636      3.008527   1.000000   1.000000
    4        3.484151      5.359816   1.000000   1.000943
    5        3.554925      5.435201   1.000000   1.004468
    6        3.752743      5.664091   1.000000   1.027451
    7        4.645126      7.349892   1.000000  -0.000000
    8        4.817646      7.574995   1.000000  -0.000000
    9        5.578947      7.644873   1.029819  -0.000000
   10        5.669142      7.738735   1.025007  -0.000000
   11        5.984486      8.149031   0.090160  -0.000000
   12       14.001297     14.587132   0.000000   0.000000
   13       15.842558     16.295729   0.000000   0.000000
   14       16.580988     16.945031   0.000000   0.000000
   15       21.975303     22.944443   0.000000   0.000000
   16       23.137699     23.937611   0.000000   0.000000
   17       28.062853     28.753558   0.000000   0.000000
   18       28.707464     29.102386   0.000000   0.000000
   19       30.313966     30.223866   0.000000   0.000000
   20       30.586652     30.500673   0.000000   0.000000
 
  0.1875000E+00  0.6250000E-01  0.0000000E+00  0.5859375E-02
    1       -1.798080     -1.622781   1.000000   1.000000
    2        1.320918      3.066753   1.000000   1.000000
    3        1.340610      3.204920   1.000000   1.000000
    4        3.467338      5.330437   1.000000   1.000470
    5        3.551146      5.419537   1.000000   1.003326
    6        3.883140      5.806034   1.000000   0.752035
    7        4.484999      7.136815   1.000000  -0.000000
    8        4.887526      7.291522   1.000000  -0.000000
    9        5.287738      7.398777   1.000157  -0.000000
   10        5.393407      7.658590   1.001967  -0.000000
   11        5.895120      8.045871   0.390145  -0.000000
   12       12.423834     13.200802   0.000000   0.000000
   13       16.492641     17.018828   0.000000   0.000000
   14       17.269197     17.697844   0.000000   0.000000
   15       22.130831     23.059092   0.000000   0.000000
   16       23.857978     24.576237   0.000000   0.000000
   17       27.405560     27.571957   0.000000   0.000000
   18       29.551795     29.643667   0.000000   0.000000
   19       29.565522     30.054550   0.000000   0.000000
   20       29.933535     30.528402   0.000000   0.000000
 
  0.2500000E+00  0.6250000E-01  0.0000000E+00  0.5859375E-02
    1       -1.275886     -1.088647   1.000000   1.000000
    2        1.493570      3.139394   1.000000   1.000000
    3        1.561607      3.471553   1.000000   1.000000
    4        3.472964      5.322249   1.000000   1.000384
    5        3.553044      5.411624   1.000000   1.002849
    6        4.043134      5.981023   1.000000   0.098468
    7        4.274850      6.851346   1.000000  -0.000000
    8        4.965044      6.910188   1.000000  -0.000000
    9        4.983262      7.029241   1.000000  -0.000000
   10        5.079382      7.764181   1.000000  -0.000000
   11        5.755418      7.886812   0.904878  -0.000000
   12       10.835886     11.827433  -0.000000   0.000000
   13       17.327026     17.921840   0.000000   0.000000
   14       18.164083     18.655455   0.000000   0.000000
   15       22.347113     23.220436   0.000000   0.000000
   16       24.355182     25.013164   0.000000   0.000000
   17       26.142358     26.429900   0.000000   0.000000
   18       28.458562     28.709883   0.000000   0.000000
   19       28.823797     29.165057   0.000000   0.000000
   20       31.549899     31.957963   0.000000   0.000000
 
  0.3125000E+00  0.6250000E-01  0.0000000E+00  0.5859375E-02
    1       -0.650578     -0.435906   1.000000   1.000000
    2        1.635439      3.110675   1.000000   1.000000
    3        1.834238      3.799323   1.000000   1.000000
    4        3.508128      5.344526   1.000000   1.000660
    5        3.545657      5.416273   1.000000   1.003122
    6        4.049314      6.187203   1.000000  -0.023461
    7        4.230731      6.514960   1.000000  -0.000024
    8        4.641451      6.538417   1.000000  -0.000012
    9        4.767102      6.679827   1.000000  -0.000000
   10        5.111154      7.684441   1.000001  -0.000000
   11        5.576237      7.884136   1.029250  -0.000000
   12        9.342067     10.600692  -0.000000  -0.000000
   13       18.293759     18.943720   0.000000   0.000000
   14       19.224973     19.768981   0.000000   0.000000
   15       22.642140     23.445844   0.000000   0.000000
   16       24.779459     25.362902   0.000000   0.000000
   17       24.951328     25.376726   0.000000   0.000000
   18       27.244990     27.591130   0.000000   0.000000
   19       27.458631     27.944994   0.000000   0.000000
   20       30.130241     30.556847   0.000000   0.000000
 
  0.3750000E+00  0.6250000E-01  0.0000000E+00  0.5859375E-02
    1        0.029806      0.303997   1.000000   1.000000
    2        1.683895      2.901634   1.000000   1.000000
    3        2.147152      4.175621   1.000000   1.000000
    4        3.440310      5.407063   1.000000   1.002602
    5        3.580417      5.415648   1.000000   1.003084
    6        3.915654      6.172360   1.000000  -0.026876
    7        4.340374      6.201613   1.000000  -0.020163
    8        4.441335      6.381201   1.000000  -0.000876
    9        4.486971      6.419548   1.000000  -0.000347
   10        5.297439      7.450837   1.000203  -0.000000
   11        5.368196      8.020432   1.001140  -0.000000
   12        8.014325      9.611018  -0.000000  -0.000000
   13       19.349127     20.035600   0.000000   0.000000
   14       20.418060     21.001187   0.000000   0.000000
   15       23.034578     23.755398   0.000000   0.000000
   16       23.814940     24.345650   0.000000   0.000000
   17       25.258224     25.796152   0.000000   0.000000
   18       26.001015     26.482297   0.000000   0.000000
   19       26.078150     26.566468   0.000000   0.000000
   20       28.814227     29.248606   0.000000   0.000000
 
  0.4375000E+00  0.6250000E-01  0.0000000E+00  0.5859375E-02
    1        0.689803      1.083686   1.000000   1.000000
    2        1.566107      2.467392   1.000000   1.000000
    3        2.486944      4.582004   1.000000   1.000000
    4        3.173016      5.305238   1.000000   1.000249
    5        3.696845      5.519130   1.000000   1.016470
    6        3.952940      5.915651   1.000000   0.308088
    7        4.077818      5.954230   1.000000   0.172838
    8        4.256797      6.144427   1.000000  -0.032560
    9        4.668680      6.671291   1.000000  -0.000000
   10        5.141088      7.196850   1.000002  -0.000000
   11        5.602221      8.194743   1.033894  -0.000000
   12        6.921248      8.905692  -0.000000  -0.000000
   13       20.455096     21.154733   0.000000   0.000000
   14       21.716005     22.323291   0.000000   0.000000
   15       22.699492     23.325764   0.000000   0.000000
   16       23.548027     24.177243   0.000000   0.000000
   17       24.532510     25.135999   0.000000   0.000000
   18       25.054007     25.515667   0.000000   0.000000
   19       25.871109     26.359987   0.000000   0.000000
   20       27.647927     28.088809   0.000000   0.000000
 
  0.5000000E+00  0.6250000E-01  0.0000000E+00  0.2929688E-02
    1        1.229895      1.834307   1.000000   1.000000
    2        1.229895      1.834307   1.000000   1.000000
    3        2.837117      4.986275   1.000000   1.000000
    4        2.837117      4.986275   1.000000   1.000000
    5        3.862185      5.687595   1.000000   1.012520
    6        3.862185      5.687595   1.000000   1.012520
    7        4.078876      5.980504   1.000000   0.099740
    8        4.078876      5.980504   1.000000   0.099740
    9        4.904679      6.933394   1.000000  -0.000000
   10        4.904679      6.933394   1.000000  -0.000000
   11        6.118124      8.461150  -0.035390  -0.000000
   12        6.118124      8.461150  -0.035390  -0.000000
   13       21.579165     22.261621   0.000000   0.000000
   14       21.579165     22.261621   0.000000   0.000000
   15       23.094900     23.710032   0.000000   0.000000
   16       23.094900     23.710032   0.000000   0.000000
   17       24.212316     24.750563   0.000000   0.000000
   18       24.212316     24.750563   0.000000   0.000000
   19       26.662918     27.119533   0.000000   0.000000
   20       26.662918     27.119533   0.000000   0.000000
 
  0.1250000E+00  0.1250000E+00  0.0000000E+00  0.2929688E-02
    1       -1.953342     -1.780162   1.000000   1.000000
    2        1.253936      3.080715   1.000000   1.000000
    3        1.289243      3.086711   1.000000   1.000000
    4        3.394161      5.254989   1.000000   1.000063
    5        3.533840      5.405260   1.000000   1.002509
    6        3.906367      5.831776   1.000000   0.654164
    7        4.641097      7.315307   1.000000  -0.000000
    8        4.794907      7.332879   1.000000  -0.000000
    9        5.300995      7.501624   1.000223  -0.000000
   10        5.480877      7.546174   1.009653  -0.000000
   11        6.039493      8.212193  -0.002374  -0.000000
   12       13.983425     14.631334   0.000000   0.000000
   13       14.861540     15.484039   0.000000   0.000000
   14       16.989012     17.389773   0.000000   0.000000
   15       22.304398     23.210382   0.000000   0.000000
   16       24.019154     24.709367   0.000000   0.000000
   17       27.518385     27.717549   0.000000   0.000000
   18       28.721778     29.744482   0.000000   0.000000
   19       29.848475     29.793194   0.000000   0.000000
   20       30.547653     30.499605   0.000000   0.000000
 
  0.1875000E+00  0.1250000E+00  0.0000000E+00  0.5859375E-02
    1       -1.573675     -1.393485   1.000000   1.000000
    2        1.388738      3.180221   1.000000   1.000000
    3        1.462046      3.272228   1.000000   1.000000
    4        3.327693      5.172592   1.000000   1.000005
    5        3.507731      5.365824   1.000000   1.001081
    6        4.082786      6.024282   1.000000   0.016112
    7        4.547213      6.937811   1.000000  -0.000000
    8        4.843163      7.186435   1.000000  -0.000000
    9        4.979231      7.195055   1.000000  -0.000000
   10        5.217071      7.602999   1.000020  -0.000000
   11        6.022220      8.191020   0.019013  -0.000000
   12       12.659579     13.470529   0.000000   0.000000
   13       15.178391     15.879800   0.000000   0.000000
   14       17.637389     18.086890   0.000000   0.000000
   15       22.511526     23.367548   0.000000   0.000000
   16       24.950864     25.555710   0.000000   0.000000
   17       26.139128     26.463003   0.000000   0.000000
   18       29.120866     29.166414   0.000000   0.000000
   19       30.016404     30.228825   0.000000   0.000000
   20       30.120301     30.985607   0.000000   0.000000
 
  0.2500000E+00  0.1250000E+00  0.0000000E+00  0.5859375E-02
    1       -1.068238     -0.871745   1.000000   1.000000
    2        1.547168      3.243648   1.000000   1.000000
    3        1.679611      3.523865   1.000000   1.000000
    4        3.291400      5.120754   1.000000   1.000001
    5        3.479346      5.325988   1.000000   1.000421
    6        4.279145      6.238901   1.000000  -0.012586
    7        4.399601      6.551820   1.000000  -0.000008
    8        4.644047      6.866779   1.000000  -0.000000
    9        4.928697      6.972481   1.000000  -0.000000
   10        4.938218      7.710113   1.000000  -0.000000
   11        5.939159      8.094032   0.222104  -0.000000
   12       11.085558     12.093192  -0.000000   0.000000
   13       15.901342     16.656865   0.000000   0.000000
   14       18.490284     18.989949   0.000000   0.000000
   15       22.730793     23.528205   0.000000   0.000000
   16       24.763724     25.199612   0.000000   0.000000
   17       25.652855     26.208183   0.000000   0.000000
   18       28.142552     28.296689   0.000000   0.000000
   19       29.067306     29.413091   0.000000   0.000000
   20       31.914454     32.804820   0.000000   0.000000
 
  0.3125000E+00  0.1250000E+00  0.0000000E+00  0.5859375E-02
    1       -0.469016     -0.236911   1.000000   1.000000
    2        1.679917      3.200881   1.000000   1.000000
    3        1.932770      3.826453   1.000000   1.000000
    4        3.291881      5.107545   1.000000   1.000001
    5        3.431047      5.285703   1.000000   1.000148
    6        4.254541      6.186124   1.000000  -0.023710
    7        4.320044      6.473185   1.000000  -0.000083
    8        4.492799      6.601332   1.000000  -0.000001
    9        4.662519      6.713006   1.000000  -0.000000
   10        5.067923      7.836185   1.000000  -0.000000
   11        5.802162      7.936336   0.765755  -0.000000
   12        9.577605     10.826811  -0.000000  -0.000000
   13       16.765241     17.555550   0.000000   0.000000
   14       19.512185     20.056257   0.000000   0.000000
   15       23.006922     23.733346   0.000000   0.000000
   16       23.440690     23.979970   0.000000   0.000000
   17       26.242720     26.757964   0.000000   0.000000
   18       27.077860     27.317131   0.000000   0.000000
   19       27.681269     28.177650   0.000000   0.000000
   20       31.871951     32.289462   0.000000   0.000000
 
  0.3750000E+00  0.1250000E+00  0.0000000E+00  0.5859375E-02
    1        0.173230      0.478447   1.000000   1.000000
    2        1.717835      2.980202   1.000000   1.000000
    3        2.217067      4.164495   1.000000   1.000000
    4        3.315559      5.141651   1.000000   1.000002
    5        3.335949      5.222772   1.000000   1.000024
    6        4.026284      5.861288   1.000000   0.532229
    7        4.174624      6.419666   1.000000  -0.000346
    8        4.454599      6.467627   1.000000  -0.000097
    9        4.719891      6.723433   1.000000  -0.000000
   10        5.263427      7.733301   1.000080  -0.000000
   11        5.623826      7.980756   1.035458  -0.000000
   12        8.216117      9.771751  -0.000000  -0.000000
   13       17.721790     18.524250   0.000000   0.000000
   14       20.672125     21.250855   0.000000   0.000000
   15       22.179338     22.809357   0.000000   0.000000
   16       23.366185     24.010702   0.000000   0.000000
   17       26.063820     26.375237   0.000000   0.000000
   18       26.206311     26.776244   0.000000   0.000000
   19       26.861083     27.339389   0.000000   0.000000
   20       30.620422     31.038102   0.000000   0.000000
 
  0.4375000E+00  0.1250000E+00  0.0000000E+00  0.5859375E-02
    1        0.784830      1.226926   1.000000   1.000000
    2        1.596363      2.551436   1.000000   1.000000
    3        2.521132      4.514367   1.000000   1.000000
    4        3.103991      5.085498   1.000000   1.000000
    5        3.429225      5.230339   1.000000   1.000031
    6        3.775553      5.590006   1.000000   1.031971
    7        4.182514      6.305076   1.000000  -0.004270
    8        4.318755      6.312290   1.000000  -0.003730
    9        4.954450      6.983160   1.000000  -0.000000
   10        5.415888      7.498634   1.003099  -0.000000
   11        5.602257      8.171886   1.033899  -0.000000
   12        7.065466      8.987525  -0.000000  -0.000000
   13       18.748375     19.539644   0.000000   0.000000
   14       20.977977     21.681713   0.000000   0.000000
   15       21.943859     22.545403   0.000000   0.000000
   16       23.832650     24.388992   0.000000   0.000000
   17       24.733953     25.336341   0.000000   0.000000
   18       25.172055     25.557934   0.000000   0.000000
   19       27.586846     28.035606   0.000000   0.000000
   20       29.470174     29.890550   0.000000   0.000000
 
  0.5000000E+00  0.1250000E+00  0.0000000E+00  0.2929688E-02
    1        1.280499      1.943776   1.000000   1.000000
    2        1.280499      1.943776   1.000000   1.000000
    3        2.825931      4.838755   1.000000   1.000000
    4        2.825931      4.838755   1.000000   1.000000
    5        3.575437      5.378964   1.000000   1.001445
    6        3.575437      5.378964   1.000000   1.001445
    7        4.236513      6.264341   1.000000  -0.008601
    8        4.236513      6.264341   1.000000  -0.008601
    9        5.189298      7.244696   1.000008  -0.000000
   10        5.189298      7.244696   1.000008  -0.000000
   11        6.185750      8.476440  -0.023797  -0.000000
   12        6.185750      8.476440  -0.023797  -0.000000
   13       19.834661     20.592558   0.000000   0.000000
   14       19.834661     20.592558   0.000000   0.000000
   15       23.304673     23.915255   0.000000   0.000000
   16       23.304673     23.915255   0.000000   0.000000
   17       24.428688     24.897031   0.000000   0.000000
   18       24.428688     24.897031   0.000000   0.000000
   19       28.454211     28.883840   0.000000   0.000000
   20       28.454211     28.883840   0.000000   0.000000
 
  0.1875000E+00  0.1875000E+00  0.0000000E+00  0.2929688E-02
    1       -1.213435     -1.021376   1.000000   1.000000
    2        1.486555      3.299075   1.000000   1.000000
    3        1.652171      3.412437   1.000000   1.000000
    4        3.210723      5.036120   1.000000   1.000000
    5        3.461342      5.297219   1.000000   1.000202
    6        4.303101      6.265994   1.000000  -0.008378