       N       E                     dE             d eps       ncg     rms          rms(c)
DAV:   1     0.648033752709E+02    0.64803E+02   -0.60630E+03 14640   0.822E+02
DAV:   2    -0.133142160700E+02   -0.78118E+02   -0.69187E+02 13408   0.168E+02
DAV:   3    -0.160649621300E+02   -0.27507E+01   -0.26835E+01 15024   0.400E+01
DAV:   4    -0.160862515196E+02   -0.21289E-01   -0.21284E-01 14360   0.334E+00
DAV:   5    -0.160865104050E+02   -0.25889E-03   -0.25888E-03 14688   0.350E-01    0.196E+01
DAV:   6    -0.165675892294E+02   -0.48108E+00   -0.51763E+00 14620   0.439E+01    0.613E+00
DAV:   7    -0.165083498752E+02    0.59239E-01   -0.37721E-01 15648   0.945E+00    0.438E+00
DAV:   8    -0.164914940373E+02    0.16856E-01   -0.99871E-03 17156   0.105E+00    0.161E+00
DAV:   9    -0.164801402526E+02    0.11354E-01   -0.30482E-03 19552   0.983E-01    0.423E-01
DAV:  10    -0.164797332877E+02    0.40696E-03   -0.15619E-03 15720   0.628E-01    0.621E-02
DAV:  11    -0.164797661404E+02   -0.32853E-04   -0.78781E-05 15836   0.727E-02    0.511E-02
DAV:  12    -0.164797518167E+02    0.14324E-04   -0.19609E-06 13232   0.128E-02    0.222E-02
DAV:  13    -0.164797520874E+02   -0.27067E-06   -0.14670E-06 11012   0.112E-02
   1 F= -.16479752E+02 E0= -.16479795E+02  d E =-.164798E+02  mag=     4.4711
       N       E                     dE             d eps       ncg     rms          rms(c)
DAV:   1    -0.172291737676E+02   -0.74942E+00   -0.70353E+00 14476   0.439E+01    0.826E+00
DAV:   2    -0.165312203632E+02    0.69795E+00   -0.13020E+00 14420   0.254E+01    0.670E+00
DAV:   3    -0.164968538914E+02    0.34366E-01   -0.92770E-02 15648   0.551E+00    0.235E+00
DAV:   4    -0.164893092301E+02    0.75447E-02   -0.52271E-03 16520   0.821E-01    0.544E-01
DAV:   5    -0.164833514016E+02    0.59578E-02   -0.39099E-03 15972   0.503E-01    0.894E-02
DAV:   6    -0.164834632972E+02   -0.11190E-03   -0.29083E-04 14512   0.173E-01    0.493E-02
DAV:   7    -0.164834718353E+02   -0.85382E-05   -0.15242E-05 13812   0.433E-02    0.240E-02
DAV:   8    -0.164834681863E+02    0.36491E-05   -0.11374E-06 10672   0.144E-02    0.996E-03
DAV:   9    -0.164834671239E+02    0.10623E-05   -0.38923E-07  6876   0.958E-03    0.335E-03
DAV:  10    -0.164834670946E+02    0.29335E-07   -0.62642E-08  6800   0.268E-03
   2 F= -.16483467E+02 E0= -.16483368E+02  d E =-.371501E-02  mag=     4.2587
       N       E                     dE             d eps       ncg     rms          rms(c)
DAV:   1    -0.166622799361E+02   -0.17881E+00   -0.15429E+00 14412   0.215E+01    0.402E+00
DAV:   2    -0.165157929853E+02    0.14649E+00   -0.40574E-01 14512   0.127E+01    0.369E+00
DAV:   3    -0.165007532111E+02    0.15040E-01   -0.27832E-02 15480   0.326E+00    0.109E+00
DAV:   4    -0.164989740290E+02    0.17792E-02   -0.20531E-03 17600   0.576E-01    0.315E-01
DAV:   5    -0.164975955428E+02    0.13785E-02   -0.12068E-03 14644   0.314E-01    0.581E-02
DAV:   6    -0.164976182809E+02   -0.22738E-04   -0.41191E-05 15440   0.657E-02    0.226E-02
DAV:   7    -0.164976235064E+02   -0.52256E-05   -0.28146E-06 13884   0.178E-02    0.137E-02
DAV:   8    -0.164976265266E+02   -0.30201E-05   -0.58930E-07  8284   0.946E-03    0.355E-03
DAV:   9    -0.164976266325E+02   -0.10595E-06   -0.12635E-07  6684   0.357E-03
   3 F= -.16497627E+02 E0= -.16497354E+02  d E =-.178745E-01  mag=     4.3600
