PROCAR lm decomposed
# of k-points:  165         # of bands:   20         # of ions:    2

 k-point     1 :    0.00000000 0.00000000 0.00000000     weight = 0.00024414

band     1 # energy   -2.59050085 # occ.  1.00000000
 
ion      s     py     pz     px    dxy    dyz    dz2    dxz  x2-y2    tot
    1  0.368  0.000  0.000  0.000  0.000  0.000  0.000  0.000  0.000  0.368
    2  0.368  0.000  0.000  0.000  0.000  0.000  0.000  0.000  0.000  0.368
tot    0.735  0.000  0.000  0.000  0.000  0.000  0.000  0.000  0.000  0.735
 
band     2 # energy    0.99789821 # occ.  1.00000000
 
ion      s     py     pz     px    dxy    dyz    dz2    dxz  x2-y2    tot
    1  0.000  0.000  0.000  0.000  0.000  0.000  0.287  0.000  0.152  0.438
    2  0.000  0.000  0.000  0.000  0.000  0.000  0.287  0.000  0.152  0.438
tot    0.000  0.000  0.000  0.000  0.000  0.000  0.573  0.000  0.303  0.877
 
band     3 # energy    0.99789838 # occ.  1.00000000
 
ion      s     py     pz     px    dxy    dyz    dz2    dxz  x2-y2    tot
    1  0.000  0.000  0.000  0.000  0.000  0.000  0.152  0.000  0.287  0.438
    2  0.000  0.000  0.000  0.000  0.000  0.000  0.152  0.000  0.287  0.438
tot    0.000  0.000  0.000  0.000  0.000  0.000  0.303  0.000  0.573  0.877
 
band     4 # energy    3.56409540 # occ.  1.00000000
 
ion      s     py     pz     px    dxy    dyz    dz2    dxz  x2-y2    tot
    1  0.000  0.000  0.000  0.000  0.489  0.000  0.000  0.000  0.000  0.489
    2  0.000  0.000  0.000  0.000  0.489  0.000  0.000  0.000  0.000  0.489
tot    0.000  0.000  0.000  0.000  0.979  0.000  0.000  0.000  0.000  0.979
 
band     5 # energy    3.56409645 # occ.  1.00000000
 
ion      s     py     pz     px    dxy    dyz    dz2    dxz  x2-y2    tot
    1  0.000  0.000  0.000  0.000  0.000  0.001  0.000  0.488  0.000  0.489
    2  0.000  0.000  0.000  0.000  0.000  0.001  0.000  0.488  0.000  0.489
tot    0.000  0.000  0.000  0.000  0.000  0.002  0.000  0.977  0.000  0.979
 
band     6 # energy    3.56409647 # occ.  1.00000000
 
ion      s     py     pz     px    dxy    dyz    dz2    dxz  x2-y2    tot
    1  0.000  0.000  0.000  0.000  0.000  0.488  0.000  0.001  0.000  0.489
    2  0.000  0.000  0.000  0.000  0.000  0.488  0.000  0.001  0.000  0.489
tot    0.000  0.000  0.000  0.000  0.000  0.977  0.000  0.002  0.000  0.979
 
band     7 # energy    4.77956060 # occ.  1.00000000
 
ion      s     py     pz     px    dxy    dyz    dz2    dxz  x2-y2    tot
    1  0.000  0.000  0.000  0.000  0.000  0.000  0.483  0.000  0.003  0.485
    2  0.000  0.000  0.000  0.000  0.000  0.000  0.483  0.000  0.003  0.485
tot    0.000  0.000  0.000  0.000  0.000  0.000  0.965  0.000  0.005  0.970
 
band     8 # energy    4.77956179 # occ.  1.00000000
 
ion      s     py     pz     px    dxy    dyz    dz2    dxz  x2-y2    tot
    1  0.000  0.000  0.000  0.000  0.000  0.000  0.003  0.000  0.483  0.485
    2  0.000  0.000  0.000  0.000  0.000  0.000  0.003  0.000  0.483  0.485
tot    0.000  0.000  0.000  0.000  0.000  0.000  0.005  0.000  0.965  0.970
 
band     9 # energy    5.99981101 # occ.  0.05702496
 
ion      s     py     pz     px    dxy    dyz    dz2    dxz  x2-y2    tot
    1  0.000  0.000  0.000  0.000  0.494  0.000  0.000  0.000  0.000  0.494
    2  0.000  0.000  0.000  0.000  0.494  0.000  0.000  0.000  0.000  0.494
tot    0.000  0.000  0.000  0.000  0.988  0.000  0.000  0.000  0.000  0.988
 
band    10 # energy    5.99981287 # occ.  0.05702130
 
ion      s     py     pz     px    dxy    dyz    dz2    dxz  x2-y2    tot
    1  0.000  0.000  0.000  0.000  0.000  0.048  0.000  0.446  0.000  0.494
    2  0.000  0.000  0.000  0.000  0.000  0.048  0.000  0.446  0.000  0.494
tot    0.000  0.000  0.000  0.000  0.000  0.096  0.000  0.892  0.000  0.988
 
band    11 # energy    5.99981289 # occ.  0.05702126
 
ion      s     py     pz     px    dxy    dyz    dz2    dxz  x2-y2    tot
    1  0.000  0.000  0.000  0.000  0.000  0.446  0.000  0.048  0.000  0.494
    2  0.000  0.000  0.000  0.000  0.000  0.446  0.000  0.048  0.000  0.494
tot    0.000  0.000  0.000  0.000  0.000  0.892  0.000  0.096  0.000  0.988
 
band    12 # energy   15.83761491 # occ.  0.00000000
 
ion      s     py     pz     px    dxy    dyz    dz2    dxz  x2-y2    tot
    1  0.000  0.013  0.000  0.364  0.000  0.000  0.000  0.000  0.000  0.377
    2  0.000  0.013  0.000  0.364  0.000  0.000  0.000  0.000  0.000  0.377
tot    0.000  0.026  0.000  0.728  0.000  0.000  0.000  0.000  0.000  0.753
 
band    13 # energy   15.83761502 # occ.  0.00000000
 
ion      s     py     pz     px    dxy    dyz    dz2    dxz  x2-y2    tot
    1  0.000  0.364  0.000  0.013  0.000  0.000  0.000  0.000  0.000  0.377
    2  0.000  0.364  0.000  0.013  0.000  0.000  0.000  0.000  0.000  0.377
tot    0.000  0.728  0.000  0.026  0.000  0.000  0.000  0.000  0.000  0.753
 
band    14 # energy   15.83761512 # occ.  0.00000000
 
ion      s     py     pz     px    dxy    dyz    dz2    dxz  x2-y2    tot
    1  0.000  0.000  0.377  0.000  0.000  0.000  0.000  0.000  0.000  0.377
    2  0.000  0.000  0.377  0.000  0.000  0.000  0.000  0.000  0.000  0.377
tot    0.000  0.000  0.753  0.000  0.000  0.000  0.000  0.000  0.000  0.753
 
band    15 # energy   21.56640920 # occ.  0.00000000
 
ion      s     py     pz     px    dxy    dyz    dz2    dxz  x2-y2    tot
    1  0.000  0.000  0.000  0.000  0.000  0.000  0.477  0.000  0.000  0.477
    2  0.000  0.000  0.000  0.000  0.000  0.000  0.477  0.000  0.000  0.477
tot    0.000  0.000  0.000  0.000  0.000  0.000  0.953  0.000  0.000  0.953
 
band    16 # energy   21.56641112 # occ.  0.00000000
 
ion      s     py     pz     px    dxy    dyz    dz2    dxz  x2-y2    tot
    1  0.000  0.000  0.000  0.000  0.000  0.000  0.000  0.000  0.477  0.477
    2  0.000  0.000  0.000  0.000  0.000  0.000  0.000  0.000  0.477  0.477
tot    0.000  0.000  0.000  0.000  0.000  0.000  0.000  0.000  0.953  0.953
 
band    17 # energy   26.73465743 # occ.  0.00000000
 
ion      s     py     pz     px    dxy    dyz    dz2    dxz  x2-y2    tot
    1  0.391  0.000  0.000  0.000  0.000  0.000  0.000  0.000  0.000  0.391
    2  0.391  0.000  0.000  0.000  0.000  0.000  0.000  0.000  0.000  0.391
tot    0.782  0.000  0.000  0.000  0.000  0.000  0.000  0.000  0.000  0.782
 
band    18 # energy   30.93715341 # occ.  0.00000000
 
ion      s     py     pz     px    dxy    dyz    dz2    dxz  x2-y2    tot
    1  0.000  0.000  0.000  0.000  0.000  0.000  0.000  0.000  0.000  0.000
    2  0.000  0.000  0.000  0.000  0.000  0.000  0.000  0.000  0.000  0.000
tot    0.000  0.000  0.000  0.000  0.000  0.000  0.000  0.000  0.000  0.000
 
band    19 # energy   30.93715343 # occ.  0.00000000
 
ion      s     py     pz     px    dxy    dyz    dz2    dxz  x2-y2    tot
    1  0.000  0.000  0.000  0.000  0.000  0.000  0.000  0.000  0.000  0.000
    2  0.000  0.000  0.000  0.000  0.000  0.000  0.000  0.000  0.000  0.000
tot    0.000  0.000  0.000  0.000  0.000  0.000  0.000  0.000  0.000  0.000
 
band    20 # energy   30.93715343 # occ.  0.00000000
 
ion      s     py     pz     px    dxy    dyz    dz2    dxz  x2-y2    tot
    1  0.000  0.000  0.000  0.000  0.000  0.000  0.000  0.000  0.000  0.000
    2  0.000  0.000  0.000  0.000  0.000  0.000  0.000  0.000  0.000  0.000
tot    0.000  0.000  0.000  0.000  0.000  0.000  0.000  0.000  0.000  0.000
 

 k-point     2 :    0.06250000 0.00000000 0.00000000     weight = 0.00146484

band     1 # energy   -2.50897293 # occ.  1.00000000
 
ion      s     py     pz     px    dxy    dyz    dz2    dxz  x2-y2    tot
    1  0.365  0.000  0.000  0.003  0.000  0.000  0.000  0.000  0.000  0.368
    2  0.365  0.000  0.000  0.003  0.000  0.000  0.000  0.000  0.000  0.368
tot    0.730  0.000  0.000  0.006  0.000  0.000  0.000  0.000  0.000  0.736
 
band     2 # energy    1.03289507 # occ.  1.00000000
 
ion      s     py     pz     px    dxy    dyz    dz2    dxz  x2-y2    tot
    1  0.000  0.000  0.000  0.000  0.000  0.000  0.329  0.000  0.110  0.438
    2  0.000  0.000  0.000  0.000  0.000  0.000  0.329  0.000  0.110  0.438
tot    0.000  0.000  0.000  0.000  0.000  0.000  0.658  0.000  0.219  0.877
 
band     3 # energy    1.03448545 # occ.  1.00000000
 
ion      s     py     pz     px    dxy    dyz    dz2    dxz  x2-y2    tot
    1  0.000  0.000  0.000  0.002  0.000  0.000  0.109  0.000  0.327  0.438
    2  0.000  0.000  0.000  0.002  0.000  0.000  0.109  0.000  0.327  0.438
tot    0.000  0.000  0.000  0.004  0.000  0.000  0.218  0.000  0.654  0.876
 
band     4 # energy    3.56336199 # occ.  1.00000000
 
ion      s     py     pz     px    dxy    dyz    dz2    dxz  x2-y2    tot
    1  0.000  0.000  0.000  0.000  0.489  0.000  0.000  0.000  0.000  0.489
    2  0.000  0.000  0.000  0.000  0.489  0.000  0.000  0.000  0.000  0.489
tot    0.000  0.001  0.000  0.000  0.977  0.000  0.000  0.000  0.000  0.978
 
band     5 # energy    3.56336304 # occ.  1.00000000
 
ion      s     py     pz     px    dxy    dyz    dz2    dxz  x2-y2    tot
    1  0.000  0.000  0.000  0.000  0.000  0.000  0.000  0.489  0.000  0.489
    2  0.000  0.000  0.000  0.000  0.000  0.000  0.000  0.489  0.000  0.489
tot    0.000  0.000  0.001  0.000  0.000  0.000  0.000  0.977  0.000  0.978
 
band     6 # energy    3.58647998 # occ.  1.00000000
 
ion      s     py     pz     px    dxy    dyz    dz2    dxz  x2-y2    tot
    1  0.000  0.000  0.000  0.000  0.000  0.489  0.000  0.000  0.000  0.489
    2  0.000  0.000  0.000  0.000  0.000  0.489  0.000  0.000  0.000  0.489
tot    0.000  0.000  0.000  0.000  0.000  0.978  0.000  0.000  0.000  0.978
 
band     7 # energy    4.74305200 # occ.  1.00000000
 
ion      s     py     pz     px    dxy    dyz    dz2    dxz  x2-y2    tot
    1  0.000  0.000  0.000  0.000  0.000  0.000  0.363  0.000  0.121  0.484
    2  0.000  0.000  0.000  0.000  0.000  0.000  0.363  0.000  0.121  0.484
tot    0.000  0.000  0.000  0.000  0.000  0.000  0.727  0.000  0.242  0.969
 
band     8 # energy    4.79401130 # occ.  1.00000000
 
ion      s     py     pz     px    dxy    dyz    dz2    dxz  x2-y2    tot
    1  0.000  0.000  0.000  0.000  0.000  0.000  0.121  0.000  0.364  0.485
    2  0.000  0.000  0.000  0.000  0.000  0.000  0.121  0.000  0.364  0.485
tot    0.000  0.000  0.000  0.000  0.000  0.000  0.243  0.000  0.728  0.971
 
band     9 # energy    5.93068749 # occ.  0.25191165
 
ion      s     py     pz     px    dxy    dyz    dz2    dxz  x2-y2    tot
    1  0.000  0.002  0.000  0.000  0.491  0.000  0.000  0.000  0.000  0.493
    2  0.000  0.002  0.000  0.000  0.491  0.000  0.000  0.000  0.000  0.493
tot    0.000  0.004  0.000  0.000  0.982  0.000  0.000  0.000  0.000  0.986
 
band    10 # energy    5.93068932 # occ.  0.25190506
 
ion      s     py     pz     px    dxy    dyz    dz2    dxz  x2-y2    tot
    1  0.000  0.000  0.002  0.000  0.000  0.000  0.000  0.491  0.000  0.493
    2  0.000  0.000  0.002  0.000  0.000  0.000  0.000  0.491  0.000  0.493
tot    0.000  0.000  0.004  0.000  0.000  0.000  0.000  0.982  0.000  0.986
 
band    11 # energy    5.97569699 # occ.  0.11183733
 
ion      s     py     pz     px    dxy    dyz    dz2    dxz  x2-y2    tot
    1  0.000  0.000  0.000  0.000  0.000  0.494  0.000  0.000  0.000  0.494
    2  0.000  0.000  0.000  0.000  0.000  0.494  0.000  0.000  0.000  0.494
tot    0.000  0.000  0.000  0.000  0.000  0.987  0.000  0.000  0.000  0.987
 
band    12 # energy   15.24059063 # occ.  0.00000000
 
ion      s     py     pz     px    dxy    dyz    dz2    dxz  x2-y2    tot
    1  0.014  0.000  0.000  0.344  0.000  0.000  0.007  0.000  0.020  0.386
    2  0.014  0.000  0.000  0.344  0.000  0.000  0.007  0.000  0.020  0.386
tot    0.029  0.000  0.000  0.688  0.000  0.000  0.014  0.000  0.041  0.771
 
band    13 # energy   15.99260026 # occ.  0.00000000
 
ion      s     py     pz     px    dxy    dyz    dz2    dxz  x2-y2    tot
    1  0.000  0.373  0.000  0.000  0.006  0.000  0.000  0.000  0.000  0.379
    2  0.000  0.373  0.000  0.000  0.006  0.000  0.000  0.000  0.000  0.379
tot    0.000  0.746  0.000  0.000  0.012  0.000  0.000  0.000  0.000  0.759
 
band    14 # energy   15.99260040 # occ.  0.00000000
 
ion      s     py     pz     px    dxy    dyz    dz2    dxz  x2-y2    tot
    1  0.000  0.000  0.373  0.000  0.000  0.000  0.000  0.006  0.000  0.379
    2  0.000  0.000  0.373  0.000  0.000  0.000  0.000  0.006  0.000  0.379
tot    0.000  0.000  0.746  0.000  0.000  0.000  0.000  0.012  0.000  0.759
 
band    15 # energy   21.59010706 # occ.  0.00000000
 
ion      s     py     pz     px    dxy    dyz    dz2    dxz  x2-y2    tot
    1  0.000  0.000  0.000  0.000  0.000  0.000  0.356  0.000  0.119  0.475
    2  0.000  0.000  0.000  0.000  0.000  0.000  0.356  0.000  0.119  0.475
tot    0.000  0.000  0.000  0.000  0.000  0.000  0.712  0.000  0.237  0.950
 
band    16 # energy   22.02064581 # occ.  0.00000000
 
ion      s     py     pz     px    dxy    dyz    dz2    dxz  x2-y2    tot
    1  0.004  0.000  0.000  0.013  0.000  0.000  0.111  0.000  0.334  0.463
    2  0.004  0.000  0.000  0.013  0.000  0.000  0.111  0.000  0.334  0.463
tot    0.008  0.000  0.000  0.027  0.000  0.000  0.223  0.000  0.669  0.927
 
band    17 # energy   26.99724136 # occ.  0.00000000
 
ion      s     py     pz     px    dxy    dyz    dz2    dxz  x2-y2    tot
    1  0.372  0.000  0.000  0.018  0.000  0.000  0.000  0.000  0.001  0.392
    2  0.372  0.000  0.000  0.018  0.000  0.000  0.000  0.000  0.001  0.392
tot    0.744  0.000  0.000  0.036  0.000  0.000  0.001  0.000  0.003  0.783
 
band    18 # energy   30.37197127 # occ.  0.00000000
 
ion      s     py     pz     px    dxy    dyz    dz2    dxz  x2-y2    tot
    1  0.000  0.000  0.000  0.000  0.000  0.000  0.042  0.000  0.014  0.056
    2  0.000  0.000  0.000  0.000  0.000  0.000  0.042  0.000  0.014  0.056
tot    0.000  0.000  0.000  0.000  0.000  0.000  0.084  0.000  0.028  0.111
 
band    19 # energy   30.86811718 # occ.  0.00000000
 
ion      s     py     pz     px    dxy    dyz    dz2    dxz  x2-y2    tot
    1  0.000  0.001  0.000  0.000  0.032  0.000  0.000  0.000  0.000  0.033
    2  0.000  0.001  0.000  0.000  0.032  0.000  0.000  0.000  0.000  0.033
tot    0.000  0.002  0.000  0.000  0.064  0.000  0.000  0.000  0.000  0.065
 
band    20 # energy   30.86811727 # occ.  0.00000000
 
ion      s     py     pz     px    dxy    dyz    dz2    dxz  x2-y2    tot
    1  0.000  0.000  0.001  0.000  0.000  0.000  0.000  0.032  0.000  0.033
    2  0.000  0.000  0.001  0.000  0.000  0.000  0.000  0.032  0.000  0.033
tot    0.000  0.000  0.002  0.000  0.000  0.000  0.000  0.064  0.000  0.065
 

 k-point     3 :    0.12500000 0.00000000 0.00000000     weight = 0.00146484

band     1 # energy   -2.26721999 # occ.  1.00000000
 
ion      s     py     pz     px    dxy    dyz    dz2    dxz  x2-y2    tot
    1  0.356  0.000  0.000  0.012  0.000  0.000  0.000  0.000  0.000  0.368
    2  0.356  0.000  0.000  0.012  0.000  0.000  0.000  0.000  0.000  0.368
tot    0.712  0.000  0.000  0.023  0.000  0.000  0.000  0.000  0.000  0.736
 
band     2 # energy    1.13636835 # occ.  1.00000000
 
ion      s     py     pz     px    dxy    dyz    dz2    dxz  x2-y2    tot
    1  0.000  0.000  0.000  0.000  0.000  0.000  0.329  0.000  0.110  0.439
    2  0.000  0.000  0.000  0.000  0.000  0.000  0.329  0.000  0.110  0.439
tot    0.000  0.000  0.000  0.000  0.000  0.000  0.658  0.000  0.219  0.878
 
band     3 # energy    1.13794510 # occ.  1.00000000
 
ion      s     py     pz     px    dxy    dyz    dz2    dxz  x2-y2    tot
    1  0.000  0.000  0.000  0.009  0.000  0.000  0.107  0.000  0.322  0.438
    2  0.000  0.000  0.000  0.009  0.000  0.000  0.107  0.000  0.322  0.438
tot    0.001  0.000  0.000  0.017  0.000  0.000  0.214  0.000  0.643  0.875
 
band     4 # energy    3.56312984 # occ.  1.00000000
 
ion      s     py     pz     px    dxy    dyz    dz2    dxz  x2-y2    tot
    1  0.000  0.001  0.000  0.000  0.487  0.000  0.000  0.000  0.000  0.488
    2  0.000  0.001  0.000  0.000  0.487  0.000  0.000  0.000  0.000  0.488
tot    0.000  0.002  0.000  0.000  0.974  0.000  0.000  0.000  0.000  0.976
 
band     5 # energy    3.56313089 # occ.  1.00000000
 
ion      s     py     pz     px    dxy    dyz    dz2    dxz  x2-y2    tot
    1  0.000  0.000  0.001  0.000  0.000  0.000  0.000  0.487  0.000  0.488
    2  0.000  0.000  0.001  0.000  0.000  0.000  0.000  0.487  0.000  0.488
tot    0.000  0.000  0.002  0.000  0.000  0.000  0.000  0.974  0.000  0.976
 
band     6 # energy    3.65289389 # occ.  1.00000000
 
ion      s     py     pz     px    dxy    dyz    dz2    dxz  x2-y2    tot
    1  0.000  0.000  0.000  0.000  0.000  0.489  0.000  0.000  0.000  0.489
    2  0.000  0.000  0.000  0.000  0.000  0.489  0.000  0.000  0.000  0.489
tot    0.000  0.000  0.000  0.000  0.000  0.978  0.000  0.000  0.000  0.978
 
band     7 # energy    4.63475209 # occ.  1.00000000
 
ion      s     py     pz     px    dxy    dyz    dz2    dxz  x2-y2    tot
    1  0.000  0.000  0.000  0.000  0.000  0.000  0.362  0.000  0.121  0.482
    2  0.000  0.000  0.000  0.000  0.000  0.000  0.362  0.000  0.121  0.482
tot    0.000  0.000  0.000  0.000  0.000  0.000  0.723  0.000  0.241  0.964
 
band     8 # energy    4.83628821 # occ.  1.00000000
 
ion      s     py     pz     px    dxy    dyz    dz2    dxz  x2-y2    tot
    1  0.000  0.000  0.000  0.000  0.000  0.000  0.122  0.000  0.365  0.486
    2  0.000  0.000  0.000  0.000  0.000  0.000  0.122  0.000  0.365  0.486
tot    0.000  0.000  0.000  0.000  0.000  0.000  0.243  0.000  0.729  0.973
 
band     9 # energy    5.73783166 # occ.  0.94332552
 
ion      s     py     pz     px    dxy    dyz    dz2    dxz  x2-y2    tot
    1  0.000  0.007  0.000  0.000  0.483  0.000  0.000  0.000  0.000  0.490
    2  0.000  0.007  0.000  0.000  0.483  0.000  0.000  0.000  0.000  0.490
tot    0.000  0.013  0.000  0.000  0.967  0.000  0.000  0.000  0.000  0.980
 
band    10 # energy    5.73783340 # occ.  0.94332210
 
ion      s     py     pz     px    dxy    dyz    dz2    dxz  x2-y2    tot
    1  0.000  0.000  0.007  0.000  0.000  0.000  0.000  0.483  0.000  0.490
    2  0.000  0.000  0.007  0.000  0.000  0.000  0.000  0.483  0.000  0.490
tot    0.000  0.000  0.013  0.000  0.000  0.000  0.000  0.967  0.000  0.980
 
band    11 # energy    5.90361944 # occ.  0.35555807
 
ion      s     py     pz     px    dxy    dyz    dz2    dxz  x2-y2    tot
    1  0.000  0.000  0.000  0.000  0.000  0.493  0.000  0.000  0.000  0.493
    2  0.000  0.000  0.000  0.000  0.000  0.493  0.000  0.000  0.000  0.493
tot    0.000  0.000  0.000  0.000  0.000  0.986  0.000  0.000  0.000  0.986
 
band    12 # energy   13.89614273 # occ.  0.00000000
 
ion      s     py     pz     px    dxy    dyz    dz2    dxz  x2-y2    tot
    1  0.042  0.000  0.000  0.293  0.000  0.000  0.016  0.000  0.047  0.398
    2  0.042  0.000  0.000  0.293  0.000  0.000  0.016  0.000  0.047  0.398
tot    0.084  0.000  0.000  0.587  0.000  0.000  0.031  0.000  0.094  0.796
 
band    13 # energy   16.44137699 # occ.  0.00000000
 
ion      s     py     pz     px    dxy    dyz    dz2    dxz  x2-y2    tot
    1  0.000  0.363  0.000  0.000  0.023  0.000  0.000  0.000  0.000  0.386
    2  0.000  0.363  0.000  0.000  0.023  0.000  0.000  0.000  0.000  0.386
tot    0.000  0.726  0.000  0.000  0.046  0.000  0.000  0.000  0.000  0.772
 
band    14 # energy   16.44137723 # occ.  0.00000000
 
ion      s     py     pz     px    dxy    dyz    dz2    dxz  x2-y2    tot
    1  0.000  0.000  0.363  0.000  0.000  0.000  0.000  0.023  0.000  0.386
    2  0.000  0.000  0.363  0.000  0.000  0.000  0.000  0.023  0.000  0.386
tot    0.000  0.000  0.726  0.000  0.000  0.000  0.000  0.046  0.000  0.772
 
band    15 # energy   21.66126459 # occ.  0.00000000
 
ion      s     py     pz     px    dxy    dyz    dz2    dxz  x2-y2    tot
    1  0.000  0.000  0.000  0.000  0.000  0.000  0.352  0.000  0.117  0.470
    2  0.000  0.000  0.000  0.000  0.000  0.000  0.352  0.000  0.117  0.470
tot    0.000  0.000  0.000  0.000  0.000  0.000  0.704  0.000  0.235  0.939
 
band    16 # energy   22.85407974 # occ.  0.00000000
 
ion      s     py     pz     px    dxy    dyz    dz2    dxz  x2-y2    tot
    1  0.038  0.000  0.000  0.013  0.000  0.000  0.096  0.000  0.288  0.435
    2  0.038  0.000  0.000  0.013  0.000  0.000  0.096  0.000  0.288  0.435
tot    0.076  0.000  0.000  0.026  0.000  0.000  0.192  0.000  0.576  0.870
 
band    17 # energy   27.87311593 # occ.  0.00000000
 
ion      s     py     pz     px    dxy    dyz    dz2    dxz  x2-y2    tot
    1  0.308  0.000  0.000  0.065  0.000  0.000  0.006  0.000  0.018  0.397
    2  0.308  0.000  0.000  0.065  0.000  0.000  0.006  0.000  0.018  0.397
tot    0.616  0.000  0.000  0.130  0.000  0.000  0.012  0.000  0.036  0.794
 
band    18 # energy   29.20635574 # occ.  0.00000000
 
ion      s     py     pz     px    dxy    dyz    dz2    dxz  x2-y2    tot
    1  0.000  0.000  0.000  0.000  0.000  0.000  0.099  0.000  0.033  0.132
    2  0.000  0.000  0.000  0.000  0.000  0.000  0.099  0.000  0.033  0.132
tot    0.000  0.000  0.000  0.000  0.000  0.000  0.197  0.000  0.066  0.263
 
band    19 # energy   30.56932682 # occ.  0.00000000
 
ion      s     py     pz     px    dxy    dyz    dz2    dxz  x2-y2    tot
    1  0.000  0.012  0.000  0.000  0.126  0.000  0.000  0.000  0.000  0.138
    2  0.000  0.012  0.000  0.000  0.126  0.000  0.000  0.000  0.000  0.138
tot    0.000  0.024  0.000  0.000  0.252  0.000  0.000  0.000  0.000  0.277
 
band    20 # energy   30.56932713 # occ.  0.00000000
 
ion      s     py     pz     px    dxy    dyz    dz2    dxz  x2-y2    tot
    1  0.000  0.000  0.012  0.000  0.000  0.000  0.000  0.126  0.000  0.138
    2  0.000  0.000  0.012  0.000  0.000  0.000  0.000  0.126  0.000  0.138
tot    0.000  0.000  0.024  0.000  0.000  0.000  0.000  0.252  0.000  0.277
 

 k-point     4 :    0.18750000 0.00000000 0.00000000     weight = 0.00146484

band     1 # energy   -1.87416827 # occ.  1.00000000
 
ion      s     py     pz     px    dxy    dyz    dz2    dxz  x2-y2    tot
    1  0.341  0.000  0.000  0.025  0.000  0.000  0.000  0.000  0.001  0.368
    2  0.341  0.000  0.000  0.025  0.000  0.000  0.000  0.000  0.001  0.368
tot    0.683  0.000  0.000  0.051  0.000  0.000  0.001  0.000  0.003  0.737
 
band     2 # energy    1.29055964 # occ.  1.00000000
 
ion      s     py     pz     px    dxy    dyz    dz2    dxz  x2-y2    tot
    1  0.002  0.000  0.000  0.019  0.000  0.000  0.104  0.000  0.312  0.437
    2  0.002  0.000  0.000  0.019  0.000  0.000  0.104  0.000  0.312  0.437
tot    0.004  0.000  0.000  0.038  0.000  0.000  0.208  0.000  0.623  0.873
 
band     3 # energy    1.30520514 # occ.  1.00000000
 
ion      s     py     pz     px    dxy    dyz    dz2    dxz  x2-y2    tot
    1  0.000  0.000  0.000  0.000  0.000  0.000  0.330  0.000  0.110  0.440
    2  0.000  0.000  0.000  0.000  0.000  0.000  0.330  0.000  0.110  0.440
tot    0.000  0.000  0.000  0.000  0.000  0.000  0.660  0.000  0.220  0.880
 
band     4 # energy    3.56967746 # occ.  1.00000000
 
ion      s     py     pz     px    dxy    dyz    dz2    dxz  x2-y2    tot
    1  0.000  0.003  0.000  0.000  0.484  0.000  0.000  0.000  0.000  0.487
    2  0.000  0.003  0.000  0.000  0.484  0.000  0.000  0.000  0.000  0.487
tot    0.000  0.005  0.000  0.000  0.968  0.000  0.000  0.000  0.000  0.973
 
band     5 # energy    3.56967851 # occ.  1.00000000
 
ion      s     py     pz     px    dxy    dyz    dz2    dxz  x2-y2    tot
    1  0.000  0.000  0.003  0.000  0.000  0.000  0.000  0.484  0.000  0.487
    2  0.000  0.000  0.003  0.000  0.000  0.000  0.000  0.484  0.000  0.487
tot    0.000  0.000  0.005  0.000  0.000  0.000  0.000  0.968  0.000  0.973
 
band     6 # energy    3.76112569 # occ.  1.00000000
 
ion      s     py     pz     px    dxy    dyz    dz2    dxz  x2-y2    tot
    1  0.000  0.000  0.000  0.000  0.000  0.488  0.000  0.000  0.000  0.488
    2  0.000  0.000  0.000  0.000  0.000  0.488  0.000  0.000  0.000  0.488
tot    0.000  0.000  0.000  0.000  0.000  0.977  0.000  0.000  0.000  0.977
 
band     7 # energy    4.45839504 # occ.  1.00000000
 
ion      s     py     pz     px    dxy    dyz    dz2    dxz  x2-y2    tot
    1  0.000  0.000  0.000  0.000  0.000  0.000  0.359  0.000  0.120  0.479
    2  0.000  0.000  0.000  0.000  0.000  0.000  0.359  0.000  0.120  0.479
tot    0.000  0.000  0.000  0.000  0.000  0.000  0.718  0.000  0.239  0.957
 
band     8 # energy    4.90516235 # occ.  1.00000000
 
ion      s     py     pz     px    dxy    dyz    dz2    dxz  x2-y2    tot
    1  0.001  0.000  0.000  0.000  0.000  0.000  0.122  0.000  0.365  0.487
    2  0.001  0.000  0.000  0.000  0.000  0.000  0.122  0.000  0.365  0.487
tot    0.002  0.000  0.000  0.000  0.000  0.000  0.243  0.000  0.729  0.975
 
band     9 # energy    5.45901074 # occ.  1.00679070
 
ion      s     py     pz     px    dxy    dyz    dz2    dxz  x2-y2    tot
    1  0.000  0.012  0.000  0.000  0.475  0.000  0.000  0.000  0.000  0.486
    2  0.000  0.012  0.000  0.000  0.475  0.000  0.000  0.000  0.000  0.486
tot    0.000  0.024  0.000  0.000  0.949  0.000  0.000  0.000  0.000  0.973
 
band    10 # energy    5.45901236 # occ.  1.00679089
 
ion      s     py     pz     px    dxy    dyz    dz2    dxz  x2-y2    tot
    1  0.000  0.000  0.012  0.000  0.000  0.000  0.000  0.475  0.000  0.486
    2  0.000  0.000  0.012  0.000  0.000  0.000  0.000  0.475  0.000  0.486
tot    0.000  0.000  0.024  0.000  0.000  0.000  0.000  0.949  0.000  0.973
 
band    11 # energy    5.78687248 # occ.  0.81686786
 
ion      s     py     pz     px    dxy    dyz    dz2    dxz  x2-y2    tot
    1  0.000  0.000  0.000  0.000  0.000  0.492  0.000  0.000  0.000  0.492
    2  0.000  0.000  0.000  0.000  0.000  0.492  0.000  0.000  0.000  0.492
tot    0.000  0.000  0.000  0.000  0.000  0.984  0.000  0.000  0.000  0.984
 
band    12 # energy   12.32099251 # occ.  0.00000000
 
ion      s     py     pz     px    dxy    dyz    dz2    dxz  x2-y2    tot
    1  0.069  0.000  0.000  0.250  0.000  0.000  0.022  0.000  0.067  0.408
    2  0.069  0.000  0.000  0.250  0.000  0.000  0.022  0.000  0.067  0.408
tot    0.139  0.000  0.000  0.499  0.000  0.000  0.044  0.000  0.133  0.815
 
band    13 # energy   17.14419327 # occ.  0.00000000
 
ion      s     py     pz     px    dxy    dyz    dz2    dxz  x2-y2    tot
    1  0.000  0.349  0.000  0.000  0.047  0.000  0.000  0.000  0.000  0.396
    2  0.000  0.349  0.000  0.000  0.047  0.000  0.000  0.000  0.000  0.396
tot    0.000  0.698  0.000  0.000  0.094  0.000  0.000  0.000  0.000  0.793
 
band    14 # energy   17.14419364 # occ.  0.00000000
 
ion      s     py     pz     px    dxy    dyz    dz2    dxz  x2-y2    tot
    1  0.000  0.000  0.349  0.000  0.000  0.000  0.000  0.047  0.000  0.396
    2  0.000  0.000  0.349  0.000  0.000  0.000  0.000  0.047  0.000  0.396
tot    0.000  0.000  0.698  0.000  0.000  0.000  0.000  0.094  0.000  0.793
 
band    15 # energy   21.78403678 # occ.  0.00000000
 
ion      s     py     pz     px    dxy    dyz    dz2    dxz  x2-y2    tot
    1  0.000  0.000  0.000  0.000  0.000  0.000  0.346  0.000  0.115  0.461
    2  0.000  0.000  0.000  0.000  0.000  0.000  0.346  0.000  0.115  0.461
tot    0.000  0.000  0.000  0.000  0.000  0.000  0.691  0.000  0.230  0.922
 
band    16 # energy   23.50037695 # occ.  0.00000000
 
ion      s     py     pz     px    dxy    dyz    dz2    dxz  x2-y2    tot
    1  0.094  0.000  0.000  0.001  0.000  0.000  0.076  0.000  0.228  0.400
    2  0.094  0.000  0.000  0.001  0.000  0.000  0.076  0.000  0.228  0.400
tot    0.188  0.000  0.000  0.003  0.000  0.000  0.152  0.000  0.457  0.800
 
band    17 # energy   27.95621904 # occ.  0.00000000
 
ion      s     py     pz     px    dxy    dyz    dz2    dxz  x2-y2    tot
    1  0.000  0.000  0.000  0.000  0.000  0.000  0.142  0.000  0.047  0.189
    2  0.000  0.000  0.000  0.000  0.000  0.000  0.142  0.000  0.047  0.189
tot    0.000  0.000  0.000  0.000  0.000  0.000  0.283  0.000  0.094  0.377
 
band    18 # energy   29.43475691 # occ.  0.00000000
 
ion      s     py     pz     px    dxy    dyz    dz2    dxz  x2-y2    tot
    1  0.219  0.000  0.000  0.113  0.000  0.000  0.019  0.000  0.056  0.407
    2  0.219  0.000  0.000  0.113  0.000  0.000  0.019  0.000  0.056  0.407
tot    0.439  0.000  0.000  0.225  0.000  0.000  0.038  0.000  0.113  0.814
 
band    19 # energy   29.86244114 # occ.  0.00000000
 
ion      s     py     pz     px    dxy    dyz    dz2    dxz  x2-y2    tot
    1  0.000  0.050  0.000  0.000  0.238  0.000  0.000  0.000  0.000  0.287
    2  0.000  0.050  0.000  0.000  0.238  0.000  0.000  0.000  0.000  0.287
tot    0.000  0.099  0.000  0.000  0.476  0.000  0.000  0.000  0.000  0.575
 
band    20 # energy   29.86244175 # occ.  0.00000000
 
ion      s     py     pz     px    dxy    dyz    dz2    dxz  x2-y2    tot
    1  0.000  0.000  0.050  0.000  0.000  0.000  0.000  0.238  0.000  0.287
    2  0.000  0.000  0.050  0.000  0.000  0.000  0.000  0.238  0.000  0.287
tot    0.000  0.000  0.099  0.000  0.000  0.000  0.000  0.476  0.000  0.575
 

 k-point     5 :    0.25000000 0.00000000 0.00000000     weight = 0.00146484

band     1 # energy   -1.34683145 # occ.  1.00000000
 
ion      s     py     pz     px    dxy    dyz    dz2    dxz  x2-y2    tot
    1  0.320  0.000  0.000  0.043  0.000  0.000  0.001  0.000  0.004  0.369
    2  0.320  0.000  0.000  0.043  0.000  0.000  0.001  0.000  0.004  0.369
tot    0.640  0.000  0.000  0.087  0.000  0.000  0.003  0.000  0.009  0.738
 
band     2 # energy    1.46084513 # occ.  1.00000000
 
ion      s     py     pz     px    dxy    dyz    dz2    dxz  x2-y2    tot
    1  0.007  0.000  0.000  0.033  0.000  0.000  0.098  0.000  0.295  0.434
    2  0.007  0.000  0.000  0.033  0.000  0.000  0.098  0.000  0.295  0.434
tot    0.014  0.000  0.000  0.066  0.000  0.000  0.197  0.000  0.591  0.869
 
band     3 # energy    1.53394059 # occ.  1.00000000
 