<?xml version="1.0" encoding="ISO-8859-1"?>
<modeling>
 <generator>
  <i name="program" type="string">vasp </i>
  <i name="version" type="string">6.2.0  </i>
  <i name="subversion" type="string">18Jan21 (build Aug 12 2022 13:00:08) complex                          parallel </i>
  <i name="platform" type="string">LinuxIFC </i>
  <i name="date" type="string">2024 11 04 </i>
  <i name="time" type="string">04:31:43 </i>
 </generator>
 <incar>
  <i type="int" name="ISTART">     0</i>
  <i type="string" name="PREC">Accurate      (Accurate strictly avoids</i>
  <i type="logical" name="ADDGRID"> T  </i>
  <i type="int" name="ISPIN">     2</i>
  <i type="int" name="NELM">    90</i>
  <i type="int" name="NELMIN">     6</i>
  <i type="int" name="IBRION">     2</i>
  <i name="EDIFF">      0.00000100</i>
  <i name="EDIFFG">     -0.00200000</i>
  <i type="int" name="NSW">   100</i>
  <i type="int" name="ISIF">     3</i>
  <i type="int" name="ISYM">     2</i>
  <i name="ENCUT">    350.00000000</i>
  <v name="MAGMOM">      5.00000000      5.00000000</v>
  <i type="logical" name="LREAL"> F  </i>
  <i type="int" name="ISMEAR">     1</i>
  <i name="SIGMA">      0.20000000</i>
  <i name="KSPACING">      0.14000000</i>
  <i type="int" name="LMAXMIX">     4</i>
  <i type="int" name="LORBIT">    11</i>
  <i type="logical" name="LASPH"> T  </i>
  <i type="logical" name="GGA_COMPAT"> F  </i>
  <i type="int" name="VOSKOWN">     1</i>
 </incar>
 <primitive_cell>
  <structure name="primitive_cell" >
   <crystal>
    <varray name="basis" >
     <v>       1.43151775       1.43151775      -1.43151775 </v>
     <v>      -1.43151775       1.43151775       1.43151775 </v>
     <v>       1.43151775      -1.43151775       1.43151775 </v>
    </varray>
    <i name="volume">     11.73411129 </i>
    <varray name="rec_basis" >
     <v>       0.34927964       0.34927964       0.00000000 </v>
     <v>       0.00000000       0.34927964       0.34927964 </v>
     <v>       0.34927964      -0.00000000       0.34927964 </v>
    </varray>
   </crystal>
   <varray name="positions" >
    <v>       0.00000000       0.00000000       0.00000000 </v>
   </varray>
  </structure>
  <varray name="primitive_index" >
   <v type="int" >        1 </v>
  </varray>
 </primitive_cell>
 <kpoints>
  <generation param="Gamma">
   <v type="int" name="divisions">      16       16       16 </v>
   <v name="usershift">      0.00000000       0.00000000       0.00000000 </v>
   <v name="genvec1">      0.06250000       0.00000000       0.00000000 </v>
   <v name="genvec2">      0.00000000       0.06250000       0.00000000 </v>
   <v name="genvec3">     -0.00000000       0.00000000       0.06250000 </v>
   <v name="shift">      0.00000000       0.00000000       0.00000000 </v>
  </generation>
  <varray name="kpointlist" >
   <v>       0.00000000       0.00000000       0.00000000 </v>
   <v>       0.06250000       0.00000000       0.00000000 </v>
   <v>       0.12500000       0.00000000       0.00000000 </v>
   <v>       0.18750000       0.00000000       0.00000000 </v>
   <v>       0.25000000       0.00000000       0.00000000 </v>
   <v>       0.31250000       0.00000000       0.00000000 </v>
   <v>       0.37500000       0.00000000       0.00000000 </v>
   <v>       0.43750000       0.00000000       0.00000000 </v>
   <v>       0.50000000       0.00000000       0.00000000 </v>
   <v>       0.06250000       0.06250000       0.00000000 </v>
   <v>       0.12500000       0.06250000       0.00000000 </v>
   <v>       0.18750000       0.06250000       0.00000000 </v>
   <v>       0.25000000       0.06250000       0.00000000 </v>
   <v>       0.31250000       0.06250000       0.00000000 </v>
   <v>       0.37500000       0.06250000       0.00000000 </v>
   <v>       0.43750000       0.06250000       0.00000000 </v>
   <v>       0.50000000       0.06250000       0.00000000 </v>
   <v>       0.12500000       0.12500000       0.00000000 </v>
   <v>       0.18750000       0.12500000       0.00000000 </v>
   <v>       0.25000000       0.12500000       0.00000000 </v>
   <v>       0.31250000       0.12500000       0.00000000 </v>
   <v>       0.37500000       0.12500000       0.00000000 </v>
   <v>       0.43750000       0.12500000       0.00000000 </v>
   <v>       0.50000000       0.12500000       0.00000000 </v>
   <v>       0.18750000       0.18750000       0.00000000 </v>
   <v>       0.25000000       0.18750000       0.00000000 </v>
   <v>       0.31250000       0.18750000       0.00000000 </v>
   <v>       0.37500000       0.18750000       0.00000000 </v>
   <v>       0.43750000       0.18750000       0.00000000 </v>
   <v>       0.50000000       0.18750000       0.00000000 </v>
   <v>       0.25000000       0.25000000       0.00000000 </v>
   <v>       0.31250000       0.25000000       0.00000000 </v>
   <v>       0.37500000       0.25000000       0.00000000 </v>
   <v>       0.43750000       0.25000000       0.00000000 </v>
   <v>       0.50000000       0.25000000       0.00000000 </v>
   <v>       0.31250000       0.31250000       0.00000000 </v>
   <v>       0.37500000       0.31250000       0.00000000 </v>
   <v>       0.43750000       0.31250000       0.00000000 </v>
   <v>       0.50000000       0.31250000       0.00000000 </v>
   <v>       0.37500000       0.37500000       0.00000000 </v>
   <v>       0.43750000       0.37500000       0.00000000 </v>
   <v>       0.50000000       0.37500000       0.00000000 </v>
   <v>       0.43750000       0.43750000       0.00000000 </v>
   <v>       0.50000000       0.43750000       0.00000000 </v>
   <v>       0.50000000       0.50000000       0.00000000 </v>
   <v>       0.06250000       0.06250000       0.06250000 </v>
   <v>       0.12500000       0.06250000       0.06250000 </v>
   <v>       0.18750000       0.06250000       0.06250000 </v>
   <v>       0.25000000       0.06250000       0.06250000 </v>
   <v>       0.31250000       0.06250000       0.06250000 </v>
   <v>       0.37500000       0.06250000       0.06250000 </v>
   <v>       0.43750000       0.06250000       0.06250000 </v>
   <v>       0.50000000       0.06250000       0.06250000 </v>
   <v>       0.12500000       0.12500000       0.06250000 </v>
   <v>       0.18750000       0.12500000       0.06250000 </v>
   <v>       0.25000000       0.12500000       0.06250000 </v>
   <v>       0.31250000       0.12500000       0.06250000 </v>
   <v>       0.37500000       0.12500000       0.06250000 </v>
   <v>       0.43750000       0.12500000       0.06250000 </v>
   <v>       0.50000000       0.12500000       0.06250000 </v>
   <v>       0.18750000       0.18750000       0.06250000 </v>
   <v>       0.25000000       0.18750000       0.06250000 </v>
   <v>       0.31250000       0.18750000       0.06250000 </v>
   <v>       0.37500000       0.18750000       0.06250000 </v>
   <v>       0.43750000       0.18750000       0.06250000 </v>
   <v>       0.50000000       0.18750000       0.06250000 </v>
   <v>       0.25000000       0.25000000       0.06250000 </v>
   <v>       0.31250000       0.25000000       0.06250000 </v>
   <v>       0.37500000       0.25000000       0.06250000 </v>
   <v>       0.43750000       0.25000000       0.06250000 </v>
   <v>       0.50000000       0.25000000       0.06250000 </v>
   <v>       0.31250000       0.31250000       0.06250000 </v>
   <v>       0.37500000       0.31250000       0.06250000 </v>
   <v>       0.43750000       0.31250000       0.06250000 </v>
   <v>       0.50000000       0.31250000       0.06250000 </v>
   <v>       0.37500000       0.37500000       0.06250000 </v>
   <v>       0.43750000       0.37500000       0.06250000 </v>
   <v>       0.50000000       0.37500000       0.06250000 </v>
   <v>       0.43750000       0.43750000       0.06250000 </v>
   <v>       0.50000000       0.43750000       0.06250000 </v>
   <v>       0.50000000       0.50000000       0.06250000 </v>
   <v>       0.12500000       0.12500000       0.12500000 </v>
   <v>       0.18750000       0.12500000       0.12500000 </v>
   <v>       0.25000000       0.12500000       0.12500000 </v>
   <v>       0.31250000       0.12500000       0.12500000 </v>
   <v>       0.37500000       0.12500000       0.12500000 </v>
   <v>       0.43750000       0.12500000       0.12500000 </v>
   <v>       0.50000000       0.12500000       0.12500000 </v>
   <v>       0.18750000       0.18750000       0.12500000 </v>
   <v>       0.25000000       0.18750000       0.12500000 </v>
   <v>       0.31250000       0.18750000       0.12500000 </v>
   <v>       0.37500000       0.18750000       0.12500000 </v>
   <v>       0.43750000       0.18750000       0.12500000 </v>
   <v>       0.50000000       0.18750000       0.12500000 </v>
   <v>       0.25000000       0.25000000       0.12500000 </v>
   <v>       0.31250000       0.25000000       0.12500000 </v>
   <v>       0.37500000       0.25000000       0.12500000 </v>
   <v>       0.43750000       0.25000000       0.12500000 </v>
   <v>       0.50000000       0.25000000       0.12500000 </v>
   <v>       0.31250000       0.31250000       0.12500000 </v>
   <v>       0.37500000       0.31250000       0.12500000 </v>
   <v>       0.43750000       0.31250000       0.12500000 </v>
   <v>       0.50000000       0.31250000       0.12500000 </v>
   <v>       0.37500000       0.37500000       0.12500000 </v>
   <v>       0.43750000       0.37500000       0.12500000 </v>
   <v>       0.50000000       0.37500000       0.12500000 </v>
   <v>       0.43750000       0.43750000       0.12500000 </v>
   <v>       0.50000000       0.43750000       0.12500000 </v>
   <v>       0.50000000       0.50000000       0.12500000 </v>
   <v>       0.18750000       0.18750000       0.18750000 </v>
   <v>       0.25000000       0.18750000       0.18750000 </v>
   <v>       0.31250000       0.18750000       0.18750000 </v>
   <v>       0.37500000       0.18750000       0.18750000 </v>
   <v>       0.43750000       0.18750000       0.18750000 </v>
   <v>       0.50000000       0.18750000       0.18750000 </v>
   <v>       0.25000000       0.25000000       0.18750000 </v>
   <v>       0.31250000       0.25000000       0.18750000 </v>
   <v>       0.37500000       0.25000000       0.18750000 </v>
   <v>       0.43750000       0.25000000       0.18750000 </v>
   <v>       0.50000000       0.25000000       0.18750000 </v>
   <v>       0.31250000       0.31250000       0.18750000 </v>
   <v>       0.37500000       0.31250000       0.18750000 </v>
   <v>       0.43750000       0.31250000       0.18750000 </v>
   <v>       0.50000000       0.31250000       0.18750000 </v>
   <v>       0.37500000       0.37500000       0.18750000 </v>
   <v>       0.43750000       0.37500000       0.18750000 </v>
   <v>       0.50000000       0.37500000       0.18750000 </v>
   <v>       0.43750000       0.43750000       0.18750000 </v>
   <v>       0.50000000       0.43750000       0.18750000 </v>
   <v>       0.50000000       0.50000000       0.18750000 </v>
   <v>       0.25000000       0.25000000       0.25000000 </v>
   <v>       0.31250000       0.25000000       0.25000000 </v>
   <v>       0.37500000       0.25000000       0.25000000 </v>
   <v>       0.43750000       0.25000000       0.25000000 </v>
   <v>       0.50000000       0.25000000       0.25000000 </v>
   <v>       0.31250000       0.31250000       0.25000000 </v>
   <v>       0.37500000       0.31250000       0.25000000 </v>
   <v>       0.43750000       0.31250000       0.25000000 </v>
   <v>       0.50000000       0.31250000       0.25000000 </v>
   <v>       0.37500000       0.37500000       0.25000000 </v>
   <v>       0.43750000       0.37500000       0.25000000 </v>
   <v>       0.50000000       0.37500000       0.25000000 </v>
   <v>       0.43750000       0.43750000       0.25000000 </v>
   <v>       0.50000000       0.43750000       0.25000000 </v>
   <v>       0.50000000       0.50000000       0.25000000 </v>
   <v>       0.31250000       0.31250000       0.31250000 </v>
   <v>       0.37500000       0.31250000       0.31250000 </v>
   <v>       0.43750000       0.31250000       0.31250000 </v>
   <v>       0.50000000       0.31250000       0.31250000 </v>
   <v>       0.37500000       0.37500000       0.31250000 </v>
   <v>       0.43750000       0.37500000       0.31250000 </v>
   <v>       0.50000000       0.37500000       0.31250000 </v>
   <v>       0.43750000       0.43750000       0.31250000 </v>
   <v>       0.50000000       0.43750000       0.31250000 </v>
   <v>       0.50000000       0.50000000       0.31250000 </v>
   <v>       0.37500000       0.37500000       0.37500000 </v>
   <v>       0.43750000       0.37500000       0.37500000 </v>
   <v>       0.50000000       0.37500000       0.37500000 </v>
   <v>       0.43750000       0.43750000       0.37500000 </v>
   <v>       0.50000000       0.43750000       0.37500000 </v>
   <v>       0.50000000       0.50000000       0.37500000 </v>
   <v>       0.43750000       0.43750000       0.43750000 </v>
   <v>       0.50000000       0.43750000       0.43750000 </v>
   <v>       0.50000000       0.50000000       0.43750000 </v>
   <v>       0.50000000       0.50000000       0.50000000 </v>
  </varray>
  <varray name="weights" >
   <v>       0.00024414 </v>
   <v>       0.00146484 </v>
   <v>       0.00146484 </v>
   <v>       0.00146484 </v>
   <v>       0.00146484 </v>
   <v>       0.00146484 </v>
   <v>       0.00146484 </v>
   <v>       0.00146484 </v>
   <v>       0.00073242 </v>
   <v>       0.00292969 </v>
   <v>       0.00585938 </v>
   <v>       0.00585938 </v>
   <v>       0.00585938 </v>
   <v>       0.00585938 </v>
   <v>       0.00585938 </v>
   <v>       0.00585938 </v>
   <v>       0.00292969 </v>
   <v>       0.00292969 </v>
   <v>       0.00585938 </v>
   <v>       0.00585938 </v>
   <v>       0.00585938 </v>
   <v>       0.00585938 </v>
   <v>       0.00585938 </v>
   <v>       0.00292969 </v>
   <v>       0.00292969 </v>
   <v>       0.00585938 </v>
   <v>       0.00585938 </v>
   <v>       0.00585938 </v>
   <v>       0.00585938 </v>
   <v>       0.00292969 </v>
   <v>       0.00292969 </v>
   <v>       0.00585938 </v>
   <v>       0.00585938 </v>
   <v>       0.00585938 </v>
   <v>       0.00292969 </v>
   <v>       0.00292969 </v>
   <v>       0.00585938 </v>
   <v>       0.00585938 </v>
   <v>       0.00292969 </v>
   <v>       0.00292969 </v>
   <v>       0.00585938 </v>
   <v>       0.00292969 </v>
   <v>       0.00292969 </v>
   <v>       0.00292969 </v>
   <v>       0.00073242 </v>
   <v>       0.00195312 </v>
   <v>       0.00585938 </v>
   <v>       0.00585938 </v>
   <v>       0.00585938 </v>
   <v>       0.00585938 </v>
   <v>       0.00585938 </v>
   <v>       0.00585938 </v>
   <v>       0.00292969 </v>
   <v>       0.00585938 </v>
   <v>       0.01171875 </v>
   <v>       0.01171875 </v>
   <v>       0.01171875 </v>
   <v>       0.01171875 </v>
   <v>       0.01171875 </v>
   <v>       0.00585938 </v>
   <v>       0.00585938 </v>
   <v>       0.01171875 </v>
   <v>       0.01171875 </v>
   <v>       0.01171875 </v>
   <v>       0.01171875 </v>
   <v>       0.00585938 </v>
   <v>       0.00585938 </v>
   <v>       0.01171875 </v>
   <v>       0.01171875 </v>
   <v>       0.01171875 </v>
   <v>       0.00585938 </v>
   <v>       0.00585938 </v>
   <v>       0.01171875 </v>
   <v>       0.01171875 </v>
   <v>       0.00585938 </v>
   <v>       0.00585938 </v>
   <v>       0.01171875 </v>
   <v>       0.00585938 </v>
   <v>       0.00585938 </v>
   <v>       0.00585938 </v>
   <v>       0.00146484 </v>
   <v>       0.00195312 </v>
   <v>       0.00585938 </v>
   <v>       0.00585938 </v>
   <v>       0.00585938 </v>
   <v>       0.00585938 </v>
   <v>       0.00585938 </v>
   <v>       0.00292969 </v>
   <v>       0.00585938 </v>
   <v>       0.01171875 </v>
   <v>       0.01171875 </v>
   <v>       0.01171875 </v>
   <v>       0.01171875 </v>
   <v>       0.00585938 </v>
   <v>       0.00585938 </v>
   <v>       0.01171875 </v>
   <v>       0.01171875 </v>
   <v>       0.01171875 </v>
   <v>       0.00585938 </v>
   <v>       0.00585938 </v>
   <v>       0.01171875 </v>
   <v>       0.01171875 </v>
   <v>       0.00585938 </v>
   <v>       0.00585938 </v>
   <v>       0.01171875 </v>
   <v>       0.00585938 </v>
   <v>       0.00585938 </v>
   <v>       0.00585938 </v>
   <v>       0.00146484 </v>
   <v>       0.00195312 </v>
   <v>       0.00585938 </v>
   <v>       0.00585938 </v>
   <v>       0.00585938 </v>
   <v>       0.00585938 </v>
   <v>       0.00292969 </v>
   <v>       0.00585938 </v>
   <v>       0.01171875 </v>
   <v>       0.01171875 </v>
   <v>       0.01171875 </v>
   <v>       0.00585938 </v>
   <v>       0.00585938 </v>
   <v>       0.01171875 </v>
   <v>       0.01171875 </v>
   <v>       0.00585938 </v>
   <v>       0.00585938 </v>
   <v>       0.01171875 </v>
   <v>       0.00585938 </v>
   <v>       0.00585938 </v>
   <v>       0.00585938 </v>
   <v>       0.00146484 </v>
   <v>       0.00195312 </v>
   <v>       0.00585938 </v>
   <v>       0.00585938 </v>
   <v>       0.00585938 </v>
   <v>       0.00292969 </v>
   <v>       0.00585938 </v>
   <v>       0.01171875 </v>
   <v>       0.01171875 </v>
   <v>       0.00585938 </v>
   <v>       0.00585938 </v>
   <v>       0.01171875 </v>
   <v>       0.00585938 </v>
   <v>       0.00585938 </v>
   <v>       0.00585938 </v>
   <v>       0.00146484 </v>
   <v>       0.00195312 </v>
   <v>       0.00585938 </v>
   <v>       0.00585938 </v>
   <v>       0.00292969 </v>
   <v>       0.00585938 </v>
   <v>       0.01171875 </v>
   <v>       0.00585938 </v>
   <v>       0.00585938 </v>
   <v>       0.00585938 </v>
   <v>       0.00146484 </v>
   <v>       0.00195312 </v>
   <v>       0.00585938 </v>
   <v>       0.00292969 </v>
   <v>       0.00585938 </v>
   <v>       0.00585938 </v>
   <v>       0.00146484 </v>
   <v>       0.00195312 </v>
   <v>       0.00292969 </v>
   <v>       0.00146484 </v>
   <v>       0.00024414 </v>
  </varray>
 </kpoints>
 <parameters>
  <separator name="general" >
   <i type="string" name="SYSTEM">unknown system</i>
   <i type="logical" name="LCOMPAT"> F  </i>
  </separator>
  <separator name="electronic" >
   <i type="string" name="PREC">accura</i>
   <i name="ENMAX">    350.00000000</i>
   <i name="ENAUG">    511.36800000</i>
   <i name="EDIFF">      0.00000100</i>
   <i type="int" name="IALGO">    38</i>
   <i type="int" name="IWAVPR">    11</i>
   <i type="int" name="NBANDS">    20</i>
   <i type="int" name="NBANDSLOW">    -1</i>
   <i type="int" name="NBANDSHIGH">    -1</i>
   <i name="NELECT">     16.00000000</i>
   <i type="int" name="TURBO">     0</i>
   <i type="int" name="IRESTART">     0</i>
   <i type="int" name="NREBOOT">     0</i>
   <i type="int" name="NMIN">     0</i>
   <i name="EREF">      0.00000000</i>
   <separator name="electronic smearing" >
    <i type="int" name="ISMEAR">     1</i>
    <i name="SIGMA">      0.20000000</i>
    <i name="KSPACING">      0.14000000</i>
    <i type="logical" name="KGAMMA"> T  </i>
    <i type="logical" name="KBLOWUP"> T  </i>
   </separator>
   <separator name="electronic projectors" >
    <i type="logical" name="LREAL"> F  </i>
    <v name="ROPT">      0.00000000</v>
    <i type="int" name="LMAXPAW">  -100</i>
    <i type="int" name="LMAXMIX">     4</i>
    <i type="logical" name="NLSPLINE"> F  </i>
   </separator>
   <separator name="electronic startup" >
    <i type="int" name="ISTART">     0</i>
    <i type="int" name="ICHARG">     2</i>
    <i type="int" name="INIWAV">     1</i>
   </separator>
   <separator name="electronic spin" >
    <i type="int" name="ISPIN">     2</i>
    <i type="logical" name="LNONCOLLINEAR"> F  </i>
    <v name="MAGMOM">      5.00000000      5.00000000</v>
    <i name="NUPDOWN">     -1.00000000</i>
    <i type="logical" name="LSORBIT"> F  </i>
    <v name="SAXIS">      0.00000000      0.00000000      1.00000000</v>
    <i type="logical" name="LSPIRAL"> F  </i>
    <v name="QSPIRAL">      0.00000000      0.00000000      0.00000000</v>
    <i type="logical" name="LZEROZ"> F  </i>
   </separator>
   <separator name="electronic exchange-correlation" >
    <i type="logical" name="LASPH"> T  </i>
    <i type="logical" name="LMETAGGA"> F  </i>
   </separator>
   <separator name="electronic convergence" >
    <i type="int" name="NELM">    90</i>
    <i type="int" name="NELMDL">    -5</i>
    <i type="int" name="NELMIN">     6</i>
    <i name="ENINI">    350.00000000</i>
    <separator name="electronic convergence detail" >
     <i type="logical" name="LDIAG"> T  </i>
     <i type="logical" name="LSUBROT"> F  </i>
     <i name="WEIMIN">      0.00100000</i>
     <i name="EBREAK">      0.00000001</i>
     <i name="DEPER">      0.30000000</i>
     <i type="int" name="NRMM">     4</i>
     <i name="TIME">      0.40000000</i>
    </separator>
   </separator>
   <separator name="electronic mixer" >
    <i name="AMIX">      0.40000000</i>
    <i name="BMIX">      1.00000000</i>
    <i name="AMIN">      0.10000000</i>
    <i name="AMIX_MAG">      1.60000000</i>
    <i name="BMIX_MAG">      1.00000000</i>
    <separator name="electronic mixer details" >
     <i type="int" name="IMIX">     4</i>
     <i type="logical" name="MIXFIRST"> F  </i>
     <i type="int" name="MAXMIX">   -45</i>
     <i name="WC">    100.00000000</i>
     <i type="int" name="INIMIX">     1</i>
     <i type="int" name="MIXPRE">     1</i>
     <i type="int" name="MREMOVE">     5</i>
    </separator>
   </separator>
   <separator name="electronic dipolcorrection" >
    <i type="logical" name="LDIPOL"> F  </i>
    <i type="logical" name="LMONO"> F  </i>
    <i type="int" name="IDIPOL">     0</i>
    <i name="EPSILON">      1.00000000</i>
    <v name="DIPOL">   -100.00000000   -100.00000000   -100.00000000</v>
    <i name="EFIELD">      0.00000000</i>
   </separator>
  </separator>
  <separator name="grids" >
   <i type="int" name="NGX">    18</i>
   <i type="int" name="NGY">    18</i>
   <i type="int" name="NGZ">    18</i>
   <i type="int" name="NGXF">    36</i>
   <i type="int" name="NGYF">    36</i>
   <i type="int" name="NGZF">    36</i>
   <i type="logical" name="ADDGRID"> T  </i>
  </separator>
  <separator name="ionic" >
   <i type="int" name="NSW">   100</i>
   <i type="int" name="IBRION">     2</i>
   <i type="int" name="MDALGO">     0</i>
   <i type="int" name="ISIF">     3</i>
   <i name="PSTRESS">      0.00000000</i>
   <i name="EDIFFG">     -0.00200000</i>
   <i type="int" name="NFREE">     1</i>
   <i name="POTIM">      0.50000000</i>
   <i name="SMASS">     -3.00000000</i>
   <i name="SCALEE">      1.00000000</i>
  </separator>
  <separator name="ionic md" >
   <i name="TEBEG">      0.00010000</i>
   <i name="TEEND">      0.00010000</i>
   <i type="int" name="NBLOCK">     1</i>
   <i type="int" name="KBLOCK">   100</i>
   <i type="int" name="NPACO">   256</i>
   <i name="APACO">     16.00000000</i>
  </separator>
  <separator name="symmetry" >
   <i type="int" name="ISYM">     2</i>
   <i name="SYMPREC">      0.00001000</i>
  </separator>
  <separator name="dos" >
   <i type="int" name="LORBIT">    11</i>
   <v name="RWIGS">     -1.00000000</v>
   <i type="int" name="NEDOS">   301</i>
   <i name="EMIN">     10.00000000</i>
   <i name="EMAX">    -10.00000000</i>
   <i name="EFERMI">      0.00000000</i>
  </separator>
  <separator name="writing" >
   <i type="int" name="NWRITE">     2</i>
   <i type="logical" name="LWAVE"> T  </i>
   <i type="logical" name="LDOWNSAMPLE"> F  </i>
   <i type="logical" name="LCHARG"> T  </i>
   <i type="logical" name="LPARD"> F  </i>
   <i type="logical" name="LVTOT"> F  </i>
   <i type="logical" name="LVHAR"> F  </i>
   <i type="logical" name="LELF"> F  </i>
   <i type="logical" name="LOPTICS"> F  </i>
   <v name="STM">      0.00000000      0.00000000      0.00000000      0.00000000      0.00000000      0.00000000      0.00000000</v>
  </separator>
  <separator name="performance" >
   <i type="int" name="NPAR">     4</i>
   <i type="int" name="NSIM">     4</i>
   <i type="int" name="NBLK">    -1</i>
   <i type="logical" name="LPLANE"> T  </i>
   <i type="logical" name="LSCALAPACK"> T  </i>
   <i type="logical" name="LSCAAWARE"> F  </i>
   <i type="logical" name="LSCALU"> F  </i>
   <i type="logical" name="LASYNC"> F  </i>
   <i type="logical" name="LORBITALREAL"> F  </i>
  </separator>
  <separator name="miscellaneous" >
   <i type="int" name="IDIOT">     3</i>
   <i type="int" name="PHON_NSTRUCT">    -1</i>
   <i type="logical" name="LMUSIC"> F  </i>
   <v name="POMASS">     55.84700000</v>
   <v name="DARWINR">      0.00000000</v>
   <v name="DARWINV">      1.00000000</v>
   <i type="logical" name="LCORR"> T  </i>
  </separator>
  <i type="logical" name="GGA_COMPAT"> F  </i>
  <i type="logical" name="LBERRY"> F  </i>
  <i type="int" name="ICORELEVEL">     0</i>
  <i type="logical" name="LDAU"> F  </i>
  <i type="int" name="I_CONSTRAINED_M">     0</i>
  <separator name="electronic exchange-correlation" >
   <i type="string" name="GGA">--</i>
   <i type="int" name="VOSKOWN">     1</i>
   <i type="logical" name="LHFCALC"> F  </i>
   <i type="string" name="PRECFOCK"></i>
   <i type="logical" name="LSYMGRAD"> F  </i>
   <i type="logical" name="LHFONE"> F  </i>
   <i type="logical" name="LRHFCALC"> F  </i>
   <i type="logical" name="LTHOMAS"> F  </i>
   <i type="logical" name="LMODELHF"> F  </i>
   <i type="logical" name="LFOCKACE"> F  </i>
   <i name="ENCUT4O">     -1.00000000</i>
   <i type="int" name="EXXOEP">     0</i>
   <i type="int" name="FOURORBIT">     0</i>
   <i name="AEXX">      0.00000000</i>
   <i name="HFALPHA">      0.00000000</i>
   <i name="MCALPHA">      0.00000000</i>
   <i name="ALDAX">      1.00000000</i>
   <i name="AGGAX">      1.00000000</i>
   <i name="ALDAC">      1.00000000</i>
   <i name="AGGAC">      1.00000000</i>
   <i type="int" name="NKREDX">     1</i>
   <i type="int" name="NKREDY">     1</i>
   <i type="int" name="NKREDZ">     1</i>
   <i type="logical" name="SHIFTRED"> F  </i>
   <i type="logical" name="ODDONLY"> F  </i>
   <i type="logical" name="EVENONLY"> F  </i>
   <i type="int" name="LMAXFOCK">     0</i>
   <i type="int" name="NMAXFOCKAE">     0</i>
   <i type="logical" name="LFOCKAEDFT"> F  </i>
   <i name="HFSCREEN">      0.00000000</i>
   <i name="HFSCREENC">      0.00000000</i>
   <i type="int" name="NBANDSGWLOW">     0</i>
  </separator>
  <separator name="vdW DFT" >
   <i type="logical" name="LUSE_VDW"> F  </i>
   <i name="Zab_VDW">     -0.84910000</i>
   <i name="PARAM1">      0.12340000</i>
   <i name="PARAM2">      1.00000000</i>
   <i name="PARAM3">      0.00000000</i>
  </separator>
  <separator name="model GW" >
   <i type="int" name="MODEL_GW">     0</i>
   <i name="MODEL_EPS0">      7.04046678</i>
   <i name="MODEL_ALPHA">      1.00000000</i>
  </separator>
  <separator name="linear response parameters" >
   <i type="logical" name="LEPSILON"> F  </i>
   <i type="logical" name="LRPA"> F  </i>
   <i type="logical" name="LNABLA"> F  </i>
   <i type="logical" name="LVEL"> F  </i>
   <i type="int" name="KINTER">     0</i>
   <i name="CSHIFT">      0.10000000</i>
   <i name="OMEGAMAX">     -1.00000000</i>
   <i name="DEG_THRESHOLD">      0.00200000</i>
   <i name="RTIME">     -0.10000000</i>
   <i name="WPLASMAI">      0.00000000</i>
   <v name="DFIELD">      0.00000000      0.00000000      0.00000000</v>
   <v name="WPLASMA">      0.00000000      0.00000000      0.00000000      0.00000000      0.00000000      0.00000000      0.00000000      0.00000000      0.00000000</v>
  </separator>
  <separator name="orbital magnetization" >
   <i type="logical" name="NUCIND"> F  </i>
   <v name="MAGPOS">      0.00000000      0.00000000      0.00000000</v>
   <i type="logical" name="LNICSALL"> T  </i>
   <i type="logical" name="ORBITALMAG"> F  </i>
   <i type="logical" name="LMAGBLOCH"> F  </i>
   <i type="logical" name="LCHIMAG"> F  </i>
   <i type="logical" name="LGAUGE"> T  </i>
   <i type="int" name="MAGATOM">     0</i>
   <v name="MAGDIPOL">      0.00000000      0.00000000      0.00000000</v>
   <v name="AVECCONST">      0.00000000      0.00000000      0.00000000</v>
  </separator>
  <separator name="response functions" >
   <i type="logical" name="LFINITE_TEMPERATURE"> F  </i>
   <i type="logical" name="LADDER"> F  </i>
   <i type="logical" name="LRPAFORCE"> F  </i>
   <i type="logical" name="LFXC"> F  </i>
   <i type="logical" name="LHARTREE"> T  </i>
   <i type="int" name="IBSE">     0</i>
   <v type="int" name="KPOINT">    -1     0     0     0</v>
   <i type="logical" name="LTCTC"> F  </i>
   <i type="logical" name="LTCTE"> F  </i>
   <i type="logical" name="LTETE"> F  </i>
   <i type="logical" name="LTRIPLET"> F  </i>
   <i type="logical" name="LFXCEPS"> F  </i>
   <i type="logical" name="LFXHEG"> F  </i>
   <i type="int" name="NATURALO">     2</i>
   <i type="logical" name="LHOLEGF"> F  </i>
   <i type="logical" name="L2ORDER"> F  </i>
   <i type="logical" name="LDMP1"> F  </i>
   <i type="logical" name="LMP2LT"> F  </i>
   <i type="logical" name="LSMP2LT"> F  </i>
   <i type="logical" name="LGWLF"> F  </i>
   <i name="ENCUTGW">     -2.00000000</i>
   <i name="ENCUTGWSOFT">     -2.00000000</i>
   <i name="ENCUTLF">     -1.00000000</i>
   <i type="logical" name="LESF_SPLINES"> F  </i>
   <i type="int" name="LMAXMP2">    -1</i>
   <i name="SCISSOR">      0.00000000</i>
   <i type="int" name="NOMEGA">     0</i>
   <i type="int" name="NOMEGAR">     0</i>
   <i type="int" name="NBANDSGW">    -1</i>
   <i type="int" name="NBANDSO">    -1</i>
   <i type="int" name="NBANDSV">    -1</i>
   <i type="int" name="NELM">    90</i>
   <i type="int" name="NELMHF">     1</i>
   <i type="int" name="DIM">     3</i>
   <i type="int" name="IESPILON">     4</i>
   <i type="int" name="ANTIRES">     0</i>
   <i name="OMEGAMAX">    -30.00000000</i>
   <i name="OMEGAMIN">    -30.00000000</i>
   <i name="OMEGATL">   -200.00000000</i>
   <i type="int" name="OMEGAGRID">     0</i>
   <i name="CSHIFT">     -0.10000000</i>
   <i type="logical" name="LSELFENERGY"> F  </i>
   <i type="logical" name="LSPECTRAL"> F  </i>
   <i type="logical" name="LSPECTRALGW"> F  </i>
   <i type="logical" name="LSINGLES"> F  </i>
   <i type="logical" name="LFERMIGW"> F  </i>
   <i type="logical" name="ODDONLYGW"> F  </i>
   <i type="logical" name="EVENONLYGW"> F  </i>
   <i type="int" name="NKREDLFX">     1</i>
   <i type="int" name="NKREDLFY">     1</i>
   <i type="int" name="NKREDLFZ">     1</i>
   <i type="int" name="MAXMEM">  2800</i>
   <i type="int" name="TELESCOPE">     0</i>
   <i type="int" name="NTAUPAR">    -1</i>
   <i type="int" name="NOMEGAPAR">    -1</i>
   <i name="DAMP_NEWTON">      0.80000001</i>
   <i name="LAMBDA">      1.00000000</i>
  </separator>
  <separator name="External order field" >
   <i name="OFIELD_KAPPA">      0.00000000</i>
   <v name="OFIELD_K">      0.00000000      0.00000000      0.00000000</v>
   <i name="OFIELD_Q6_NEAR">      0.00000000</i>
   <i name="OFIELD_Q6_FAR">      0.00000000</i>
   <i name="OFIELD_A">      0.00000000</i>
  </separator>
 </parameters>
 <atominfo>
  <atoms>       2 </atoms>
  <types>       1 </types>
  <array name="atoms" >
   <dimension dim="1">ion</dimension>
   <field type="string">element</field>
   <field type="int">atomtype</field>
   <set>
    <rc><c>Fe</c><c>   1</c></rc>
    <rc><c>Fe</c><c>   1</c></rc>
   </set>
  </array>
  <array name="atomtypes" >
   <dimension dim="1">type</dimension>
   <field type="int">atomspertype</field>
   <field type="string">element</field>
   <field>mass</field>
   <field>valence</field>
   <field type="string">pseudopotential</field>
   <set>
    <rc><c>   2</c><c>Fe</c><c>     55.84700000</c><c>      8.00000000</c><c>  PAW_PBE Fe 06Sep2000                  </c></rc>
   </set>
  </array>
 </atominfo>
 <structure name="initialpos" >
  <crystal>
   <varray name="basis" >
    <v>       2.86303550       0.00000000       0.00000000 </v>
    <v>       0.00000000       2.86303550       0.00000000 </v>
    <v>       0.00000000       0.00000000       2.86303550 </v>
   </varray>
   <i name="volume">     23.46822259 </i>
   <varray name="rec_basis" >
    <v>       0.34927964      -0.00000000       0.00000000 </v>
    <v>       0.00000000       0.34927964       0.00000000 </v>
    <v>      -0.00000000      -0.00000000       0.34927964 </v>
   </varray>
  </crystal>
  <varray name="positions" >
   <v>       0.00000000       0.00000000       0.00000000 </v>
   <v>       0.50000000       0.50000000       0.50000000 </v>
  </varray>
 </structure>
 <calculation>
  <scstep>
   <time name="dav">    5.21    5.22</time>
   <time name="total">    6.81    6.82</time>
   <energy>
    <i name="alphaZ">    117.79976220 </i>
    <i name="ewald">  -1171.43779597 </i>
    <i name="hartreedc">   -228.04061711 </i>
    <i name="XCdc">     14.27160946 </i>
    <i name="pawpsdc">   1103.49540010 </i>
    <i name="pawaedc">  -1119.11610375 </i>
    <i name="eentropy">     -0.00025355 </i>
    <i name="bandstr">    159.24171768 </i>
    <i name="atom">   1188.58965621 </i>
    <i name="e_fr_energy">     64.80337527 </i>
    <i name="e_wo_entrp">     64.80362882 </i>
    <i name="e_0_energy">     64.80345979 </i>
   </energy>
  </scstep>
  <scstep>
   <time name="dav">    4.88    4.91</time>
   <time name="total">    4.90    4.92</time>
   <energy>
    <i name="e_fr_energy">    -13.31421607 </i>
    <i name="e_wo_entrp">    -13.31427883 </i>
    <i name="e_0_energy">    -13.31423699 </i>
   </energy>
  </scstep>
  <scstep>
   <time name="dav">    5.32    5.34</time>
   <time name="total">    5.34    5.36</time>
   <energy>
    <i name="e_fr_energy">    -16.06496213 </i>
    <i name="e_wo_entrp">    -16.06631998 </i>
    <i name="e_0_energy">    -16.06541475 </i>
   </energy>
  </scstep>
  <scstep>
   <time name="dav">    5.14    5.16</time>
   <time name="total">    5.15    5.18</time>
   <energy>
    <i name="e_fr_energy">    -16.08625152 </i>
    <i name="e_wo_entrp">    -16.08759364 </i>
    <i name="e_0_energy">    -16.08669889 </i>
   </energy>
  </scstep>
  <scstep>
   <time name="dav">    5.23    5.25</time>
   <time name="total">    5.54    5.56</time>
   <energy>
    <i name="e_fr_energy">    -16.08651041 </i>
    <i name="e_wo_entrp">    -16.08785240 </i>
    <i name="e_0_energy">    -16.08695774 </i>
   </energy>
  </scstep>
  <scstep>
   <time name="dav">    5.19    5.20</time>
   <time name="total">    7.06    7.08</time>
   <energy>
    <i name="e_fr_energy">    -16.56758923 </i>
    <i name="e_wo_entrp">    -16.56766009 </i>
    <i name="e_0_energy">    -16.56761285 </i>
   </energy>
  </scstep>
  <scstep>
   <time name="dav">    5.48    5.49</time>
   <time name="total">    7.34    7.37</time>
   <energy>
    <i name="e_fr_energy">    -16.50834988 </i>
    <i name="e_wo_entrp">    -16.50905177 </i>
    <i name="e_0_energy">    -16.50858384 </i>
   </energy>
  </scstep>
  <scstep>
   <time name="dav">    5.91    5.91</time>
   <time name="total">    7.77    7.79</time>
   <energy>
    <i name="e_fr_energy">    -16.49149404 </i>
    <i name="e_wo_entrp">    -16.49192980 </i>
    <i name="e_0_energy">    -16.49163929 </i>
   </energy>
  </scstep>
  <scstep>
   <time name="dav">    6.61    6.61</time>
   <time name="total">    8.47    8.49</time>
   <energy>
    <i name="e_fr_energy">    -16.48014025 </i>
    <i name="e_wo_entrp">    -16.48008715 </i>
    <i name="e_0_energy">    -16.48012255 </i>
   </energy>
  </scstep>
  <scstep>
   <time name="dav">    5.51    5.51</time>
   <time name="total">    7.37    7.39</time>
   <energy>
    <i name="e_fr_energy">    -16.47973329 </i>
    <i name="e_wo_entrp">    -16.47988035 </i>
    <i name="e_0_energy">    -16.47978231 </i>
   </energy>
  </scstep>
  <scstep>
   <time name="dav">    5.58    5.58</time>
   <time name="total">    7.45    7.47</time>
   <energy>
    <i name="e_fr_energy">    -16.47976614 </i>
    <i name="e_wo_entrp">    -16.47989736 </i>
    <i name="e_0_energy">    -16.47980988 </i>
   </energy>
  </scstep>
  <scstep>
   <time name="dav">    4.87    4.87</time>
   <time name="total">    6.74    6.76</time>
   <energy>
    <i name="e_fr_energy">    -16.47975182 </i>
    <i name="e_wo_entrp">    -16.47988631 </i>
    <i name="e_0_energy">    -16.47979665 </i>
   </energy>
  </scstep>
  <scstep>
   <time name="dav">    4.31    4.32</time>
   <time name="total">    5.91    5.93</time>
   <energy>
    <i name="alphaZ">    117.79976220 </i>
    <i name="ewald">  -1171.43779597 </i>
    <i name="hartreedc">   -195.08607726 </i>
    <i name="XCdc">      8.53198366 </i>
    <i name="pawpsdc">   1412.04113740 </i>
    <i name="pawaedc">  -1430.02536376 </i>
    <i name="eentropy">      0.00012939 </i>
    <i name="bandstr">     53.10681605 </i>
    <i name="atom">   1188.58965621 </i>
    <i name="e_fr_energy">    -16.47975209 </i>
    <i name="e_wo_entrp">    -16.47988147 </i>
    <i name="e_0_energy">    -16.47979522 </i>
   </energy>
  </scstep>
  <structure>
   <crystal>
    <varray name="basis" >
     <v>       2.86303550       0.00000000       0.00000000 </v>
     <v>       0.00000000       2.86303550       0.00000000 </v>
     <v>       0.00000000       0.00000000       2.86303550 </v>
    </varray>
    <i name="volume">     23.46822259 </i>
    <varray name="rec_basis" >
     <v>       0.34927964      -0.00000000       0.00000000 </v>
     <v>       0.00000000       0.34927964       0.00000000 </v>
     <v>      -0.00000000      -0.00000000       0.34927964 </v>
    </varray>
   </crystal>
   <varray name="positions" >
    <v>       0.00000000       0.00000000       0.00000000 </v>
    <v>       0.50000000       0.50000000       0.50000000 </v>
   </varray>
  </structure>
  <varray name="forces" >
   <v>      -0.00000000      -0.00000000       0.00000000 </v>
   <v>       0.00000000       0.00000000      -0.00000000 </v>
  </varray>
  <varray name="stress" >
   <v>     -64.18443891      -0.00000000       0.00000000 </v>
   <v>      -0.00000000     -64.18443891       0.00000000 </v>
   <v>      -0.00000000      -0.00000000     -64.18443891 </v>
  </varray>
  <energy>
   <i name="e_fr_energy">    -16.47975209 </i>
   <i name="e_wo_entrp">    -16.47988147 </i>
   <i name="e_0_energy">    -16.47979522 </i>
  </energy>
  <time name="totalsc">   92.40   93.88</time>
 </calculation>
 <calculation>
  <scstep>
   <time name="dav">    5.15    5.15</time>
   <time name="total">    7.03    7.04</time>
   <energy>
    <i name="alphaZ">    126.19178890 </i>
    <i name="ewald">  -1198.61983442 </i>
    <i name="hartreedc">   -199.61660733 </i>
    <i name="XCdc">      9.87459249 </i>
    <i name="pawpsdc">   1412.03934488 </i>
    <i name="pawaedc">  -1430.02267657 </i>
    <i name="eentropy">      0.00049163 </i>
    <i name="bandstr">     74.33407044 </i>
    <i name="atom">   1188.58965621 </i>
    <i name="e_fr_energy">    -17.22917377 </i>
    <i name="e_wo_entrp">    -17.22966540 </i>
    <i name="e_0_energy">    -17.22933764 </i>
   </energy>
  </scstep>
  <scstep>
   <time name="dav">    5.13    5.14</time>
   <time name="total">    7.00    7.03</time>
   <energy>
    <i name="e_fr_energy">    -16.53122036 </i>
    <i name="e_wo_entrp">    -16.53172066 </i>
    <i name="e_0_energy">    -16.53138713 </i>
   </energy>
  </scstep>
  <scstep>
   <time name="dav">    5.48    5.48</time>
   <time name="total">    7.35    7.37</time>
   <energy>
    <i name="e_fr_energy">    -16.49685389 </i>
    <i name="e_wo_entrp">    -16.49703167 </i>
    <i name="e_0_energy">    -16.49691315 </i>
   </energy>
  </scstep>
  <scstep>
   <time name="dav">    5.72    5.72</time>
   <time name="total">    7.58    7.61</time>
   <energy>
    <i name="e_fr_energy">    -16.48930923 </i>
    <i name="e_wo_entrp">    -16.48924653 </i>
    <i name="e_0_energy">    -16.48928833 </i>
   </energy>
  </scstep>
  <scstep>
   <time name="dav">    5.59    5.59</time>
   <time name="total">    7.46    7.48</time>
   <energy>
    <i name="e_fr_energy">    -16.48335140 </i>
    <i name="e_wo_entrp">    -16.48301669 </i>
    <i name="e_0_energy">    -16.48323983 </i>
   </energy>
  </scstep>
  <scstep>
   <time name="dav">    5.16    5.16</time>
   <time name="total">    7.02    7.04</time>
   <energy>
    <i name="e_fr_energy">    -16.48346330 </i>
    <i name="e_wo_entrp">    -16.48315781 </i>
    <i name="e_0_energy">    -16.48336147 </i>
   </energy>
  </scstep>
  <scstep>
   <time name="dav">    4.95    4.96</time>
   <time name="total">    6.83    6.85</time>
   <energy>
    <i name="e_fr_energy">    -16.48347184 </i>
    <i name="e_wo_entrp">    -16.48318171 </i>
    <i name="e_0_energy">    -16.48337513 </i>
   </energy>
  </scstep>
  <scstep>
   <time name="dav">    4.20    4.20</time>
   <time name="total">    6.07    6.09</time>
   <energy>
    <i name="e_fr_energy">    -16.48346819 </i>
    <i name="e_wo_entrp">    -16.48317768 </i>
    <i name="e_0_energy">    -16.48337135 </i>
   </energy>
  </scstep>
  <scstep>
   <time name="dav">    3.30    3.31</time>
   <time name="total">    5.18    5.20</time>
   <energy>
    <i name="e_fr_energy">    -16.48346712 </i>
    <i name="e_wo_entrp">    -16.48316924 </i>
    <i name="e_0_energy">    -16.48336783 </i>
   </energy>
  </scstep>
  <scstep>
   <time name="dav">    3.28    3.29</time>
   <time name="total">    4.89    4.91</time>
   <energy>
    <i name="alphaZ">    126.19178890 </i>
    <i name="ewald">  -1198.61983442 </i>
    <i name="hartreedc">   -184.47659795 </i>
    <i name="XCdc">      8.69129692 </i>
    <i name="pawpsdc">   1474.75774693 </i>
    <i name="pawaedc">  -1493.15901117 </i>
    <i name="eentropy">     -0.00029721 </i>
    <i name="bandstr">     61.54178468 </i>
    <i name="atom">   1188.58965621 </i>
    <i name="e_fr_energy">    -16.48346709 </i>
    <i name="e_wo_entrp">    -16.48316989 </i>
    <i name="e_0_energy">    -16.48336803 </i>
   </energy>
  </scstep>
  <structure>
   <crystal>
    <varray name="basis" >
     <v>       2.79810821      -0.00000000       0.00000000 </v>
     <v>       0.00000000       2.79810821       0.00000000 </v>
     <v>      -0.00000000      -0.00000000       2.79810821 </v>
    </varray>
    <i name="volume">     21.90753506 </i>
    <varray name="rec_basis" >
     <v>       0.35738432      -0.00000000       0.00000000 </v>
     <v>       0.00000000       0.35738432       0.00000000 </v>
     <v>      -0.00000000      -0.00000000       0.35738432 </v>
    </varray>
   </crystal>
   <varray name="positions" >
    <v>      -0.00000000      -0.00000000       0.00000000 </v>
    <v>       0.50000000       0.50000000       0.50000000 </v>
   </varray>
  </structure>
  <varray name="forces" >
   <v>       0.00000000       0.00000000      -0.00000000 </v>
   <v>      -0.00000000      -0.00000000       0.00000000 </v>
  </varray>
  <varray name="stress" >
   <v>      66.23387581       0.00000000       0.00000000 </v>
   <v>       0.00000000      66.23387581       0.00000000 </v>
   <v>       0.00000000       0.00000000      66.23387581 </v>
  </varray>
  <energy>
   <i name="e_fr_energy">    -16.48346709 </i>
   <i name="e_wo_entrp">    -16.48316989 </i>
   <i name="e_0_energy">    -16.48336803 </i>
  </energy>
  <time name="totalsc">   72.58   73.32</time>
 </calculation>
 <calculation>
  <scstep>
   <time name="dav">    5.10    5.10</time>
   <time name="total">    6.97    6.98</time>
   <energy>
    <i name="alphaZ">    122.23159031 </i>
    <i name="ewald">  -1185.94782175 </i>
    <i name="hartreedc">   -182.52674962 </i>
    <i name="XCdc">      8.08543230 </i>
    <i name="pawpsdc">   1474.76085808 </i>
    <i name="pawaedc">  -1493.16176374 </i>
    <i name="eentropy">     -0.00246443 </i>
    <i name="bandstr">     51.30898270 </i>
    <i name="atom">   1188.58965621 </i>
    <i name="e_fr_energy">    -16.66227994 </i>
    <i name="e_wo_entrp">    -16.65981550 </i>
    <i name="e_0_energy">    -16.66145846 </i>
   </energy>
  </scstep>
  <scstep>
   <time name="dav">    5.14    5.15</time>
   <time name="total">    7.01    7.04</time>
   <energy>
    <i name="e_fr_energy">    -16.51579299 </i>
    <i name="e_wo_entrp">    -16.51525816 </i>
    <i name="e_0_energy">    -16.51561471 </i>
   </energy>
  </scstep>
  <scstep>
   <time name="dav">    5.42    5.42</time>
   <time name="total">    7.29    7.31</time>
   <energy>
    <i name="e_fr_energy">    -16.50075321 </i>
    <i name="e_wo_entrp">    -16.49995102 </i>
    <i name="e_0_energy">    -16.50048581 </i>
   </energy>
  </scstep>
  <scstep>
   <time name="dav">    6.01    6.02</time>
   <time name="total">    7.88    7.90</time>
   <energy>
    <i name="e_fr_energy">    -16.49897403 </i>
    <i name="e_wo_entrp">    -16.49811794 </i>
    <i name="e_0_energy">    -16.49868867 </i>
   </energy>
  </scstep>
  <scstep>
   <time name="dav">    5.20    5.20</time>
   <time name="total">    7.06    7.08</time>
   <energy>
    <i name="e_fr_energy">    -16.49759554 </i>
    <i name="e_wo_entrp">    -16.49677037 </i>
    <i name="e_0_energy">    -16.49732048 </i>
   </energy>
  </scstep>
  <scstep>
   <time name="dav">    5.41    5.41</time>
   <time name="total">    7.27    7.29</time>
   <energy>
    <i name="e_fr_energy">    -16.49761828 </i>
    <i name="e_wo_entrp">    -16.49679968 </i>
    <i name="e_0_energy">    -16.49734541 </i>
   </energy>
  </scstep>
  <scstep>
   <time name="dav">    4.97    4.97</time>
   <time name="total">    6.85    6.87</time>
   <energy>
    <i name="e_fr_energy">    -16.49762351 </i>
    <i name="e_wo_entrp">    -16.49680728 </i>
    <i name="e_0_energy">    -16.49735143 </i>
   </energy>
  </scstep>
  <scstep>
   <time name="dav">    3.63    3.63</time>
   <time name="total">    5.50    5.52</time>
   <energy>
    <i name="e_fr_energy">    -16.49762653 </i>
    <i name="e_wo_entrp">    -16.49680931 </i>
    <i name="e_0_energy">    -16.49735412 </i>
   </energy>
  </scstep>
  <scstep>
   <time name="dav">    3.25    3.25</time>
   <time name="total">    4.85    4.87</time>
   <energy>
    <i name="alphaZ">    122.23159031 </i>
    <i name="ewald">  -1185.94782175 </i>
    <i name="hartreedc">   -189.34769894 </i>
    <i name="XCdc">      8.61509213 </i>
    <i name="pawpsdc">   1444.35131990 </i>
    <i name="pawaedc">  -1462.54758351 </i>
    <i name="eentropy">     -0.00081709 </i>
    <i name="bandstr">     57.55863611 </i>
    <i name="atom">   1188.58965621 </i>
    <i name="e_fr_energy">    -16.49762663 </i>
    <i name="e_wo_entrp">    -16.49680955 </i>
    <i name="e_0_energy">    -16.49735427 </i>
   </energy>
  </scstep>
  <structure>
   <crystal>
    <varray name="basis" >
     <v>       2.82800637      -0.00000000       0.00000000 </v>
     <v>       0.00000000       2.82800637       0.00000000 </v>
     <v>      -0.00000000      -0.00000000       2.82800637 </v>
    </varray>
    <i name="volume">     22.61732039 </i>
    <varray name="rec_basis" >
     <v>       0.35360599      -0.00000000       0.00000000 </v>
     <v>       0.00000000       0.35360599       0.00000000 </v>
     <v>      -0.00000000      -0.00000000       0.35360599 </v>
    </varray>
   </crystal>
   <varray name="positions" >
    <v>      -0.00000000      -0.00000000       0.00000000 </v>
    <v>       0.50000000       0.50000000       0.50000000 </v>
   </varray>
  </structure>
  <varray name="forces" >
   <v>      -0.00000000       0.00000000      -0.00000000 </v>
   <v>       0.00000000      -0.00000000       0.00000000 </v>
  </varray>
  <varray name="stress" >
   <v>       0.24442906      -0.00000000      -0.00000000 </v>
   <v>      -0.00000000       0.24442906       0.00000000 </v>
   <v>       0.00000000       0.00000000       0.24442906 </v>
  </varray>
  <energy>
   <i name="e_fr_energy">    -16.49762663 </i>
   <i name="e_wo_entrp">    -16.49680955 </i>
   <i name="e_0_energy">    -16.49735427 </i>
  </energy>
  <time name="totalsc">   67.41   69.25</time>
  <eigenvalues>
   <array>
    <dimension dim="1">band</dimension>
    <dimension dim="2">kpoint</dimension>
    <dimension dim="3">spin</dimension>
    <field>eigene</field>
    <field>occ</field>
    <set>
     <set comment="spin 1">
      <set comment="kpoint 1">
       <r>   -2.5905    1.0000 </r>
       <r>    0.9979    1.0000 </r>
       <r>    0.9979    1.0000 </r>
       <r>    3.5641    1.0000 </r>
       <r>    3.5641    1.0000 </r>
       <r>    3.5641    1.0000 </r>
       <r>    4.7796    1.0000 </r>
       <r>    4.7796    1.0000 </r>
       <r>    5.9998    0.0570 </r>
       <r>    5.9998    0.0570 </r>
       <r>    5.9998    0.0570 </r>
       <r>   15.8376    0.0000 </r>
       <r>   15.8376    0.0000 </r>
       <r>   15.8376    0.0000 </r>
       <r>   21.5664    0.0000 </r>
       <r>   21.5664    0.0000 </r>
       <r>   26.7347    0.0000 </r>
       <r>   30.9372    0.0000 </r>
       <r>   30.9372    0.0000 </r>
       <r>   30.9372    0.0000 </r>
      </set>
      <set comment="kpoint 2">
       <r>   -2.5090    1.0000 </r>
       <r>    1.0329    1.0000 </r>
       <r>    1.0345    1.0000 </r>
       <r>    3.5634    1.0000 </r>
       <r>    3.5634    1.0000 </r>
       <r>    3.5865    1.0000 </r>
       <r>    4.7431    1.0000 </r>
       <r>    4.7940    1.0000 </r>
       <r>    5.9307    0.2519 </r>
       <r>    5.9307    0.2519 </r>
       <r>    5.9757    0.1118 </r>
       <r>   15.2406    0.0000 </r>
       <r>   15.9926    0.0000 </r>
       <r>   15.9926    0.0000 </r>
       <r>   21.5901    0.0000 </r>
       <r>   22.0206    0.0000 </r>
       <r>   26.9972    0.0000 </r>
       <r>   30.3720    0.0000 </r>
       <r>   30.8681    0.0000 </r>
       <r>   30.8681    0.0000 </r>
      </set>
      <set comment="kpoint 3">
       <r>   -2.2672    1.0000 </r>
       <r>    1.1364    1.0000 </r>
       <r>    1.1379    1.0000 </r>
       <r>    3.5631    1.0000 </r>
       <r>    3.5631    1.0000 </r>
       <r>    3.6529    1.0000 </r>
       <r>    4.6348    1.0000 </r>
       <r>    4.8363    1.0000 </r>
       <r>    5.7378    0.9433 </r>
       <r>    5.7378    0.9433 </r>
       <r>    5.9036    0.3556 </r>
       <r>   13.8961    0.0000 </r>
       <r>   16.4414    0.0000 </r>
       <r>   16.4414    0.0000 </r>
       <r>   21.6613    0.0000 </r>
       <r>   22.8541    0.0000 </r>
       <r>   27.8731    0.0000 </r>
       <r>   29.2064    0.0000 </r>
       <r>   30.5693    0.0000 </r>
       <r>   30.5693    0.0000 </r>
      </set>
      <set comment="kpoint 4">
       <r>   -1.8742    1.0000 </r>
       <r>    1.2906    1.0000 </r>
       <r>    1.3052    1.0000 </r>
       <r>    3.5697    1.0000 </r>
       <r>    3.5697    1.0000 </r>
       <r>    3.7611    1.0000 </r>
       <r>    4.4584    1.0000 </r>
       <r>    4.9052    1.0000 </r>
       <r>    5.4590    1.0068 </r>
       <r>    5.4590    1.0068 </r>
       <r>    5.7869    0.8169 </r>
       <r>   12.3210    0.0000 </r>
       <r>   17.1442    0.0000 </r>
       <r>   17.1442    0.0000 </r>
       <r>   21.7840    0.0000 </r>
       <r>   23.5004    0.0000 </r>
       <r>   27.9562    0.0000 </r>
       <r>   29.4348    0.0000 </r>
       <r>   29.8624    0.0000 </r>
       <r>   29.8624    0.0000 </r>
      </set>
      <set comment="kpoint 5">
       <r>   -1.3468    1.0000 </r>
       <r>    1.4608    1.0000 </r>
       <r>    1.5339    1.0000 </r>
       <r>    3.5908    1.0000 </r>
       <r>    3.5908    1.0000 </r>
       <r>    3.9075    1.0000 </r>
       <r>    4.2200    1.0000 </r>
       <r>    4.9993    1.0000 </r>
       <r>    5.1371    1.0000 </r>
       <r>    5.1371    1.0000 </r>
       <r>    5.6304    1.0353 </r>
       <r>   10.7382   -0.0000 </r>
       <r>   18.0541    0.0000 </r>
       <r>   18.0541    0.0000 </r>
       <r>   21.9644    0.0000 </r>
       <r>   23.9250    0.0000 </r>
       <r>   26.7864    0.0000 </r>
       <r>   28.7418    0.0000 </r>
       <r>   28.7418    0.0000 </r>
       <r>   30.6039    0.0000 </r>
      </set>
      <set comment="kpoint 6">
       <r>   -0.7137    1.0000 </r>
       <r>    1.6044    1.0000 </r>
       <r>    1.8150    1.0000 </r>
       <r>    3.6367    1.0000 </r>
       <r>    3.6367    1.0000 </r>
       <r>    3.9289    1.0000 </r>
       <r>    4.0870    1.0000 </r>
       <r>    4.8094    1.0000 </r>
       <r>    4.8094    1.0000 </r>
       <r>    5.1259    1.0000 </r>
       <r>    5.4408    1.0049 </r>
       <r>    9.2526   -0.0000 </r>
       <r>   19.1285    0.0000 </r>
       <r>   19.1285    0.0000 </r>
       <r>   22.2108    0.0000 </r>
       <r>   24.2772    0.0000 </r>
       <r>   25.7467    0.0000 </r>
       <r>   27.3832    0.0000 </r>
       <r>   27.3832    0.0000 </r>
       <r>   29.1525    0.0000 </r>
      </set>
      <set comment="kpoint 7">
       <r>   -0.0220    1.0000 </r>
       <r>    1.6569    1.0000 </r>
       <r>    2.1384    1.0000 </r>
       <r>    3.5965    1.0000 </r>
       <r>    3.7171    1.0000 </r>
       <r>    3.7171    1.0000 </r>
       <r>    4.2933    1.0000 </r>
       <r>    4.5026    1.0000 </r>
       <r>    4.5026    1.0000 </r>
       <r>    5.2258    1.0000 </r>
       <r>    5.3087    1.0003 </r>
       <r>    7.9390   -0.0000 </r>
       <r>   20.3330    0.0000 </r>
       <r>   20.3330    0.0000 </r>
       <r>   22.5338    0.0000 </r>
       <r>   24.6738    0.0000 </r>
       <r>   24.8485    0.0000 </r>
       <r>   25.9313    0.0000 </r>
       <r>   25.9313    0.0000 </r>
       <r>   27.8643    0.0000 </r>
      </set>
      <set comment="kpoint 8">
       <r>    0.6519    1.0000 </r>
       <r>    1.5430    1.0000 </r>
       <r>    2.4924    1.0000 </r>
       <r>    3.2362    1.0000 </r>
       <r>    3.8403    1.0000 </r>
       <r>    3.8403    1.0000 </r>
       <r>    4.2335    1.0000 </r>
       <r>    4.2335    1.0000 </r>
       <r>    4.5190    1.0000 </r>
       <r>    4.9944    1.0000 </r>
       <r>    5.6021    1.0339 </r>
       <r>    6.8688   -0.0000 </r>
       <r>   21.6394    0.0000 </r>
       <r>   21.6394    0.0000 </r>
       <r>   22.9457    0.0000 </r>
       <r>   24.0890    0.0000 </r>
       <r>   24.4643    0.0000 </r>
       <r>   24.4643    0.0000 </r>
       <r>   25.1921    0.0000 </r>
       <r>   26.7698    0.0000 </r>
      </set>
      <set comment="kpoint 9">
       <r>    1.2037    1.0000 </r>
       <r>    1.2037    1.0000 </r>
       <r>    2.8635    1.0000 </r>
       <r>    2.8635    1.0000 </r>
       <r>    4.0120    1.0000 </r>
       <r>    4.0120    1.0000 </r>
       <r>    4.0120    1.0000 </r>
       <r>    4.0120    1.0000 </r>
       <r>    4.7559    1.0000 </r>
       <r>    4.7559    1.0000 </r>
       <r>    6.0946   -0.0338 </r>
       <r>    6.0946   -0.0338 </r>
       <r>   23.0247    0.0000 </r>
       <r>   23.0247    0.0000 </r>
       <r>   23.0247    0.0000 </r>
       <r>   23.0247    0.0000 </r>
       <r>   23.4601    0.0000 </r>
       <r>   23.4601    0.0000 </r>
       <r>   25.8815    0.0000 </r>
       <r>   25.8815    0.0000 </r>
      </set>
      <set comment="kpoint 10">
       <r>   -2.4280    1.0000 </r>
       <r>    1.0672    1.0000 </r>
       <r>    1.0709    1.0000 </r>
       <r>    3.5196    1.0000 </r>
       <r>    3.5607    1.0000 </r>
       <r>    3.6517    1.0000 </r>
       <r>    4.7353    1.0000 </r>
       <r>    4.7831    1.0000 </r>
       <r>    5.8066    0.7498 </r>
       <r>    5.8612    0.5327 </r>
       <r>    6.0103    0.0377 </r>
       <r>   15.2554    0.0000 </r>
       <r>   15.5203    0.0000 </r>
       <r>   16.1433    0.0000 </r>
       <r>   21.8242    0.0000 </r>
       <r>   22.2973    0.0000 </r>
       <r>   27.2404    0.0000 </r>
       <r>   29.8744    0.0000 </r>
       <r>   30.6980    0.0000 </r>
       <r>   30.8228    0.0000 </r>
      </set>
      <set comment="kpoint 11">
       <r>   -2.1879    1.0000 </r>
       <r>    1.1668    1.0000 </r>
       <r>    1.1766    1.0000 </r>
       <r>    3.4842    1.0000 </r>
       <r>    3.5549    1.0000 </r>
       <r>    3.7527    1.0000 </r>
       <r>    4.6451    1.0000 </r>
       <r>    4.8176    1.0000 </r>
       <r>    5.5789    1.0298 </r>
       <r>    5.6691    1.0250 </r>
       <r>    5.9845    0.0902 </r>
       <r>   14.0013    0.0000 </r>
       <r>   15.8426    0.0000 </r>
       <r>   16.5810    0.0000 </r>
       <r>   21.9753    0.0000 </r>
       <r>   23.1377    0.0000 </r>
       <r>   28.0629    0.0000 </r>
       <r>   28.7075    0.0000 </r>
       <r>   30.3140    0.0000 </r>
       <r>   30.5867    0.0000 </r>
      </set>
      <set comment="kpoint 12">
       <r>   -1.7981    1.0000 </r>
       <r>    1.3209    1.0000 </r>
       <r>    1.3406    1.0000 </r>
       <r>    3.4673    1.0000 </r>
       <r>    3.5511    1.0000 </r>
       <r>    3.8831    1.0000 </r>
       <r>    4.4850    1.0000 </r>
       <r>    4.8875    1.0000 </r>
       <r>    5.2877    1.0002 </r>
       <r>    5.3934    1.0020 </r>
       <r>    5.8951    0.3901 </r>
       <r>   12.4238    0.0000 </r>
       <r>   16.4926    0.0000 </r>
       <r>   17.2692    0.0000 </r>
       <r>   22.1308    0.0000 </r>
       <r>   23.8580    0.0000 </r>
       <r>   27.4056    0.0000 </r>
       <r>   29.5518    0.0000 </r>
       <r>   29.5655    0.0000 </r>
       <r>   29.9335    0.0000 </r>
      </set>
      <set comment="kpoint 13">
       <r>   -1.2759    1.0000 </r>
       <r>    1.4936    1.0000 </r>
       <r>    1.5616    1.0000 </r>
       <r>    3.4730    1.0000 </r>
       <r>    3.5530    1.0000 </r>
       <r>    4.0431    1.0000 </r>
       <r>    4.2748    1.0000 </r>
       <r>    4.9650    1.0000 </r>
       <r>    4.9833    1.0000 </r>
       <r>    5.0794    1.0000 </r>
       <r>    5.7554    0.9049 </r>
       <r>   10.8359   -0.0000 </r>
       <r>   17.3270    0.0000 </r>
       <r>   18.1641    0.0000 </r>
       <r>   22.3471    0.0000 </r>
       <r>   24.3552    0.0000 </r>
       <r>   26.1424    0.0000 </r>
       <r>   28.4586    0.0000 </r>
       <r>   28.8238    0.0000 </r>
       <r>   31.5499    0.0000 </r>
      </set>
      <set comment="kpoint 14">
       <r>   -0.6506    1.0000 </r>
       <r>    1.6354    1.0000 </r>
       <r>    1.8342    1.0000 </r>
       <r>    3.5081    1.0000 </r>
       <r>    3.5457    1.0000 </r>
       <r>    4.0493    1.0000 </r>
       <r>    4.2307    1.0000 </r>
       <r>    4.6415    1.0000 </r>
       <r>    4.7671    1.0000 </r>
       <r>    5.1112    1.0000 </r>
       <r>    5.5762    1.0292 </r>
       <r>    9.3421   -0.0000 </r>
       <r>   18.2938    0.0000 </r>
       <r>   19.2250    0.0000 </r>
       <r>   22.6421    0.0000 </r>
       <r>   24.7795    0.0000 </r>
       <r>   24.9513    0.0000 </r>
       <r>   27.2450    0.0000 </r>
       <r>   27.4586    0.0000 </r>
       <r>   30.1302    0.0000 </r>
      </set>
      <set comment="kpoint 15">
       <r>    0.0298    1.0000 </r>
       <r>    1.6839    1.0000 </r>
       <r>    2.1472    1.0000 </r>
       <r>    3.4403    1.0000 </r>
       <r>    3.5804    1.0000 </r>
       <r>    3.9157    1.0000 </r>
       <r>    4.3404    1.0000 </r>
       <r>    4.4413    1.0000 </r>
       <r>    4.4870    1.0000 </r>
       <r>    5.2974    1.0002 </r>
       <r>    5.3682    1.0011 </r>
       <r>    8.0143   -0.0000 </r>
       <r>   19.3491    0.0000 </r>
       <r>   20.4181    0.0000 </r>
       <r>   23.0346    0.0000 </r>
       <r>   23.8149    0.0000 </r>
       <r>   25.2582    0.0000 </r>
       <r>   26.0010    0.0000 </r>
       <r>   26.0781    0.0000 </r>
       <r>   28.8142    0.0000 </r>
      </set>
      <set comment="kpoint 16">
       <r>    0.6898    1.0000 </r>
       <r>    1.5661    1.0000 </r>
       <r>    2.4869    1.0000 </r>
       <r>    3.1730    1.0000 </r>
       <r>    3.6968    1.0000 </r>
       <r>    3.9529    1.0000 </r>
       <r>    4.0778    1.0000 </r>
       <r>    4.2568    1.0000 </r>
       <r>    4.6687    1.0000 </r>
       <r>    5.1411    1.0000 </r>
       <r>    5.6022    1.0339 </r>
       <r>    6.9212   -0.0000 </r>
       <r>   20.4551    0.0000 </r>
       <r>   21.7160    0.0000 </r>
       <r>   22.6995    0.0000 </r>
       <r>   23.5480    0.0000 </r>
       <r>   24.5325    0.0000 </r>
       <r>   25.0540    0.0000 </r>
       <r>   25.8711    0.0000 </r>
       <r>   27.6479    0.0000 </r>
      </set>
      <set comment="kpoint 17">
       <r>    1.2299    1.0000 </r>
       <r>    1.2299    1.0000 </r>
       <r>    2.8371    1.0000 </r>
       <r>    2.8371    1.0000 </r>
       <r>    3.8622    1.0000 </r>
       <r>    3.8622    1.0000 </r>
       <r>    4.0789    1.0000 </r>
       <r>    4.0789    1.0000 </r>
       <r>    4.9047    1.0000 </r>
       <r>    4.9047    1.0000 </r>
       <r>    6.1181   -0.0354 </r>
       <r>    6.1181   -0.0354 </r>
       <r>   21.5792    0.0000 </r>
       <r>   21.5792    0.0000 </r>
       <r>   23.0949    0.0000 </r>
       <r>   23.0949    0.0000 </r>
       <r>   24.2123    0.0000 </r>
       <r>   24.2123    0.0000 </r>
       <r>   26.6629    0.0000 </r>
       <r>   26.6629    0.0000 </r>
      </set>
      <set comment="kpoint 18">
       <r>   -1.9533    1.0000 </r>
       <r>    1.2539    1.0000 </r>
       <r>    1.2892    1.0000 </r>
       <r>    3.3942    1.0000 </r>
       <r>    3.5338    1.0000 </r>
       <r>    3.9064    1.0000 </r>
       <r>    4.6411    1.0000 </r>
       <r>    4.7949    1.0000 </r>
       <r>    5.3010    1.0002 </r>
       <r>    5.4809    1.0097 </r>
       <r>    6.0395   -0.0024 </r>
       <r>   13.9834    0.0000 </r>
       <r>   14.8615    0.0000 </r>
       <r>   16.9890    0.0000 </r>
       <r>   22.3044    0.0000 </r>
       <r>   24.0192    0.0000 </r>
       <r>   27.5184    0.0000 </r>
       <r>   28.7218    0.0000 </r>
       <r>   29.8485    0.0000 </r>
       <r>   30.5477    0.0000 </r>
      </set>
      <set comment="kpoint 19">
       <r>   -1.5737    1.0000 </r>
       <r>    1.3887    1.0000 </r>
       <r>    1.4620    1.0000 </r>
       <r>    3.3277    1.0000 </r>
       <r>    3.5077    1.0000 </r>
       <r>    4.0828    1.0000 </r>
       <r>    4.5472    1.0000 </r>
       <r>    4.8432    1.0000 </r>
       <r>    4.9792    1.0000 </r>
       <r>    5.2171    1.0000 </r>
       <r>    6.0222    0.0190 </r>
       <r>   12.6596    0.0000 </r>
       <r>   15.1784    0.0000 </r>
       <r>   17.6374    0.0000 </r>
       <r>   22.5115    0.0000 </r>
       <r>   24.9509    0.0000 </r>
       <r>   26.1391    0.0000 </r>
       <r>   29.1209    0.0000 </r>
       <r>   30.0164    0.0000 </r>
       <r>   30.1203    0.0000 </r>
      </set>
      <set comment="kpoint 20">
       <r>   -1.0682    1.0000 </r>
       <r>    1.5472    1.0000 </r>
       <r>    1.6796    1.0000 </r>
       <r>    3.2914    1.0000 </r>
       <r>    3.4793    1.0000 </r>
       <r>    4.2791    1.0000 </r>
       <r>    4.3996    1.0000 </r>
       <r>    4.6440    1.0000 </r>
       <r>    4.9287    1.0000 </r>
       <r>    4.9382    1.0000 </r>
       <r>    5.9392    0.2221 </r>
       <r>   11.0856   -0.0000 </r>
       <r>   15.9013    0.0000 </r>
       <r>   18.4903    0.0000 </r>
       <r>   22.7308    0.0000 </r>
       <r>   24.7637    0.0000 </r>
       <r>   25.6529    0.0000 </r>
       <r>   28.1426    0.0000 </r>
       <r>   29.0673    0.0000 </r>
       <r>   31.9145    0.0000 </r>
      </set>
      <set comment="kpoint 21">
       <r>   -0.4690    1.0000 </r>
       <r>    1.6799    1.0000 </r>
       <r>    1.9328    1.0000 </r>
       <r>    3.2919    1.0000 </r>
       <r>    3.4310    1.0000 </r>
       <r>    4.2545    1.0000 </r>
       <r>    4.3200    1.0000 </r>
       <r>    4.4928    1.0000 </r>
       <r>    4.6625    1.0000 </r>
       <r>    5.0679    1.0000 </r>
       <r>    5.8022    0.7658 </r>
       <r>    9.5776   -0.0000 </r>
       <r>   16.7652    0.0000 </r>
       <r>   19.5122    0.0000 </r>
       <r>   23.0069    0.0000 </r>
       <r>   23.4407    0.0000 </r>
       <r>   26.2427    0.0000 </r>
       <r>   27.0779    0.0000 </r>
       <r>   27.6813    0.0000 </r>
       <r>   31.8720    0.0000 </r>
      </set>
      <set comment="kpoint 22">
       <r>    0.1732    1.0000 </r>
       <r>    1.7178    1.0000 </r>
       <r>    2.2171    1.0000 </r>
       <r>    3.3156    1.0000 </r>
       <r>    3.3359    1.0000 </r>
       <r>    4.0263    1.0000 </r>
       <r>    4.1746    1.0000 </r>
       <r>    4.4546    1.0000 </r>
       <r>    4.7199    1.0000 </r>
       <r>    5.2634    1.0001 </r>
       <r>    5.6238    1.0355 </r>
       <r>    8.2161   -0.0000 </r>
       <r>   17.7218    0.0000 </r>
       <r>   20.6721    0.0000 </r>
       <r>   22.1793    0.0000 </r>
       <r>   23.3662    0.0000 </r>
       <r>   26.0638    0.0000 </r>
       <r>   26.2063    0.0000 </r>
       <r>   26.8611    0.0000 </r>
       <r>   30.6204    0.0000 </r>
      </set>
      <set comment="kpoint 23">
       <r>    0.7848    1.0000 </r>
       <r>    1.5964    1.0000 </r>
       <r>    2.5211    1.0000 </r>
       <r>    3.1040    1.0000 </r>
       <r>    3.4292    1.0000 </r>
       <r>    3.7756    1.0000 </r>
       <r>    4.1825    1.0000 </r>
       <r>    4.3188    1.0000 </r>
       <r>    4.9545    1.0000 </r>
       <r>    5.4159    1.0031 </r>
       <r>    5.6023    1.0339 </r>
       <r>    7.0655   -0.0000 </r>
       <r>   18.7484    0.0000 </r>
       <r>   20.9780    0.0000 </r>
       <r>   21.9439    0.0000 </r>
       <r>   23.8326    0.0000 </r>
       <r>   24.7340    0.0000 </r>
       <r>   25.1721    0.0000 </r>
       <r>   27.5868    0.0000 </r>
       <r>   29.4702    0.0000 </r>
      </set>
      <set comment="kpoint 24">
       <r>    1.2805    1.0000 </r>
       <r>    1.2805    1.0000 </r>
       <r>    2.8259    1.0000 </r>
       <r>    2.8259    1.0000 </r>
       <r>    3.5754    1.0000 </r>
       <r>    3.5754    1.0000 </r>
       <r>    4.2365    1.0000 </r>
       <r>    4.2365    1.0000 </r>
       <r>    5.1893    1.0000 </r>
       <r>    5.1893    1.0000 </r>
       <r>    6.1857   -0.0238 </r>
       <r>    6.1857   -0.0238 </r>
       <r>   19.8347    0.0000 </r>
       <r>   19.8347    0.0000 </r>
       <r>   23.3047    0.0000 </r>
       <r>   23.3047    0.0000 </r>
       <r>   24.4287    0.0000 </r>
       <r>   24.4287    0.0000 </r>
       <r>   28.4542    0.0000 </r>
       <r>   28.4542    0.0000 </r>
      </set>
      <set comment="kpoint 25">
       <r>   -1.2134    1.0000 </r>
       <r>    1.4866    1.0000 </r>
       <r>    1.6522    1.0000 </r>
       <r>    3.2107    1.0000 </r>
       <r>    3.4613    1.0000 </r>
       <r>    4.3031    1.0000 </r>
       <r>    4.5859    1.0000 </r>
       <r>    4.6371    1.0000 </r>
       <r>    4.8171    1.0000 </r>
       <r>    4.9795    1.0000 </r>
       <r>    6.0833   -0.0311 </r>
       <r>   12.5178    0.0000 </r>
       <r>   14.2404    0.0000 </r>
       <r>   18.2301    0.0000 </r>
       <r>   22.7293    0.0000 </r>
       <r>   24.6854    0.0000 </r>
       <r>   26.2501    0.0000 </r>
       <r>   28.5381    0.0000 </r>
       <r>   30.2306    0.0000 </r>
       <r>   30.9544    0.0000 </r>
      </set>
      <set comment="kpoint 26">
       <r>   -0.7406    1.0000 </r>
       <r>    1.5941    1.0000 </r>
       <r>    1.8896    1.0000 </r>
       <r>    3.1278    1.0000 </r>
       <r>    3.4256    1.0000 </r>
       <r>    4.2946    1.0000 </r>
       <r>    4.5345    1.0000 </r>
       <r>    4.5357    1.0000 </r>
       <r>    4.7389    1.0000 </r>
       <r>    4.8779    1.0000 </r>
       <r>    6.0724   -0.0268 </r>
       <r>   11.3160   -0.0000 </r>
       <r>   14.5148    0.0000 </r>
       <r>   19.0217    0.0000 </r>
       <r>   22.9297    0.0000 </r>
       <r>   23.2372    0.0000 </r>
       <r>   27.3063    0.0000 </r>
       <r>   27.7410    0.0000 </r>
       <r>   29.4631    0.0000 </r>
       <r>   31.7063    0.0000 </r>
      </set>
      <set comment="kpoint 27">
       <r>   -0.1933    1.0000 </r>
       <r>    1.6735    1.0000 </r>
       <r>    2.1523    1.0000 </r>
       <r>    3.0868    1.0000 </r>
       <r>    3.3917    1.0000 </r>
       <r>    3.9736    1.0000 </r>
       <r>    4.4565    1.0000 </r>
       <r>    4.5459    1.0000 </r>
       <r>    4.7759    1.0000 </r>
       <r>    5.0009    1.0000 </r>
       <r>    5.9958    0.0652 </r>
       <r>    9.8600   -0.0000 </r>
       <r>   15.2407    0.0000 </r>
       <r>   19.9843    0.0000 </r>
       <r>   21.8484    0.0000 </r>
       <r>   23.1725    0.0000 </r>
       <r>   26.8320    0.0000 </r>
       <r>   28.0372    0.0000 </r>
       <r>   28.1231    0.0000 </r>
       <r>   32.2201    0.0000 </r>
      </set>
      <set comment="kpoint 28">
       <r>    0.3720    1.0000 </r>
       <r>    1.6744    1.0000 </r>
       <r>    2.4250    1.0000 </r>
       <r>    3.0949    1.0000 </r>
       <r>    3.3195    1.0000 </r>
       <r>    3.6903    1.0000 </r>
       <r>    4.4208    1.0000 </r>
       <r>    4.4346    1.0000 </r>
       <r>    5.0185    1.0000 </r>
       <r>    5.2062    1.0000 </r>
       <r>    5.8644    0.5193 </r>
       <r>    8.4784   -0.0000 </r>
       <r>   16.1192    0.0000 </r>
       <r>   20.5360    0.0000 </r>
       <r>   21.0913    0.0000 </r>
       <r>   23.4908    0.0000 </r>
       <r>   25.9357    0.0000 </r>
       <r>   26.5332    0.0000 </r>
       <r>   28.8682    0.0000 </r>
       <r>   32.4515    0.0000 </r>
      </set>
      <set comment="kpoint 29">
       <r>    0.8863    1.0000 </r>
       <r>    1.5534    1.0000 </r>
       <r>    2.6966    1.0000 </r>
       <r>    3.1573    1.0000 </r>
       <r>    3.1708    1.0000 </r>
       <r>    3.4561    1.0000 </r>
       <r>    4.4041    1.0000 </r>
       <r>    4.4231    1.0000 </r>
       <r>    5.2571    1.0001 </r>
       <r>    5.6009    1.0337 </r>
       <r>    5.6900    1.0105 </r>
       <r>    7.2642   -0.0000 </r>
       <r>   17.0966    0.0000 </r>
       <r>   19.3059    0.0000 </r>
       <r>   22.3195    0.0000 </r>
       <r>   23.9110    0.0000 </r>
       <r>   25.0593    0.0000 </r>
       <r>   25.1310    0.0000 </r>
       <r>   29.6523    0.0000 </r>
       <r>   31.4707    0.0000 </r>
      </set>
      <set comment="kpoint 30">
       <r>    1.2899    1.0000 </r>
       <r>    1.2899    1.0000 </r>
       <r>    2.9531    1.0000 </r>
       <r>    2.9531    1.0000 </r>
       <r>    3.2775    1.0000 </r>
       <r>    3.2775    1.0000 </r>
       <r>    4.4159    1.0000 </r>
       <r>    4.4159    1.0000 </r>
       <r>    5.4841    1.0101 </r>
       <r>    5.4841    1.0101 </r>
       <r>    6.2861   -0.0060 </r>
       <r>    6.2861   -0.0060 </r>
       <r>   18.1596    0.0000 </r>
       <r>   18.1596    0.0000 </r>
       <r>   23.6482    0.0000 </r>
       <r>   23.6482    0.0000 </r>
       <r>   24.4538    0.0000 </r>
       <r>   24.4538    0.0000 </r>
       <r>   30.5199    0.0000 </r>
       <r>   30.5199    0.0000 </r>
      </set>
      <set comment="kpoint 31">
       <r>   -0.3240    1.0000 </r>
       <r>    1.6265    1.0000 </r>
       <r>    2.1581    1.0000 </r>
       <r>    2.9997    1.0000 </r>
       <r>    3.4237    1.0000 </r>
       <r>    3.9534    1.0000 </r>
       <r>    4.5692    1.0000 </r>
       <r>    4.6210    1.0000 </r>
       <r>    4.7978    1.0000 </r>
       <r>    4.8497    1.0000 </r>
       <r>    6.1353   -0.0339 </r>
       <r>   11.0360   -0.0000 </r>
       <r>   13.7930    0.0000 </r>
       <r>   19.7420    0.0000 </r>
       <r>   21.7370    0.0000 </r>
       <r>   23.1001    0.0000 </r>
       <r>   27.1658    0.0000 </r>
       <r>   28.8332    0.0000 </r>
       <r>   29.9435    0.0000 </r>
       <r>   30.1320    0.0000 </r>
      </set>
      <set comment="kpoint 32">
       <r>    0.1334    1.0000 </r>
       <r>    1.6217    1.0000 </r>
       <r>    2.4557    1.0000 </r>
       <r>    2.9170    1.0000 </r>
       <r>    3.4734    1.0000 </r>
       <r>    3.6416    1.0000 </r>
       <r>    4.4660    1.0000 </r>
       <r>    4.6231    1.0000 </r>
       <r>    4.9246    1.0000 </r>
       <r>    5.0575    1.0000 </r>
       <r>    6.1270   -0.0348 </r>
       <r>    9.9824   -0.0000 </r>
       <r>   14.0350    0.0000 </r>
       <r>   20.3112    0.0000 </r>
       <r>   20.6314    0.0000 </r>
       <r>   23.3054    0.0000 </r>
       <r>   26.4579    0.0000 </r>
       <r>   28.4757    0.0000 </r>
       <r>   30.0295    0.0000 </r>
       <r>   30.6762    0.0000 </r>
      </set>
      <set comment="kpoint 33">
       <r>    0.5722    1.0000 </r>
       <r>    1.5594    1.0000 </r>
       <r>    2.7551    1.0000 </r>
       <r>    2.8872    1.0000 </r>
       <r>    3.3738    1.0000 </r>
       <r>    3.5124    1.0000 </r>
       <r>    4.4486    1.0000 </r>
       <r>    4.6281    1.0000 </r>
       <r>    5.1259    1.0000 </r>
       <r>    5.3080    1.0003 </r>
       <r>    6.0537   -0.0153 </r>
       <r>    8.6922   -0.0000 </r>
       <r>   14.7277    0.0000 </r>
       <r>   18.9787    0.0000 </r>
       <r>   21.6693    0.0000 </r>
       <r>   23.5794    0.0000 </r>
       <r>   25.7147    0.0000 </r>
       <r>   26.9470    0.0000 </r>
       <r>   30.9672    0.0000 </r>
       <r>   31.4550    0.0000 </r>
      </set>
      <set comment="kpoint 34">
       <r>    0.9424    1.0000 </r>
       <r>    1.4288    1.0000 </r>
       <r>    2.9161    1.0000 </r>
       <r>    3.0346    1.0000 </r>
       <r>    3.1602    1.0000 </r>
       <r>    3.4480    1.0000 </r>
       <r>    4.5002    1.0000 </r>
       <r>    4.6280    1.0000 </r>
       <r>    5.5419    1.0214 </r>
       <r>    5.5944    1.0327 </r>
       <r>    5.9247    0.2738 </r>
       <r>    7.4583   -0.0000 </r>
       <r>   15.6120    0.0000 </r>
       <r>   17.7482    0.0000 </r>
       <r>   22.8361    0.0000 </r>
       <r>   23.9469    0.0000 </r>
       <r>   25.0213    0.0000 </r>
       <r>   25.4892    0.0000 </r>
       <r>   31.7895    0.0000 </r>
       <r>   32.3356    0.0000 </r>
      </set>
      <set comment="kpoint 35">
       <r>    1.2260    1.0000 </r>
       <r>    1.2260    1.0000 </r>
       <r>    3.0068    1.0000 </r>
       <r>    3.0068    1.0000 </r>
       <r>    3.2750    1.0000 </r>
       <r>    3.2750    1.0000 </r>
       <r>    4.5766    1.0000 </r>
       <r>    4.5766    1.0000 </r>
       <r>    5.7507    0.9160 </r>
       <r>    5.7507    0.9160 </r>
       <r>    6.3959   -0.0006 </r>
       <r>    6.3959   -0.0006 </r>
       <r>   16.6242    0.0000 </r>
       <r>   16.6242    0.0000 </r>
       <r>   24.1145    0.0000 </r>
       <r>   24.1145    0.0000 </r>
       <r>   24.4262    0.0000 </r>
       <r>   24.4262    0.0000 </r>
       <r>   32.5404    0.0000 </r>
       <r>   32.5404    0.0000 </r>
      </set>
      <set comment="kpoint 36">
       <r>    0.4559    1.0000 </r>
       <r>    1.5325    1.0000 </r>
       <r>    2.7942    1.0000 </r>
       <r>    2.8012    1.0000 </r>
       <r>    3.3447    1.0000 </r>
       <r>    3.6916    1.0000 </r>
       <r>    4.4508    1.0000 </r>
       <r>    4.7250    1.0000 </r>
       <r>    4.8897    1.0000 </r>
       <r>    5.3263    1.0004 </r>
       <r>    6.1875   -0.0234 </r>
       <r>    9.6036   -0.0000 </r>
       <r>   13.5148    0.0000 </r>
       <r>   18.8693    0.0000 </r>
       <r>   21.4405    0.0000 </r>
       <r>   23.4659    0.0000 </r>
       <r>   25.9642    0.0000 </r>
       <r>   28.5165    0.0000 </r>
       <r>   29.7163    0.0000 </r>
       <r>   31.7206    0.0000 </r>
      </set>
      <set comment="kpoint 37">
       <r>    0.7297    1.0000 </r>
       <r>    1.4136    1.0000 </r>
       <r>    2.7272    1.0000 </r>
       <r>    3.0969    1.0000 </r>
       <r>    3.1524    1.0000 </r>
       <r>    3.9256    1.0000 </r>
       <r>    4.5020    1.0000 </r>
       <r>    4.7783    1.0000 </r>
       <r>    5.0259    1.0000 </r>
       <r>    5.5743    1.0288 </r>
       <r>    6.1778   -0.0256 </r>
       <r>    8.6818   -0.0000 </r>
       <r>   13.7406    0.0000 </r>
       <r>   17.5421    0.0000 </r>
       <r>   22.3964    0.0000 </r>
       <r>   23.6851    0.0000 </r>
       <r>   25.4084    0.0000 </r>
       <r>   27.3331    0.0000 </r>
       <r>   30.1712    0.0000 </r>
       <r>   33.0094    0.0000 </r>
      </set>
      <set comment="kpoint 38">
       <r>    0.9458    1.0000 </r>
       <r>    1.2749    1.0000 </r>
       <r>    2.7218    1.0000 </r>
       <r>    2.9073    1.0000 </r>
       <r>    3.4770    1.0000 </r>
       <r>    3.9303    1.0000 </r>
       <r>    4.5981    1.0000 </r>
       <r>    4.7748    1.0000 </r>
       <r>    5.5770    1.0294 </r>
       <r>    5.7924    0.7988 </r>
       <r>    6.1032   -0.0350 </r>
       <r>    7.5611   -0.0000 </r>
       <r>   14.3963    0.0000 </r>
       <r>   16.3432    0.0000 </r>
       <r>   23.4829    0.0000 </r>
       <r>   23.9849    0.0000 </r>
       <r>   24.8617    0.0000 </r>
       <r>   25.9785    0.0000 </r>
       <r>   30.9869    0.0000 </r>
       <r>   32.9902    0.0000 </r>
      </set>
      <set comment="kpoint 39">
       <r>    1.1215    1.0000 </r>
       <r>    1.1215    1.0000 </r>
       <r>    2.7816    1.0000 </r>
       <r>    2.7816    1.0000 </r>
       <r>    3.7485    1.0000 </r>
       <r>    3.7485    1.0000 </r>
       <r>    4.7027    1.0000 </r>
       <r>    4.7027    1.0000 </r>
       <r>    5.9718    0.1220 </r>
       <r>    5.9718    0.1220 </r>
       <r>    6.4795   -0.0001 </r>
       <r>    6.4795   -0.0001 </r>
       <r>   15.2864    0.0000 </r>
       <r>   15.2864    0.0000 </r>
       <r>   24.3784    0.0000 </r>
       <r>   24.3784    0.0000 </r>
       <r>   24.6834    0.0000 </r>
       <r>   24.6834    0.0000 </r>
       <r>   31.9363    0.0000 </r>
       <r>   31.9363    0.0000 </r>
      </set>
      <set comment="kpoint 40">
       <r>    0.8402    1.0000 </r>
       <r>    1.2655    1.0000 </r>
       <r>    2.6243    1.0000 </r>
       <r>    2.8725    1.0000 </r>
       <r>    3.5680    1.0000 </r>
       <r>    4.4499    1.0000 </r>
       <r>    4.5875    1.0000 </r>
       <r>    4.9299    1.0000 </r>
       <r>    4.9303    1.0000 </r>
       <r>    5.8073    0.7476 </r>
       <r>    6.2319   -0.0139 </r>
       <r>    8.2600   -0.0000 </r>
       <r>   13.3614    0.0000 </r>
       <r>   16.2511    0.0000 </r>
       <r>   23.2595    0.0000 </r>
       <r>   23.8345    0.0000 </r>
       <r>   25.0451    0.0000 </r>
       <r>   27.2560    0.0000 </r>
       <r>   29.5572    0.0000 </r>
       <r>   32.8847    0.0000 </r>
      </set>
      <set comment="kpoint 41">
       <r>    0.9284    1.0000 </r>
       <r>    1.1320    1.0000 </r>
       <r>    2.5851    1.0000 </r>
       <r>    2.7096    1.0000 </r>
       <r>    3.9575    1.0000 </r>
       <r>    4.5108    1.0000 </r>
       <r>    4.6906    1.0000 </r>
       <r>    4.8683    1.0000 </r>
       <r>    5.5680    1.0274 </r>
       <r>    5.9975    0.0616 </r>
       <r>    6.2168   -0.0169 </r>
       <r>    7.4587   -0.0000 </r>
       <r>   13.5829    0.0000 </r>
       <r>   15.1314    0.0000 </r>
       <r>   24.0464    0.0000 </r>
       <r>   24.2410    0.0000 </r>
       <r>   24.6700    0.0000 </r>
       <r>   26.4038    0.0000 </r>
       <r>   29.9237    0.0000 </r>
       <r>   31.7447    0.0000 </r>
      </set>
      <set comment="kpoint 42">
       <r>    1.0205    1.0000 </r>
       <r>    1.0205    1.0000 </r>
       <r>    2.6132    1.0000 </r>
       <r>    2.6132    1.0000 </r>
       <r>    4.2837    1.0000 </r>
       <r>    4.2837    1.0000 </r>
       <r>    4.7914    1.0000 </r>
       <r>    4.7914    1.0000 </r>
       <r>    6.1365   -0.0338 </r>
[...]
       </set>
       <set comment="band 16">
        <r>  0.0000  0.0857  0.0000  0.0857  0.0000  0.1109  0.0000  0.1109  0.0000 </r>
        <r>  0.0000  0.0857  0.0000  0.0857  0.0000  0.1109  0.0000  0.1109  0.0000 </r>
       </set>
       <set comment="band 17">
        <r>  0.2677  0.0000  0.1036  0.0000  0.0238  0.0000  0.0038  0.0000  0.0000 </r>
        <r>  0.2677  0.0000  0.1036  0.0000  0.0238  0.0000  0.0038  0.0000  0.0000 </r>
       </set>
       <set comment="band 18">
        <r>  0.2677  0.0000  0.1036  0.0000  0.0238  0.0000  0.0038  0.0000  0.0000 </r>
        <r>  0.2677  0.0000  0.1036  0.0000  0.0238  0.0000  0.0038  0.0000  0.0000 </r>
       </set>
       <set comment="band 19">
        <r>  0.0000  0.0001  0.0000  0.0001  0.0000  0.0611  0.0000  0.0611  0.0000 </r>
        <r>  0.0000  0.0001  0.0000  0.0001  0.0000  0.0611  0.0000  0.0611  0.0000 </r>
       </set>
       <set comment="band 20">
        <r>  0.0000  0.0001  0.0000  0.0001  0.0000  0.0611  0.0000  0.0611  0.0000 </r>
        <r>  0.0000  0.0001  0.0000  0.0001  0.0000  0.0611  0.0000  0.0611  0.0000 </r>
       </set>
      </set>
      <set comment="kpoint 162">
       <set comment="band 1">
        <r>  0.0098  0.0135  0.0135  0.0135  0.1355  0.1355  0.0000  0.1355  0.0000 </r>
        <r>  0.0098  0.0135  0.0135  0.0135  0.1355  0.1355  0.0000  0.1355  0.0000 </r>
       </set>
       <set comment="band 2">
        <r>  0.0000  0.0087  0.0382  0.0104  0.2593  0.0707  0.0076  0.0590  0.0000 </r>
        <r>  0.0000  0.0087  0.0382  0.0104  0.2593  0.0707  0.0076  0.0590  0.0000 </r>
       </set>
       <set comment="band 3">
        <r>  0.0000  0.0295  0.0000  0.0278  0.0002  0.1885  0.0000  0.2002  0.0076 </r>
        <r>  0.0000  0.0295  0.0000  0.0278  0.0002  0.1885  0.0000  0.2002  0.0076 </r>
       </set>
       <set comment="band 4">
        <r>  0.0175  0.0370  0.0370  0.0370  0.1009  0.1011  0.0000  0.1012  0.0000 </r>
        <r>  0.0175  0.0370  0.0370  0.0370  0.1009  0.1011  0.0000  0.1012  0.0000 </r>
       </set>
       <set comment="band 5">
        <r>  0.0000  0.0143  0.0619  0.0167  0.2236  0.0602  0.0134  0.0518  0.0000 </r>
        <r>  0.0000  0.0143  0.0619  0.0167  0.2236  0.0602  0.0134  0.0518  0.0000 </r>
       </set>
       <set comment="band 6">
        <r>  0.0000  0.0476  0.0000  0.0453  0.0001  0.1635  0.0000  0.1719  0.0134 </r>
        <r>  0.0000  0.0476  0.0000  0.0453  0.0001  0.1635  0.0000  0.1719  0.0134 </r>
       </set>
       <set comment="band 7">
        <r>  0.0000  0.0000  0.0001  0.0000  0.0127  0.0023  0.4706  0.0042  0.0033 </r>
        <r>  0.0000  0.0000  0.0001  0.0000  0.0127  0.0023  0.4706  0.0042  0.0033 </r>
       </set>
       <set comment="band 8">
        <r>  0.0000  0.0000  0.0000  0.0001  0.0001  0.0105  0.0033  0.0086  0.4706 </r>
        <r>  0.0000  0.0000  0.0000  0.0001  0.0001  0.0105  0.0033  0.0086  0.4706 </r>
       </set>
       <set comment="band 9">
        <r>  0.0000  0.0000  0.0000  0.0000  0.0069  0.0012  0.4794  0.0023  0.0035 </r>
        <r>  0.0000  0.0000  0.0000  0.0000  0.0069  0.0012  0.4794  0.0023  0.0035 </r>
       </set>
       <set comment="band 10">
        <r>  0.0000  0.0000  0.0000  0.0000  0.0000  0.0057  0.0035  0.0047  0.4794 </r>
        <r>  0.0000  0.0000  0.0000  0.0000  0.0000  0.0057  0.0035  0.0047  0.4794 </r>
       </set>
       <set comment="band 11">
        <r>  0.0345  0.0465  0.0465  0.0465  0.0858  0.0858  0.0000  0.0858  0.0000 </r>
        <r>  0.0345  0.0465  0.0465  0.0465  0.0858  0.0858  0.0000  0.0858  0.0000 </r>
       </set>
       <set comment="band 12">
        <r>  0.0000  0.0270  0.1220  0.0341  0.1497  0.0419  0.0094  0.0332  0.0000 </r>
        <r>  0.0000  0.0270  0.1220  0.0341  0.1497  0.0419  0.0094  0.0332  0.0000 </r>
       </set>
       <set comment="band 13">
        <r>  0.0000  0.0950  0.0001  0.0879  0.0002  0.1080  0.0000  0.1167  0.0094 </r>
        <r>  0.0000  0.0950  0.0001  0.0879  0.0002  0.1080  0.0000  0.1167  0.0094 </r>
       </set>
       <set comment="band 14">
        <r>  0.2315  0.0138  0.0138  0.0138  0.0470  0.0470  0.0000  0.0470  0.0000 </r>
        <r>  0.2315  0.0138  0.0138  0.0138  0.0470  0.0470  0.0000  0.0470  0.0000 </r>
       </set>
       <set comment="band 15">
        <r>  0.0000  0.0249  0.1182  0.0346  0.1465  0.0429  0.0062  0.0308  0.0000 </r>
        <r>  0.0000  0.0249  0.1182  0.0346  0.1465  0.0429  0.0062  0.0308  0.0000 </r>
       </set>
       <set comment="band 16">
        <r>  0.0000  0.0936  0.0003  0.0838  0.0003  0.1039  0.0000  0.1160  0.0062 </r>
        <r>  0.0000  0.0936  0.0003  0.0838  0.0003  0.1039  0.0000  0.1160  0.0062 </r>
       </set>
       <set comment="band 17">
        <r>  0.3507  0.0168  0.0168  0.0168  0.0005  0.0005  0.0000  0.0005  0.0000 </r>
        <r>  0.3507  0.0168  0.0168  0.0168  0.0005  0.0005  0.0000  0.0005  0.0000 </r>
       </set>
       <set comment="band 18">
        <r>  0.1598  0.0468  0.0468  0.0468  0.0310  0.0310  0.0000  0.0310  0.0000 </r>
        <r>  0.1598  0.0468  0.0468  0.0468  0.0310  0.0310  0.0000  0.0310  0.0000 </r>
       </set>
       <set comment="band 19">
        <r>  0.0000  0.0066  0.0001  0.0052  0.0004  0.0237  0.0005  0.0299  0.0494 </r>
        <r>  0.0000  0.0066  0.0001  0.0052  0.0004  0.0237  0.0005  0.0299  0.0494 </r>
       </set>
       <set comment="band 20">
        <r>  0.0000  0.0013  0.0079  0.0027  0.0356  0.0123  0.0494  0.0061  0.0005 </r>
        <r>  0.0000  0.0013  0.0079  0.0027  0.0356  0.0123  0.0494  0.0061  0.0005 </r>
       </set>
      </set>
      <set comment="kpoint 163">
       <set comment="band 1">
        <r>  0.0060  0.0223  0.0224  0.0089  0.1437  0.1045  0.0005  0.1436  0.0015 </r>
        <r>  0.0060  0.0223  0.0224  0.0089  0.1437  0.1045  0.0005  0.1436  0.0015 </r>
       </set>
       <set comment="band 2">
        <r>  0.0060  0.0223  0.0224  0.0089  0.1437  0.1045  0.0005  0.1436  0.0015 </r>
        <r>  0.0060  0.0223  0.0224  0.0089  0.1437  0.1045  0.0005  0.1436  0.0015 </r>
       </set>
       <set comment="band 3">
        <r>  0.0000  0.0371  0.0371  0.0000  0.1819  0.0000  0.0076  0.1820  0.0025 </r>
        <r>  0.0000  0.0371  0.0371  0.0000  0.1819  0.0000  0.0076  0.1820  0.0025 </r>
       </set>
       <set comment="band 4">
        <r>  0.0000  0.0371  0.0371  0.0000  0.1819  0.0000  0.0076  0.1820  0.0025 </r>
        <r>  0.0000  0.0371  0.0371  0.0000  0.1819  0.0000  0.0076  0.1820  0.0025 </r>
       </set>
       <set comment="band 5">
        <r>  0.0030  0.0149  0.0149  0.0698  0.0357  0.2642  0.0004  0.0357  0.0011 </r>
        <r>  0.0030  0.0149  0.0149  0.0698  0.0357  0.2642  0.0004  0.0357  0.0011 </r>
       </set>
       <set comment="band 6">
        <r>  0.0030  0.0149  0.0149  0.0698  0.0357  0.2642  0.0004  0.0357  0.0011 </r>
        <r>  0.0030  0.0149  0.0149  0.0698  0.0357  0.2642  0.0004  0.0357  0.0011 </r>
       </set>
       <set comment="band 7">
        <r>  0.0000  0.0000  0.0000  0.0000  0.0071  0.0000  0.3605  0.0070  0.1186 </r>
        <r>  0.0000  0.0000  0.0000  0.0000  0.0071  0.0000  0.3605  0.0070  0.1186 </r>
       </set>
       <set comment="band 8">
        <r>  0.0000  0.0000  0.0000  0.0000  0.0071  0.0000  0.3605  0.0070  0.1186 </r>
        <r>  0.0000  0.0000  0.0000  0.0000  0.0071  0.0000  0.3605  0.0070  0.1186 </r>
       </set>
       <set comment="band 9">
        <r>  0.0000  0.0000  0.0000  0.0000  0.0024  0.0002  0.1209  0.0025  0.3675 </r>
        <r>  0.0000  0.0000  0.0000  0.0000  0.0024  0.0002  0.1209  0.0025  0.3675 </r>
       </set>
       <set comment="band 10">
        <r>  0.0000  0.0000  0.0000  0.0000  0.0024  0.0002  0.1209  0.0025  0.3675 </r>
        <r>  0.0000  0.0000  0.0000  0.0000  0.0024  0.0002  0.1209  0.0025  0.3675 </r>
       </set>
       <set comment="band 11">
        <r>  0.0200  0.0405  0.0405  0.0809  0.0656  0.1080  0.0004  0.0656  0.0013 </r>
        <r>  0.0200  0.0405  0.0405  0.0809  0.0656  0.1080  0.0004  0.0656  0.0013 </r>
       </set>
       <set comment="band 12">
        <r>  0.0200  0.0405  0.0405  0.0809  0.0656  0.1080  0.0004  0.0656  0.0013 </r>
        <r>  0.0200  0.0405  0.0405  0.0809  0.0656  0.1080  0.0004  0.0656  0.0013 </r>
       </set>
       <set comment="band 13">
        <r>  0.0000  0.0910  0.0910  0.0000  0.1110  0.0000  0.0056  0.1110  0.0019 </r>
        <r>  0.0000  0.0910  0.0910  0.0000  0.1110  0.0000  0.0056  0.1110  0.0019 </r>
       </set>
       <set comment="band 14">
        <r>  0.0000  0.0910  0.0910  0.0000  0.1110  0.0000  0.0056  0.1110  0.0019 </r>
        <r>  0.0000  0.0910  0.0910  0.0000  0.1110  0.0000  0.0056  0.1110  0.0019 </r>
       </set>
       <set comment="band 15">
        <r>  0.1267  0.0117  0.0117  0.0834  0.0358  0.1023  0.0001  0.0358  0.0003 </r>
        <r>  0.1267  0.0117  0.0117  0.0834  0.0358  0.1023  0.0001  0.0358  0.0003 </r>
       </set>
       <set comment="band 16">
        <r>  0.1267  0.0117  0.0117  0.0834  0.0358  0.1023  0.0001  0.0358  0.0003 </r>
        <r>  0.1267  0.0117  0.0117  0.0834  0.0358  0.1023  0.0001  0.0358  0.0003 </r>
       </set>
       <set comment="band 17">
        <r>  0.2477  0.0406  0.0406  0.0140  0.0173  0.0208  0.0001  0.0173  0.0004 </r>
        <r>  0.2477  0.0406  0.0406  0.0140  0.0173  0.0208  0.0001  0.0173  0.0004 </r>
       </set>
       <set comment="band 18">
        <r>  0.2477  0.0406  0.0406  0.0140  0.0173  0.0208  0.0001  0.0173  0.0004 </r>
        <r>  0.2477  0.0406  0.0406  0.0140  0.0173  0.0208  0.0001  0.0173  0.0004 </r>
       </set>
       <set comment="band 19">
        <r>  0.0000  0.0023  0.0023  0.0000  0.0243  0.0000  0.0136  0.0243  0.0045 </r>
        <r>  0.0000  0.0025  0.0025  0.0000  0.0218  0.0000  0.0151  0.0218  0.0050 </r>
       </set>
       <set comment="band 20">
        <r>  0.0000  0.0025  0.0025  0.0000  0.0218  0.0000  0.0151  0.0218  0.0050 </r>
        <r>  0.0000  0.0023  0.0023  0.0000  0.0243  0.0000  0.0136  0.0243  0.0045 </r>
       </set>
      </set>
      <set comment="kpoint 164">
       <set comment="band 1">
        <r>  0.0045  0.0000  0.0733  0.0000  0.3628  0.0000  0.0066  0.0000  0.0000 </r>
        <r>  0.0045  0.0000  0.0733  0.0000  0.3628  0.0000  0.0066  0.0000  0.0000 </r>
       </set>
       <set comment="band 2">
        <r>  0.0045  0.0000  0.0733  0.0000  0.3628  0.0000  0.0066  0.0000  0.0000 </r>
        <r>  0.0045  0.0000  0.0733  0.0000  0.3628  0.0000  0.0066  0.0000  0.0000 </r>
       </set>
       <set comment="band 3">
        <r>  0.0000  0.0295  0.0000  0.0295  0.0000  0.1974  0.0000  0.1974  0.0000 </r>
        <r>  0.0000  0.0295  0.0000  0.0295  0.0000  0.1974  0.0000  0.1974  0.0000 </r>
       </set>
       <set comment="band 4">
        <r>  0.0000  0.0295  0.0000  0.0295  0.0000  0.1974  0.0000  0.1974  0.0000 </r>
        <r>  0.0000  0.0295  0.0000  0.0295  0.0000  0.1974  0.0000  0.1974  0.0000 </r>
       </set>
       <set comment="band 5">
        <r>  0.0000  0.0482  0.0000  0.0481  0.0000  0.1728  0.0000  0.1728  0.0000 </r>
        <r>  0.0000  0.0482  0.0000  0.0481  0.0000  0.1728  0.0000  0.1728  0.0000 </r>
       </set>
       <set comment="band 6">
        <r>  0.0000  0.0482  0.0000  0.0481  0.0000  0.1728  0.0000  0.1728  0.0000 </r>
        <r>  0.0000  0.0482  0.0000  0.0481  0.0000  0.1728  0.0000  0.1728  0.0000 </r>
       </set>
       <set comment="band 7">
        <r>  0.0000  0.0000  0.0000  0.0000  0.0093  0.0000  0.4841  0.0000  0.0000 </r>
        <r>  0.0000  0.0000  0.0000  0.0000  0.0093  0.0000  0.4841  0.0000  0.0000 </r>
       </set>
       <set comment="band 8">
        <r>  0.0000  0.0000  0.0000  0.0000  0.0093  0.0000  0.4841  0.0000  0.0000 </r>
        <r>  0.0000  0.0000  0.0000  0.0000  0.0093  0.0000  0.4841  0.0000  0.0000 </r>
       </set>
       <set comment="band 9">
        <r>  0.0000  0.0000  0.0000  0.0000  0.0000  0.0000  0.0000  0.0000  0.4938 </r>
        <r>  0.0000  0.0000  0.0000  0.0000  0.0000  0.0000  0.0000  0.0000  0.4937 </r>
       </set>
       <set comment="band 10">
        <r>  0.0000  0.0000  0.0000  0.0000  0.0000  0.0000  0.0000  0.0000  0.4937 </r>
        <r>  0.0000  0.0000  0.0000  0.0000  0.0000  0.0000  0.0000  0.0000  0.4938 </r>
       </set>
       <set comment="band 11">
        <r>  0.0000  0.0910  0.0000  0.0910  0.0000  0.1173  0.0000  0.1173  0.0000 </r>
        <r>  0.0000  0.0910  0.0000  0.0910  0.0000  0.1173  0.0000  0.1173  0.0000 </r>
       </set>
       <set comment="band 12">
        <r>  0.0000  0.0910  0.0000  0.0910  0.0000  0.1173  0.0000  0.1173  0.0000 </r>
        <r>  0.0000  0.0910  0.0000  0.0910  0.0000  0.1173  0.0000  0.1173  0.0000 </r>
       </set>
       <set comment="band 13">
        <r>  0.0514  0.0000  0.1446  0.0000  0.2160  0.0000  0.0045  0.0000  0.0000 </r>
        <r>  0.0514  0.0000  0.1446  0.0000  0.2160  0.0000  0.0045  0.0000  0.0000 </r>
       </set>
       <set comment="band 14">
        <r>  0.0514  0.0000  0.1446  0.0000  0.2160  0.0000  0.0045  0.0000  0.0000 </r>
        <r>  0.0514  0.0000  0.1446  0.0000  0.2160  0.0000  0.0045  0.0000  0.0000 </r>
       </set>
       <set comment="band 15">
        <r>  0.0000  0.0890  0.0000  0.0890  0.0000  0.1129  0.0000  0.1129  0.0000 </r>
        <r>  0.0000  0.0890  0.0000  0.0890  0.0000  0.1129  0.0000  0.1129  0.0000 </r>
       </set>
       <set comment="band 16">
        <r>  0.0000  0.0890  0.0000  0.0890  0.0000  0.1129  0.0000  0.1129  0.0000 </r>
        <r>  0.0000  0.0890  0.0000  0.0890  0.0000  0.1129  0.0000  0.1129  0.0000 </r>
       </set>
       <set comment="band 17">
        <r>  0.3491  0.0000  0.0409  0.0000  0.0128  0.0000  0.0005  0.0000  0.0000 </r>
        <r>  0.3491  0.0000  0.0409  0.0000  0.0128  0.0000  0.0005  0.0000  0.0000 </r>
       </set>
       <set comment="band 18">
        <r>  0.3491  0.0000  0.0409  0.0000  0.0128  0.0000  0.0005  0.0000  0.0000 </r>
        <r>  0.3491  0.0000  0.0409  0.0000  0.0128  0.0000  0.0005  0.0000  0.0000 </r>
       </set>
       <set comment="band 19">
        <r>  0.0000  0.0006  0.0000  0.0006  0.0000  0.0312  0.0000  0.0312  0.0000 </r>
        <r>  0.0000  0.0006  0.0000  0.0006  0.0000  0.0312  0.0000  0.0312  0.0000 </r>
       </set>
       <set comment="band 20">
        <r>  0.0000  0.0006  0.0000  0.0006  0.0000  0.0312  0.0000  0.0312  0.0000 </r>
        <r>  0.0000  0.0006  0.0000  0.0006  0.0000  0.0312  0.0000  0.0312  0.0000 </r>
       </set>
      </set>
      <set comment="kpoint 165">
       <set comment="band 1">
        <r>  0.0000  0.0000  0.1453  0.0000  0.0386  0.0000  0.0000  0.0000  0.0000 </r>
        <r>  0.0000  0.0000  0.0080  0.0000  0.7046  0.0000  0.0000  0.0000  0.0000 </r>
       </set>
       <set comment="band 2">
        <r>  0.0000  0.0000  0.0080  0.0000  0.7046  0.0000  0.0000  0.0000  0.0000 </r>
        <r>  0.0000  0.0000  0.1453  0.0000  0.0386  0.0000  0.0000  0.0000  0.0000 </r>
       </set>
       <set comment="band 3">
        <r>  0.0000  0.0000  0.0000  0.0676  0.0000  0.4153  0.0000  0.0000  0.0000 </r>
        <r>  0.0000  0.0000  0.0000  0.0856  0.0000  0.3279  0.0000  0.0000  0.0000 </r>
       </set>
       <set comment="band 4">
        <r>  0.0000  0.0000  0.0000  0.0856  0.0000  0.3279  0.0000  0.0000  0.0000 </r>
        <r>  0.0000  0.0000  0.0000  0.0676  0.0000  0.4153  0.0000  0.0000  0.0000 </r>
       </set>
       <set comment="band 5">
        <r>  0.0000  0.0045  0.0000  0.0000  0.0000  0.0000  0.0000  0.7213  0.0000 </r>
        <r>  0.0000  0.1487  0.0000  0.0000  0.0000  0.0000  0.0000  0.0219  0.0000 </r>
       </set>
       <set comment="band 6">
        <r>  0.0000  0.1487  0.0000  0.0000  0.0000  0.0000  0.0000  0.0219  0.0000 </r>
        <r>  0.0000  0.0045  0.0000  0.0000  0.0000  0.0000  0.0000  0.7213  0.0000 </r>
       </set>
       <set comment="band 7">
        <r>  0.0000  0.0000  0.0000  0.0000  0.0000  0.0000  0.6768  0.0000  0.0051 </r>
        <r>  0.0000  0.0000  0.0000  0.0000  0.0000  0.0000  0.3035  0.0000  0.0023 </r>
       </set>
       <set comment="band 8">
        <r>  0.0000  0.0000  0.0000  0.0000  0.0000  0.0000  0.3035  0.0000  0.0023 </r>
        <r>  0.0000  0.0000  0.0000  0.0000  0.0000  0.0000  0.6768  0.0000  0.0051 </r>
       </set>
       <set comment="band 9">
        <r>  0.0000  0.0000  0.0000  0.0000  0.0000  0.0000  0.0056  0.0000  0.7392 </r>
        <r>  0.0000  0.0000  0.0000  0.0000  0.0000  0.0000  0.0018  0.0000  0.2411 </r>
       </set>
       <set comment="band 10">
        <r>  0.0000  0.0000  0.0000  0.0000  0.0000  0.0000  0.0018  0.0000  0.2411 </r>
        <r>  0.0000  0.0000  0.0000  0.0000  0.0000  0.0000  0.0056  0.0000  0.7392 </r>
       </set>
       <set comment="band 11">
        <r>  0.0000  0.0000  0.0199  0.0000  0.4336  0.0000  0.0000  0.0000  0.0000 </r>
        <r>  0.0000  0.0000  0.3436  0.0000  0.0251  0.0000  0.0000  0.0000  0.0000 </r>
       </set>
       <set comment="band 12">
        <r>  0.0000  0.0000  0.3436  0.0000  0.0251  0.0000  0.0000  0.0000  0.0000 </r>
        <r>  0.0000  0.0000  0.0199  0.0000  0.4336  0.0000  0.0000  0.0000  0.0000 </r>
       </set>
       <set comment="band 13">
        <r>  0.0000  0.0000  0.0000  0.1751  0.0000  0.2377  0.0000  0.0000  0.0000 </r>
        <r>  0.0000  0.0000  0.0000  0.1883  0.0000  0.2210  0.0000  0.0000  0.0000 </r>
       </set>
       <set comment="band 14">
        <r>  0.0000  0.0000  0.0000  0.1883  0.0000  0.2210  0.0000  0.0000  0.0000 </r>
        <r>  0.0000  0.0000  0.0000  0.1751  0.0000  0.2377  0.0000  0.0000  0.0000 </r>
       </set>
       <set comment="band 15">
        <r>  0.0000  0.1250  0.0000  0.0000  0.0000  0.0000  0.0000  0.3009  0.0000 </r>
        <r>  0.0000  0.2384  0.0000  0.0000  0.0000  0.0000  0.0000  0.1578  0.0000 </r>
       </set>
       <set comment="band 16">
        <r>  0.0000  0.2384  0.0000  0.0000  0.0000  0.0000  0.0000  0.1578  0.0000 </r>
        <r>  0.0000  0.1250  0.0000  0.0000  0.0000  0.0000  0.0000  0.3009  0.0000 </r>
       </set>
       <set comment="band 17">
        <r>  0.6078  0.0000  0.0000  0.0000  0.0000  0.0000  0.0000  0.0000  0.0000 </r>
        <r>  0.2053  0.0000  0.0000  0.0000  0.0000  0.0000  0.0000  0.0000  0.0000 </r>
       </set>
       <set comment="band 18">
        <r>  0.2053  0.0000  0.0000  0.0000  0.0000  0.0000  0.0000  0.0000  0.0000 </r>
        <r>  0.6078  0.0000  0.0000  0.0000  0.0000  0.0000  0.0000  0.0000  0.0000 </r>
       </set>
       <set comment="band 19">
        <r>  0.0000  0.0000  0.0000  0.0000  0.0000  0.0000  0.0000  0.0000  0.0000 </r>
        <r>  0.0000  0.0000  0.0000  0.0000  0.0000  0.0000  0.0000  0.0000  0.0000 </r>
       </set>
       <set comment="band 20">
        <r>  0.0000  0.0000  0.0000  0.0000  0.0000  0.0000  0.0000  0.0000  0.0000 </r>
        <r>  0.0000  0.0000  0.0000  0.0000  0.0000  0.0000  0.0000  0.0000  0.0000 </r>
       </set>
      </set>
     </set>
    </set>
   </array>
  </projected>
 </calculation>
 <structure name="finalpos" >
  <crystal>
   <varray name="basis" >
    <v>       2.82800637      -0.00000000       0.00000000 </v>
    <v>       0.00000000       2.82800637       0.00000000 </v>
    <v>      -0.00000000      -0.00000000       2.82800637 </v>
   </varray>
   <i name="volume">     22.61732039 </i>
   <varray name="rec_basis" >
    <v>       0.35360599      -0.00000000       0.00000000 </v>
    <v>       0.00000000       0.35360599       0.00000000 </v>
    <v>      -0.00000000      -0.00000000       0.35360599 </v>
   </varray>
  </crystal>
  <varray name="positions" >
   <v>      -0.00000000      -0.00000000       0.00000000 </v>
   <v>       0.50000000       0.50000000       0.50000000 </v>
  </varray>
 </structure>
</modeling>
