unknown system                          
           1
     2.863035    0.000000    0.000000
     0.000000    2.863035    0.000000
     0.000000    0.000000    2.863035
   Fe
     2
Direct configuration=     1
   0.00000000  0.00000000  0.00000000
   0.50000000  0.50000000  0.50000000
unknown system                          
           1
     2.798108   -0.000000    0.000000
     0.000000    2.798108    0.000000
    -0.000000   -0.000000    2.798108
   Fe
     2
Direct configuration=     2
  -0.00000000 -0.00000000  0.00000000
   0.50000000  0.50000000  0.50000000
unknown system                          
           1
     2.828006   -0.000000    0.000000
     0.000000    2.828006    0.000000
    -0.000000   -0.000000    2.828006
   Fe
     2
Direct configuration=     3
  -0.00000000 -0.00000000  0.00000000
   0.50000000  0.50000000  0.50000000
