   1   1   0   0
  0.1516433E+02  0.2778301E-09  0.2778301E-09  0.2778301E-09  0.5000000E-15
  1.000000000000000E-004
  CAR 
 unknown system                          
     36.82742460     -6.43066577  301      9.54475858      1.00000000
     -6.431  0.0000E+00  0.0000E+00
     -6.286  0.0000E+00  0.0000E+00
     -6.142  0.0000E+00  0.0000E+00
     -5.998  0.0000E+00  0.0000E+00
     -5.854  0.0000E+00  0.0000E+00
     -5.710  0.0000E+00  0.0000E+00
     -5.566  0.0000E+00  0.0000E+00
     -5.421  0.0000E+00  0.0000E+00
     -5.277  0.0000E+00  0.0000E+00
     -5.133  0.0000E+00  0.0000E+00
     -4.989  0.0000E+00  0.0000E+00
     -4.845  0.0000E+00  0.0000E+00
     -4.700  0.5123E-15  0.7387E-16
     -4.556  0.1942E-06  0.2800E-07
     -4.412  0.4466E-04  0.6467E-05
     -4.268  0.5146E-03  0.8068E-04
     -4.124  0.3413E-03  0.1299E-03
     -3.979  0.1073E-02  0.2846E-03
     -3.835  0.4850E-03  0.3545E-03
     -3.691  0.5452E-03  0.4332E-03
     -3.547  0.1640E-02  0.6697E-03
     -3.403  0.9927E-03  0.8128E-03
     -3.258  0.1294E-02  0.9994E-03
     -3.114  0.3563E-03  0.1051E-02
     -2.970  0.2387E-02  0.1395E-02
     -2.826  0.1193E-02  0.1567E-02
     -2.682  0.1277E-02  0.1751E-02
     -2.537  0.1464E-02  0.1962E-02
     -2.393  0.4853E-03  0.2032E-02
     -2.249  0.2729E-02  0.2426E-02
     -2.105  0.1714E-02  0.2673E-02
     -1.961  0.3091E-02  0.3119E-02
     -1.816  0.2897E-03  0.3160E-02
     -1.672  0.1179E-02  0.3330E-02
     -1.528  0.2044E-02  0.3625E-02
     -1.384  0.1871E-02  0.3895E-02
     -1.240  0.2770E-02  0.4294E-02
     -1.096  0.1012E-02  0.4440E-02
     -0.951  0.4537E-02  0.5095E-02
     -0.807  0.1065E-02  0.5248E-02
     -0.663  0.1938E-02  0.5528E-02
     -0.519  0.5939E-03  0.5613E-02
     -0.375  0.2284E-02  0.5943E-02
     -0.230  0.2742E-02  0.6338E-02
     -0.086  0.3206E-02  0.6800E-02
      0.058  0.3861E-02  0.7357E-02
      0.202  0.9237E-04  0.7370E-02
      0.346  0.4212E-02  0.7978E-02
      0.491  0.1771E-02  0.8233E-02
      0.635  0.2486E-02  0.8592E-02
      0.779  0.4771E-03  0.8660E-02
      0.923  0.2677E-02  0.9046E-02
      1.067  0.4770E-02  0.9734E-02
      1.212  0.2265E-02  0.1006E-01
      1.356  0.4424E-02  0.1070E-01
      1.500  0.1341E-02  0.1089E-01
      1.644  0.2864E-02  0.1131E-01
      1.788  0.2548E-02  0.1167E-01
      1.933  0.4432E-02  0.1231E-01
      2.077  0.8231E-03  0.1243E-01
      2.221  0.2355E-02  0.1277E-01
      2.365  0.3339E-02  0.1325E-01
      2.509  0.4396E-02  0.1389E-01
      2.654  0.3218E-02  0.1435E-01
      2.798  0.3283E-02  0.1482E-01
      2.942  0.4403E-02  0.1546E-01
      3.086  0.2022E-02  0.1575E-01
      3.230  0.2013E-02  0.1604E-01
      3.375  0.6198E-03  0.1613E-01
      3.519  0.3977E-02  0.1670E-01
      3.663  0.1383E-02  0.1690E-01
      3.807  0.7298E-02  0.1795E-01
      3.951  0.3758E-02  0.1850E-01
      4.095  0.2716E-02  0.1889E-01
      4.240  0.1516E-02  0.1911E-01
      4.384  0.4156E-02  0.1971E-01
      4.528  0.4734E-02  0.2039E-01
      4.672  0.1880E-02  0.2066E-01
      4.816  0.3301E-02  0.2114E-01
      4.961  0.5069E-02  0.2187E-01
      5.105  0.3839E-02  0.2242E-01
      5.249  0.1662E-02  0.2266E-01
      5.393  0.1309E-02  0.2285E-01
      5.537  0.5086E-02  0.2358E-01
      5.682  0.3804E-02  0.2413E-01
      5.826  0.5958E-02  0.2499E-01
      5.970  0.4020E-02  0.2557E-01
      6.114  0.1853E-02  0.2584E-01
      6.258  0.4209E-02  0.2644E-01
      6.403  0.4680E-02  0.2712E-01
      6.547  0.3396E-02  0.2761E-01
      6.691  0.4501E-02  0.2826E-01
      6.835  0.5242E-02  0.2901E-01
      6.979  0.1569E-02  0.2924E-01
      7.124  0.1960E-02  0.2952E-01
      7.268  0.2536E-02  0.2989E-01
      7.412  0.3701E-02  0.3042E-01
      7.556  0.4329E-02  0.3104E-01
      7.700  0.1176E-01  0.3274E-01
      7.845  0.2444E-02  0.3309E-01
      7.989  0.1442E-02  0.3330E-01
      8.133  0.4384E-02  0.3393E-01
      8.277  0.4412E-02  0.3457E-01
      8.421  0.2709E-02  0.3496E-01
      8.565  0.3441E-02  0.3546E-01
      8.710  0.5808E-02  0.3629E-01
      8.854  0.4122E-02  0.3689E-01
      8.998  0.4595E-02  0.3755E-01
      9.142  0.1768E-02  0.3781E-01
      9.286  0.5760E-02  0.3864E-01
      9.431  0.3327E-02  0.3912E-01
      9.575  0.7680E-02  0.4022E-01
      9.719  0.4008E-02  0.4080E-01
      9.863  0.2707E-02  0.4119E-01
     10.007  0.2961E-02  0.4162E-01
     10.152  0.8183E-02  0.4280E-01
     10.296  0.5113E-02  0.4354E-01
     10.440  0.3971E-02  0.4411E-01
     10.584  0.4230E-02  0.4472E-01
     10.728  0.7030E-02  0.4573E-01
     10.873  0.1720E-02  0.4598E-01
     11.017  0.5640E-03  0.4606E-01
     11.161  0.6788E-02  0.4704E-01
     11.305  0.3149E-02  0.4749E-01
     11.449  0.9658E-02  0.4889E-01
     11.594  0.6531E-02  0.4983E-01
     11.738  0.5110E-02  0.5057E-01
     11.882  0.3050E-02  0.5100E-01
     12.026  0.5129E-02  0.5174E-01
     12.170  0.3700E-02  0.5228E-01
     12.315  0.6254E-02  0.5318E-01
     12.459  0.7605E-02  0.5428E-01
     12.603  0.4018E-02  0.5486E-01
     12.747  0.6020E-02  0.5572E-01
     12.891  0.5774E-02  0.5656E-01
     13.035  0.3269E-02  0.5703E-01
     13.180  0.6439E-02  0.5796E-01
     13.324  0.8565E-02  0.5919E-01
     13.468  0.3059E-02  0.5963E-01
     13.612  0.6251E-02  0.6053E-01
     13.756  0.6107E-02  0.6141E-01
     13.901  0.6970E-02  0.6242E-01
     14.045  0.3041E-02  0.6286E-01
     14.189  0.4565E-02  0.6352E-01
     14.333  0.4867E-02  0.6422E-01
     14.477  0.2228E-02  0.6454E-01
     14.622  0.5022E-02  0.6526E-01
     14.766  0.5976E-02  0.6612E-01
     14.910  0.7183E-02  0.6716E-01
     15.054  0.7985E-02  0.6831E-01
     15.198  0.1398E-02  0.6851E-01
     15.343  0.4693E-02  0.6919E-01
     15.487  0.3234E-02  0.6966E-01
     15.631  0.6205E-02  0.7055E-01
     15.775  0.3024E-02  0.7099E-01
     15.919  0.4269E-02  0.7160E-01
     16.064  0.7337E-02  0.7266E-01
     16.208  0.3761E-02  0.7320E-01
     16.352  0.5307E-02  0.7397E-01
     16.496  0.5753E-02  0.7480E-01
     16.640  0.4993E-02  0.7552E-01
     16.785  0.4854E-02  0.7622E-01
     16.929  0.5289E-02  0.7698E-01
     17.073  0.2030E-02  0.7727E-01
     17.217  0.6164E-02  0.7816E-01
     17.361  0.1119E-01  0.7977E-01
     17.505  0.4383E-02  0.8041E-01
     17.650  0.4456E-02  0.8105E-01
     17.794  0.6605E-02  0.8200E-01
     17.938  0.4140E-02  0.8260E-01
     18.082  0.3113E-02  0.8305E-01
     18.226  0.8583E-02  0.8429E-01
     18.371  0.6197E-02  0.8518E-01
     18.515  0.4743E-02  0.8586E-01
     18.659  0.1059E-02  0.8602E-01
     18.803  0.5963E-02  0.8688E-01
     18.947  0.3224E-02  0.8734E-01
     19.092  0.6680E-02  0.8830E-01
     19.236  0.6902E-02  0.8930E-01
     19.380  0.1082E-01  0.9086E-01
     19.524  0.3963E-02  0.9143E-01
     19.668  0.5266E-02  0.9219E-01
     19.813  0.7311E-02  0.9324E-01
     19.957  0.2295E-02  0.9357E-01
     20.101  0.7423E-02  0.9465E-01
     20.245  0.8523E-02  0.9587E-01
     20.389  0.5777E-02  0.9671E-01
     20.534  0.6252E-02  0.9761E-01
     20.678  0.3077E-02  0.9805E-01
     20.822  0.8476E-02  0.9927E-01
     20.966  0.6869E-02  0.1003E+00
     21.110  0.4234E-02  0.1009E+00
     21.255  0.2013E-02  0.1012E+00
     21.399  0.5844E-02  0.1020E+00
     21.543  0.7291E-02  0.1031E+00
     21.687  0.5577E-02  0.1039E+00
     21.831  0.5156E-02  0.1046E+00
     21.975  0.5339E-02  0.1054E+00
     22.120  0.5268E-02  0.1061E+00
     22.264  0.1111E-01  0.1077E+00
     22.408  0.1168E-01  0.1094E+00
     22.552  0.5088E-02  0.1102E+00
     22.696  0.9988E-02  0.1116E+00
     22.841  0.2159E-02  0.1119E+00
     22.985  0.8351E-02  0.1131E+00
     23.129  0.4319E-02  0.1137E+00
     23.273  0.5233E-02  0.1145E+00
     23.417  0.7132E-02  0.1155E+00
     23.562  0.6413E-02  0.1164E+00
     23.706  0.4738E-02  0.1171E+00
     23.850  0.3946E-02  0.1177E+00
     23.994  0.3507E-02  0.1182E+00
     24.138  0.1434E-01  0.1203E+00
     24.283  0.1197E-01  0.1220E+00
     24.427  0.5062E-02  0.1227E+00
     24.571  0.5754E-02  0.1236E+00
     24.715  0.7562E-02  0.1246E+00
     24.859  0.5453E-02  0.1254E+00
     25.004  0.6433E-02  0.1264E+00
     25.148  0.5351E-02  0.1271E+00
     25.292  0.5761E-02  0.1280E+00
     25.436  0.1031E-01  0.1294E+00
     25.580  0.4814E-02  0.1301E+00
     25.725  0.2548E-02  0.1305E+00
     25.869  0.4328E-02  0.1311E+00
     26.013  0.7089E-02  0.1322E+00
     26.157  0.7764E-02  0.1333E+00
     26.301  0.9323E-02  0.1346E+00
     26.445  0.9136E-02  0.1359E+00
     26.590  0.4677E-02  0.1366E+00
     26.734  0.1178E-02  0.1368E+00
     26.878  0.7544E-02  0.1379E+00
     27.022  0.1021E-01  0.1393E+00
     27.166  0.4714E-02  0.1400E+00
     27.311  0.3940E-02  0.1406E+00
     27.455  0.8440E-03  0.1407E+00
     27.599  0.4919E-02  0.1414E+00
     27.743  0.8285E-02  0.1426E+00
     27.887  0.3823E-02  0.1432E+00
     28.032  0.4491E-02  0.1438E+00
     28.176  0.2439E-02  0.1442E+00
     28.320  0.7724E-02  0.1453E+00
     28.464  0.1026E-01  0.1468E+00
     28.608  0.5792E-02  0.1476E+00
     28.753  0.7249E-02  0.1486E+00
     28.897  0.3694E-02  0.1492E+00
     29.041  0.4748E-02  0.1499E+00
     29.185  0.2110E-02  0.1502E+00
     29.329  0.4841E-02  0.1509E+00
     29.474  0.6102E-02  0.1517E+00
     29.618  0.3458E-02  0.1522E+00
     29.762  0.2317E-02  0.1526E+00
     29.906  0.5909E-02  0.1534E+00
     30.050  0.3507E-02  0.1539E+00
     30.195  0.4860E-02  0.1546E+00
     30.339  0.2619E-03  0.1547E+00
     30.483  0.9845E-03  0.1548E+00
     30.627  0.4459E-02  0.1555E+00
     30.771  0.1911E-02  0.1557E+00
     30.915  0.9588E-03  0.1559E+00
     31.060  0.1643E-02  0.1561E+00
     31.204  0.1353E-02  0.1563E+00
     31.348  0.3128E-02  0.1567E+00
     31.492  0.2906E-02  0.1572E+00
     31.636  0.2045E-02  0.1575E+00
     31.781  0.1033E-02  0.1576E+00
     31.925  0.1139E-02  0.1578E+00
     32.069  0.2391E-02  0.1581E+00
     32.213  0.1844E-02  0.1584E+00
     32.357  0.1490E-02  0.1586E+00
     32.502  0.1633E-02  0.1588E+00
     32.646  0.4251E-03  0.1589E+00
     32.790  0.7319E-04  0.1589E+00
     32.934  0.1878E-02  0.1592E+00
     33.078  0.4336E-03  0.1592E+00
     33.223  0.8256E-04  0.1593E+00
     33.367  0.9837E-03  0.1594E+00
     33.511  0.2488E-03  0.1594E+00
     33.655  0.1456E-02  0.1596E+00
     33.799  0.7615E-03  0.1598E+00
     33.944  0.7308E-03  0.1599E+00
     34.088  0.2553E-03  0.1599E+00
     34.232  0.1133E-08  0.1599E+00
     34.376  0.1532E-12  0.1599E+00
     34.520  0.8669E-05  0.1599E+00
     34.665  0.4725E-03  0.1600E+00
     34.809  0.2901E-04  0.1600E+00
     34.953  0.2284E-03  0.1600E+00
     35.097  0.1165E-05  0.1600E+00
     35.241  0.3074E-14  0.1600E+00
     35.385  0.0000E+00  0.1600E+00
     35.530  0.0000E+00  0.1600E+00
     35.674  0.0000E+00  0.1600E+00
     35.818  0.0000E+00  0.1600E+00
     35.962  0.0000E+00  0.1600E+00
     36.106  0.0000E+00  0.1600E+00
     36.251  0.0000E+00  0.1600E+00
     36.395  0.0000E+00  0.1600E+00
     36.539  0.0000E+00  0.1600E+00
     36.683  0.0000E+00  0.1600E+00
     36.827  0.0000E+00  0.1600E+00
