    1    1  100    1
  0.1516433E+02  0.2778301E-09  0.2778301E-09  0.2778301E-09  0.5000000E-15
  1.000000000000000E-004
  CAR 
 unknown system                          
      4    120      8
 
  0.0000000E+00  0.0000000E+00  0.0000000E+00  0.2962963E-03
    1       -4.464389   1.000000
    2       20.143349   0.000000
    3       20.143356   0.000000
    4       20.143364   0.000000
    5       21.310544   0.000000
    6       21.310552   0.000000
    7       21.310561   0.000000
    8       26.541364   0.000000
 
  0.6666667E-01 -0.6938894E-17  0.0000000E+00  0.2370370E-02
    1       -4.339049   1.000000
    2       18.241503   0.000000
    3       19.607146   0.000000
    4       19.607157   0.000000
    5       21.996191   0.000000
    6       21.996204   0.000000
    7       22.154069   0.000000
    8       27.303448   0.000000
 
  0.1333333E+00 -0.1387779E-16  0.0000000E+00  0.2370370E-02
    1       -3.963515   1.000000
    2       15.534585   0.000000
    3       18.897933   0.000000
    4       18.897944   0.000000
    5       22.413037   0.000000
    6       23.012973   0.000000
    7       23.012987   0.000000
    8       26.322980   0.000000
 
  0.2000000E+00  0.1387779E-16  0.0000000E+00  0.2370370E-02
    1       -3.339328   1.000000
    2       12.803730   0.000000
    3       18.340506   0.000000
    4       18.340516   0.000000
    5       22.335800   0.000000
    6       23.253544   0.000000
    7       23.253554   0.000000
    8       26.279373   0.000000
 
  0.2666667E+00 -0.2775558E-16  0.0000000E+00  0.2370370E-02
    1       -2.469191   1.000000
    2       10.189321   0.000000
    3       17.963806   0.000000
    4       17.963814   0.000000
    5       22.228386   0.000000
    6       22.440302   0.000000
    7       22.440311   0.000000
    8       27.614226   0.000000
 
  0.3333333E+00  0.0000000E+00  0.0000000E+00  0.2370370E-02
    1       -1.357483   1.000000
    2        7.746205   1.000000
    3       17.759153   0.000000
    4       17.759160   0.000000
    5       21.497947   0.000000
    6       21.497957   0.000000
    7       22.195693   0.000000
    8       26.528412   0.000000
 
  0.4000000E+00 -0.2775558E-16  0.0000000E+00  0.2370370E-02
    1       -0.012885   1.000000
    2        5.505478   1.000000
    3       17.692696   0.000000
    4       17.692701   0.000000
    5       20.749570   0.000000
    6       20.749581   0.000000
    7       22.250228   0.000000
    8       25.663132   0.000000
 
  0.4666667E+00 -0.2775558E-16  0.0000000E+00  0.2370370E-02
    1        1.520454   1.000000
    2        3.521904   1.000000
    3       17.697525   0.000000
    4       17.697529   0.000000
    5       20.328082   0.000000
    6       20.328094   0.000000
    7       22.328831   0.000000
    8       25.166854   0.000000
 
  0.6666667E-01  0.6666667E-01  0.0000000E+00  0.1777778E-02
    1       -4.297276   1.000000
    2       18.682346   0.000000
    3       18.682347   0.000000
    4       19.741247   0.000000
    5       20.431325   0.000000
    6       22.978307   0.000000
    7       22.978308   0.000000
    8       26.225998   0.000000
 
  0.1333333E+00  0.6666667E-01  0.0000000E+00  0.7111111E-02
    1       -4.005167   1.000000
    2       16.502732   0.000000
    3       17.879753   0.000000
    4       19.324759   0.000000
    5       20.788003   0.000000
    6       23.668778   0.000000
    7       24.071188   0.000000
    8       24.818733   0.000000
 
  0.2000000E+00  0.6666667E-01  0.0000000E+00  0.7111111E-02
    1       -3.463899   1.000000
    2       13.792246   0.000000
    3       17.265250   0.000000
    4       18.717648   0.000000
    5       21.449909   0.000000
    6       23.506141   0.000000
    7       24.320836   0.000000
    8       24.670112   0.000000
 
  0.2666667E+00  0.6666667E-01  0.0000000E+00  0.7111111E-02
    1       -2.675748   1.000000
    2       11.140810   0.000000
    3       16.853842   0.000000
    4       18.201740   0.000000
    5       21.006376   0.000000
    6       23.273469   0.000000
    7       24.085651   0.000000
    8       25.304236   0.000000
 
  0.3333333E+00  0.6666667E-01  0.0000000E+00  0.7111111E-02
    1       -1.644423   1.000000
    2        8.641121   1.000000
    3       16.648068   0.000000
    4       17.754081   0.000000
    5       20.219062   0.000000
    6       23.107883   0.000000
    7       23.219961   0.000000
    8       26.849451   0.000000
 
  0.4000000E+00  0.6666667E-01  0.0000000E+00  0.7111111E-02
    1       -0.376470   1.000000
    2        6.332303   1.000000
    3       16.644107   0.000000
    4       17.293699   0.000000
    5       19.727540   0.000000
    6       22.196798   0.000000
    7       23.212205   0.000000
    8       26.839608   0.000000
 
  0.4666667E+00  0.6666667E-01  0.0000000E+00  0.7111111E-02
    1        1.107373   1.000000
    2        4.249757   1.000000
    3       16.801056   0.000000
    4       16.831191   0.000000
    5       19.663256   0.000000
    6       21.471775   0.000000
    7       23.212073   0.000000
    8       26.341188   0.000000
 
 -0.4666667E+00  0.6666667E-01  0.0000000E+00  0.7111111E-02
    1        2.091503   1.000000
    2        3.115541   1.000000
    3       16.359056   0.000000
    4       17.186928   0.000000
    5       19.971390   0.000000
    6       20.987922   0.000000
    7       23.150975   0.000000
    8       26.255775   0.000000
 
 -0.4000000E+00  0.6666667E-01  0.0000000E+00  0.7111111E-02
    1        0.592255   1.000000
    2        4.914750   1.000000
    3       16.050330   0.000000
    4       17.667920   0.000000
    5       20.574099   0.000000
    6       20.797019   0.000000
    7       23.029240   0.000000
    8       26.615330   0.000000
 
 -0.3333333E+00  0.6666667E-01  0.0000000E+00  0.7111111E-02
    1       -0.824792   1.000000
    2        7.078822   1.000000
    3       15.919272   0.000000
    4       18.204164   0.000000
    5       20.961218   0.000000
    6       21.416952   0.000000
    7       22.925472   0.000000
    8       27.295776   0.000000
 
 -0.2666667E+00  0.6666667E-01  0.0000000E+00  0.7111111E-02
    1       -2.014940   1.000000
    2        9.454349   0.994724
    3       15.986288   0.000000
    4       18.733323   0.000000
    5       21.504621   0.000000
    6       22.443798   0.000000
    7       22.894536   0.000000
    8       26.898883   0.000000
 
 -0.2000000E+00  0.6666667E-01  0.0000000E+00  0.7111111E-02
    1       -2.965736   1.000000
    2       12.009848   0.000000
    3       16.259746   0.000000
    4       19.263152   0.000000
    5       22.248097   0.000000
    6       22.912970   0.000000
    7       23.529865   0.000000
    8       25.302800   0.000000
 
 -0.1333333E+00  0.6666667E-01  0.0000000E+00  0.7111111E-02
    1       -3.671919   1.000000
    2       14.696772   0.000000
    3       16.740835   0.000000
    4       19.825759   0.000000
    5       22.316103   0.000000
    6       22.869487   0.000000
    7       24.081208   0.000000
    8       24.927502   0.000000
 
 -0.6666667E-01  0.6666667E-01  0.0000000E+00  0.3555556E-02
    1       -4.130327   1.000000
    2       17.331675   0.000000
    3       17.483303   0.000000
    4       20.208038   0.000000
    5       21.633484   0.000000
    6       22.520969   0.000000
    7       23.426101   0.000000
    8       25.999224   0.000000
 
  0.1333333E+00  0.1333333E+00  0.0000000E+00  0.1777778E-02
    1       -3.796691   1.000000
    2       17.004433   0.000000
    3       17.004434   0.000000
    4       18.673124   0.000000
    5       18.843250   0.000000
    6       23.079872   0.000000
    7       25.248036   0.000000
    8       25.248037   0.000000
 
  0.2000000E+00  0.1333333E+00  0.0000000E+00  0.7111111E-02
    1       -3.338941   1.000000
    2       14.914572   0.000000
    3       16.321886   0.000000
    4       18.000129   0.000000
    5       19.215019   0.000000
    6       21.804300   0.000000
    7       25.945228   0.000000
    8       26.174209   0.000000
 
  0.2666667E+00  0.1333333E+00  0.0000000E+00  0.7111111E-02
    1       -2.633799   1.000000
    2       12.289843   0.000000
    3       15.846751   0.000000
    4       17.270301   0.000000
    5       19.239345   0.000000
    6       22.036826   0.000000
    7       25.961526   0.000000
    8       26.122097   0.000000
 
  0.3333333E+00  0.1333333E+00  0.0000000E+00  0.7111111E-02
    1       -1.684405   1.000000
    2        9.754140   0.000000
    3       15.583644   0.000000
    4       16.478464   0.000000
    5       18.689097   0.000000
    6       23.404453   0.000000
    7       25.059915   0.000000
    8       26.291062   0.000000
 
  0.4000000E+00  0.1333333E+00  0.0000000E+00  0.7111111E-02
    1       -0.495977   1.000000
    2        7.388312   1.000000
    3       15.532987   0.000000
    4       15.634758   0.000000
    5       18.421510   0.000000
    6       24.117520   0.000000
    7       24.558262   0.000000
    8       27.005929   0.000000
 
  0.4666667E+00  0.1333333E+00  0.0000000E+00  0.7111111E-02
    1        0.919239   1.000000
    2        5.229748   1.000000
    3       14.850669   0.000000
    4       15.692374   0.000000
    5       18.493333   0.000000
    6       23.308727   0.000000
    7       24.896230   0.000000
    8       28.525176   0.000000
 
 -0.4666667E+00  0.1333333E+00  0.0000000E+00  0.7111111E-02
    1        2.420046   1.000000
    2        3.430142   1.000000
    3       14.213189   0.000000
    4       16.056139   0.000000
    5       18.853453   0.000000
    6       22.692047   0.000000
    7       24.817264   0.000000
    8       28.731106   0.000000
 
 -0.4000000E+00  0.1333333E+00  0.0000000E+00  0.7111111E-02
    1        1.433504   1.000000
    2        4.565795   1.000000
    3       13.764641   0.000000
    4       16.613349   0.000000
    5       19.467838   0.000000
    6       22.296599   0.000000
    7       24.613107   0.000000
    8       29.002267   0.000000
 
 -0.3333333E+00  0.1333333E+00  0.0000000E+00  0.7111111E-02
    1       -0.048752   1.000000
    2        6.643087   1.000000
    3       13.524624   0.000000
    4       17.343220   0.000000
    5       20.312531   0.000000
    6       22.144266   0.000000
    7       24.408572   0.000000
    8       28.477618   0.000000
 
 -0.2666667E+00  0.1333333E+00  0.0000000E+00  0.7111111E-02
    1       -1.314873   1.000000
    2        8.941463   1.000000
    3       13.503162   0.000000
    4       18.205235   0.000000
    5       21.359423   0.000000
    6       22.256024   0.000000
    7       24.238548   0.000000
    8       26.391784   0.000000
 
 -0.2000000E+00  0.1333333E+00  0.0000000E+00  0.7111111E-02
    1       -2.344616   1.000000
    2       11.417009   0.000000
    3       13.709808   0.000000
    4       19.117007   0.000000
    5       22.551831   0.000000
    6       22.618160   0.000000
    7       24.035874   0.000000
    8       24.590211   0.000000
 
 -0.1333333E+00  0.1333333E+00  0.0000000E+00  0.3555556E-02
    1       -3.131514   1.000000
    2       13.843967   0.000000
    3       14.322456   0.000000
    4       19.871983   0.000000
    5       22.598003   0.000000
    6       23.604326   0.000000
    7       23.702905   0.000000
    8       23.934484   0.000000
 
  0.2000000E+00  0.2000000E+00  0.0000000E+00  0.1777778E-02
    1       -2.964978   1.000000
    2       15.569258   0.000000
    3       15.569259   0.000000
    4       16.979779   0.000000
    5       17.320270   0.000000
    6       20.161234   0.000000
    7       27.576797   0.000000
    8       27.576798   0.000000
 
  0.2666667E+00  0.2000000E+00  0.0000000E+00  0.7111111E-02
    1       -2.343519   1.000000
    2       13.568969   0.000000
    3       15.024448   0.000000
    4       15.974179   0.000000
    5       17.527759   0.000000
    6       19.649569   0.000000
    7       27.936143   0.000000
    8       28.292136   0.000000
 
  0.3333333E+00  0.2000000E+00  0.0000000E+00  0.7111111E-02
    1       -1.477256   1.000000
    2       11.061406   0.000000
    3       14.693354   0.000000
    4       14.838514   0.000000
    5       17.429189   0.000000
    6       20.817090   0.000000
    7       27.192168   0.000000
    8       28.444105   0.000000
 
  0.4000000E+00  0.2000000E+00  0.0000000E+00  0.7111111E-02
    1       -0.370489   1.000000
    2        8.660663   1.000000
    3       13.741188   0.000000
    4       14.577751   0.000000
    5       17.286183   0.000000
    6       22.641527   0.000000
    7       26.270371   0.000000
    8       28.366468   0.000000
 
  0.4666667E+00  0.2000000E+00  0.0000000E+00  0.7111111E-02
    1        0.968386   1.000000
    2        6.442399   1.000000
    3       12.785800   0.000000
    4       14.677234   0.000000
    5       17.372434   0.000000
    6       24.568883   0.000000
    7       25.426686   0.000000
    8       28.265346   0.000000
 
 -0.4666667E+00  0.2000000E+00  0.0000000E+00  0.7111111E-02
    1        2.498608   1.000000
    2        4.468412   1.000000
    3       12.020356   0.000000
    4       14.989539   0.000000
    5       17.706167   0.000000
    6       24.743934   0.000000
    7       26.009187   0.000000
    8       28.611152   0.000000
 
 -0.4000000E+00  0.2000000E+00  0.0000000E+00  0.7111111E-02
    1        2.497357   1.000000
    2        4.468540   1.000000
    3       11.467136   0.000000
    4       15.509883   0.000000
    5       18.280591   0.000000
    6       24.257669   0.000000
    7       26.309497   0.000000
    8       29.762962   0.000000
 
 -0.3333333E+00  0.2000000E+00  0.0000000E+00  0.7111111E-02
    1        0.966775   1.000000
    2        6.438858   1.000000
    3       11.138833   0.000000
    4       16.228846   0.000000
    5       19.084398   0.000000
    6       23.986707   0.000000
    7       26.093437   0.000000
    8       28.306533   0.000000
 
 -0.2666667E+00  0.2000000E+00  0.0000000E+00  0.7111111E-02
    1       -0.372066   1.000000
    2        8.640792   1.000000
    3       11.051855   0.000000
    4       17.126466   0.000000
    5       20.099452   0.000000
    6       23.943576   0.000000
    7       25.705912   0.000000
    8       26.120530   0.000000
 
 -0.2000000E+00  0.2000000E+00  0.0000000E+00  0.3555556E-02
    1       -1.478637   1.000000
    2       10.778210   0.000000
    3       11.447219   0.000000
    4       18.151658   0.000000
    5       21.288929   0.000000
    6       24.108359   0.000000
    7       24.189081   0.000000
    8       25.053359   0.000000
 
  0.2666667E+00  0.2666667E+00  0.0000000E+00  0.1777778E-02
    1       -1.806104   1.000000
    2       14.408610   0.000000
    3       14.408611   0.000000
    4       14.447223   0.000000
    5       16.045339   0.000000
    6       18.253859   0.000000
    7       29.818318   0.000000
    8       29.818369   0.000000
 
  0.3333333E+00  0.2666667E+00  0.0000000E+00  0.7111111E-02
    1       -1.023802   1.000000
    2       12.426064   0.000000
    3       13.233179   0.000000
    4       14.006648   0.000000
    5       16.294857   0.000000
    6       18.383416   0.000000
    7       29.409776   0.000000
    8       30.476052   0.000000
 
  0.4000000E+00  0.2666667E+00  0.0000000E+00  0.7111111E-02
    1       -0.000339   1.000000
    2       10.102233   0.000000
    3       11.932969   0.000000
    4       13.821244   0.000000
    5       16.351555   0.000000
    6       19.942928   0.000000
    7       28.564360   0.000000
    8       30.491662   0.000000
 
  0.4666667E+00  0.2666667E+00  0.0000000E+00  0.7111111E-02
    1        1.257862   1.000000
    2        7.861800   1.000000
    3       10.837746   0.000000
    4       13.852888   0.000000
    5       16.433389   0.000000
    6       22.008041   0.000000
    7       27.722687   0.000000
    8       30.144269   0.000000
 
 -0.4666667E+00  0.2666667E+00  0.0000000E+00  0.7111111E-02
    1        2.731854   1.000000
    2        5.811670   1.000000
    3        9.960984   0.000000
    4       14.100636   0.000000
    5       16.721039   0.000000
    6       24.244556   0.000000
    7       27.000082   0.000000
    8       29.625298   0.000000
 
 -0.4000000E+00  0.2666667E+00  0.0000000E+00  0.7111111E-02
    1        3.722627   1.000000
    2        4.672635   1.000000
    3        9.313797   1.000000
    4       14.561874   0.000000
    5       17.238926   0.000000
    6       26.414624   0.000000
    7       26.445432   0.000000
    8       29.065133   0.000000
 
 -0.3333333E+00  0.2666667E+00  0.0000000E+00  0.7111111E-02
    1        2.214977   1.000000
    2        6.452524   1.000000
    3        8.915127   1.000000
    4       15.231120   0.000000
    5       17.985592   0.000000
    6       26.071756   0.000000
    7       27.673307   0.000000
    8       28.386875   0.000000
 
 -0.2666667E+00  0.2666667E+00  0.0000000E+00  0.3555556E-02
    1        0.808370   1.000000
    2        8.283305   1.000000
    3        9.032866   1.000000
    4       16.096421   0.000000
    5       18.948722   0.000000
    6       25.678070   0.000000
    7       26.372387   0.000000
    8       26.994182   0.000000
 
  0.3333333E+00  0.3333333E+00  0.0000000E+00  0.1777778E-02
    1       -0.326000   1.000000
    2       11.515985   0.000000
    3       13.533106   0.000000
    4       13.533107   0.000000
    5       15.070171   0.000000
    6       17.139850   0.000000
    7       31.332685   0.000000
    8       31.869982   0.000000
 
  0.4000000E+00  0.3333333E+00  0.0000000E+00  0.7111111E-02
    1        0.612911   1.000000
    2       10.109960   0.000000
    3       11.846129   0.000000
    4       13.276295   0.000000
    5       15.466362   0.000000
    6       17.576108   0.000000
    7       30.864124   0.000000
    8       32.391200   0.000000
 
  0.4666667E+00  0.3333333E+00  0.0000000E+00  0.7111111E-02
    1        1.787272   1.000000
    2        8.819262   1.000000
    3        9.724925   0.000000
    4       13.237350   0.000000
    5       15.681344   0.000000
    6       19.360884   0.000000
    7       30.093184   0.000000
    8       32.183260   0.000000
 
 -0.4666667E+00  0.3333333E+00  0.0000000E+00  0.7111111E-02
    1        3.184500   1.000000
    2        7.255564   1.000000
    3        8.221254   1.000000
    4       13.416053   0.000000
    5       15.939374   0.000000
    6       21.610349   0.000000
    7       29.359756   0.000000
    8       31.537357   0.000000
 
 -0.4000000E+00  0.3333333E+00  0.0000000E+00  0.7111111E-02
    1        4.690300   1.000000
    2        5.534009   1.000000
    3        7.411307   1.000000
    4       13.810931   0.000000
    5       16.399202   0.000000
    6       24.040037   0.000000
    7       28.720568   0.000000
    8       30.605531   0.000000
 
 -0.3333333E+00  0.3333333E+00  0.0000000E+00  0.3555556E-02
    1        3.677974   1.000000
    2        6.399633   1.000000
    3        7.197664   1.000000
    4       14.418542   0.000000
    5       17.082883   0.000000
    6       26.469361   0.000000
    7       27.942680   0.000000
    8       29.068217   0.000000
 
  0.4000000E+00  0.4000000E+00  0.0000000E+00  0.1777778E-02
    1        1.466061   1.000000
    2        8.648810   1.000000
    3       12.947640   0.000000
    4       12.947641   0.000000
    5       14.413750   0.000000
    6       16.465610   0.000000
    7       32.520634   0.000000
    8       33.646530   0.000000
 
  0.4666667E+00  0.4000000E+00  0.0000000E+00  0.7111111E-02
    1        2.553070   1.000000
    2        7.366987   1.000000
    3       11.361863   0.000000
    4       12.837038   0.000000
    5       14.975236   0.000000
    6       17.105354   0.000000
    7       32.268990   0.000000
    8       33.920680   0.000000
 
 -0.4666667E+00  0.4000000E+00  0.0000000E+00  0.7111111E-02
    1        3.856954   1.000000
    2        6.308386   1.000000
    3        9.295401   1.000000
    4       12.944800   0.000000
    5       15.351222   0.000000
    6       19.068518   0.000000
    7       31.590947   0.000000
    8       33.324849   0.000000
 
 -0.4000000E+00  0.4000000E+00  0.0000000E+00  0.3555556E-02
    1        5.140414   1.000000
    2        5.658573   1.000000
    3        7.424536   1.000000
    4       13.270170   0.000000
    5       15.775858   0.000000
    6       21.475478   0.000000
    7       30.621249   0.000000
    8       32.063177   0.000000
 
  0.4666667E+00  0.4666667E+00  0.0000000E+00  0.1777778E-02
    1        3.542192   1.000000
    2        6.015855   1.000000
    3       12.654464   0.000000
    4       12.654465   0.000000
    5       14.084010   0.000000
    6       16.137540   0.000000
    7       33.369576   0.000000
    8       34.861148   0.000000
 
 -0.4666667E+00  0.4666667E+00  0.0000000E+00  0.3555556E-02
    1        4.510160   1.000000
    2        5.132448   1.000000
    3       11.204860   0.000000
    4       12.690464   0.000000
    5       14.811867   0.000000
    6       16.949429   0.000000
    7       33.043747   0.000000
    8       34.594804   0.000000
 
  0.2000000E+00  0.1333333E+00  0.6666667E-01  0.7111111E-02
    1       -3.630214   1.000000
    2       15.609459   0.000000
    3       15.897810   0.000000
    4       19.518297   0.000000
    5       20.484802   0.000000
    6       23.396400   0.000000
    7       24.550941   0.000000
    8       24.885615   0.000000
 
  0.2666667E+00  0.1333333E+00  0.6666667E-01  0.1422222E-01
    1       -3.006968   1.000000
    2       13.070006   0.000000
    3       15.225101   0.000000
    4       18.949187   0.000000
    5       20.899080   0.000000
    6       22.880768   0.000000
    7       24.777766   0.000000
    8       25.004601   0.000000
 
  0.3333333E+00  0.1333333E+00  0.6666667E-01  0.1422222E-01
    1       -2.138127   1.000000
    2       10.483577   0.000000
    3       14.878354   0.000000
    4       18.141505   0.000000
    5       20.501799   0.000000
    6       23.337943   0.000000
    7       24.285420   0.000000
    8       25.418127   0.000000
 
  0.4000000E+00  0.1333333E+00  0.6666667E-01  0.1422222E-01
    1       -1.028059   1.000000
    2        8.053063   1.000000
    3       14.745356   0.000000
    4       17.279400   0.000000
    5       20.154944   0.000000
    6       22.645600   0.000000
    7       24.453554   0.000000
    8       26.782502   0.000000
 
  0.4666667E+00  0.1333333E+00  0.6666667E-01  0.1422222E-01
    1        0.314704   1.000000
    2        5.819304   1.000000
    3       14.812583   0.000000
    4       16.483998   0.000000
    5       20.081642   0.000000
    6       21.824053   0.000000
    7       24.570231   0.000000
    8       28.227418   0.000000
 
 -0.4666667E+00  0.1333333E+00  0.6666667E-01  0.1422222E-01
    1        1.847216   1.000000
    2        3.838665   1.000000
    3       15.016781   0.000000
    4       15.898609   0.000000
    5       20.185436   0.000000
    6       21.262025   0.000000
    7       24.639631   0.000000
    8       28.017744   0.000000
 
  0.2666667E+00  0.2000000E+00  0.6666667E-01  0.7111111E-02
    1       -2.799291   1.000000
    2       14.114721   0.000000
    3       14.470134   0.000000
    4       17.654162   0.000000
    5       19.054931   0.000000
    6       20.863589   0.000000
    7       26.423281   0.000000
    8       27.049610   0.000000
 
  0.3333333E+00  0.2000000E+00  0.6666667E-01  0.1422222E-01
    1       -2.013502   1.000000
    2       11.702894   0.000000
    3       13.901934   0.000000
    4       16.604977   0.000000
    5       19.259775   0.000000
    6       21.444436   0.000000
    7       25.757695   0.000000
    8       27.500670   0.000000
 
  0.4000000E+00  0.2000000E+00  0.6666667E-01  0.1422222E-01
    1       -0.985260   1.000000
    2        9.243215   1.000000
    3       13.676898   0.000000
    4       15.503920   0.000000
    5       19.092200   0.000000
    6       22.997496   0.000000
    7       24.900533   0.000000
    8       27.629671   0.000000
 
  0.4666667E+00  0.2000000E+00  0.6666667E-01  0.1422222E-01
    1        0.279000   1.000000
    2        6.953304   1.000000
    3       13.605204   0.000000
    4       14.596363   0.000000
    5       19.092312   0.000000
    6       23.559777   0.000000
    7       25.209206   0.000000
    8       27.837633   0.000000
 
 -0.4666667E+00  0.2000000E+00  0.6666667E-01  0.1422222E-01
    1        1.759464   1.000000
    2        4.880613   1.000000
    3       13.353084   0.000000
    4       14.271701   0.000000
    5       19.316301   0.000000
    6       22.933542   0.000000
    7       26.257333   0.000000
    8       28.642447   0.000000
 
 -0.4000000E+00  0.2000000E+00  0.6666667E-01  0.1422222E-01
    1        2.747296   1.000000
    2        3.743905   1.000000
    3       12.855505   0.000000
    4       14.616205   0.000000
    5       19.754039   0.000000
    6       22.406190   0.000000
    7       26.441430   0.000000
    8       29.751873   0.000000
 
 -0.3333333E+00  0.2000000E+00  0.6666667E-01  0.1422222E-01
    1        1.244727   1.000000
    2        5.542764   1.000000
    3       12.484198   0.000000
    4       15.262972   0.000000
    5       20.369981   0.000000
    6       22.109318   0.000000
    7       26.209502   0.000000
    8       28.628935   0.000000
 
 -0.2666667E+00  0.2000000E+00  0.6666667E-01  0.1422222E-01
    1       -0.168586   1.000000
    2        7.692095   1.000000
    3       12.318943   0.000000
    4       16.124806   0.000000
    5       21.052833   0.000000
    6       22.141819   0.000000
    7       25.480506   0.000000
    8       27.145686   0.000000
 
 -0.2000000E+00  0.2000000E+00  0.6666667E-01  0.1422222E-01
    1       -1.355170   1.000000
    2       10.034019   0.000000
    3       12.383678   0.000000
    4       17.155714   0.000000
    5       21.571887   0.000000
    6       22.557374   0.000000
    7       24.121487   0.000000
    8       26.495467   0.000000
 
 -0.1333333E+00  0.2000000E+00  0.6666667E-01  0.7111111E-02
    1       -2.303014   1.000000
    2       12.319322   0.000000
    3       12.890447   0.000000
    4       18.255573   0.000000
    5       21.670268   0.000000
    6       22.317461   0.000000
    7       24.090473   0.000000
    8       25.916690   0.000000
 
  0.3333333E+00  0.2666667E+00  0.6666667E-01  0.7111111E-02
    1       -1.641559   1.000000
    2       12.900568   0.000000
    3       13.232905   0.000000
    4       14.929283   0.000000
    5       17.845975   0.000000
    6       19.299273   0.000000
    7       27.788243   0.000000
    8       29.495882   0.000000
 
  0.4000000E+00  0.2666667E+00  0.6666667E-01  0.1422222E-01
    1       -0.696509   1.000000
    2       10.615177   0.000000
    3       12.731498   0.000000
    4       13.753648   0.000000
    5       18.122807   0.000000
    6       20.431530   0.000000
    7       26.969901   0.000000
    8       29.927228   0.000000
 
  0.4666667E+00  0.2666667E+00  0.6666667E-01  0.1422222E-01
    1        0.486422   1.000000
    2        8.299052   1.000000
    3       12.190633   0.000000
    4       13.107407   0.000000
    5       18.153998   0.000000
    6       22.341768   0.000000
    7       26.102234   0.000000
    8       29.847214   0.000000
 
 -0.4666667E+00  0.2666667E+00  0.6666667E-01  0.1422222E-01
    1        1.895453   1.000000
    2        6.164299   1.000000
    3       11.382957   0.000000
    4       13.156868   0.000000
    5       18.352156   0.000000
    6       24.233455   0.000000
    7       25.564436   0.000000
    8       29.514267   0.000000
 
 -0.4000000E+00  0.2666667E+00  0.6666667E-01  0.1422222E-01
    1        3.399920   1.000000
    2        4.366099   1.000000
    3       10.696305   0.000000
    4       13.528804   0.000000
    5       18.763530   0.000000
    6       24.409142   0.000000
    7       26.850997   0.000000
    8       28.941176   0.000000
 
 -0.3333333E+00  0.2666667E+00  0.6666667E-01  0.1422222E-01
    1        2.406368   1.000000
    2        5.502999   1.000000
    3       10.219133   0.000000
    4       14.140650   0.000000
    5       19.387612   0.000000
    6       24.040832   0.000000
    7       27.554555   0.000000
    8       28.442666   0.000000
 
 -0.2666667E+00  0.2666667E+00  0.6666667E-01  0.1422222E-01
    1        0.929687   1.000000
    2        7.546242   1.000000
    3        9.981602   0.000000
    4       14.970288   0.000000
    5       20.206952   0.000000
    6       23.815096   0.000000
    7       25.781126   0.000000
    8       28.399130   0.000000
 
 -0.2000000E+00  0.2666667E+00  0.6666667E-01  0.7111111E-02
    1       -0.330456   1.000000
    2        9.533639   0.623430
    3       10.241339   0.000000
    4       15.994935   0.000000
    5       21.167361   0.000000
    6       23.492131   0.000000
    7       24.138694   0.000000
    8       27.678555   0.000000
 
  0.4000000E+00  0.3333333E+00  0.6666667E-01  0.7111111E-02
    1       -0.162993   1.000000
    2       11.519148   0.000000
    3       11.982720   0.000000
    4       12.734224   0.000000
    5       16.919361   0.000000
    6       18.319857   0.000000
    7       29.196065   0.000000
    8       31.721602   0.000000
 
  0.4666667E+00  0.3333333E+00  0.6666667E-01  0.1422222E-01
    1        0.936469   1.000000
    2        9.732820   0.000000
    3       10.579236   0.000000
    4       12.282875   0.000000
    5       17.339607   0.000000
    6       19.715314   0.000000
    7       28.411262   0.000000
    8       31.954158   0.000000
 
 -0.4666667E+00  0.3333333E+00  0.6666667E-01  0.1422222E-01
    1        2.266035   1.000000
    2        7.635223   1.000000
    3        9.514571   0.803403
    4       12.342451   0.000000
    5       17.538650   0.000000
    6       21.839833   0.000000
    7       27.628787   0.000000
    8       31.390421   0.000000
 