 vasp.6.2.0 18Jan21 (build Aug 12 2022 13:00:08) complex                        
  
 executed on             LinuxIFC date 2024.11.05  06:11:00
 running on    4 total cores
 distrk:  each k-point on    4 cores,    1 groups
 distr:  one band on NCORE=   1 cores,    4 groups


--------------------------------------------------------------------------------------------------------


 INCAR:
   ISTART = 0            (Read existing wavefunction, if there)
   ISPIN = 1            (Non-Spin polarised DFT)
   LREAL = .FALSE.       (Projection operators: automatic)
   LWAVE = .FALSE.        (Write WAVECAR or not)
   LCHARG = .FALSE.        (Write CHGCAR or not)
   ADDGRID = .TRUE.        (Increase grid, helps GGA convergence)
   LASPH = .TRUE.        (Give more accurate total energies and band structure calculations)
   PREC = Accurate      (Accurate strictly avoids any aliasing or wrap around errors)
   ENCUT = 700          (Cut-off energy for plane wave basis set, in eV)
   ISMEAR = 0            (Gaussian smearing, metals:1)
   SIGMA = 0.05         (Smearing value in eV, metals:0.2)
   NELM = 90           (Max electronic SCF steps)
   NELMIN = 6            (Min electronic SCF steps)
   EDIFF = 1E-06        (SCF energy convergence, in eV)
   NSW = 100          (Max ionic steps)
   IBRION = 2            (Algorithm: 0-MD, 1-Quasi-New, 2-CG)
   ISIF = 2            (Stress/relaxation: 2-Ions, 3-Shape/Ions/V, 4-Shape/Ions)
   EDIFFG = -2E-03        (Ionic convergence, eV/AA)
   ISYM = 2              (Symmetry: 0\=none, 2\=GGA, 3\=hybrids)

 POTCAR:    PAW_PBE Si 05Jan2001                  
 POTCAR:    PAW_PBE Si 05Jan2001                  
   VRHFIN =Si: s2p2                                                                                 
   LEXCH  = PE                                                                                      
   EATOM  =   103.0669 eV,    7.5752 Ry                                                             
                                                                                                    
   TITEL  = PAW_PBE Si 05Jan2001                                                                    
   LULTRA =        F    use ultrasoft PP ?                                                          
   IUNSCR =        1    unscreen: 0-lin 1-nonlin 2-no                                               
   RPACOR =    1.500    partial core radius                                                         
   POMASS =   28.085; ZVAL   =    4.000    mass and valenz                                          
   RCORE  =    1.900    outmost cutoff radius                                                       
   RWIGS  =    2.480; RWIGS  =    1.312    wigner-seitz radius (au A)                               
   ENMAX  =  245.345; ENMIN  =  184.009 eV                                                          
   ICORE  =        2    local potential                                                             
   LCOR   =        T    correct aug charges                                                         
   LPAW   =        T    paw PP                                                                      
   EAUG   =  322.069                                                                                
   DEXC   =    0.000                                                                                
   RMAX   =    1.950    core radius for proj-oper                                                   
   RAUG   =    1.300    factor for augmentation sphere                                              
   RDEP   =    1.993    radius for radial grids                                                     
   RDEPT  =    1.837    core radius for aug-charge                                                  
                                                                                                    
   Atomic configuration                                                                             
    6 entries                                                                                       
     n  l   j            E        occ.                                                              
     1  0  0.50     -1785.8828   2.0000                                                             
     2  0  0.50      -139.4969   2.0000                                                             
     2  1  1.50       -95.5546   6.0000                                                             
     3  0  0.50       -10.8127   2.0000                                                             
     3  1  0.50        -4.0811   2.0000                                                             
     3  2  1.50        -4.0817   0.0000                                                             
   Description                                                                                      
     l       E           TYP  RCUT    TYP  RCUT                                                     
     0    -10.8127223     23  1.900                                                                 
     0     -7.6451159     23  1.900                                                                 
     1     -4.0811372     23  1.900                                                                 
     1      2.4879257     23  1.900                                                                 
     2     -4.0817478      7  1.900                                                                 
  local pseudopotential read in
  partial core-charges read in
  partial kinetic energy density read in
  atomic valenz-charges read in
  non local Contribution for L=           0  read in
    real space projection operators read in
  non local Contribution for L=           0  read in
    real space projection operators read in
  non local Contribution for L=           1  read in
    real space projection operators read in
  non local Contribution for L=           1  read in
    real space projection operators read in
    PAW grid and wavefunctions read in
 
   number of l-projection  operators is LMAX  =           4
   number of lm-projection operators is LMMAX =           8
 
  PAW_PBE Si 05Jan2001                  :
 energy of atom  1       EATOM= -103.0669
 kinetic energy error for atom=    0.0003 (will be added to EATOM!!)
 
 
 POSCAR: Si1
  positions in direct lattice
  No initial velocities read in
 exchange correlation table for  LEXCH =        8
   RHO(1)=    0.500       N(1)  =     2000
   RHO(2)=  100.500       N(2)  =     4000
 


--------------------------------------------------------------------------------------------------------


 ion  position               nearest neighbor table
   1  0.000  0.000  0.000-
 
  LATTYP: Found a face centered cubic cell.
 ALAT       =     3.9291108876
  
  Lattice vectors:
  
 A1 = (   2.4060798750,   0.0000000000,   1.3891497000)
 A2 = (   0.8020266250,   2.2684736250,   1.3891497000)
 A3 = (   0.0000000000,   0.0000000000,   2.7783014500)


Analysis of symmetry for initial positions (statically):
=====================================================================
 Subroutine PRICEL returns:
 Original cell was already a primitive cell.
 

 Routine SETGRP: Setting up the symmetry group for a 
 face centered cubic supercell.


 Subroutine GETGRP returns: Found 48 space group operations
 (whereof 48 operations were pure point group operations)
 out of a pool of 48 trial point group operations.


The static configuration has the point symmetry O_h .


Analysis of symmetry for dynamics (positions and initial velocities):
=====================================================================
 Subroutine PRICEL returns:
 Original cell was already a primitive cell.
 

 Routine SETGRP: Setting up the symmetry group for a 
 face centered cubic supercell.


 Subroutine GETGRP returns: Found 48 space group operations
 (whereof 48 operations were pure point group operations)
 out of a pool of 48 trial point group operations.


The dynamic configuration has the point symmetry O_h .


 Subroutine INISYM returns: Found 48 space group operations
 (whereof 48 operations are pure point group operations),
 and found     1 'primitive' translations


----------------------------------------------------------------------------------------

                                     Primitive cell                                     

  volume of cell :      15.1643

  direct lattice vectors                    reciprocal lattice vectors
     2.406079875  0.000000000  1.389149700     0.415613800 -0.146941683  0.000000000
     0.802026625  2.268473625  1.389149700     0.000000000  0.440825050  0.000000000
     0.000000000  0.000000000  2.778301450    -0.207806747 -0.146941575  0.359932145

  length of vectors
     2.778301145  2.778300953  2.778301450     0.440825010  0.440825050  0.440824930

  position of ions in fractional coordinates (direct lattice)
     0.000000000  0.000000000  0.000000000

  ion indices of the primitive-cell ions
   primitive index   ion index
                 1           1

----------------------------------------------------------------------------------------

 
 
 KPOINTS: Automatic                               

Automatic generation of k-mesh.
 Grid dimensions read from file:
 generate k-points for:   15   15   15

 Generating k-lattice:

  Cartesian coordinates                     Fractional coordinates (reciprocal lattice)
     0.027707587 -0.009796112  0.000000000     0.066666667  0.000000000  0.000000000
     0.000000000  0.029388337  0.000000000     0.000000000  0.066666667  0.000000000
    -0.013853783 -0.009796105  0.023995476     0.000000000  0.000000000  0.066666667

  Length of vectors
     0.029388334  0.029388337  0.029388329

  Shift w.r.t. Gamma in fractional coordinates (k-lattice)
     0.000000000  0.000000000  0.000000000

 
 Subroutine IBZKPT returns following result:
 ===========================================
 
 Found    120 irreducible k-points:
 
 Following reciprocal coordinates:
            Coordinates               Weight
  0.000000  0.000000  0.000000      1.000000
  0.066667 -0.000000  0.000000      8.000000
  0.133333 -0.000000  0.000000      8.000000
  0.200000  0.000000  0.000000      8.000000
  0.266667 -0.000000  0.000000      8.000000
  0.333333  0.000000  0.000000      8.000000
  0.400000 -0.000000  0.000000      8.000000
  0.466667 -0.000000  0.000000      8.000000
  0.066667  0.066667  0.000000      6.000000
  0.133333  0.066667  0.000000     24.000000
  0.200000  0.066667  0.000000     24.000000
  0.266667  0.066667  0.000000     24.000000
  0.333333  0.066667  0.000000     24.000000
  0.400000  0.066667  0.000000     24.000000
  0.466667  0.066667  0.000000     24.000000
 -0.466667  0.066667  0.000000     24.000000
 -0.400000  0.066667  0.000000     24.000000
 -0.333333  0.066667  0.000000     24.000000
 -0.266667  0.066667  0.000000     24.000000
 -0.200000  0.066667  0.000000     24.000000
 -0.133333  0.066667  0.000000     24.000000
 -0.066667  0.066667  0.000000     12.000000
  0.133333  0.133333  0.000000      6.000000
  0.200000  0.133333  0.000000     24.000000
  0.266667  0.133333  0.000000     24.000000
  0.333333  0.133333  0.000000     24.000000
  0.400000  0.133333  0.000000     24.000000
  0.466667  0.133333  0.000000     24.000000
 -0.466667  0.133333  0.000000     24.000000
 -0.400000  0.133333  0.000000     24.000000
 -0.333333  0.133333  0.000000     24.000000
 -0.266667  0.133333  0.000000     24.000000
 -0.200000  0.133333  0.000000     24.000000
 -0.133333  0.133333  0.000000     12.000000
  0.200000  0.200000  0.000000      6.000000
  0.266667  0.200000  0.000000     24.000000
  0.333333  0.200000  0.000000     24.000000
  0.400000  0.200000  0.000000     24.000000
  0.466667  0.200000  0.000000     24.000000
 -0.466667  0.200000  0.000000     24.000000
 -0.400000  0.200000  0.000000     24.000000
 -0.333333  0.200000  0.000000     24.000000
 -0.266667  0.200000  0.000000     24.000000
 -0.200000  0.200000  0.000000     12.000000
  0.266667  0.266667  0.000000      6.000000
  0.333333  0.266667  0.000000     24.000000
  0.400000  0.266667  0.000000     24.000000
  0.466667  0.266667  0.000000     24.000000
 -0.466667  0.266667  0.000000     24.000000
 -0.400000  0.266667  0.000000     24.000000
 -0.333333  0.266667  0.000000     24.000000
 -0.266667  0.266667  0.000000     12.000000
  0.333333  0.333333  0.000000      6.000000
  0.400000  0.333333  0.000000     24.000000
  0.466667  0.333333  0.000000     24.000000
 -0.466667  0.333333  0.000000     24.000000
 -0.400000  0.333333  0.000000     24.000000
 -0.333333  0.333333  0.000000     12.000000
  0.400000  0.400000  0.000000      6.000000
  0.466667  0.400000  0.000000     24.000000
 -0.466667  0.400000  0.000000     24.000000
 -0.400000  0.400000  0.000000     12.000000
  0.466667  0.466667  0.000000      6.000000
 -0.466667  0.466667  0.000000     12.000000
  0.200000  0.133333  0.066667     24.000000
  0.266667  0.133333  0.066667     48.000000
  0.333333  0.133333  0.066667     48.000000
  0.400000  0.133333  0.066667     48.000000
  0.466667  0.133333  0.066667     48.000000
 -0.466667  0.133333  0.066667     48.000000
  0.266667  0.200000  0.066667     24.000000
  0.333333  0.200000  0.066667     48.000000
  0.400000  0.200000  0.066667     48.000000
  0.466667  0.200000  0.066667     48.000000
 -0.466667  0.200000  0.066667     48.000000
 -0.400000  0.200000  0.066667     48.000000
 -0.333333  0.200000  0.066667     48.000000
 -0.266667  0.200000  0.066667     48.000000
 -0.200000  0.200000  0.066667     48.000000
 -0.133333  0.200000  0.066667     24.000000
  0.333333  0.266667  0.066667     24.000000
  0.400000  0.266667  0.066667     48.000000
  0.466667  0.266667  0.066667     48.000000
 -0.466667  0.266667  0.066667     48.000000
 -0.400000  0.266667  0.066667     48.000000
 -0.333333  0.266667  0.066667     48.000000
 -0.266667  0.266667  0.066667     48.000000
 -0.200000  0.266667  0.066667     24.000000
  0.400000  0.333333  0.066667     24.000000
  0.466667  0.333333  0.066667     48.000000
 -0.466667  0.333333  0.066667     48.000000
 -0.400000  0.333333  0.066667     48.000000
 -0.333333  0.333333  0.066667     48.000000
 -0.266667  0.333333  0.066667     24.000000
  0.466667  0.400000  0.066667     24.000000
 -0.466667  0.400000  0.066667     48.000000
 -0.400000  0.400000  0.066667     48.000000
 -0.333333  0.400000  0.066667     24.000000
 -0.466667  0.466667  0.066667     24.000000
 -0.400000  0.466667  0.066667     24.000000
  0.400000  0.266667  0.133333     24.000000
  0.466667  0.266667  0.133333     48.000000
 -0.466667  0.266667  0.133333     48.000000
 -0.400000  0.266667  0.133333     48.000000
  0.466667  0.333333  0.133333     24.000000
 -0.466667  0.333333  0.133333     48.000000
 -0.400000  0.333333  0.133333     48.000000
 -0.333333  0.333333  0.133333     48.000000
 -0.266667  0.333333  0.133333     48.000000
 -0.200000  0.333333  0.133333     24.000000
 -0.466667  0.400000  0.133333     24.000000
 -0.400000  0.400000  0.133333     48.000000
 -0.333333  0.400000  0.133333     48.000000
 -0.266667  0.400000  0.133333     24.000000
 -0.400000  0.466667  0.133333     24.000000
 -0.333333  0.466667  0.133333     24.000000
 -0.400000  0.400000  0.200000     24.000000
 -0.333333  0.400000  0.200000     48.000000
 -0.333333  0.466667  0.200000     24.000000
 -0.266667  0.466667  0.200000     24.000000
 
 Following cartesian coordinates:
            Coordinates               Weight
  0.000000  0.000000  0.000000      1.000000
  0.028400 -0.010041  0.000000      8.000000
  0.056801 -0.020082  0.000000      8.000000
  0.085201 -0.030123  0.000000      8.000000
  0.113601 -0.040164  0.000000      8.000000
  0.142001 -0.050205  0.000000      8.000000
  0.170402 -0.060246  0.000000      8.000000
  0.198802 -0.070287  0.000000      8.000000
  0.028400  0.020082  0.000000      6.000000
  0.056801  0.010041  0.000000     24.000000
  0.085201  0.000000  0.000000     24.000000
  0.113601 -0.010041  0.000000     24.000000
  0.142001 -0.020082  0.000000     24.000000
  0.170402 -0.030123  0.000000     24.000000
  0.198802 -0.040164  0.000000     24.000000
 -0.198802  0.100410  0.000000     24.000000
 -0.170402  0.090369  0.000000     24.000000
 -0.142001  0.080328  0.000000     24.000000
 -0.113601  0.070287  0.000000     24.000000
 -0.085201  0.060246  0.000000     24.000000
 -0.056801  0.050205  0.000000     24.000000
 -0.028400  0.040164  0.000000     12.000000
  0.056801  0.040164  0.000000      6.000000
  0.085201  0.030123  0.000000     24.000000
  0.113601  0.020082  0.000000     24.000000
  0.142001  0.010041  0.000000     24.000000
  0.170402  0.000000  0.000000     24.000000
  0.198802 -0.010041  0.000000     24.000000
 -0.198802  0.130533  0.000000     24.000000
 -0.170402  0.120492  0.000000     24.000000
 -0.142001  0.110451  0.000000     24.000000
 -0.113601  0.100410  0.000000     24.000000
 -0.085201  0.090369  0.000000     24.000000
 -0.056801  0.080328  0.000000     12.000000
  0.085201  0.060246  0.000000      6.000000
  0.113601  0.050205  0.000000     24.000000
  0.142001  0.040164  0.000000     24.000000
  0.170402  0.030123  0.000000     24.000000
  0.198802  0.020082  0.000000     24.000000
 -0.198802  0.160656  0.000000     24.000000
 -0.170402  0.150615  0.000000     24.000000
 -0.142001  0.140574  0.000000     24.000000
 -0.113601  0.130533  0.000000     24.000000
 -0.085201  0.120492  0.000000     12.000000
  0.113601  0.080328  0.000000      6.000000
  0.142001  0.070287  0.000000     24.000000
  0.170402  0.060246  0.000000     24.000000
  0.198802  0.050205  0.000000     24.000000
 -0.198802  0.190779  0.000000     24.000000
 -0.170402  0.180738  0.000000     24.000000
 -0.142001  0.170697  0.000000     24.000000
 -0.113601  0.160656  0.000000     12.000000
  0.142001  0.100410  0.000000      6.000000
  0.170402  0.090369  0.000000     24.000000
  0.198802  0.080328  0.000000     24.000000
 -0.198802  0.220902  0.000000     24.000000
 -0.170402  0.210861  0.000000     24.000000
 -0.142001  0.200820  0.000000     12.000000
  0.170402  0.120492  0.000000      6.000000
  0.198802  0.110451  0.000000     24.000000
 -0.198802  0.251025  0.000000     24.000000
 -0.170402  0.240984  0.000000     12.000000
  0.198802  0.140574  0.000000      6.000000
 -0.198802  0.281148  0.000000     12.000000
  0.071001  0.020082  0.024595     24.000000
  0.099401  0.010041  0.024595     48.000000
  0.127801  0.000000  0.024595     48.000000
  0.156202 -0.010041  0.024595     48.000000
  0.184602 -0.020082  0.024595     48.000000
 -0.213002  0.120492  0.024595     48.000000
  0.099401  0.040164  0.024595     24.000000
  0.127801  0.030123  0.024595     48.000000
  0.156202  0.020082  0.024595     48.000000
  0.184602  0.010041  0.024595     48.000000
 -0.213002  0.150615  0.024595     48.000000
 -0.184602  0.140574  0.024595     48.000000
 -0.156202  0.130533  0.024595     48.000000
 -0.127801  0.120492  0.024595     48.000000
 -0.099401  0.110451  0.024595     48.000000
 -0.071001  0.100410  0.024595     24.000000
  0.127801  0.060246  0.024595     24.000000
  0.156202  0.050205  0.024595     48.000000
  0.184602  0.040164  0.024595     48.000000
 -0.213002  0.180738  0.024595     48.000000
 -0.184602  0.170697  0.024595     48.000000
 -0.156202  0.160656  0.024595     48.000000
 -0.127801  0.150615  0.024595     48.000000
 -0.099401  0.140574  0.024595     24.000000
  0.156202  0.080328  0.024595     24.000000
  0.184602  0.070287  0.024595     48.000000
 -0.213002  0.210861  0.024595     48.000000
 -0.184602  0.200820  0.024595     48.000000
 -0.156202  0.190779  0.024595     48.000000
 -0.127801  0.180738  0.024595     24.000000
  0.184602  0.100410  0.024595     24.000000
 -0.213002  0.240984  0.024595     48.000000
 -0.184602  0.230943  0.024595     48.000000
 -0.156202  0.220902  0.024595     24.000000
 -0.213002  0.271107  0.024595     24.000000
 -0.184602  0.261066  0.024595     24.000000
  0.142001  0.040164  0.049191     24.000000
  0.170402  0.030123  0.049191     48.000000
 -0.227202  0.170697  0.049191     48.000000
 -0.198802  0.160656  0.049191     48.000000
  0.170402  0.060246  0.049191     24.000000
 -0.227202  0.200820  0.049191     48.000000
 -0.198802  0.190779  0.049191     48.000000
 -0.170402  0.180738  0.049191     48.000000
 -0.142001  0.170697  0.049191     48.000000
 -0.113601  0.160656  0.049191     24.000000
 -0.227202  0.230943  0.049191     24.000000
 -0.198802  0.220902  0.049191     48.000000
 -0.170402  0.210861  0.049191     48.000000
 -0.142001  0.200820  0.049191     24.000000
 -0.198802  0.251025  0.049191     24.000000
 -0.170402  0.240984  0.049191     24.000000
 -0.213002  0.210861  0.073786     24.000000
 -0.184602  0.200820  0.073786     48.000000
 -0.184602  0.230943  0.073786     24.000000
 -0.156201  0.220902  0.073786     24.000000
 


--------------------------------------------------------------------------------------------------------




 Dimension of arrays:
   k-points           NKPTS =    120   k-points in BZ     NKDIM =    120   number of bands    NBANDS=      8
   number of dos      NEDOS =    301   number of ions     NIONS =      1
   non local maximal  LDIM  =      4   non local SUM 2l+1 LMDIM =      8
   total plane-waves  NPLWV =  13824
   max r-space proj   IRMAX =      1   max aug-charges    IRDMAX= 244009
   dimension x,y,z NGX =    24 NGY =   24 NGZ =   24
   dimension x,y,z NGXF=    48 NGYF=   48 NGZF=   48
   support grid    NGXF=    96 NGYF=   96 NGZF=   96
   ions per type =               1
   NGX,Y,Z   is equivalent  to a cutoff of  14.36, 14.36, 14.36 a.u.
   NGXF,Y,Z  is equivalent  to a cutoff of  28.72, 28.72, 28.72 a.u.

 SYSTEM =  unknown system                          
 POSCAR =  Si1                                     

 Startparameter for this run:
   NWRITE =      2    write-flag & timer
   PREC   = accura    normal or accurate (medium, high low for compatibility)
   ISTART =      0    job   : 0-new  1-cont  2-samecut
   ICHARG =      2    charge: 1-file 2-atom 10-const
   ISPIN  =      1    spin polarized calculation?
   LNONCOLLINEAR =      F non collinear calculations
   LSORBIT =      F    spin-orbit coupling
   INIWAV =      1    electr: 0-lowe 1-rand  2-diag
   LASPH  =      T    aspherical Exc in radial PAW
   METAGGA=      F    non-selfconsistent MetaGGA calc.

 Electronic Relaxation 1
   ENCUT  =  700.0 eV  51.45 Ry    7.17 a.u.   5.99  5.99  5.99*2*pi/ulx,y,z
   ENINI  =  700.0     initial cutoff
   ENAUG  =  322.1 eV  augmentation charge cutoff
   NELM   =     90;   NELMIN=  6; NELMDL= -5     # of ELM steps 
   EDIFF  = 0.1E-05   stopping-criterion for ELM
   LREAL  =      F    real-space projection
   NLSPLINE    = F    spline interpolate recip. space projectors
   LCOMPAT=      F    compatible to vasp.4.4
   GGA_COMPAT  = T    GGA compatible to vasp.4.4-vasp.4.6
   LMAXPAW     = -100 max onsite density
   LMAXMIX     =    2 max onsite mixed and CHGCAR
   VOSKOWN=      0    Vosko Wilk Nusair interpolation
   ROPT   =    0.00000
 Ionic relaxation
   EDIFFG = -.2E-02   stopping-criterion for IOM
   NSW    =    100    number of steps for IOM
   NBLOCK =      1;   KBLOCK =    100    inner block; outer block 
   IBRION =      2    ionic relax: 0-MD 1-quasi-New 2-CG
   NFREE  =      1    steps in history (QN), initial steepest desc. (CG)
   ISIF   =      2    stress and relaxation
   IWAVPR =     11    prediction:  0-non 1-charg 2-wave 3-comb
   ISYM   =      2    0-nonsym 1-usesym 2-fastsym
   LCORR  =      T    Harris-Foulkes like correction to forces

   POTIM  = 0.5000    time-step for ionic-motion
   TEIN   =    0.0    initial temperature
   TEBEG  =    0.0;   TEEND  =   0.0 temperature during run
   SMASS  =  -3.00    Nose mass-parameter (am)
   estimated Nose-frequenzy (Omega)   =  0.10E-29 period in steps = 0.13E+47 mass=  -0.176E-27a.u.
   SCALEE = 1.0000    scale energy and forces
   NPACO  =    256;   APACO  = 16.0  distance and # of slots for P.C.
   PSTRESS=    0.0 pullay stress

  Mass of Ions in am
   POMASS =  28.09
  Ionic Valenz
   ZVAL   =   4.00
  Atomic Wigner-Seitz radii
   RWIGS  =  -1.00
  virtual crystal weights 
   VCA    =   1.00
   NELECT =       4.0000    total number of electrons
   NUPDOWN=      -1.0000    fix difference up-down

 DOS related values:
   EMIN   =  10.00;   EMAX   =-10.00  energy-range for DOS
   EFERMI =   0.00
   ISMEAR =     0;   SIGMA  =   0.05  broadening in eV -4-tet -1-fermi 0-gaus

 Electronic relaxation 2 (details)
   IALGO  =     38    algorithm
   LDIAG  =      T    sub-space diagonalisation (order eigenvalues)
   LSUBROT=      F    optimize rotation matrix (better conditioning)
   TURBO    =      0    0=normal 1=particle mesh
   IRESTART =      0    0=no restart 2=restart with 2 vectors
   NREBOOT  =      0    no. of reboots
   NMIN     =      0    reboot dimension
   EREF     =   0.00    reference energy to select bands
   IMIX   =      4    mixing-type and parameters
     AMIX     =   0.40;   BMIX     =  1.00
     AMIX_MAG =   1.60;   BMIX_MAG =  1.00
     AMIN     =   0.10
     WC   =   100.;   INIMIX=   1;  MIXPRE=   1;  MAXMIX= -45

 Intra band minimization:
   WEIMIN = 0.0010     energy-eigenvalue tresh-hold
   EBREAK =  0.31E-07  absolut break condition
   DEPER  =   0.30     relativ break condition  

   TIME   =   0.40     timestep for ELM

  volume/ion in A,a.u.               =      15.16       102.33
  Fermi-wavevector in a.u.,A,eV,Ry     =   1.049914  1.984050 14.997970  1.102320
  Thomas-Fermi vector in A             =   2.184896
 
 Write flags
   LWAVE        =      F    write WAVECAR
   LDOWNSAMPLE  =      F    k-point downsampling of WAVECAR
   LCHARG       =      F    write CHGCAR
   LVTOT        =      F    write LOCPOT, total local potential
   LVHAR        =      F    write LOCPOT, Hartree potential only
   LELF         =      F    write electronic localiz. function (ELF)
   LORBIT       =      0    0 simple, 1 ext, 2 COOP (PROOUT), +10 PAW based schemes


 Dipole corrections
   LMONO  =      F    monopole corrections only (constant potential shift)
   LDIPOL =      F    correct potential (dipole corrections)
   IDIPOL =      0    1-x, 2-y, 3-z, 4-all directions 
   EPSILON=  1.0000000 bulk dielectric constant

 Exchange correlation treatment:
   GGA     =    --    GGA type
   LEXCH   =     8    internal setting for exchange type
   VOSKOWN=      0    Vosko Wilk Nusair interpolation
   LHFCALC =     F    Hartree Fock is set to
   LHFONE  =     F    Hartree Fock one center treatment
   AEXX    =    0.0000 exact exchange contribution

 Linear response parameters
   LEPSILON=     F    determine dielectric tensor
   LRPA    =     F    only Hartree local field effects (RPA)
   LNABLA  =     F    use nabla operator in PAW spheres
   LVEL    =     F    velocity operator in full k-point grid
   LINTERFAST=   F  fast interpolation
   KINTER  =     0    interpolate to denser k-point grid
   CSHIFT  =0.1000    complex shift for real part using Kramers Kronig
   OMEGAMAX=  -1.0    maximum frequency
   DEG_THRESHOLD= 0.2000000E-02 threshold for treating states as degnerate
   RTIME   =   -0.100 relaxation time in fs
  (WPLASMAI=    0.000 imaginary part of plasma frequency in eV, 0.658/RTIME)
   DFIELD  = 0.0000000 0.0000000 0.0000000 field for delta impulse in time
 
 Orbital magnetization related:
   ORBITALMAG=     F  switch on orbital magnetization
   LCHIMAG   =     F  perturbation theory with respect to B field
   DQ        =  0.001000  dq finite difference perturbation B field
   LLRAUG    =     F  two centre corrections for induced B field



--------------------------------------------------------------------------------------------------------


 conjugate gradient relaxation of ions
 charge density and potential will be updated during run
 non-spin polarized calculation
 Variant of blocked Davidson
 Davidson routine will perform the subspace rotation
 perform sub-space diagonalisation
    after iterative eigenvector-optimisation
 modified Broyden-mixing scheme, WC =      100.0
 initial mixing is a Kerker type mixing with AMIX =  0.4000 and BMIX =      1.0000
 Hartree-type preconditioning will be used
 using additional bands            6
 reciprocal scheme for non local part
 use partial core corrections
 calculate Harris-corrections to forces 
   (improved forces if not selfconsistent)
 use gradient corrections 
 use of overlap-Matrix (Vanderbilt PP)
 Gauss-broadening in eV      SIGMA  =   0.05


--------------------------------------------------------------------------------------------------------


  energy-cutoff  :      700.00
  volume of cell :       15.16
      direct lattice vectors                 reciprocal lattice vectors
     2.406079875  0.000000000  1.389149700     0.415613800 -0.146941683  0.000000000
     0.802026625  2.268473625  1.389149700     0.000000000  0.440825050  0.000000000
     0.000000000  0.000000000  2.778301450    -0.207806747 -0.146941575  0.359932145

  length of vectors
     2.778301145  2.778300953  2.778301450     0.440825010  0.440825050  0.440824930


 
 k-points in units of 2pi/SCALE and weight: Automatic                               
   0.00000000  0.00000000  0.00000000       0.000
   0.02840028 -0.01004102  0.00000000       0.002
   0.05680055 -0.02008203  0.00000000       0.002
   0.08520083 -0.03012305  0.00000000       0.002
   0.11360111 -0.04016406  0.00000000       0.002
   0.14200138 -0.05020508  0.00000000       0.002
   0.17040166 -0.06024609  0.00000000       0.002
   0.19880193 -0.07028711  0.00000000       0.002
   0.02840028  0.02008203  0.00000000       0.002
   0.05680055  0.01004102  0.00000000       0.007
   0.08520083  0.00000000  0.00000000       0.007
   0.11360111 -0.01004102  0.00000000       0.007
   0.14200138 -0.02008203  0.00000000       0.007
   0.17040166 -0.03012305  0.00000000       0.007
   0.19880193 -0.04016406  0.00000000       0.007
  -0.19880193  0.10041015  0.00000000       0.007
  -0.17040166  0.09036914  0.00000000       0.007
  -0.14200138  0.08032812  0.00000000       0.007
  -0.11360111  0.07028711  0.00000000       0.007
  -0.08520083  0.06024609  0.00000000       0.007
  -0.05680055  0.05020508  0.00000000       0.007
  -0.02840028  0.04016406  0.00000000       0.004
   0.05680055  0.04016406  0.00000000       0.002
   0.08520083  0.03012305  0.00000000       0.007
   0.11360111  0.02008203  0.00000000       0.007
   0.14200138  0.01004102  0.00000000       0.007
   0.17040166  0.00000000  0.00000000       0.007
   0.19880193 -0.01004102  0.00000000       0.007
  -0.19880193  0.13053320  0.00000000       0.007
  -0.17040166  0.12049218  0.00000000       0.007
  -0.14200138  0.11045117  0.00000000       0.007
  -0.11360111  0.10041015  0.00000000       0.007
  -0.08520083  0.09036914  0.00000000       0.007
  -0.05680055  0.08032812  0.00000000       0.004
   0.08520083  0.06024609  0.00000000       0.002
   0.11360111  0.05020508  0.00000000       0.007
   0.14200138  0.04016406  0.00000000       0.007
   0.17040166  0.03012305  0.00000000       0.007
   0.19880193  0.02008203  0.00000000       0.007
  -0.19880193  0.16065624  0.00000000       0.007
  -0.17040166  0.15061523  0.00000000       0.007
  -0.14200138  0.14057421  0.00000000       0.007
  -0.11360111  0.13053320  0.00000000       0.007
  -0.08520083  0.12049218  0.00000000       0.004
   0.11360111  0.08032812  0.00000000       0.002
   0.14200138  0.07028711  0.00000000       0.007
   0.17040166  0.06024609  0.00000000       0.007
   0.19880193  0.05020508  0.00000000       0.007
  -0.19880193  0.19077929  0.00000000       0.007
  -0.17040166  0.18073827  0.00000000       0.007
  -0.14200138  0.17069726  0.00000000       0.007
  -0.11360111  0.16065624  0.00000000       0.004
   0.14200138  0.10041015  0.00000000       0.002
   0.17040166  0.09036914  0.00000000       0.007
   0.19880193  0.08032812  0.00000000       0.007
  -0.19880193  0.22090233  0.00000000       0.007
  -0.17040166  0.21086132  0.00000000       0.007
  -0.14200138  0.20082030  0.00000000       0.004
   0.17040166  0.12049218  0.00000000       0.002
   0.19880193  0.11045117  0.00000000       0.007
  -0.19880193  0.25102538  0.00000000       0.007
  -0.17040166  0.24098436  0.00000000       0.004
   0.19880193  0.14057421  0.00000000       0.002
  -0.19880193  0.28114842  0.00000000       0.004
   0.07100070  0.02008204  0.02459536       0.007
   0.09940098  0.01004102  0.02459536       0.014
   0.12780125  0.00000001  0.02459536       0.014
   0.15620153 -0.01004101  0.02459536       0.014
   0.18460181 -0.02008202  0.02459536       0.014
  -0.21300206  0.12049219  0.02459536       0.014
   0.09940098  0.04016407  0.02459536       0.007
   0.12780125  0.03012305  0.02459536       0.014
   0.15620153  0.02008204  0.02459536       0.014
   0.18460181  0.01004102  0.02459536       0.014
  -0.21300206  0.15061523  0.02459536       0.014
  -0.18460179  0.14057422  0.02459536       0.014
  -0.15620151  0.13053320  0.02459536       0.014
  -0.12780123  0.12049219  0.02459536       0.014
  -0.09940096  0.11045117  0.02459536       0.014
  -0.07100068  0.10041016  0.02459536       0.007
   0.12780125  0.06024610  0.02459536       0.007
   0.15620153  0.05020508  0.02459536       0.014
   0.18460181  0.04016407  0.02459536       0.014
  -0.21300206  0.18073828  0.02459536       0.014
  -0.18460179  0.17069726  0.02459536       0.014
  -0.15620151  0.16065625  0.02459536       0.014
  -0.12780123  0.15061523  0.02459536       0.014
  -0.09940096  0.14057422  0.02459536       0.007
   0.15620153  0.08032813  0.02459536       0.007
   0.18460181  0.07028711  0.02459536       0.014
  -0.21300206  0.21086132  0.02459536       0.014
  -0.18460179  0.20082031  0.02459536       0.014
  -0.15620151  0.19077929  0.02459536       0.014
  -0.12780123  0.18073828  0.02459536       0.007
   0.18460181  0.10041016  0.02459536       0.007
  -0.21300206  0.24098437  0.02459536       0.014
  -0.18460179  0.23094335  0.02459536       0.014
  -0.15620151  0.22090234  0.02459536       0.007
  -0.21300206  0.27110741  0.02459536       0.007
  -0.18460179  0.26106640  0.02459536       0.007
   0.14200140  0.04016407  0.04919073       0.007
   0.17040168  0.03012306  0.04919073       0.014
  -0.22720219  0.17069727  0.04919073       0.014
  -0.19880191  0.16065626  0.04919073       0.014
   0.17040168  0.06024611  0.04919073       0.007
  -0.22720219  0.20082032  0.04919073       0.014
  -0.19880191  0.19077930  0.04919073       0.014
  -0.17040164  0.18073829  0.04919073       0.014
  -0.14200136  0.17069727  0.04919073       0.014
  -0.11360108  0.16065626  0.04919073       0.007
  -0.22720219  0.23094336  0.04919073       0.007
  -0.19880191  0.22090235  0.04919073       0.014
  -0.17040164  0.21086133  0.04919073       0.014
  -0.14200136  0.20082032  0.04919073       0.007
  -0.19880191  0.25102539  0.04919073       0.007
  -0.17040164  0.24098438  0.04919073       0.007
  -0.21300204  0.21086134  0.07378609       0.007
  -0.18460176  0.20082032  0.07378609       0.014
  -0.18460176  0.23094337  0.07378609       0.007
  -0.15620149  0.22090235  0.07378609       0.007
 
 k-points in reciprocal lattice and weights: Automatic                               
   0.00000000  0.00000000  0.00000000       0.000
   0.06666667 -0.00000000  0.00000000       0.002
   0.13333333 -0.00000000  0.00000000       0.002
   0.20000000  0.00000000  0.00000000       0.002
   0.26666667 -0.00000000  0.00000000       0.002
   0.33333333  0.00000000  0.00000000       0.002
   0.40000000 -0.00000000  0.00000000       0.002
   0.46666667 -0.00000000  0.00000000       0.002
   0.06666667  0.06666667  0.00000000       0.002
   0.13333333  0.06666667  0.00000000       0.007
   0.20000000  0.06666667  0.00000000       0.007
   0.26666667  0.06666667  0.00000000       0.007
   0.33333333  0.06666667  0.00000000       0.007
   0.40000000  0.06666667  0.00000000       0.007
   0.46666667  0.06666667  0.00000000       0.007
  -0.46666667  0.06666667  0.00000000       0.007
  -0.40000000  0.06666667  0.00000000       0.007
  -0.33333333  0.06666667  0.00000000       0.007
  -0.26666667  0.06666667  0.00000000       0.007
  -0.20000000  0.06666667  0.00000000       0.007
  -0.13333333  0.06666667  0.00000000       0.007
  -0.06666667  0.06666667  0.00000000       0.004
   0.13333333  0.13333333  0.00000000       0.002
   0.20000000  0.13333333  0.00000000       0.007
   0.26666667  0.13333333  0.00000000       0.007
   0.33333333  0.13333333  0.00000000       0.007
   0.40000000  0.13333333  0.00000000       0.007
   0.46666667  0.13333333  0.00000000       0.007
  -0.46666667  0.13333333  0.00000000       0.007
  -0.40000000  0.13333333  0.00000000       0.007
  -0.33333333  0.13333333  0.00000000       0.007
  -0.26666667  0.13333333  0.00000000       0.007
  -0.20000000  0.13333333  0.00000000       0.007
  -0.13333333  0.13333333  0.00000000       0.004
   0.20000000  0.20000000  0.00000000       0.002
   0.26666667  0.20000000  0.00000000       0.007
   0.33333333  0.20000000  0.00000000       0.007
   0.40000000  0.20000000  0.00000000       0.007
   0.46666667  0.20000000  0.00000000       0.007
  -0.46666667  0.20000000  0.00000000       0.007
  -0.40000000  0.20000000  0.00000000       0.007
  -0.33333333  0.20000000  0.00000000       0.007
  -0.26666667  0.20000000  0.00000000       0.007
  -0.20000000  0.20000000  0.00000000       0.004
   0.26666667  0.26666667  0.00000000       0.002
   0.33333333  0.26666667  0.00000000       0.007
   0.40000000  0.26666667  0.00000000       0.007
   0.46666667  0.26666667  0.00000000       0.007
  -0.46666667  0.26666667  0.00000000       0.007
  -0.40000000  0.26666667  0.00000000       0.007
  -0.33333333  0.26666667  0.00000000       0.007
  -0.26666667  0.26666667  0.00000000       0.004
   0.33333333  0.33333333  0.00000000       0.002
   0.40000000  0.33333333  0.00000000       0.007
   0.46666667  0.33333333  0.00000000       0.007
  -0.46666667  0.33333333  0.00000000       0.007
  -0.40000000  0.33333333  0.00000000       0.007
  -0.33333333  0.33333333  0.00000000       0.004
   0.40000000  0.40000000  0.00000000       0.002
   0.46666667  0.40000000  0.00000000       0.007
  -0.46666667  0.40000000  0.00000000       0.007
  -0.40000000  0.40000000  0.00000000       0.004
   0.46666667  0.46666667  0.00000000       0.002
  -0.46666667  0.46666667  0.00000000       0.004
   0.20000000  0.13333333  0.06666667       0.007
   0.26666667  0.13333333  0.06666667       0.014
   0.33333333  0.13333333  0.06666667       0.014
   0.40000000  0.13333333  0.06666667       0.014
   0.46666667  0.13333333  0.06666667       0.014
  -0.46666667  0.13333333  0.06666667       0.014
   0.26666667  0.20000000  0.06666667       0.007
   0.33333333  0.20000000  0.06666667       0.014
   0.40000000  0.20000000  0.06666667       0.014
   0.46666667  0.20000000  0.06666667       0.014
  -0.46666667  0.20000000  0.06666667       0.014
  -0.40000000  0.20000000  0.06666667       0.014
  -0.33333333  0.20000000  0.06666667       0.014
  -0.26666667  0.20000000  0.06666667       0.014
  -0.20000000  0.20000000  0.06666667       0.014
  -0.13333333  0.20000000  0.06666667       0.007
   0.33333333  0.26666667  0.06666667       0.007
   0.40000000  0.26666667  0.06666667       0.014
   0.46666667  0.26666667  0.06666667       0.014
  -0.46666667  0.26666667  0.06666667       0.014
  -0.40000000  0.26666667  0.06666667       0.014
  -0.33333333  0.26666667  0.06666667       0.014
  -0.26666667  0.26666667  0.06666667       0.014
  -0.20000000  0.26666667  0.06666667       0.007
   0.40000000  0.33333333  0.06666667       0.007
   0.46666667  0.33333333  0.06666667       0.014
  -0.46666667  0.33333333  0.06666667       0.014
  -0.40000000  0.33333333  0.06666667       0.014
  -0.33333333  0.33333333  0.06666667       0.014
  -0.26666667  0.33333333  0.06666667       0.007
   0.46666667  0.40000000  0.06666667       0.007
  -0.46666667  0.40000000  0.06666667       0.014
  -0.40000000  0.40000000  0.06666667       0.014
  -0.33333333  0.40000000  0.06666667       0.007
  -0.46666667  0.46666667  0.06666667       0.007
  -0.40000000  0.46666667  0.06666667       0.007
   0.40000000  0.26666667  0.13333333       0.007
   0.46666667  0.26666667  0.13333333       0.014
  -0.46666667  0.26666667  0.13333333       0.014
  -0.40000000  0.26666667  0.13333333       0.014
   0.46666667  0.33333333  0.13333333       0.007
  -0.46666667  0.33333333  0.13333333       0.014
  -0.40000000  0.33333333  0.13333333       0.014
  -0.33333333  0.33333333  0.13333333       0.014
  -0.26666667  0.33333333  0.13333333       0.014
  -0.20000000  0.33333333  0.13333333       0.007
  -0.46666667  0.40000000  0.13333333       0.007
  -0.40000000  0.40000000  0.13333333       0.014
  -0.33333333  0.40000000  0.13333333       0.014
  -0.26666667  0.40000000  0.13333333       0.007
  -0.40000000  0.46666667  0.13333333       0.007
  -0.33333333  0.46666667  0.13333333       0.007
  -0.40000000  0.40000000  0.20000000       0.007
  -0.33333333  0.40000000  0.20000000       0.014
  -0.33333333  0.46666667  0.20000000       0.007
  -0.26666667  0.46666667  0.20000000       0.007
 
 position of ions in fractional coordinates (direct lattice) 
   0.00000000  0.00000000  0.00000000
 
 position of ions in cartesian coordinates  (Angst):
   0.00000000  0.00000000  0.00000000
 


--------------------------------------------------------------------------------------------------------


 k-point   1 :   0.0000 0.0000 0.0000  plane waves:     609
 k-point   2 :   0.0667-0.0000 0.0000  plane waves:     624
 k-point   3 :   0.1333-0.0000 0.0000  plane waves:     631
 k-point   4 :   0.2000 0.0000 0.0000  plane waves:     628
 k-point   5 :   0.2667-0.0000 0.0000  plane waves:     631
 k-point   6 :   0.3333 0.0000 0.0000  plane waves:     613
 k-point   7 :   0.4000-0.0000 0.0000  plane waves:     628
 k-point   8 :   0.4667-0.0000 0.0000  plane waves:     631
 k-point   9 :   0.0667 0.0667 0.0000  plane waves:     625
 k-point  10 :   0.1333 0.0667 0.0000  plane waves:     629
 k-point  11 :   0.2000 0.0667 0.0000  plane waves:     636
 k-point  12 :   0.2667 0.0667 0.0000  plane waves:     626
 k-point  13 :   0.3333 0.0667 0.0000  plane waves:     631
 k-point  14 :   0.4000 0.0667 0.0000  plane waves:     628
 k-point  15 :   0.4667 0.0667 0.0000  plane waves:     632
 k-point  16 :  -0.4667 0.0667 0.0000  plane waves:     630
 k-point  17 :  -0.4000 0.0667 0.0000  plane waves:     627
 k-point  18 :  -0.3333 0.0667 0.0000  plane waves:     626
 k-point  19 :  -0.2667 0.0667 0.0000  plane waves:     626
 k-point  20 :  -0.2000 0.0667 0.0000  plane waves:     629
 k-point  21 :  -0.1333 0.0667 0.0000  plane waves:     633
 k-point  22 :  -0.0667 0.0667 0.0000  plane waves:     628
 k-point  23 :   0.1333 0.1333 0.0000  plane waves:     629
 k-point  24 :   0.2000 0.1333 0.0000  plane waves:     633
 k-point  25 :   0.2667 0.1333 0.0000  plane waves:     628
 k-point  26 :   0.3333 0.1333 0.0000  plane waves:     632
 k-point  27 :   0.4000 0.1333 0.0000  plane waves:     631
 k-point  28 :   0.4667 0.1333 0.0000  plane waves:     634
 k-point  29 :  -0.4667 0.1333 0.0000  plane waves:     636
 k-point  30 :  -0.4000 0.1333 0.0000  plane waves:     635
 k-point  31 :  -0.3333 0.1333 0.0000  plane waves:     628
 k-point  32 :  -0.2667 0.1333 0.0000  plane waves:     631
 k-point  33 :  -0.2000 0.1333 0.0000  plane waves:     629
 k-point  34 :  -0.1333 0.1333 0.0000  plane waves:     620
 k-point  35 :   0.2000 0.2000 0.0000  plane waves:     641
 k-point  36 :   0.2667 0.2000 0.0000  plane waves:     637
 k-point  37 :   0.3333 0.2000 0.0000  plane waves:     631
 k-point  38 :   0.4000 0.2000 0.0000  plane waves:     630
 k-point  39 :   0.4667 0.2000 0.0000  plane waves:     636
 k-point  40 :  -0.4667 0.2000 0.0000  plane waves:     639
 k-point  41 :  -0.4000 0.2000 0.0000  plane waves:     643
 k-point  42 :  -0.3333 0.2000 0.0000  plane waves:     640
 k-point  43 :  -0.2667 0.2000 0.0000  plane waves:     634
 k-point  44 :  -0.2000 0.2000 0.0000  plane waves:     630
 k-point  45 :   0.2667 0.2667 0.0000  plane waves:     636
 k-point  46 :   0.3333 0.2667 0.0000  plane waves:     637
 k-point  47 :   0.4000 0.2667 0.0000  plane waves:     637
 k-point  48 :   0.4667 0.2667 0.0000  plane waves:     641
 k-point  49 :  -0.4667 0.2667 0.0000  plane waves:     639
 k-point  50 :  -0.4000 0.2667 0.0000  plane waves:     641
 k-point  51 :  -0.3333 0.2667 0.0000  plane waves:     641
 k-point  52 :  -0.2667 0.2667 0.0000  plane waves:     640
 k-point  53 :   0.3333 0.3333 0.0000  plane waves:     640
 k-point  54 :   0.4000 0.3333 0.0000  plane waves:     635
 k-point  55 :   0.4667 0.3333 0.0000  plane waves:     640
 k-point  56 :  -0.4667 0.3333 0.0000  plane waves:     646
 k-point  57 :  -0.4000 0.3333 0.0000  plane waves:     641
 k-point  58 :  -0.3333 0.3333 0.0000  plane waves:     650
 k-point  59 :   0.4000 0.4000 0.0000  plane waves:     640
 k-point  60 :   0.4667 0.4000 0.0000  plane waves:     642
 k-point  61 :  -0.4667 0.4000 0.0000  plane waves:     644
 k-point  62 :  -0.4000 0.4000 0.0000  plane waves:     640
 k-point  63 :   0.4667 0.4667 0.0000  plane waves:     636
 k-point  64 :  -0.4667 0.4667 0.0000  plane waves:     638
 k-point  65 :   0.2000 0.1333 0.0667  plane waves:     634
 k-point  66 :   0.2667 0.1333 0.0667  plane waves:     632
 k-point  67 :   0.3333 0.1333 0.0667  plane waves:     628
 k-point  68 :   0.4000 0.1333 0.0667  plane waves:     632
 k-point  69 :   0.4667 0.1333 0.0667  plane waves:     633
 k-point  70 :  -0.4667 0.1333 0.0667  plane waves:     638
 k-point  71 :   0.2667 0.2000 0.0667  plane waves:     630
 k-point  72 :   0.3333 0.2000 0.0667  plane waves:     631
 k-point  73 :   0.4000 0.2000 0.0667  plane waves:     631
 k-point  74 :   0.4667 0.2000 0.0667  plane waves:     635
 k-point  75 :  -0.4667 0.2000 0.0667  plane waves:     637
 k-point  76 :  -0.4000 0.2000 0.0667  plane waves:     641
 k-point  77 :  -0.3333 0.2000 0.0667  plane waves:     640
 k-point  78 :  -0.2667 0.2000 0.0667  plane waves:     634
 k-point  79 :  -0.2000 0.2000 0.0667  plane waves:     634
 k-point  80 :  -0.1333 0.2000 0.0667  plane waves:     635
 k-point  81 :   0.3333 0.2667 0.0667  plane waves:     636
 k-point  82 :   0.4000 0.2667 0.0667  plane waves:     631
 k-point  83 :   0.4667 0.2667 0.0667  plane waves:     641
 k-point  84 :  -0.4667 0.2667 0.0667  plane waves:     646
 k-point  85 :  -0.4000 0.2667 0.0667  plane waves:     641
 k-point  86 :  -0.3333 0.2667 0.0667  plane waves:     643
 k-point  87 :  -0.2667 0.2667 0.0667  plane waves:     641
 k-point  88 :  -0.2000 0.2667 0.0667  plane waves:     632
 k-point  89 :   0.4000 0.3333 0.0667  plane waves:     635
 k-point  90 :   0.4667 0.3333 0.0667  plane waves:     644
 k-point  91 :  -0.4667 0.3333 0.0667  plane waves:     641
 k-point  92 :  -0.4000 0.3333 0.0667  plane waves:     649
 k-point  93 :  -0.3333 0.3333 0.0667  plane waves:     649
 k-point  94 :  -0.2667 0.3333 0.0667  plane waves:     645
 k-point  95 :   0.4667 0.4000 0.0667  plane waves:     643
 k-point  96 :  -0.4667 0.4000 0.0667  plane waves:     641
 k-point  97 :  -0.4000 0.4000 0.0667  plane waves:     643
 k-point  98 :  -0.3333 0.4000 0.0667  plane waves:     645
 k-point  99 :  -0.4667 0.4667 0.0667  plane waves:     642
 k-point 100 :  -0.4000 0.4667 0.0667  plane waves:     640
 k-point 101 :   0.4000 0.2667 0.1333  plane waves:     635
 k-point 102 :   0.4667 0.2667 0.1333  plane waves:     634
 k-point 103 :  -0.4667 0.2667 0.1333  plane waves:     642
 k-point 104 :  -0.4000 0.2667 0.1333  plane waves:     641
 k-point 105 :   0.4667 0.3333 0.1333  plane waves:     645
 k-point 106 :  -0.4667 0.3333 0.1333  plane waves:     646
 k-point 107 :  -0.4000 0.3333 0.1333  plane waves:     645
 k-point 108 :  -0.3333 0.3333 0.1333  plane waves:     643
 k-point 109 :  -0.2667 0.3333 0.1333  plane waves:     647
 k-point 110 :  -0.2000 0.3333 0.1333  plane waves:     644
 k-point 111 :  -0.4667 0.4000 0.1333  plane waves:     646
 k-point 112 :  -0.4000 0.4000 0.1333  plane waves:     646
 k-point 113 :  -0.3333 0.4000 0.1333  plane waves:     644
 k-point 114 :  -0.2667 0.4000 0.1333  plane waves:     641
 k-point 115 :  -0.4000 0.4667 0.1333  plane waves:     640
 k-point 116 :  -0.3333 0.4667 0.1333  plane waves:     642
 k-point 117 :  -0.4000 0.4000 0.2000  plane waves:     647
 k-point 118 :  -0.3333 0.4000 0.2000  plane waves:     644
 k-point 119 :  -0.3333 0.4667 0.2000  plane waves:     646
 k-point 120 :  -0.2667 0.4667 0.2000  plane waves:     640

 maximum and minimum number of plane-waves per node :       650      609

 maximum number of plane-waves:       650
 maximum index in each direction: 
   IXMAX=    6   IYMAX=    5   IZMAX=    5
   IXMIN=   -6   IYMIN=   -6   IZMIN=   -6


 serial   3D FFT for wavefunctions
 parallel 3D FFT for charge:
    minimum data exchange during FFTs selected (reduces bandwidth)


 total amount of memory used by VASP MPI-rank0    43657. kBytes
=======================================================================

   base      :      30000. kBytes
   nonl-proj :       5017. kBytes
   fftplans  :       4177. kBytes
   grid      :       1926. kBytes
   one-center:          3. kBytes
   wavefun   :       2534. kBytes
 
     INWAV:  cpu time    0.0000: real time    0.0008
 Broyden mixing: mesh for mixing (old mesh)
   NGX = 11   NGY = 11   NGZ = 11
  (NGX  = 48   NGY  = 48   NGZ  = 48)
  gives a total of   1331 points

 initial charge density was supplied:
 charge density of overlapping atoms calculated
 number of electron       4.0000000 magnetization 
 keeping initial charge density in first step


--------------------------------------------------------------------------------------------------------


 Maximum index for augmentation-charges        59275 (set IRDMAX)


--------------------------------------------------------------------------------------------------------


 First call to EWALD:  gamma=   0.716
 Maximum number of real-space cells 3x 3x 3
 Maximum number of reciprocal cells 3x 3x 3

    FEWALD:  cpu time    0.0030: real time    0.0035


--------------------------------------- Iteration      1(   1)  ---------------------------------------


    POTLOK:  cpu time    0.0310: real time    0.0345
    SETDIJ:  cpu time    0.1870: real time    0.1877
     EDDAV:  cpu time    0.9879: real time    0.9884
       DOS:  cpu time    0.0020: real time    0.0022
    --------------------------------------------
      LOOP:  cpu time    1.2078: real time    1.2133

 eigenvalue-minimisations  :  2008
 total energy-change (2. order) :-0.1596614E+01  (-0.2166456E+03)
 number of electron       4.0000000 magnetization 
 augmentation part        4.0000000 magnetization 

 Free energy of the ion-electron system (eV)
  ---------------------------------------------------
  alpha Z        PSCENC =         2.21988954
  Ewald energy   TEWEN  =      -134.42435404
  -Hartree energ DENC   =        -0.70603996
  -exchange      EXHF   =         0.00000000
  -V(xc)+E(xc)   XCENC  =        -8.92874414
  PAW double counting   =        88.12379961      -70.53051779
  entropy T*S    EENTRO =        -0.00148693
  eigenvalues    EBANDS =        19.58421564
  atomic energy  EATOM  =       103.06662367
  Solvation  Ediel_sol  =         0.00000000
  ---------------------------------------------------
  free energy    TOTEN  =        -1.59661441 eV

  energy without entropy =       -1.59512748  energy(sigma->0) =       -1.59587094


--------------------------------------------------------------------------------------------------------




--------------------------------------- Iteration      1(   2)  ---------------------------------------


     EDDAV:  cpu time    1.3458: real time    1.3645
       DOS:  cpu time    0.0030: real time    0.0022
    --------------------------------------------
      LOOP:  cpu time    1.3488: real time    1.3667

 eigenvalue-minimisations  :  2896
 total energy-change (2. order) :-0.3278694E+01  (-0.3156110E+01)
 number of electron       4.0000000 magnetization 
 augmentation part        4.0000000 magnetization 

 Free energy of the ion-electron system (eV)
  ---------------------------------------------------
  alpha Z        PSCENC =         2.21988954
  Ewald energy   TEWEN  =      -134.42435404
  -Hartree energ DENC   =        -0.70603996
  -exchange      EXHF   =         0.00000000
  -V(xc)+E(xc)   XCENC  =        -8.92874414
  PAW double counting   =        88.12379961      -70.53051779
  entropy T*S    EENTRO =        -0.00102983
  eigenvalues    EBANDS =        16.30506436
  atomic energy  EATOM  =       103.06662367
  Solvation  Ediel_sol  =         0.00000000
  ---------------------------------------------------
  free energy    TOTEN  =        -4.87530859 eV

  energy without entropy =       -4.87427876  energy(sigma->0) =       -4.87479367


--------------------------------------------------------------------------------------------------------




--------------------------------------- Iteration      1(   3)  ---------------------------------------


     EDDAV:  cpu time    1.0988: real time    1.1167
       DOS:  cpu time    0.0020: real time    0.0020
    --------------------------------------------
      LOOP:  cpu time    1.1008: real time    1.1187

 eigenvalue-minimisations  :  2280
 total energy-change (2. order) :-0.1914250E-01  (-0.1913885E-01)
 number of electron       4.0000000 magnetization 
 augmentation part        4.0000000 magnetization 

 Free energy of the ion-electron system (eV)
  ---------------------------------------------------
  alpha Z        PSCENC =         2.21988954
  Ewald energy   TEWEN  =      -134.42435404
  -Hartree energ DENC   =        -0.70603996
  -exchange      EXHF   =         0.00000000
  -V(xc)+E(xc)   XCENC  =        -8.92874414
  PAW double counting   =        88.12379961      -70.53051779
  entropy T*S    EENTRO =        -0.00105278
  eigenvalues    EBANDS =        16.28594481
  atomic energy  EATOM  =       103.06662367
  Solvation  Ediel_sol  =         0.00000000
  ---------------------------------------------------
  free energy    TOTEN  =        -4.89445108 eV

  energy without entropy =       -4.89339831  energy(sigma->0) =       -4.89392470


--------------------------------------------------------------------------------------------------------




--------------------------------------- Iteration      1(   4)  ---------------------------------------


     EDDAV:  cpu time    1.4538: real time    1.4721
       DOS:  cpu time    0.0030: real time    0.0022
    --------------------------------------------
      LOOP:  cpu time    1.4568: real time    1.4742

 eigenvalue-minimisations  :  3136
 total energy-change (2. order) :-0.1942581E-04  (-0.1942679E-04)
 number of electron       4.0000000 magnetization 
 augmentation part        4.0000000 magnetization 

 Free energy of the ion-electron system (eV)
  ---------------------------------------------------
  alpha Z        PSCENC =         2.21988954
  Ewald energy   TEWEN  =      -134.42435404
  -Hartree energ DENC   =        -0.70603996
  -exchange      EXHF   =         0.00000000
  -V(xc)+E(xc)   XCENC  =        -8.92874414
  PAW double counting   =        88.12379961      -70.53051779
  entropy T*S    EENTRO =        -0.00105279
  eigenvalues    EBANDS =        16.28592540
  atomic energy  EATOM  =       103.06662367
  Solvation  Ediel_sol  =         0.00000000
  ---------------------------------------------------
  free energy    TOTEN  =        -4.89447051 eV

  energy without entropy =       -4.89341772  energy(sigma->0) =       -4.89394411


--------------------------------------------------------------------------------------------------------




--------------------------------------- Iteration      1(   5)  ---------------------------------------


     EDDAV:  cpu time    1.1168: real time    1.1350
       DOS:  cpu time    0.0020: real time    0.0020
    CHARGE:  cpu time    0.0830: real time    0.0849
    MIXING:  cpu time    0.0030: real time    0.0017
    --------------------------------------------
      LOOP:  cpu time    1.2048: real time    1.2237

 eigenvalue-minimisations  :  2328
 total energy-change (2. order) :-0.4712049E-08  (-0.4926193E-08)
 number of electron       4.0000000 magnetization 
 augmentation part       -0.2433201 magnetization 

 Broyden mixing:
  rms(total) = 0.24164E+00    rms(broyden)= 0.24164E+00
  rms(prec ) = 0.37803E+00
  weight for this iteration     100.00

 Free energy of the ion-electron system (eV)
  ---------------------------------------------------
  alpha Z        PSCENC =         2.21988954
  Ewald energy   TEWEN  =      -134.42435404
  -Hartree energ DENC   =        -0.70603996
  -exchange      EXHF   =         0.00000000
  -V(xc)+E(xc)   XCENC  =        -8.92874414
  PAW double counting   =        88.12379961      -70.53051779
  entropy T*S    EENTRO =        -0.00105279
  eigenvalues    EBANDS =        16.28592539
  atomic energy  EATOM  =       103.06662367
  Solvation  Ediel_sol  =         0.00000000
  ---------------------------------------------------
  free energy    TOTEN  =        -4.89447051 eV

  energy without entropy =       -4.89341772  energy(sigma->0) =       -4.89394412


--------------------------------------------------------------------------------------------------------




--------------------------------------- Iteration      1(   6)  ---------------------------------------


    POTLOK:  cpu time    0.0320: real time    0.0478
    SETDIJ:  cpu time    0.1740: real time    0.1752
     EDDAV:  cpu time    1.0868: real time    1.0876
       DOS:  cpu time    0.0020: real time    0.0020
    CHARGE:  cpu time    0.0810: real time    0.0812
    MIXING:  cpu time    0.0010: real time    0.0016
    --------------------------------------------
      LOOP:  cpu time    1.3778: real time    1.3954

 eigenvalue-minimisations  :  2248
 total energy-change (2. order) : 0.1198367E-01  (-0.3967527E-03)
 number of electron       4.0000000 magnetization 
 augmentation part       -0.2455581 magnetization 

 Broyden mixing:
  rms(total) = 0.13300E+00    rms(broyden)= 0.13300E+00
  rms(prec ) = 0.21849E+00
  weight for this iteration     100.00

 eigenvalues of (default mixing * dielectric matrix)
  average eigenvalue GAMMA=   2.2116
  2.2116

 Free energy of the ion-electron system (eV)
  ---------------------------------------------------
  alpha Z        PSCENC =         2.21988954
  Ewald energy   TEWEN  =      -134.42435404
  -Hartree energ DENC   =        -0.61964289
  -exchange      EXHF   =         0.00000000
  -V(xc)+E(xc)   XCENC  =        -8.91541398
  PAW double counting   =       157.11733369     -139.51931141
  entropy T*S    EENTRO =        -0.00109047
  eigenvalues    EBANDS =        16.19347907
  atomic energy  EATOM  =       103.06662367
  Solvation  Ediel_sol  =         0.00000000
  ---------------------------------------------------
  free energy    TOTEN  =        -4.88248684 eV

  energy without entropy =       -4.88139637  energy(sigma->0) =       -4.88194160


--------------------------------------------------------------------------------------------------------




--------------------------------------- Iteration      1(   7)  ---------------------------------------


    POTLOK:  cpu time    0.0320: real time    0.0485
    SETDIJ:  cpu time    0.1760: real time    0.1755
     EDDAV:  cpu time    1.0838: real time    1.0850
       DOS:  cpu time    0.0020: real time    0.0021
    CHARGE:  cpu time    0.0790: real time    0.0805
    MIXING:  cpu time    0.0020: real time    0.0016
    --------------------------------------------
      LOOP:  cpu time    1.3738: real time    1.3931

 eigenvalue-minimisations  :  2256
 total energy-change (2. order) : 0.6743271E-02  (-0.7919194E-03)
 number of electron       4.0000000 magnetization 
 augmentation part       -0.2487895 magnetization 

 Broyden mixing:
  rms(total) = 0.12659E-01    rms(broyden)= 0.12659E-01
  rms(prec ) = 0.16587E-01
  weight for this iteration     100.00

 eigenvalues of (default mixing * dielectric matrix)
  average eigenvalue GAMMA=   2.3860
  2.3860  2.3860

 Free energy of the ion-electron system (eV)
  ---------------------------------------------------
  alpha Z        PSCENC =         2.21988954
  Ewald energy   TEWEN  =      -134.42435404
  -Hartree energ DENC   =        -0.52494110
  -exchange      EXHF   =         0.00000000
  -V(xc)+E(xc)   XCENC  =        -8.89184425
  PAW double counting   =       283.11716643     -265.51668515
  entropy T*S    EENTRO =        -0.00114960
  eigenvalues    EBANDS =        16.07955094
  atomic energy  EATOM  =       103.06662367
  Solvation  Ediel_sol  =         0.00000000
  ---------------------------------------------------
  free energy    TOTEN  =        -4.87574357 eV

  energy without entropy =       -4.87459397  energy(sigma->0) =       -4.87516877


--------------------------------------------------------------------------------------------------------




--------------------------------------- Iteration      1(   8)  ---------------------------------------


    POTLOK:  cpu time    0.0320: real time    0.0482
    SETDIJ:  cpu time    0.1750: real time    0.1754
     EDDAV:  cpu time    1.4008: real time    1.4021
       DOS:  cpu time    0.0020: real time    0.0022
    CHARGE:  cpu time    0.0810: real time    0.0809
    MIXING:  cpu time    0.0010: real time    0.0015
    --------------------------------------------
      LOOP:  cpu time    1.6927: real time    1.7105

 eigenvalue-minimisations  :  3008
 total energy-change (2. order) : 0.2787355E-04  (-0.2963636E-05)
 number of electron       4.0000000 magnetization 
 augmentation part       -0.2488716 magnetization 

 Broyden mixing:
  rms(total) = 0.14936E-02    rms(broyden)= 0.14936E-02
  rms(prec ) = 0.22701E-02
  weight for this iteration     100.00

 eigenvalues of (default mixing * dielectric matrix)
  average eigenvalue GAMMA=   2.0203
  1.0180  2.4212  2.6218

 Free energy of the ion-electron system (eV)
  ---------------------------------------------------
  alpha Z        PSCENC =         2.21988954
  Ewald energy   TEWEN  =      -134.42435404
  -Hartree energ DENC   =        -0.52618023
  -exchange      EXHF   =         0.00000000
  -V(xc)+E(xc)   XCENC  =        -8.88890917
  PAW double counting   =       269.95605988     -252.36182040
  entropy T*S    EENTRO =        -0.00115023
  eigenvalues    EBANDS =        16.08412529
  atomic energy  EATOM  =       103.06662367
  Solvation  Ediel_sol  =         0.00000000
  ---------------------------------------------------
  free energy    TOTEN  =        -4.87571570 eV

  energy without entropy =       -4.87456546  energy(sigma->0) =       -4.87514058


--------------------------------------------------------------------------------------------------------




--------------------------------------- Iteration      1(   9)  ---------------------------------------


    POTLOK:  cpu time    0.0320: real time    0.0486
    SETDIJ:  cpu time    0.1750: real time    0.1754
     EDDAV:  cpu time    1.1388: real time    1.1402
       DOS:  cpu time    0.0020: real time    0.0020
    --------------------------------------------
      LOOP:  cpu time    1.3478: real time    1.3661

 eigenvalue-minimisations  :  2360
 total energy-change (2. order) :-0.4348776E-06  (-0.3293207E-07)
 number of electron       4.0000000 magnetization 
 augmentation part       -0.2488716 magnetization 

 Free energy of the ion-electron system (eV)
  ---------------------------------------------------
  alpha Z        PSCENC =         2.21988954
  Ewald energy   TEWEN  =      -134.42435404
  -Hartree energ DENC   =        -0.52615099
  -exchange      EXHF   =         0.00000000
  -V(xc)+E(xc)   XCENC  =        -8.88847555
  PAW double counting   =       268.17106865     -250.57751095
  entropy T*S    EENTRO =        -0.00115050
  eigenvalues    EBANDS =        16.08434405
  atomic energy  EATOM  =       103.06662367
  Solvation  Ediel_sol  =         0.00000000
  ---------------------------------------------------
  free energy    TOTEN  =        -4.87571613 eV

  energy without entropy =       -4.87456563  energy(sigma->0) =       -4.87514088


--------------------------------------------------------------------------------------------------------




 average (electrostatic) potential at core
  the test charge radii are     0.9892
  (the norm of the test charge is              1.0000)
       1 -80.5392
 
 
 
 E-fermi :   9.5448     XC(G=0): -11.0059     alpha+bet :-15.8164

 Fermi energy:         9.5447585784

 k-point     1 :       0.0000    0.0000    0.0000
  band No.  band energies     occupation 
      1      -4.4644      2.00000
      2      20.1433      0.00000
      3      20.1434      0.00000
      4      20.1434      0.00000
      5      21.3105      0.00000
      6      21.3106      0.00000
      7      21.3106      0.00000
      8      26.5414      0.00000

 k-point     2 :       0.0667   -0.0000    0.0000
  band No.  band energies     occupation 
      1      -4.3390      2.00000
      2      18.2415      0.00000
      3      19.6071      0.00000
      4      19.6072      0.00000
      5      21.9962      0.00000
      6      21.9962      0.00000
      7      22.1541      0.00000
      8      27.3034      0.00000

 k-point     3 :       0.1333   -0.0000    0.0000
  band No.  band energies     occupation 
      1      -3.9635      2.00000
      2      15.5346      0.00000
      3      18.8979      0.00000
      4      18.8979      0.00000
      5      22.4130      0.00000
      6      23.0130      0.00000
      7      23.0130      0.00000
      8      26.3230      0.00000

 k-point     4 :       0.2000    0.0000    0.0000
  band No.  band energies     occupation 
      1      -3.3393      2.00000
      2      12.8037      0.00000
      3      18.3405      0.00000
      4      18.3405      0.00000
      5      22.3358      0.00000
      6      23.2535      0.00000
      7      23.2536      0.00000
      8      26.2794      0.00000

 k-point     5 :       0.2667   -0.0000    0.0000
  band No.  band energies     occupation 
      1      -2.4692      2.00000
      2      10.1893      0.00000
      3      17.9638      0.00000
      4      17.9638      0.00000
      5      22.2284      0.00000
      6      22.4403      0.00000
      7      22.4403      0.00000
      8      27.6142      0.00000

 k-point     6 :       0.3333    0.0000    0.0000
  band No.  band energies     occupation 
      1      -1.3575      2.00000
      2       7.7462      2.00000
      3      17.7592      0.00000
      4      17.7592      0.00000
      5      21.4979      0.00000
      6      21.4980      0.00000
      7      22.1957      0.00000
      8      26.5284      0.00000

 k-point     7 :       0.4000   -0.0000    0.0000
  band No.  band energies     occupation 
      1      -0.0129      2.00000
      2       5.5055      2.00000
      3      17.6927      0.00000
      4      17.6927      0.00000
      5      20.7496      0.00000
      6      20.7496      0.00000
      7      22.2502      0.00000
      8      25.6631      0.00000

 k-point     8 :       0.4667   -0.0000    0.0000
  band No.  band energies     occupation 
      1       1.5205      2.00000
      2       3.5219      2.00000
      3      17.6975      0.00000
      4      17.6975      0.00000
      5      20.3281      0.00000
      6      20.3281      0.00000
      7      22.3288      0.00000
      8      25.1669      0.00000

 k-point     9 :       0.0667    0.0667    0.0000
  band No.  band energies     occupation 
      1      -4.2973      2.00000
      2      18.6823      0.00000
      3      18.6823      0.00000
      4      19.7412      0.00000
      5      20.4313      0.00000
      6      22.9783      0.00000
      7      22.9783      0.00000
      8      26.2260      0.00000

 k-point    10 :       0.1333    0.0667    0.0000
  band No.  band energies     occupation 
      1      -4.0052      2.00000
      2      16.5027      0.00000
      3      17.8798      0.00000
      4      19.3248      0.00000
      5      20.7880      0.00000
      6      23.6688      0.00000
      7      24.0712      0.00000
      8      24.8187      0.00000

 k-point    11 :       0.2000    0.0667    0.0000
  band No.  band energies     occupation 
      1      -3.4639      2.00000
      2      13.7922      0.00000
      3      17.2652      0.00000
      4      18.7176      0.00000
      5      21.4499      0.00000
      6      23.5061      0.00000
      7      24.3208      0.00000
      8      24.6701      0.00000

 k-point    12 :       0.2667    0.0667    0.0000
  band No.  band energies     occupation 
      1      -2.6757      2.00000
      2      11.1408      0.00000
      3      16.8538      0.00000
      4      18.2017      0.00000
      5      21.0064      0.00000
      6      23.2735      0.00000
      7      24.0857      0.00000
      8      25.3042      0.00000

 k-point    13 :       0.3333    0.0667    0.0000
  band No.  band energies     occupation 
      1      -1.6444      2.00000
      2       8.6411      2.00000
      3      16.6481      0.00000
      4      17.7541      0.00000
      5      20.2191      0.00000
      6      23.1079      0.00000
      7      23.2200      0.00000
      8      26.8495      0.00000

 k-point    14 :       0.4000    0.0667    0.0000
  band No.  band energies     occupation 
      1      -0.3765      2.00000
      2       6.3323      2.00000
      3      16.6441      0.00000
      4      17.2937      0.00000
      5      19.7275      0.00000
      6      22.1968      0.00000
      7      23.2122      0.00000
      8      26.8396      0.00000

 k-point    15 :       0.4667    0.0667    0.0000
  band No.  band energies     occupation 
      1       1.1074      2.00000
      2       4.2498      2.00000
      3      16.8011      0.00000
      4      16.8312      0.00000
      5      19.6633      0.00000
      6      21.4718      0.00000
      7      23.2121      0.00000
      8      26.3412      0.00000

 k-point    16 :      -0.4667    0.0667    0.0000
  band No.  band energies     occupation 
      1       2.0915      2.00000
      2       3.1155      2.00000
      3      16.3591      0.00000
      4      17.1869      0.00000
      5      19.9714      0.00000
      6      20.9879      0.00000
      7      23.1510      0.00000
      8      26.2558      0.00000

 k-point    17 :      -0.4000    0.0667    0.0000
  band No.  band energies     occupation 
      1       0.5923      2.00000
      2       4.9147      2.00000
      3      16.0503      0.00000
      4      17.6679      0.00000
      5      20.5741      0.00000
      6      20.7970      0.00000
      7      23.0292      0.00000
      8      26.6153      0.00000

 k-point    18 :      -0.3333    0.0667    0.0000
  band No.  band energies     occupation 
      1      -0.8248      2.00000
      2       7.0788      2.00000
      3      15.9193      0.00000
      4      18.2042      0.00000
      5      20.9612      0.00000
      6      21.4170      0.00000
      7      22.9255      0.00000
      8      27.2958      0.00000

 k-point    19 :      -0.2667    0.0667    0.0000
  band No.  band energies     occupation 
      1      -2.0149      2.00000
      2       9.4543      1.98945
      3      15.9863      0.00000
      4      18.7333      0.00000
      5      21.5046      0.00000
      6      22.4438      0.00000
      7      22.8945      0.00000
      8      26.8989      0.00000

 k-point    20 :      -0.2000    0.0667    0.0000
  band No.  band energies     occupation 
      1      -2.9657      2.00000
      2      12.0098      0.00000
      3      16.2597      0.00000
      4      19.2632      0.00000
      5      22.2481      0.00000
      6      22.9130      0.00000
      7      23.5299      0.00000
      8      25.3028      0.00000

 k-point    21 :      -0.1333    0.0667    0.0000
  band No.  band energies     occupation 
      1      -3.6719      2.00000
      2      14.6968      0.00000
      3      16.7408      0.00000
      4      19.8258      0.00000
      5      22.3161      0.00000
      6      22.8695      0.00000
      7      24.0812      0.00000
      8      24.9275      0.00000

 k-point    22 :      -0.0667    0.0667    0.0000
  band No.  band energies     occupation 
      1      -4.1303      2.00000
      2      17.3317      0.00000
      3      17.4833      0.00000
      4      20.2080      0.00000
      5      21.6335      0.00000
      6      22.5210      0.00000
      7      23.4261      0.00000
      8      25.9992      0.00000

 k-point    23 :       0.1333    0.1333    0.0000
  band No.  band energies     occupation 
      1      -3.7967      2.00000
      2      17.0044      0.00000
      3      17.0044      0.00000
      4      18.6731      0.00000
      5      18.8432      0.00000
      6      23.0799      0.00000
      7      25.2480      0.00000
      8      25.2480      0.00000

 k-point    24 :       0.2000    0.1333    0.0000
  band No.  band energies     occupation 
      1      -3.3389      2.00000
      2      14.9146      0.00000
      3      16.3219      0.00000
      4      18.0001      0.00000
      5      19.2150      0.00000
      6      21.8043      0.00000
      7      25.9452      0.00000
      8      26.1742      0.00000

 k-point    25 :       0.2667    0.1333    0.0000
  band No.  band energies     occupation 
      1      -2.6338      2.00000
      2      12.2898      0.00000
      3      15.8468      0.00000
      4      17.2703      0.00000
      5      19.2393      0.00000
      6      22.0368      0.00000
      7      25.9615      0.00000
      8      26.1221      0.00000

 k-point    26 :       0.3333    0.1333    0.0000
  band No.  band energies     occupation 
      1      -1.6844      2.00000
      2       9.7541      0.00000
      3      15.5836      0.00000
      4      16.4785      0.00000
      5      18.6891      0.00000
      6      23.4045      0.00000
      7      25.0599      0.00000
      8      26.2911      0.00000

 k-point    27 :       0.4000    0.1333    0.0000
  band No.  band energies     occupation 
      1      -0.4960      2.00000
      2       7.3883      2.00000
      3      15.5330      0.00000
      4      15.6348      0.00000
      5      18.4215      0.00000
      6      24.1175      0.00000
      7      24.5583      0.00000
      8      27.0059      0.00000

 k-point    28 :       0.4667    0.1333    0.0000
  band No.  band energies     occupation 
      1       0.9192      2.00000
      2       5.2297      2.00000
      3      14.8507      0.00000
      4      15.6924      0.00000
      5      18.4933      0.00000
      6      23.3087      0.00000
      7      24.8962      0.00000
      8      28.5252      0.00000

 k-point    29 :      -0.4667    0.1333    0.0000
  band No.  band energies     occupation 
      1       2.4200      2.00000
      2       3.4301      2.00000
      3      14.2132      0.00000
      4      16.0561      0.00000
      5      18.8535      0.00000
      6      22.6920      0.00000
      7      24.8173      0.00000
      8      28.7311      0.00000

 k-point    30 :      -0.4000    0.1333    0.0000
  band No.  band energies     occupation 
      1       1.4335      2.00000
      2       4.5658      2.00000
      3      13.7646      0.00000
      4      16.6133      0.00000
      5      19.4678      0.00000
      6      22.2966      0.00000
      7      24.6131      0.00000
      8      29.0023      0.00000

 k-point    31 :      -0.3333    0.1333    0.0000
  band No.  band energies     occupation 
      1      -0.0488      2.00000
      2       6.6431      2.00000
      3      13.5246      0.00000
      4      17.3432      0.00000
      5      20.3125      0.00000
      6      22.1443      0.00000
      7      24.4086      0.00000
      8      28.4776      0.00000

 k-point    32 :      -0.2667    0.1333    0.0000
  band No.  band energies     occupation 
      1      -1.3149      2.00000
      2       8.9415      2.00000
      3      13.5032      0.00000
      4      18.2052      0.00000
      5      21.3594      0.00000
      6      22.2560      0.00000
      7      24.2385      0.00000
      8      26.3918      0.00000

 k-point    33 :      -0.2000    0.1333    0.0000
  band No.  band energies     occupation 
      1      -2.3446      2.00000
      2      11.4170      0.00000
      3      13.7098      0.00000
      4      19.1170      0.00000
      5      22.5518      0.00000
      6      22.6182      0.00000
      7      24.0359      0.00000
      8      24.5902      0.00000

 k-point    34 :      -0.1333    0.1333    0.0000
  band No.  band energies     occupation 
      1      -3.1315      2.00000
      2      13.8440      0.00000
      3      14.3225      0.00000
      4      19.8720      0.00000
      5      22.5980      0.00000
      6      23.6043      0.00000
      7      23.7029      0.00000
      8      23.9345      0.00000

 k-point    35 :       0.2000    0.2000    0.0000
  band No.  band energies     occupation 
      1      -2.9650      2.00000
      2      15.5693      0.00000
      3      15.5693      0.00000
      4      16.9798      0.00000
      5      17.3203      0.00000
      6      20.1612      0.00000
      7      27.5768      0.00000
      8      27.5768      0.00000

 k-point    36 :       0.2667    0.2000    0.0000
  band No.  band energies     occupation 
      1      -2.3435      2.00000
      2      13.5690      0.00000
      3      15.0244      0.00000
      4      15.9742      0.00000
      5      17.5278      0.00000
      6      19.6496      0.00000
      7      27.9361      0.00000
      8      28.2921      0.00000

 k-point    37 :       0.3333    0.2000    0.0000
  band No.  band energies     occupation 
      1      -1.4773      2.00000
      2      11.0614      0.00000
      3      14.6934      0.00000
      4      14.8385      0.00000
      5      17.4292      0.00000
      6      20.8171      0.00000
      7      27.1922      0.00000
      8      28.4441      0.00000

 k-point    38 :       0.4000    0.2000    0.0000
  band No.  band energies     occupation 
      1      -0.3705      2.00000
      2       8.6607      2.00000
      3      13.7412      0.00000
      4      14.5778      0.00000
      5      17.2862      0.00000
      6      22.6415      0.00000
      7      26.2704      0.00000
      8      28.3665      0.00000

 k-point    39 :       0.4667    0.2000    0.0000
  band No.  band energies     occupation 
      1       0.9684      2.00000
      2       6.4424      2.00000
      3      12.7858      0.00000
      4      14.6772      0.00000
      5      17.3724      0.00000
      6      24.5689      0.00000
      7      25.4267      0.00000
      8      28.2653      0.00000

 k-point    40 :      -0.4667    0.2000    0.0000
  band No.  band energies     occupation 
      1       2.4986      2.00000
      2       4.4684      2.00000
      3      12.0204      0.00000
      4      14.9895      0.00000
      5      17.7062      0.00000
      6      24.7439      0.00000
      7      26.0092      0.00000
      8      28.6112      0.00000

 k-point    41 :      -0.4000    0.2000    0.0000
  band No.  band energies     occupation 
      1       2.4974      2.00000
      2       4.4685      2.00000
      3      11.4671      0.00000
      4      15.5099      0.00000
      5      18.2806      0.00000
      6      24.2577      0.00000
      7      26.3095      0.00000
      8      29.7630      0.00000

[...]
      7      25.5644      0.00000
      8      29.5143      0.00000

 k-point    85 :      -0.4000    0.2667    0.0667
  band No.  band energies     occupation 
      1       3.3999      2.00000
      2       4.3661      2.00000
      3      10.6963      0.00000
      4      13.5288      0.00000
      5      18.7635      0.00000
      6      24.4091      0.00000
      7      26.8510      0.00000
      8      28.9412      0.00000

 k-point    86 :      -0.3333    0.2667    0.0667
  band No.  band energies     occupation 
      1       2.4064      2.00000
      2       5.5030      2.00000
      3      10.2191      0.00000
      4      14.1406      0.00000
      5      19.3876      0.00000
      6      24.0408      0.00000
      7      27.5546      0.00000
      8      28.4427      0.00000

 k-point    87 :      -0.2667    0.2667    0.0667
  band No.  band energies     occupation 
      1       0.9297      2.00000
      2       7.5462      2.00000
      3       9.9816      0.00000
      4      14.9703      0.00000
      5      20.2070      0.00000
      6      23.8151      0.00000
      7      25.7811      0.00000
      8      28.3991      0.00000

 k-point    88 :      -0.2000    0.2667    0.0667
  band No.  band energies     occupation 
      1      -0.3305      2.00000
      2       9.5336      1.24686
      3      10.2413      0.00000
      4      15.9949      0.00000
      5      21.1674      0.00000
      6      23.4921      0.00000
      7      24.1387      0.00000
      8      27.6786      0.00000

 k-point    89 :       0.4000    0.3333    0.0667
  band No.  band energies     occupation 
      1      -0.1630      2.00000
      2      11.5191      0.00000
      3      11.9827      0.00000
      4      12.7342      0.00000
      5      16.9194      0.00000
      6      18.3199      0.00000
      7      29.1961      0.00000
      8      31.7216      0.00000

 k-point    90 :       0.4667    0.3333    0.0667
  band No.  band energies     occupation 
      1       0.9365      2.00000
      2       9.7328      0.00000
      3      10.5792      0.00000
      4      12.2829      0.00000
      5      17.3396      0.00000
      6      19.7153      0.00000
      7      28.4113      0.00000
      8      31.9542      0.00000

 k-point    91 :      -0.4667    0.3333    0.0667
  band No.  band energies     occupation 
      1       2.2660      2.00000
      2       7.6352      2.00000
      3       9.5146      1.60681
      4      12.3425      0.00000
      5      17.5386      0.00000
      6      21.8398      0.00000
      7      27.6288      0.00000
      8      31.3904      0.00000

 k-point    92 :      -0.4000    0.3333    0.0667
  band No.  band energies     occupation 
      1       3.7885      2.00000
      2       5.6972      2.00000
      3       8.7016      2.00000
      4      12.6618      0.00000
      5      17.9038      0.00000
      6      24.1361      0.00000
      7      27.0058      0.00000
      8      30.1477      0.00000

 k-point    93 :      -0.3333    0.3333    0.0667
  band No.  band energies     occupation 
      1       3.7825      2.00000
      2       5.6889      2.00000
      3       8.1418      2.00000
      4      13.2141      0.00000
      5      18.4776      0.00000
      6      25.9324      0.00000
      7      27.0151      0.00000
      8      28.2733      0.00000

 k-point    94 :      -0.2667    0.3333    0.0667
  band No.  band energies     occupation 
      1       2.2586      2.00000
      2       7.3424      2.00000
      3       8.1042      2.00000
      4      13.9882      0.00000
      5      19.2565      0.00000
      6      25.8853      0.00000
      7      25.9750      0.00000
      8      28.9351      0.00000

 k-point    95 :       0.4667    0.4000    0.0667
  band No.  band energies     occupation 
      1       1.6270      2.00000
      2       8.7814      2.00000
      3      11.3681      0.00000
      4      11.9820      0.00000
      5      16.2953      0.00000
      6      17.6993      0.00000
      7      30.7126      0.00000
      8      33.6155      0.00000

 k-point    96 :      -0.4667    0.4000    0.0667
  band No.  band energies     occupation 
      1       2.8713      2.00000
      2       7.6363      2.00000
      3       9.4834      1.91757
      4      11.7799      0.00000
      5      16.8716      0.00000
      6      19.2828      0.00000
      7      30.0283      0.00000
      8      32.8531      0.00000

 k-point    97 :      -0.4000    0.4000    0.0667
  band No.  band energies     occupation 
      1       4.3215      2.00000
      2       6.6273      2.00000
      3       7.6081      2.00000
      4      12.0218      0.00000
      5      17.2308      0.00000
      6      21.5778      0.00000
      7      29.3498      0.00000
      8      31.0307      0.00000

 k-point    98 :      -0.3333    0.4000    0.0667
  band No.  band energies     occupation 
      1       5.2845      2.00000
      2       5.7703      2.00000
      3       6.7004      2.00000
      4      12.5045      0.00000
      5      17.7534      0.00000
      6      24.0531      0.00000
      7      28.7675      0.00000
      8      28.7750      0.00000

 k-point    99 :      -0.4667    0.4667    0.0667
  band No.  band energies     occupation 
      1       3.7002      2.00000
      2       6.1664      2.00000
      3      11.0600      0.00000
      4      11.6584      0.00000
      5      15.9819      0.00000
      6      17.3925      0.00000
      7      32.1843      0.00000
      8      33.6587      0.00000

 k-point   100 :      -0.4000    0.4667    0.0667
  band No.  band energies     occupation 
      1       4.8253      2.00000
      2       5.4297      2.00000
      3       9.3037      2.00000
      4      11.6207      0.00000
      5      16.7156      0.00000
      6      19.1380      0.00000
      7      31.4702      0.00000
      8      31.9278      0.00000

 k-point   101 :       0.4000    0.2667    0.1333
  band No.  band energies     occupation 
      1      -1.1488      2.00000
      2      11.0848      0.00000
      3      11.6853      0.00000
      4      15.3936      0.00000
      5      20.5305      0.00000
      6      21.3079      0.00000
      7      24.8929      0.00000
      8      28.6786      0.00000

 k-point   102 :       0.4667    0.2667    0.1333
  band No.  band energies     occupation 
      1      -0.0439      2.00000
      2       8.9435      2.00000
      3      11.3054      0.00000
      4      14.2311      0.00000
      5      20.7402      0.00000
      6      22.5847      0.00000
      7      24.2040      0.00000
      8      29.2137      0.00000

 k-point   103 :      -0.4667    0.2667    0.1333
  band No.  band energies     occupation 
      1       1.2929      2.00000
      2       6.7484      2.00000
      3      11.3649      0.00000
      4      13.2697      0.00000
      5      20.7953      0.00000
      6      22.6888      0.00000
      7      25.3292      0.00000
      8      29.2734      0.00000

 k-point   104 :      -0.4000    0.2667    0.1333
  band No.  band energies     occupation 
      1       2.8220      2.00000
      2       4.7816      2.00000
      3      11.5746      0.00000
      4      12.6089      0.00000
      5      20.9256      0.00000
      6      22.2434      0.00000
      7      27.2631      0.00000
      8      28.7771      0.00000

 k-point   105 :       0.4667    0.3333    0.1333
  band No.  band energies     occupation 
      1       0.3250      2.00000
      2      10.1534      0.00000
      3      10.6751      0.00000
      4      12.4527      0.00000
      5      19.6386      0.00000
      6      20.5387      0.00000
      7      26.1247      0.00000
      8      31.2807      0.00000

 k-point   106 :      -0.4667    0.3333    0.1333
  band No.  band energies     occupation 
      1       1.5809      2.00000
      2       8.1493      2.00000
      3      10.3672      0.00000
      4      11.4536      0.00000
      5      20.0550      0.00000
      6      22.2054      0.00000
      7      25.3215      0.00000
      8      31.3059      0.00000

 k-point   107 :      -0.4000    0.3333    0.1333
  band No.  band energies     occupation 
      1       3.0527      2.00000
      2       6.1190      2.00000
      3      10.0694      0.00000
      4      11.1149      0.00000
      5      20.3285      0.00000
      6      23.7645      0.00000
      7      25.2625      0.00000
      8      29.8609      0.00000

 k-point   108 :      -0.3333    0.3333    0.1333
  band No.  band energies     occupation 
      1       4.0468      2.00000
      2       4.9808      2.00000
      3       9.5527      0.82126
      4      11.4708      0.00000
      5      20.7672      0.00000
      6      23.6359      0.00000
      7      26.8673      0.00000
      8      28.0624      0.00000

 k-point   109 :      -0.2667    0.3333    0.1333
  band No.  band energies     occupation 
      1       2.5388      2.00000
      2       6.7608      2.00000
      3       9.1858      2.00000
      4      12.1565      0.00000
      5      21.3508      0.00000
      6      23.3137      0.00000
      7      25.3913      0.00000
      8      29.4532      0.00000

 k-point   110 :      -0.2000    0.3333    0.1333
  band No.  band energies     occupation 
      1       1.1346      2.00000
      2       8.5961      2.00000
      3       9.2994      2.00000
      4      13.0871      0.00000
      5      21.9296      0.00000
      6      22.6545      0.00000
      7      23.9694      0.00000
      8      30.6197      0.00000

 k-point   111 :      -0.4667    0.4000    0.1333
  band No.  band energies     occupation 
      1       2.1083      2.00000
      2       9.0806      2.00000
      3       9.5306      1.31168
      4      10.5428      0.00000
      5      19.0334      0.00000
      6      20.0071      0.00000
      7      27.6534      0.00000
      8      32.4782      0.00000

 k-point   112 :      -0.4000    0.4000    0.1333
  band No.  band energies     occupation 
      1       3.5026      2.00000
      2       7.5634      2.00000
      3       8.4241      2.00000
      4      10.2904      0.00000
      5      19.6259      0.00000
      6      21.8733      0.00000
      7      26.9131      0.00000
      8      30.5659      0.00000

 k-point   113 :      -0.3333    0.4000    0.1333
  band No.  band energies     occupation 
      1       5.0098      2.00000
      2       5.8410      2.00000
      3       7.6802      2.00000
      4      10.6439      0.00000
      5      20.0650      0.00000
      6      24.1315      0.00000
      7      26.3410      0.00000
      8      28.3251      0.00000

 k-point   114 :      -0.2667    0.4000    0.1333
  band No.  band energies     occupation 
      1       3.9989      2.00000
      2       6.7141      2.00000
      3       7.4728      2.00000
      4      11.2780      0.00000
      5      20.6632      0.00000
      6      25.3512      0.00000
      7      25.4380      0.00000
      8      27.6595      0.00000

 k-point   115 :      -0.4000    0.4667    0.1333
  band No.  band energies     occupation 
      1       4.1717      2.00000
      2       6.6039      2.00000
      3       9.2187      2.00000
      4      10.0813      0.00000
      5      18.7284      0.00000
      6      19.7355      0.00000
      7      29.3835      0.00000
      8      31.1469      0.00000

 k-point   116 :      -0.3333    0.4667    0.1333
  band No.  band energies     occupation 
      1       5.4554      2.00000
      2       5.9649      2.00000
      3       7.6739      2.00000
      4      10.0913      0.00000
      5      19.4808      0.00000
      6      21.7536      0.00000
      7      28.5264      0.00000
      8      28.9802      0.00000

 k-point   117 :      -0.4000    0.4000    0.2000
  band No.  band energies     occupation 
      1       2.9045      2.00000
      2       7.9697      2.00000
      3       8.5653      2.00000
      4      10.3457      0.00000
      5      22.0750      0.00000
      6      22.2887      0.00000
      7      24.6745      0.00000
      8      30.0778      0.00000

 k-point   118 :      -0.3333    0.4000    0.2000
  band No.  band energies     occupation 
      1       4.4227      2.00000
      2       6.2950      2.00000
      3       8.5292      2.00000
      4       9.6432      0.00537
      5      22.3013      0.00000
      6      23.4541      0.00000
      7      25.0968      0.00000
      8      27.9021      0.00000

 k-point   119 :      -0.3333    0.4667    0.2000
  band No.  band energies     occupation 
      1       4.9445      2.00000
      2       7.2071      2.00000
      3       7.6562      2.00000
      4       8.7916      2.00000
      5      21.7811      0.00000
      6      22.2520      0.00000
      7      26.1829      0.00000
      8      28.2945      0.00000

 k-point   120 :      -0.2667    0.4667    0.2000
  band No.  band energies     occupation 
      1       5.9233      2.00000
      2       6.3997      2.00000
      3       7.1134      2.00000
      4       8.8620      2.00000
      5      22.3886      0.00000
      6      24.1667      0.00000
      7      25.0758      0.00000
      8      26.7599      0.00000


--------------------------------------------------------------------------------------------------------


 soft charge-density along one line, spin component           1
         0         1         2         3         4         5         6         7         8         9
 total charge-density along one line
 
 pseudopotential strength for first ion, spin component:           1
 18.037  25.164  -0.000   0.000   0.000  -0.000   0.000   0.000
 25.164  35.110  -0.000   0.000   0.000  -0.000   0.000   0.000
 -0.000  -0.000   4.105   0.000   0.000   7.648   0.000   0.000
  0.000   0.000   0.000   4.105   0.000   0.000   7.648   0.000
  0.000   0.000   0.000   0.000   4.105   0.000   0.000   7.648
 -0.000  -0.000   7.648   0.000   0.000  14.259   0.000   0.000
  0.000   0.000   0.000   7.648   0.000   0.000  14.259   0.000
  0.000   0.000   0.000   0.000   7.648   0.000   0.000  14.259
 total augmentation occupancy for first ion, spin component:           1
  4.513  -1.834   0.000   0.000   0.000   0.000   0.000   0.000
 -1.834   1.221   0.000   0.000   0.000   0.000   0.000   0.000
  0.000   0.000   2.142  -0.000  -0.000  -0.493   0.000   0.000
  0.000   0.000  -0.000   2.142  -0.000   0.000  -0.493   0.000
  0.000   0.000  -0.000  -0.000   2.142   0.000   0.000  -0.493
  0.000   0.000  -0.493   0.000   0.000   0.126  -0.000  -0.000
  0.000   0.000   0.000  -0.493   0.000  -0.000   0.126  -0.000
  0.000   0.000   0.000   0.000  -0.493  -0.000  -0.000   0.126


------------------------ aborting loop because EDIFF is reached ----------------------------------------


    CHARGE:  cpu time    0.0800: real time    0.0807
    FORLOC:  cpu time    0.0020: real time    0.0014
    FORNL :  cpu time    0.1310: real time    0.1324
    STRESS:  cpu time    1.0178: real time    1.0186
    FORCOR:  cpu time    0.0300: real time    0.0307
    FORHAR:  cpu time    0.0060: real time    0.0057
    MIXING:  cpu time    0.0010: real time    0.0012
    OFIELD:  cpu time    0.0010: real time    0.0002

  FORCE on cell =-STRESS in cart. coord.  units (eV):
  Direction    XX          YY          ZZ          XY          YZ          ZX
  --------------------------------------------------------------------------------------
  Alpha Z     2.21989     2.21989     2.21989
  Ewald     -44.80812   -44.80812   -44.80812     0.00000     0.00001     0.00001
  Hartree     0.17536     0.17536     0.17536     0.00000     0.00000     0.00000
  E(xc)     -12.54935   -12.54935   -12.54935     0.00000    -0.00000    -0.00000
  Local      -5.37327    -5.37328    -5.37327     0.00000     0.00000     0.00000
  n-local    36.67789    38.56773    39.93055    -0.28948     0.11970    -0.07139
  augment    -6.34681    -6.34681    -6.34681    -0.00000    -0.00000    -0.00000
  Kinetic    50.85223    26.59476     6.41096    -4.04000     2.02970    -0.24278
  Fock        0.00000     0.00000     0.00000     0.00000     0.00000     0.00000
  -------------------------------------------------------------------------------------
  Total      -0.33760    -0.33760    -0.33760    -0.00000     0.00000     0.00000
  in kB     -35.66939   -35.66938   -35.66938    -0.00000     0.00001     0.00002
  external pressure =      -35.67 kB  Pullay stress =        0.00 kB


 VOLUME and BASIS-vectors are now :
 -----------------------------------------------------------------------------
  energy-cutoff  :      700.00
  volume of cell :       15.16
      direct lattice vectors                 reciprocal lattice vectors
     2.406079875  0.000000000  1.389149700     0.415613800 -0.146941683  0.000000000
     0.802026625  2.268473625  1.389149700     0.000000000  0.440825050  0.000000000
     0.000000000  0.000000000  2.778301450    -0.207806747 -0.146941575  0.359932145

  length of vectors
     2.778301145  2.778300953  2.778301450     0.440825010  0.440825050  0.440824930


 FORCES acting on ions
    electron-ion (+dipol)            ewald-force                    non-local-force                 convergence-correction
 -----------------------------------------------------------------------------------------------
   -.391E-15 -.715E-15 0.313E-15   0.108E-15 -.769E-16 0.672E-17   -.248E-23 0.000E+00 0.331E-23   0.201E-16 -.212E-16 0.588E-17
 -----------------------------------------------------------------------------------------------
   -.391E-15 -.715E-15 0.313E-15   0.108E-15 -.769E-16 0.672E-17   -.248E-23 0.000E+00 0.331E-23   0.201E-16 -.212E-16 0.588E-17
 
 
 POSITION                                       TOTAL-FORCE (eV/Angst)
 -----------------------------------------------------------------------------------
      0.00000      0.00000      0.00000         0.000000      0.000000     -0.000000
 -----------------------------------------------------------------------------------
    total drift:                               -0.000000     -0.000000      0.000000


--------------------------------------------------------------------------------------------------------



  FREE ENERGIE OF THE ION-ELECTRON SYSTEM (eV)
  ---------------------------------------------------
  free  energy   TOTEN  =        -4.87571613 eV

  energy  without entropy=       -4.87456563  energy(sigma->0) =       -4.87514088
 


--------------------------------------------------------------------------------------------------------


    POTLOK:  cpu time    0.2080: real time    0.2145


--------------------------------------------------------------------------------------------------------




--------------------------------------------------------------------------------------------------------


  
 reached required accuracy - stopping structural energy minimisation
     LOOP+:  cpu time   13.8019: real time   14.0796
    4ORBIT:  cpu time    0.0000: real time    0.0000

 total amount of memory used by VASP MPI-rank0    43657. kBytes
=======================================================================

   base      :      30000. kBytes
   nonl-proj :       5017. kBytes
   fftplans  :       4177. kBytes
   grid      :       1926. kBytes
   one-center:          3. kBytes
   wavefun   :       2534. kBytes
 
  
  
 General timing and accounting informations for this job:
 ========================================================
  
                  Total CPU time used (sec):       14.729
                            User time (sec):       14.424
                          System time (sec):        0.305
                         Elapsed time (sec):       15.647
  
                   Maximum memory used (kb):       85292.
                   Average memory used (kb):          N/A
  
                          Minor page faults:        16263
                          Major page faults:            1
                 Voluntary context switches:        14728
