unknown system                          
           1
     2.406080    0.000000    1.389150
     0.802027    2.268474    1.389150
     0.000000    0.000000    2.778301
   Si
     1
Direct configuration=     1
   0.00000000  0.00000000  0.00000000
