   1   1   0   0
  0.1386300E+02  0.2621157E-09  0.2621157E-09  0.2621157E-09  0.5000000E-15
  1.000000000000000E-004
  CAR 
 unknown system                          
     36.40139584     -6.24671697  301      9.90692277      1.00000000
     -6.247  0.0000E+00  0.0000E+00
     -6.105  0.0000E+00  0.0000E+00
     -5.962  0.0000E+00  0.0000E+00
     -5.820  0.0000E+00  0.0000E+00
     -5.678  0.0000E+00  0.0000E+00
     -5.536  0.0000E+00  0.0000E+00
     -5.394  0.0000E+00  0.0000E+00
     -5.252  0.0000E+00  0.0000E+00
     -5.109  0.0000E+00  0.0000E+00
     -4.967  0.0000E+00  0.0000E+00
     -4.825  0.0000E+00  0.0000E+00
     -4.683  0.0000E+00  0.0000E+00
     -4.541  0.9828E-15  0.1397E-15
     -4.399  0.2189E-06  0.3113E-07
     -4.256  0.4262E-04  0.6090E-05
     -4.114  0.4763E-03  0.7380E-04
     -3.972  0.2838E-03  0.1141E-03
     -3.830  0.9800E-03  0.2535E-03
     -3.688  0.5460E-03  0.3311E-03
     -3.546  0.9753E-03  0.4697E-03
     -3.404  0.5004E-03  0.5409E-03
     -3.261  0.1846E-02  0.8033E-03
     -3.119  0.4755E-03  0.8709E-03
     -2.977  0.1468E-02  0.1080E-02
     -2.835  0.1063E-02  0.1231E-02
     -2.693  0.1070E-02  0.1383E-02
     -2.551  0.1921E-02  0.1656E-02
     -2.408  0.1733E-02  0.1902E-02
     -2.266  0.1163E-02  0.2068E-02
     -2.124  0.1169E-02  0.2234E-02
     -1.982  0.1635E-02  0.2466E-02
     -1.840  0.1535E-02  0.2684E-02
     -1.698  0.2807E-02  0.3083E-02
     -1.555  0.1351E-02  0.3275E-02
     -1.413  0.1965E-02  0.3555E-02
     -1.271  0.1120E-02  0.3714E-02
     -1.129  0.1966E-02  0.3994E-02
     -0.987  0.5458E-03  0.4071E-02
     -0.845  0.3382E-02  0.4552E-02
     -0.702  0.1417E-02  0.4753E-02
     -0.560  0.3871E-02  0.5304E-02
     -0.418  0.1903E-02  0.5574E-02
     -0.276  0.7643E-03  0.5683E-02
     -0.134  0.1650E-02  0.5917E-02
      0.008  0.2478E-02  0.6270E-02
      0.150  0.2541E-02  0.6631E-02
      0.293  0.2973E-02  0.7054E-02
      0.435  0.2169E-02  0.7362E-02
      0.577  0.1731E-02  0.7608E-02
      0.719  0.4727E-02  0.8280E-02
      0.861  0.1459E-02  0.8487E-02
      1.003  0.1990E-02  0.8770E-02
      1.146  0.1118E-02  0.8929E-02
      1.288  0.2068E-02  0.9223E-02
      1.430  0.2517E-02  0.9581E-02
      1.572  0.4524E-02  0.1022E-01
      1.714  0.2270E-02  0.1055E-01
      1.856  0.3552E-02  0.1105E-01
      1.999  0.2025E-02  0.1134E-01
      2.141  0.2592E-02  0.1171E-01
      2.283  0.3724E-02  0.1224E-01
      2.425  0.2251E-02  0.1256E-01
      2.567  0.1998E-02  0.1284E-01
      2.709  0.3069E-02  0.1328E-01
      2.852  0.3047E-02  0.1371E-01
      2.994  0.1744E-02  0.1396E-01
      3.136  0.6179E-02  0.1484E-01
      3.278  0.8323E-03  0.1496E-01
      3.420  0.3335E-02  0.1543E-01
      3.562  0.3581E-02  0.1594E-01
      3.705  0.2797E-02  0.1634E-01
      3.847  0.3963E-02  0.1690E-01
      3.989  0.2975E-02  0.1732E-01
      4.131  0.2714E-02  0.1771E-01
      4.273  0.1216E-02  0.1788E-01
      4.415  0.3504E-02  0.1838E-01
      4.557  0.3119E-02  0.1882E-01
      4.700  0.5636E-02  0.1962E-01
      4.842  0.4122E-02  0.2021E-01
      4.984  0.1086E-02  0.2036E-01
      5.126  0.4003E-02  0.2093E-01
      5.268  0.1367E-02  0.2113E-01
      5.410  0.4779E-02  0.2181E-01
      5.553  0.4795E-02  0.2249E-01
      5.695  0.3543E-02  0.2299E-01
      5.837  0.5042E-02  0.2371E-01
      5.979  0.2552E-02  0.2407E-01
      6.121  0.1685E-02  0.2431E-01
      6.263  0.4343E-02  0.2493E-01
      6.406  0.1954E-02  0.2521E-01
      6.548  0.1941E-02  0.2548E-01
      6.690  0.6846E-02  0.2646E-01
      6.832  0.2959E-02  0.2688E-01
      6.974  0.6583E-02  0.2781E-01
      7.116  0.3724E-02  0.2834E-01
      7.259  0.2793E-02  0.2874E-01
      7.401  0.3781E-02  0.2928E-01
      7.543  0.2661E-02  0.2965E-01
      7.685  0.4685E-02  0.3032E-01
      7.827  0.5753E-02  0.3114E-01
      7.969  0.4526E-02  0.3178E-01
      8.111  0.1726E-02  0.3203E-01
      8.254  0.1973E-02  0.3231E-01
      8.396  0.2079E-02  0.3260E-01
      8.538  0.8845E-02  0.3386E-01
      8.680  0.4525E-02  0.3450E-01
      8.822  0.3113E-02  0.3495E-01
      8.964  0.5324E-02  0.3570E-01
      9.107  0.3362E-02  0.3618E-01
      9.249  0.5865E-02  0.3702E-01
      9.391  0.3839E-02  0.3756E-01
      9.533  0.5554E-02  0.3835E-01
      9.675  0.4817E-02  0.3904E-01
      9.817  0.4414E-02  0.3966E-01
      9.960  0.3902E-02  0.4022E-01
     10.102  0.4234E-02  0.4082E-01
     10.244  0.3155E-02  0.4127E-01
     10.386  0.3650E-02  0.4179E-01
     10.528  0.5222E-02  0.4253E-01
     10.670  0.3884E-02  0.4308E-01
     10.813  0.6090E-02  0.4395E-01
     10.955  0.6934E-02  0.4493E-01
     11.097  0.4169E-02  0.4553E-01
     11.239  0.3249E-02  0.4599E-01
     11.381  0.1373E-02  0.4618E-01
     11.523  0.4821E-02  0.4687E-01
     11.665  0.7124E-02  0.4788E-01
     11.808  0.3805E-02  0.4842E-01
     11.950  0.3332E-02  0.4890E-01
     12.092  0.7607E-02  0.4998E-01
     12.234  0.3190E-02  0.5043E-01
     12.376  0.1457E-02  0.5064E-01
     12.518  0.3935E-02  0.5120E-01
     12.661  0.3504E-02  0.5169E-01
     12.803  0.3686E-02  0.5222E-01
     12.945  0.4912E-02  0.5292E-01
     13.087  0.6822E-02  0.5389E-01
     13.229  0.4792E-02  0.5457E-01
     13.371  0.5868E-02  0.5540E-01
     13.514  0.6579E-02  0.5634E-01
     13.656  0.4374E-02  0.5696E-01
     13.798  0.4477E-02  0.5760E-01
     13.940  0.3785E-02  0.5813E-01
     14.082  0.4708E-02  0.5880E-01
     14.224  0.4480E-02  0.5944E-01
     14.367  0.4317E-02  0.6005E-01
     14.509  0.6902E-02  0.6103E-01
     14.651  0.5462E-02  0.6181E-01
     14.793  0.2430E-02  0.6216E-01
     14.935  0.4871E-02  0.6285E-01
     15.077  0.4976E-02  0.6356E-01
     15.219  0.6239E-02  0.6444E-01
     15.362  0.2947E-02  0.6486E-01
     15.504  0.7995E-02  0.6600E-01
     15.646  0.5337E-02  0.6676E-01
     15.788  0.5933E-02  0.6760E-01
     15.930  0.5383E-02  0.6837E-01
     16.072  0.6073E-02  0.6923E-01
     16.215  0.7273E-02  0.7026E-01
     16.357  0.3938E-02  0.7082E-01
     16.499  0.4659E-02  0.7149E-01
     16.641  0.5475E-02  0.7226E-01
     16.783  0.2707E-02  0.7265E-01
     16.925  0.3116E-02  0.7309E-01
     17.068  0.3537E-02  0.7359E-01
     17.210  0.8664E-02  0.7483E-01
     17.352  0.1170E-01  0.7649E-01
     17.494  0.1044E-01  0.7797E-01
     17.636  0.4775E-02  0.7865E-01
     17.778  0.5119E-02  0.7938E-01
     17.921  0.2119E-02  0.7968E-01
     18.063  0.7597E-02  0.8076E-01
     18.205  0.3936E-02  0.8132E-01
     18.347  0.5472E-02  0.8210E-01
     18.489  0.2300E-02  0.8243E-01
     18.631  0.2926E-02  0.8284E-01
     18.774  0.3699E-02  0.8337E-01
     18.916  0.2969E-02  0.8379E-01
     19.058  0.2437E-02  0.8414E-01
     19.200  0.6807E-02  0.8510E-01
     19.342  0.4336E-02  0.8572E-01
     19.484  0.5146E-02  0.8645E-01
     19.626  0.5743E-02  0.8727E-01
     19.769  0.7504E-02  0.8833E-01
     19.911  0.5416E-02  0.8910E-01
     20.053  0.2100E-02  0.8940E-01
     20.195  0.6705E-02  0.9036E-01
     20.337  0.7617E-02  0.9144E-01
     20.479  0.3046E-02  0.9187E-01
     20.622  0.5871E-02  0.9271E-01
     20.764  0.4847E-02  0.9340E-01
     20.906  0.5632E-02  0.9420E-01
     21.048  0.6724E-02  0.9515E-01
     21.190  0.6822E-02  0.9612E-01
     21.332  0.3475E-02  0.9662E-01
     21.475  0.6093E-02  0.9748E-01
     21.617  0.7340E-02  0.9853E-01
     21.759  0.8959E-02  0.9980E-01
     21.901  0.1052E-01  0.1013E+00
     22.043  0.1120E-01  0.1029E+00
     22.185  0.6691E-02  0.1038E+00
     22.328  0.8361E-02  0.1050E+00
     22.470  0.7490E-02  0.1061E+00
     22.612  0.3585E-02  0.1066E+00
     22.754  0.2645E-02  0.1070E+00
     22.896  0.1286E-02  0.1072E+00
     23.038  0.5370E-02  0.1079E+00
     23.180  0.1047E-01  0.1094E+00
     23.323  0.5433E-02  0.1102E+00
     23.465  0.9767E-02  0.1116E+00
     23.607  0.2811E-02  0.1120E+00
     23.749  0.7466E-02  0.1130E+00
     23.891  0.4436E-02  0.1137E+00
     24.033  0.5334E-02  0.1144E+00
     24.176  0.3422E-02  0.1149E+00
     24.318  0.4096E-02  0.1155E+00
     24.460  0.5952E-02  0.1163E+00
     24.602  0.7918E-02  0.1175E+00
     24.744  0.9986E-02  0.1189E+00
     24.886  0.6163E-02  0.1198E+00
     25.029  0.4685E-02  0.1204E+00
     25.171  0.4133E-02  0.1210E+00
     25.313  0.7935E-02  0.1221E+00
     25.455  0.4970E-02  0.1228E+00
     25.597  0.7139E-02  0.1239E+00
     25.739  0.5842E-02  0.1247E+00
     25.882  0.3938E-02  0.1253E+00
     26.024  0.7419E-02  0.1263E+00
     26.166  0.4072E-02  0.1269E+00
     26.308  0.8448E-02  0.1281E+00
     26.450  0.5700E-02  0.1289E+00
     26.592  0.6949E-02  0.1299E+00
     26.734  0.6802E-02  0.1309E+00
     26.877  0.6154E-02  0.1317E+00
     27.019  0.7751E-02  0.1328E+00
     27.161  0.6351E-02  0.1337E+00
     27.303  0.6436E-02  0.1346E+00
     27.445  0.7150E-02  0.1357E+00
     27.587  0.2947E-02  0.1361E+00
     27.730  0.3008E-02  0.1365E+00
     27.872  0.6871E-02  0.1375E+00
     28.014  0.8011E-02  0.1386E+00
     28.156  0.5811E-02  0.1395E+00
     28.298  0.4487E-02  0.1401E+00
     28.440  0.4863E-02  0.1408E+00
     28.583  0.7876E-02  0.1419E+00
     28.725  0.7526E-02  0.1430E+00
     28.867  0.6861E-02  0.1439E+00
     29.009  0.1001E-01  0.1454E+00
     29.151  0.1063E-01  0.1469E+00
     29.293  0.4595E-02  0.1475E+00
     29.436  0.3181E-02  0.1480E+00
     29.578  0.8140E-02  0.1491E+00
     29.720  0.2803E-02  0.1495E+00
     29.862  0.7919E-02  0.1507E+00
     30.004  0.6580E-02  0.1516E+00
     30.146  0.9551E-02  0.1530E+00
     30.288  0.4016E-02  0.1535E+00
     30.431  0.3769E-02  0.1541E+00
     30.573  0.5761E-02  0.1549E+00
     30.715  0.5286E-02  0.1556E+00
     30.857  0.8502E-02  0.1568E+00
     30.999  0.2594E-02  0.1572E+00
     31.141  0.3262E-02  0.1577E+00
     31.284  0.3116E-02  0.1581E+00
     31.426  0.1537E-02  0.1583E+00
     31.568  0.9387E-03  0.1585E+00
     31.710  0.1817E-02  0.1587E+00
     31.852  0.2257E-02  0.1591E+00
     31.994  0.5166E-03  0.1591E+00
     32.137  0.5750E-04  0.1591E+00
     32.279  0.3195E-03  0.1592E+00
     32.421  0.4829E-03  0.1592E+00
     32.563  0.7795E-03  0.1594E+00
     32.705  0.2518E-03  0.1594E+00
     32.847  0.1012E-02  0.1595E+00
     32.990  0.7647E-03  0.1596E+00
     33.132  0.1170E-02  0.1598E+00
     33.274  0.1641E-03  0.1598E+00
     33.416  0.3051E-03  0.1599E+00
     33.558  0.1464E-05  0.1599E+00
     33.700  0.5184E-14  0.1599E+00
     33.843  0.0000E+00  0.1599E+00
     33.985  0.1444E-15  0.1599E+00
     34.127  0.2505E-06  0.1599E+00
     34.269  0.2067E-03  0.1599E+00
     34.411  0.2933E-03  0.1600E+00
     34.553  0.3317E-03  0.1600E+00
     34.695  0.1752E-05  0.1600E+00
     34.838  0.7862E-14  0.1600E+00
     34.980  0.0000E+00  0.1600E+00
     35.122  0.0000E+00  0.1600E+00
     35.264  0.0000E+00  0.1600E+00
     35.406  0.0000E+00  0.1600E+00
     35.548  0.0000E+00  0.1600E+00
     35.691  0.0000E+00  0.1600E+00
     35.833  0.0000E+00  0.1600E+00
     35.975  0.0000E+00  0.1600E+00
     36.117  0.0000E+00  0.1600E+00
     36.259  0.0000E+00  0.1600E+00
     36.401  0.0000E+00  0.1600E+00
