    1    1  100    1
  0.1386300E+02  0.2621157E-09  0.2621157E-09  0.2621157E-09  0.5000000E-15
  1.000000000000000E-004
  CAR 
 unknown system                          
      4    120      8
 
  0.0000000E+00  0.0000000E+00  0.0000000E+00  0.2962963E-03
    1       -4.308166   1.000000
    2       21.340823   0.000000
    3       21.340823   0.000000
    4       21.340824   0.000000
    5       22.519282   0.000000
    6       22.519282   0.000000
    7       22.519282   0.000000
    8       26.209846   0.000000
 
  0.6666667E-01  0.0000000E+00  0.0000000E+00  0.3555556E-02
    1       -4.171766   1.000000
    2       19.737221   0.000000
    3       20.215202   0.000000
    4       21.148572   0.000000
    5       22.080496   0.000000
    6       23.284805   0.000000
    7       23.895923   0.000000
    8       25.310534   0.000000
 
  0.1333333E+00  0.0000000E+00  0.0000000E+00  0.3555556E-02
    1       -3.763527   1.000000
    2       17.119213   0.000000
    3       18.874198   0.000000
    4       20.628336   0.000000
    5       21.094600   0.000000
    6       23.041426   0.000000
    7       25.238605   0.000000
    8       25.921783   0.000000
 
  0.2000000E+00  0.0000000E+00  0.0000000E+00  0.3555556E-02
    1       -3.084952   1.000000
    2       14.289375   0.000000
    3       17.734283   0.000000
    4       19.940687   0.000000
    5       20.033558   0.000000
    6       22.086961   0.000000
    7       26.109315   0.000000
    8       26.281362   0.000000
 
  0.2666667E+00  0.0000000E+00  0.0000000E+00  0.3555556E-02
    1       -2.138663   1.000000
    2       11.510685   0.000000
    3       16.817544   0.000000
    4       19.089816   0.000000
    5       19.256047   0.000000
    6       21.227545   0.000000
    7       26.907830   0.000000
    8       27.189421   0.000000
 
  0.3333333E+00  0.0000000E+00  0.0000000E+00  0.3555556E-02
    1       -0.928710   1.000000
    2        8.883252   1.000000
    3       16.130383   0.000000
    4       18.354883   0.000000
    5       18.684751   0.000000
    6       20.550666   0.000000
    7       27.815649   0.000000
    8       28.405426   0.000000
 
  0.4000000E+00  0.0000000E+00  0.0000000E+00  0.3555556E-02
    1        0.540115   1.000000
    2        6.457163   1.000000
    3       15.672883   0.000000
    4       17.858952   0.000000
    5       18.282881   0.000000
    6       20.100227   0.000000
    7       28.936040   0.000000
    8       29.718808   0.000000
 
  0.4666667E+00  0.0000000E+00  0.0000000E+00  0.3555556E-02
    1        2.251658   1.000000
    2        4.262286   1.000000
    3       15.443908   0.000000
    4       17.604686   0.000000
    5       18.076331   0.000000
    6       19.864302   0.000000
    7       30.034362   0.000000
    8       30.752222   0.000000
 
  0.6666667E-01  0.6666667E-01  0.0000000E+00  0.7111111E-02
    1       -3.899529   1.000000
    2       18.238767   0.000000
    3       18.787954   0.000000
    4       20.136743   0.000000
    5       22.226870   0.000000
    6       23.580511   0.000000
    7       24.547274   0.000000
    8       25.095023   0.000000
 
  0.1333333E+00  0.6666667E-01 -0.6938894E-17  0.1422222E-01
    1       -3.356113   1.000000
    2       15.758898   0.000000
    3       17.326167   0.000000
    4       19.166150   0.000000
    5       21.742517   0.000000
    6       23.129776   0.000000
    7       24.860905   0.000000
    8       26.494666   0.000000
 
  0.2000000E+00  0.6666667E-01 -0.6938894E-17  0.1422222E-01
    1       -2.543700   1.000000
    2       12.969608   0.000000
    3       16.257927   0.000000
    4       18.247395   0.000000
    5       21.004613   0.000000
    6       22.467756   0.000000
    7       25.415379   0.000000
    8       27.762454   0.000000
 
  0.2666667E+00  0.6666667E-01  0.6938894E-17  0.1422222E-01
    1       -1.465481   1.000000
    2       10.266915   0.000000
    3       15.430362   0.000000
    4       17.476385   0.000000
    5       20.299568   0.000000
    6       21.879710   0.000000
    7       26.216676   0.000000
    8       28.925618   0.000000
 
  0.3333333E+00  0.6666667E-01 -0.2081668E-16  0.1422222E-01
    1       -0.126249   1.000000
    2        7.738265   1.000000
    3       14.835712   0.000000
    4       16.903275   0.000000
    5       19.751815   0.000000
    6       21.408358   0.000000
    7       27.279593   0.000000
    8       30.049649   0.000000
 
  0.4000000E+00  0.6666667E-01  0.6938894E-17  0.1422222E-01
    1        1.467287   1.000000
    2        5.424559   1.000000
    3       14.479443   0.000000
    4       16.552121   0.000000
    5       19.411603   0.000000
    6       21.112842   0.000000
    7       28.554290   0.000000
    8       30.665037   0.000000
 
  0.4666667E+00  0.6666667E-01  0.6938894E-17  0.7111111E-02
    1        3.129405   1.000000
    2        3.521014   1.000000
    3       14.360595   0.000000
    4       16.434632   0.000000
    5       19.296427   0.000000
    6       21.011430   0.000000
    7       29.728438   0.000000
    8       30.070783   0.000000
 
  0.1333333E+00  0.1333333E+00  0.0000000E+00  0.7111111E-02
    1       -2.678863   1.000000
    2       14.393974   0.000000
    3       14.858684   0.000000
    4       18.104662   0.000000
    5       21.950494   0.000000
    6       23.053510   0.000000
    7       25.541218   0.000000
    8       26.860973   0.000000
 
  0.2000000E+00  0.1333333E+00  0.1387779E-16  0.1422222E-01
    1       -1.734422   1.000000
    2       11.858975   0.000000
    3       13.684786   0.000000
    4       17.237737   0.000000
    5       21.597478   0.000000
    6       23.102226   0.000000
    7       25.848598   0.000000
    8       28.306069   0.000000
 
  0.2666667E+00  0.1333333E+00  0.0000000E+00  0.1422222E-01
    1       -0.526763   1.000000
    2        9.257573   1.000000
    3       12.940015   0.000000
    4       16.560368   0.000000
    5       21.040552   0.000000
    6       23.336474   0.000000
    7       26.110607   0.000000
    8       29.915811   0.000000
 
  0.3333333E+00  0.1333333E+00  0.0000000E+00  0.1422222E-01
    1        0.939122   1.000000
    2        6.840730   1.000000
    3       12.445955   0.000000
    4       16.099578   0.000000
    5       20.616100   0.000000
    6       23.381040   0.000000
    7       26.905994   0.000000
    8       30.456742   0.000000
 
  0.4000000E+00  0.1333333E+00  0.0000000E+00  0.1422222E-01
    1        2.648296   1.000000
    2        4.651956   1.000000
    3       12.198935   0.000000
    4       15.866812   0.000000
    5       20.394431   0.000000
    6       23.342503   0.000000
    7       28.100724   0.000000
    8       29.547512   0.000000
 
  0.2000000E+00  0.2000000E+00  0.0000000E+00  0.7111111E-02
    1       -0.660477   1.000000
    2       10.836127   0.000000
    3       11.184906   0.000000
    4       16.464641   0.000000
    5       22.112945   0.000000
    6       23.006597   0.000000
    7       27.415455   0.000000
    8       28.368503   0.000000
 
  0.2666667E+00  0.2000000E+00  0.1387779E-16  0.1422222E-01
    1        0.674032   1.000000
    2        8.491250   1.000000
    3       10.398542   0.000000
    4       15.898371   0.000000
    5       21.970818   0.000000
    6       23.656846   0.000000
    7       27.560887   0.000000
    8       29.528324   0.000000
 
  0.3333333E+00  0.2000000E+00  0.1387779E-16  0.1422222E-01
    1        2.261351   1.000000
    2        6.196595   1.000000
    3       10.014784   0.001141
    4       15.552074   0.000000
    5       21.708600   0.000000
    6       24.569692   0.000000
    7       27.402555   0.000000
    8       29.458341   0.000000
 
  0.4000000E+00  0.2000000E+00  0.1387779E-16  0.7111111E-02
    1        3.924306   1.000000
    2        4.295370   1.000000
    3        9.887555   0.708089
    4       15.435628   0.000000
    5       21.608728   0.000000
    6       25.026769   0.000000
    7       27.371198   0.000000
    8       29.019873   0.000000
 
  0.2666667E+00  0.2666667E+00  0.0000000E+00  0.7111111E-02
    1        2.130642   1.000000
    2        7.843060   1.000000
    3        8.147824   1.000000
    4       15.445915   0.000000
    5       22.842991   0.000000
    6       23.753310   0.000000
    7       27.975713   0.000000
    8       29.823235   0.000000
 
  0.3333333E+00  0.2666667E+00  0.0000000E+00  0.1422222E-01
    1        3.829149   1.000000
    2        5.810464   1.000000
    3        7.753392   1.000000
    4       15.216178   0.000000
    5       22.971064   0.000000
    6       24.764656   0.000000
    7       26.630752   0.000000
    8       30.660327   0.000000
 
  0.3333333E+00  0.3333333E+00  0.0000000E+00  0.2370370E-02
    1        5.347048   1.000000
    2        5.841014   1.000000
    3        5.841015   1.000000
    4       15.102989   0.000000
    5       23.784533   0.000000
    6       25.235823   0.000000
    7       25.235823   0.000000
    8       32.682732   0.000000
 
  0.6666667E-01  0.6666667E-01  0.6666667E-01  0.2370370E-02
    1       -3.491842   1.000000
    2       16.766474   0.000000
    3       17.758411   0.000000
    4       17.758411   0.000000
    5       23.439768   0.000000
    6       23.439768   0.000000
    7       25.596966   0.000000
    8       25.596966   0.000000
 
  0.1333333E+00  0.6666667E-01  0.6666667E-01  0.7111111E-02
    1       -2.814153   1.000000
    2       14.476385   0.000000
    3       16.035979   0.000000
    4       16.691083   0.000000
    5       23.137672   0.000000
    6       23.802358   0.000000
    7       25.928811   0.000000
    8       26.404363   0.000000
 
  0.2000000E+00  0.6666667E-01  0.6666667E-01  0.7111111E-02
    1       -1.869079   1.000000
    2       11.751678   0.000000
    3       15.032649   0.000000
    4       15.771231   0.000000
    5       22.691972   0.000000
    6       23.241907   0.000000
    7       27.149512   0.000000
    8       27.149904   0.000000
 
  0.2666667E+00  0.6666667E-01  0.6666667E-01  0.7111111E-02
    1       -0.660647   1.000000
    2        9.136455   1.000000
    3       14.307325   0.000000
    4       15.054807   0.000000
    5       22.232400   0.000000
    6       22.676365   0.000000
    7       28.054117   0.000000
    8       28.477181   0.000000
 
  0.3333333E+00  0.6666667E-01  0.6666667E-01  0.7111111E-02
    1        0.806054   1.000000
    2        6.714491   1.000000
    3       13.826754   0.000000
    4       14.568828   0.000000
    5       21.880474   0.000000
    6       22.270460   0.000000
    7       29.149051   0.000000
    8       29.824251   0.000000
 
  0.4000000E+00  0.6666667E-01  0.6666667E-01  0.7111111E-02
    1        2.516555   1.000000
    2        4.523115   1.000000
    3       13.587092   0.000000
    4       14.323822   0.000000
    5       21.693127   0.000000
    6       22.062041   0.000000
    7       30.199621   0.000000
    8       30.877150   0.000000
 
 -0.6666667E-01  0.6666667E-01  0.6666667E-01  0.1777778E-02
    1       -4.035600   1.000000
    2       19.290390   0.000000
    3       19.290391   0.000000
    4       20.305096   0.000000
    5       22.795335   0.000000
    6       23.724248   0.000000
    7       23.870938   0.000000
    8       23.870938   0.000000
 
  0.1333333E+00  0.1333333E+00  0.6666667E-01  0.7111111E-02
    1       -2.003816   1.000000
    2       13.205094   0.000000
    3       13.716374   0.000000
    4       15.370864   0.000000
    5       23.732276   0.000000
    6       24.610693   0.000000
    7       26.246762   0.000000
    8       27.226580   0.000000
 
  0.2000000E+00  0.1333333E+00  0.6666667E-01  0.1422222E-01
    1       -0.928428   1.000000
    2       10.753822   0.000000
    3       12.628740   0.000000
    4       14.525127   0.000000
    5       23.660616   0.000000
    6       24.699262   0.000000
    7       27.057015   0.000000
    8       28.478110   0.000000
 
  0.2666667E+00  0.1333333E+00  0.6666667E-01  0.1422222E-01
    1        0.407906   1.000000
    2        8.248067   1.000000
    3       11.998951   0.000000
    4       13.919657   0.000000
    5       23.344280   0.000000
    6       24.619814   0.000000
    7       27.949796   0.000000
    8       29.924980   0.000000
 
  0.3333333E+00  0.1333333E+00  0.6666667E-01  0.1422222E-01
    1        1.997765   1.000000
    2        5.942471   1.000000
    3       11.624830   0.000000
    4       13.554122   0.000000
    5       23.093232   0.000000
    6       24.507112   0.000000
    7       29.076610   0.000000
    8       30.810525   0.000000
 
  0.4000000E+00  0.1333333E+00  0.6666667E-01  0.7111111E-02
    1        3.660133   1.000000
    2        4.039697   1.000000
    3       11.499906   0.000000
    4       13.431633   0.000000
    5       23.000016   0.000000
    6       24.453060   0.000000
    7       30.031292   0.000000
    8       30.529464   0.000000
 
 -0.1333333E+00  0.1333333E+00  0.6666667E-01  0.7111111E-02
    1       -3.627616   1.000000
    2       17.120924   0.000000
    3       17.987429   0.000000
    4       19.765094   0.000000
    5       22.169959   0.000000
    6       22.446754   0.000000
    7       24.324874   0.000000
    8       25.513228   0.000000
 
  0.2000000E+00  0.2000000E+00  0.6666667E-01  0.7111111E-02
    1        0.274969   1.000000
    2        9.847450   0.953729
    3       10.202998   0.000000
    4       13.789865   0.000000
    5       24.297687   0.000000
    6       25.314502   0.000000
    7       28.188555   0.000000
    8       29.065291   0.000000
 
  0.2666667E+00  0.2000000E+00  0.6666667E-01  0.1422222E-01
    1        1.735242   1.000000
    2        7.604915   1.000000
    3        9.535435   1.000000
    4       13.302471   0.000000
    5       24.390358   0.000000
    6       25.908321   0.000000
    7       28.701470   0.000000
    8       30.170632   0.000000
 
  0.3333333E+00  0.2000000E+00  0.6666667E-01  0.1422222E-01
    1        3.438184   1.000000
    2        5.430181   1.000000
    3        9.276126   1.000000
    4       13.058389   0.000000
    5       24.303519   0.000000
    6       26.431455   0.000000
    7       29.023706   0.000000
    8       30.372921   0.000000
 
 -0.2000000E+00  0.2000000E+00  0.6666667E-01  0.7111111E-02
    1       -2.949455   1.000000
    2       14.376952   0.000000
    3       16.837202   0.000000
    4       19.138105   0.000000
    5       21.158682   0.000000
    6       21.904038   0.000000
    7       24.379458   0.000000
    8       27.759670   0.000000
 
 -0.1333333E+00  0.2000000E+00  0.6666667E-01  0.7111111E-02
    1       -3.084911   1.000000
    2       15.721149   0.000000
    3       16.038655   0.000000
    4       19.169876   0.000000
    5       21.394429   0.000000
    6       21.909308   0.000000
    7       25.210879   0.000000
    8       26.137161   0.000000
 
  0.2666667E+00  0.2666667E+00  0.6666667E-01  0.7111111E-02
    1        3.313007   1.000000
    2        7.080900   1.000000
    3        7.392373   1.000000
    4       12.936980   0.000000
    5       25.255292   0.000000
    6       26.439338   0.000000
    7       28.975245   0.000000
    8       30.735076   0.000000
 
  0.3333333E+00  0.2666667E+00  0.6666667E-01  0.7111111E-02
    1        4.962092   1.000000
    2        5.331630   1.000000
    3        7.125928   1.000000
    4       12.814732   0.000000
    5       25.472338   0.000000
    6       27.139925   0.000000
    7       28.131796   0.000000
    8       31.524725   0.000000
 
 -0.2666667E+00  0.2666667E+00  0.6666667E-01  0.7111111E-02
    1       -2.003790   1.000000
    2       11.623223   0.000000
    3       15.903475   0.000000
    4       18.407336   0.000000
    5       20.251936   0.000000
    6       21.606197   0.000000
    7       24.627717   0.000000
    8       29.513655   0.000000
 
 -0.2000000E+00  0.2666667E+00  0.6666667E-01  0.1422222E-01
    1       -2.273471   1.000000
    2       13.165179   0.000000
    3       14.835026   0.000000
    4       18.646696   0.000000
    5       20.851258   0.000000
    6       21.490698   0.000000
    7       25.225106   0.000000
    8       27.925250   0.000000
 
 -0.3333333E+00  0.3333333E+00  0.6666667E-01  0.7111111E-02
    1       -0.794603   1.000000
    2        9.005396   1.000000
    3       15.197821   0.000000
    4       17.777359   0.000000
    5       19.535447   0.000000
    6       21.284590   0.000000
    7       25.333962   0.000000
    8       30.422972   0.000000
 
 -0.2666667E+00  0.3333333E+00  0.6666667E-01  0.1422222E-01
    1       -1.196715   1.000000
    2       10.500565   0.000000
    3       13.986441   0.000000
    4       18.024101   0.000000
    5       20.163822   0.000000
    6       21.790533   0.000000
    7       24.990362   0.000000
    8       29.802295   0.000000
 
 -0.2000000E+00  0.3333333E+00  0.6666667E-01  0.7111111E-02
    1       -1.330922   1.000000
    2       12.039508   0.000000
    3       12.365549   0.000000
    4       18.408915   0.000000
    5       20.751646   0.000000
    6       20.913944   0.000000
    7       26.871333   0.000000
    8       27.784700   0.000000
 
 -0.4000000E+00  0.4000000E+00  0.6666667E-01  0.7111111E-02
    1        0.672865   1.000000
    2        6.583443   1.000000
    3       14.725448   0.000000
    4       17.333690   0.000000
    5       19.050278   0.000000
    6       21.000939   0.000000
    7       26.433721   0.000000
    8       30.464042   0.000000
 
 -0.3333333E+00  0.4000000E+00  0.6666667E-01  0.1422222E-01
    1        0.140973   1.000000
    2        7.986994   1.000000
    3       13.378464   0.000000
    4       17.508275   0.000000
    5       19.594888   0.000000
    6       22.176918   0.000000
    7       25.168438   0.000000
    8       30.041956   0.000000
 
 -0.2666667E+00  0.4000000E+00  0.6666667E-01  0.1422222E-01
    1       -0.125699   1.000000
    2        9.614530   1.000000
    3       11.472204   0.000000
    4       17.993836   0.000000
    5       20.219694   0.000000
    6       21.473725   0.000000
    7       26.765836   0.000000
    8       28.973522   0.000000
 
 -0.4666667E+00  0.4666667E+00  0.6666667E-01  0.7111111E-02
    1        2.384065   1.000000
    2        4.391445   1.000000
    3       14.489188   0.000000
    4       17.107043   0.000000
    5       18.805298   0.000000
    6       20.841055   0.000000
    7       27.795343   0.000000
    8       29.299944   0.000000
 
 -0.4000000E+00  0.4666667E+00  0.6666667E-01  0.1422222E-01
    1        1.732312   1.000000
    2        5.680462   1.000000
    3       13.013131   0.000000
    4       17.182569   0.000000
    5       19.240001   0.000000
    6       22.344957   0.000000
    7       25.967731   0.000000
    8       28.844294   0.000000
 
 -0.3333333E+00  0.4666667E+00  0.6666667E-01  0.1422222E-01
    1        1.337314   1.000000
    2        7.217803   1.000000
    3       10.967743   0.000000
    4       17.629167   0.000000
    5       19.765637   0.000000
    6       22.472028   0.000000
    7       26.262869   0.000000
    8       28.709600   0.000000
 
 -0.2666667E+00  0.4666667E+00  0.6666667E-01  0.7111111E-02
    1        1.204974   1.000000
    2        8.848352   1.000000
    3        9.141095   1.000000
    4       17.739424   0.000000
    5       20.897236   0.000000
    6       21.136993   0.000000
    7       27.166064   0.000000
    8       29.074205   0.000000
 
 -0.4666667E+00 -0.4666667E+00  0.6666667E-01  0.7111111E-02
    1        3.395817   1.000000
    2        3.776894   1.000000
    3       12.891236   0.000000
    4       17.071952   0.000000
    5       19.122492   0.000000
    6       22.372880   0.000000
    7       26.957911   0.000000
    8       27.654635   0.000000
 
 -0.4000000E+00 -0.4666667E+00  0.6666667E-01  0.1422222E-01
    1        3.042819   1.000000
    2        5.037927   1.000000
    3       10.716519   0.000000
    4       17.431173   0.000000
    5       19.530979   0.000000
    6       23.437318   0.000000
    7       25.708942   0.000000
    8       27.998920   0.000000
 
 -0.3333333E+00 -0.4666667E+00  0.6666667E-01  0.1422222E-01
    1        2.787310   1.000000
    2        6.699986   1.000000
    3        8.625522   1.000000
    4       17.498637   0.000000
    5       20.679711   0.000000
    6       22.268222   0.000000
    7       25.593012   0.000000
    8       29.810999   0.000000
 
 -0.4000000E+00 -0.4000000E+00  0.6666667E-01  0.7111111E-02
    1        4.449684   1.000000
    2        4.805801   1.000000
    3        8.494678   1.000000
    4       17.408877   0.000000
    5       20.572037   0.000000
    6       23.374899   0.000000
    7       24.335241   0.000000
    8       29.904235   0.000000
 
 -0.3333333E+00 -0.4000000E+00  0.6666667E-01  0.7111111E-02
    1        4.473989   1.000000
    2        6.319515   1.000000
    3        6.600626   1.000000
    4       17.364862   0.000000
    5       21.784352   0.000000
    6       22.361246   0.000000
    7       23.887794   0.000000
    8       31.815536   0.000000
 
  0.1333333E+00  0.1333333E+00  0.1333333E+00  0.2370370E-02
    1       -1.062487   1.000000
    2       12.088408   0.000000
    3       12.754073   0.000000
    4       12.754073   0.000000
    5       25.394434   0.000000
    6       25.394434   0.000000
    7       27.464463   0.000000
    8       27.464463   0.000000
 
  0.2000000E+00  0.1333333E+00  0.1333333E+00  0.7111111E-02
    1        0.141341   1.000000
    2        9.874941   0.817156
    3       11.617531   0.000000
    4       12.016238   0.000000
    5       25.636123   0.000000
    6       25.977959   0.000000
    7       28.518853   0.000000
    8       28.656170   0.000000
 
  0.2666667E+00  0.1333333E+00  0.1333333E+00  0.7111111E-02
    1        1.603329   1.000000
    2        7.483038   1.000000
    3       11.099653   0.000000
    4       11.518330   0.000000
    5       25.647375   0.000000
    6       25.892120   0.000000
    7       29.725255   0.000000
    8       30.020779   0.000000
 
  0.3333333E+00  0.1333333E+00  0.1333333E+00  0.7111111E-02
    1        3.307500   1.000000
    2        5.302404   1.000000
    3       10.847120   0.000000
    4       11.267693   0.000000
    5       25.607718   0.000000
    6       25.783441   0.000000
    7       30.608040   0.000000
    8       31.173757   0.000000
 
 -0.1333333E+00  0.1333333E+00  0.1333333E+00  0.1777778E-02
    1       -3.220427   1.000000
    2       16.679545   0.000000
    3       16.679545   0.000000
    4       18.309197   0.000000
    5       20.576558   0.000000
    6       23.593939   0.000000
    7       25.110496   0.000000
    8       25.110497   0.000000
 
  0.2000000E+00  0.2000000E+00  0.1333333E+00  0.7111111E-02
    1        1.471534   1.000000
    2        9.087119   1.000000
    3        9.453955   1.000000
    4       11.214320   0.000000
    5       26.555167   0.000000
    6       27.282108   0.000000
    7       29.219959   0.000000
    8       29.727193   0.000000
 
  0.2666667E+00  0.2000000E+00  0.1333333E+00  0.1422222E-01
    1        3.052167   1.000000
    2        6.966772   1.000000
    3        8.905731   1.000000
    4       10.832860   0.000000
    5       26.870011   0.000000
    6       27.823191   0.000000
    7       30.122974   0.000000
    8       30.793322   0.000000
 
  0.3333333E+00  0.2000000E+00  0.1333333E+00  0.7111111E-02
    1        4.709448   1.000000
    2        5.076100   1.000000
    3        8.773296   1.000000
    4       10.706717   0.000000
    5       26.916232   0.000000
    6       27.991756   0.000000
    7       30.520069   0.000000
    8       31.297852   0.000000
 
 -0.2000000E+00  0.2000000E+00  0.1333333E+00  0.7111111E-02
    1       -2.543516   1.000000
    2       14.577315   0.000000
    3       15.517425   0.000000
    4       17.714245   0.000000
    5       19.690907   0.000000
    6       23.134301   0.000000
    7       25.298651   0.000000
    8       26.876845   0.000000
 
  0.2666667E+00  0.2666667E+00  0.1333333E+00  0.7111111E-02
    1        4.737397   1.000000
    2        6.579181   1.000000
    3        6.885089   1.000000
    4       10.576664   0.000000
    5       27.668777   0.000000
    6       28.952897   0.000000
    7       30.050421   0.000000
    8       31.626421   0.000000
 
 -0.2666667E+00  0.2666667E+00  0.1333333E+00  0.7111111E-02
    1       -1.599704   1.000000
    2       11.946343   0.000000
    3       14.569173   0.000000
    4       17.076302   0.000000
    5       19.893103   0.000000
    6       22.302338   0.000000
    7       24.976366   0.000000
    8       29.362504   0.000000
 
 -0.2000000E+00  0.2666667E+00  0.1333333E+00  0.7111111E-02
    1       -1.734204   1.000000
    2       13.390341   0.000000
    3       13.618279   0.000000
    4       17.333667   0.000000
    5       18.820572   0.000000
    6       22.955067   0.000000
    7       26.546623   0.000000
    8       27.254963   0.000000
 
 -0.3333333E+00  0.3333333E+00  0.1333333E+00  0.7111111E-02
    1       -0.392911   1.000000
    2        9.367301   1.000000
    3       13.851747   0.000000
    4       16.433219   0.000000
    5       20.565186   0.000000
    6       21.618876   0.000000
    7       24.660485   0.000000
    8       29.591581   0.000000
 
 -0.2666667E+00  0.3333333E+00  0.1333333E+00  0.1422222E-01
    1       -0.660257   1.000000
    2       10.949393   0.000000
    3       12.663881   0.000000
    4       16.973284   0.000000
    5       19.026208   0.000000
    6       22.332312   0.000000
    7       26.299985   0.000000
    8       28.578129   0.000000
 
 -0.4000000E+00  0.4000000E+00  0.1333333E+00  0.7111111E-02
    1        1.071591   1.000000
    2        6.961862   1.000000
    3       13.369770   0.000000
    4       15.966721   0.000000
    5       21.142622   0.000000
    6       21.276874   0.000000
    7       24.675790   0.000000
    8       28.343586   0.000000
 
 -0.3333333E+00  0.4000000E+00  0.1333333E+00  0.1422222E-01
    1        0.673766   1.000000
    2        8.478055   1.000000
    3       12.046262   0.000000
    4       16.479417   0.000000
    5       19.845719   0.000000
    6       21.894994   0.000000
    7       25.568829   0.000000
    8       28.174453   0.000000
 
 -0.2666667E+00  0.4000000E+00  0.1333333E+00  0.7111111E-02
    1        0.541194   1.000000
    2       10.074774   0.000001
    3       10.343141   0.000000
    4       17.396286   0.000000
    5       18.736210   0.000000
    6       21.872825   0.000000
    7       26.579417   0.000000
    8       28.530143   0.000000
 
 -0.4666667E+00  0.4666667E+00  0.1333333E+00  0.7111111E-02
    1        2.779537   1.000000
    2        4.778097   1.000000
    3       13.129470   0.000000
    4       15.728812   0.000000
    5       20.904061   0.000000
    6       21.702593   0.000000
    7       25.168282   0.000000
    8       27.006482   0.000000
 
 -0.4000000E+00  0.4666667E+00  0.1333333E+00  0.1422222E-01
    1        2.260692   1.000000
    2        6.189705   1.000000
    3       11.676118   0.000000
    4       16.146582   0.000000
    5       20.567619   0.000000
    6       21.983824   0.000000
    7       24.617763   0.000000
    8       27.392181   0.000000
 
 -0.3333333E+00  0.4666667E+00  0.1333333E+00  0.1422222E-01
    1        1.998380   1.000000
    2        7.836350   1.000000
    3        9.716300   1.000000
    4       17.315504   0.000000
    5       19.418567   0.000000
    6       21.582643   0.000000
    7       24.877824   0.000000
    8       29.151288   0.000000
 
 -0.4666667E+00 -0.4666667E+00  0.1333333E+00  0.7111111E-02
    1        3.926025   1.000000
    2        4.287559   1.000000
    3       11.552406   0.000000
    4       16.031243   0.000000
    5       20.728804   0.000000
    6       22.507458   0.000000
    7       23.862093   0.000000
    8       27.100324   0.000000
 
 -0.4000000E+00 -0.4666667E+00  0.1333333E+00  0.1422222E-01
    1        3.697572   1.000000
    2        5.676939   1.000000
    3        9.460317   1.000000
    4       17.153389   0.000000
    5       20.170811   0.000000
    6       21.904098   0.000000
    7       23.188598   0.000000
    8       29.182276   0.000000
 
 -0.3333333E+00 -0.4666667E+00  0.1333333E+00  0.7111111E-02
    1        3.571753   1.000000
    2        7.327265   1.000000
    3        7.600550   1.000000
    4       17.975544   0.000000
    5       19.646064   0.000000
    6       21.325460   0.000000
    7       23.136102   0.000000
    8       31.071330   0.000000
 
 -0.4000000E+00 -0.4000000E+00  0.1333333E+00  0.7111111E-02
    1        5.226081   1.000000
    2        5.567286   1.000000
    3        7.350552   1.000000
    4       18.104275   0.000000
    5       20.234252   0.000000
    6       21.383754   0.000000
    7       21.954838   0.000000
    8       31.691067   0.000000
 
  0.2000000E+00  0.2000000E+00  0.2000000E+00  0.2370370E-02
    1        2.922255   1.000000
    2        8.449628   1.000000
    3        8.950098   1.000000
    4        8.950098   1.000000
    5       28.501141   0.000000
    6       28.501141   0.000000
    7       30.346122   0.000000
    8       30.346122   0.000000
 
  0.2666667E+00  0.2000000E+00  0.2000000E+00  0.7111111E-02
    1        4.612841   1.000000
    2        6.584087   1.000000
    3        8.394686   1.000000
    4        8.696900   1.000000
    5       29.039397   0.000000
    6       29.397066   0.000000
    7       31.051862   0.000000
    8       31.324868   0.000000
 
 -0.2000000E+00  0.2000000E+00  0.2000000E+00  0.1777778E-02
    1       -1.868795   1.000000
    2       14.343348   0.000000
    3       14.343348   0.000000
    4       16.261127   0.000000
    5       17.869672   0.000000
    6       24.917802   0.000000
    7       26.439252   0.000000
    8       26.439252   0.000000
 