 vasp.6.2.0 18Jan21 (build Aug 12 2022 13:00:08) complex                        
  
 executed on             LinuxIFC date 2024.11.03  22:06:52
 running on    4 total cores
 distrk:  each k-point on    4 cores,    1 groups
 distr:  one band on NCORE=   1 cores,    4 groups


--------------------------------------------------------------------------------------------------------


 INCAR:
   ISTART = 0            (Read existing wavefunction, if there)
   ISPIN = 1            (Non-Spin polarised DFT)
   LREAL = .FALSE.       (Projection operators: automatic)
   LWAVE = .FALSE.        (Write WAVECAR or not)
   LCHARG = .FALSE.        (Write CHGCAR or not)
   ADDGRID = .TRUE.        (Increase grid, helps GGA convergence)
   LASPH = .TRUE.        (Give more accurate total energies and band structure calculations)
   PREC = Accurate      (Accurate strictly avoids any aliasing or wrap around errors)
   ENCUT = 300          (Cut-off energy for plane wave basis set, in eV)
   ISMEAR = 0            (Gaussian smearing, metals:1)
   SIGMA = 0.05         (Smearing value in eV, metals:0.2)
   NELM = 90           (Max electronic SCF steps)
   NELMIN = 6            (Min electronic SCF steps)
   EDIFF = 1E-06        (SCF energy convergence, in eV)
   NSW = 100          (Max ionic steps)
   IBRION = 2            (Algorithm: 0-MD, 1-Quasi-New, 2-CG)
   ISIF = 3            (Stress/relaxation: 2-Ions, 3-Shape/Ions/V, 4-Shape/Ions)
   EDIFFG = -2E-03        (Ionic convergence, eV/AA)
   ISYM = 2              (Symmetry: 0\=none, 2\=GGA, 3\=hybrids)

 POTCAR:    PAW_PBE Si 05Jan2001                  
 POTCAR:    PAW_PBE Si 05Jan2001                  
   VRHFIN =Si: s2p2                                                                                 
   LEXCH  = PE                                                                                      
   EATOM  =   103.0669 eV,    7.5752 Ry                                                             
                                                                                                    
   TITEL  = PAW_PBE Si 05Jan2001                                                                    
   LULTRA =        F    use ultrasoft PP ?                                                          
   IUNSCR =        1    unscreen: 0-lin 1-nonlin 2-no                                               
   RPACOR =    1.500    partial core radius                                                         
   POMASS =   28.085; ZVAL   =    4.000    mass and valenz                                          
   RCORE  =    1.900    outmost cutoff radius                                                       
   RWIGS  =    2.480; RWIGS  =    1.312    wigner-seitz radius (au A)                               
   ENMAX  =  245.345; ENMIN  =  184.009 eV                                                          
   ICORE  =        2    local potential                                                             
   LCOR   =        T    correct aug charges                                                         
   LPAW   =        T    paw PP                                                                      
   EAUG   =  322.069                                                                                
   DEXC   =    0.000                                                                                
   RMAX   =    1.950    core radius for proj-oper                                                   
   RAUG   =    1.300    factor for augmentation sphere                                              
   RDEP   =    1.993    radius for radial grids                                                     
   RDEPT  =    1.837    core radius for aug-charge                                                  
                                                                                                    
   Atomic configuration                                                                             
    6 entries                                                                                       
     n  l   j            E        occ.                                                              
     1  0  0.50     -1785.8828   2.0000                                                             
     2  0  0.50      -139.4969   2.0000                                                             
     2  1  1.50       -95.5546   6.0000                                                             
     3  0  0.50       -10.8127   2.0000                                                             
     3  1  0.50        -4.0811   2.0000                                                             
     3  2  1.50        -4.0817   0.0000                                                             
   Description                                                                                      
     l       E           TYP  RCUT    TYP  RCUT                                                     
     0    -10.8127223     23  1.900                                                                 
     0     -7.6451159     23  1.900                                                                 
     1     -4.0811372     23  1.900                                                                 
     1      2.4879257     23  1.900                                                                 
     2     -4.0817478      7  1.900                                                                 
  local pseudopotential read in
  partial core-charges read in
  partial kinetic energy density read in
  atomic valenz-charges read in
  non local Contribution for L=           0  read in
    real space projection operators read in
  non local Contribution for L=           0  read in
    real space projection operators read in
  non local Contribution for L=           1  read in
    real space projection operators read in
  non local Contribution for L=           1  read in
    real space projection operators read in
    PAW grid and wavefunctions read in
 
   number of l-projection  operators is LMAX  =           4
   number of lm-projection operators is LMMAX =           8
 
  PAW_PBE Si 05Jan2001                  :
 energy of atom  1       EATOM= -103.0669
 kinetic energy error for atom=    0.0021 (will be added to EATOM!!)
 
 
 POSCAR: Si1
  positions in direct lattice
  No initial velocities read in
 exchange correlation table for  LEXCH =        8
   RHO(1)=    0.500       N(1)  =     2000
   RHO(2)=  100.500       N(2)  =     4000
 


--------------------------------------------------------------------------------------------------------


 ion  position               nearest neighbor table
   1  0.000  0.000  0.000-
 
  LATTYP: Found a body centered cubic cell.
 ALAT       =     3.0266512600
  
  Lattice vectors:
  
 A1 = (   1.5133256300,   1.5133256300,   1.5133256300)
 A2 = (   1.5133256300,  -1.5133256300,  -1.5133256300)
 A3 = (  -1.5133256300,   1.5133256300,  -1.5133256300)


Analysis of symmetry for initial positions (statically):
=====================================================================
 Subroutine PRICEL returns:
 Original cell was already a primitive cell.
 

 Routine SETGRP: Setting up the symmetry group for a 
 body centered cubic supercell.


 Subroutine GETGRP returns: Found 48 space group operations
 (whereof 48 operations were pure point group operations)
 out of a pool of 48 trial point group operations.


The static configuration has the point symmetry O_h .


Analysis of symmetry for dynamics (positions and initial velocities):
=====================================================================
 Subroutine PRICEL returns:
 Original cell was already a primitive cell.
 

 Routine SETGRP: Setting up the symmetry group for a 
 body centered cubic supercell.


 Subroutine GETGRP returns: Found 48 space group operations
 (whereof 48 operations were pure point group operations)
 out of a pool of 48 trial point group operations.


The dynamic configuration has the point symmetry O_h .


 Subroutine INISYM returns: Found 48 space group operations
 (whereof 48 operations are pure point group operations),
 and found     1 'primitive' translations


----------------------------------------------------------------------------------------

                                     Primitive cell                                     

  volume of cell :      13.8630

  direct lattice vectors                    reciprocal lattice vectors
     1.513325630  1.513325630  1.513325630     0.330398158  0.330398158  0.000000000
     1.513325630 -1.513325630 -1.513325630     0.330398158  0.000000000 -0.330398158
    -1.513325630  1.513325630 -1.513325630     0.000000000  0.330398158 -0.330398158

  length of vectors
     2.621156880  2.621156880  2.621156880     0.467253555  0.467253555  0.467253555

  position of ions in fractional coordinates (direct lattice)
     0.000000000  0.000000000  0.000000000

  ion indices of the primitive-cell ions
   primitive index   ion index
                 1           1

----------------------------------------------------------------------------------------

 
 
 KPOINTS: Automatic                               

Automatic generation of k-mesh.
 Grid dimensions read from file:
 generate k-points for:   15   15   15

 Generating k-lattice:

  Cartesian coordinates                     Fractional coordinates (reciprocal lattice)
     0.022026544  0.022026544  0.000000000     0.066666667  0.000000000  0.000000000
     0.022026544  0.000000000 -0.022026544     0.000000000  0.066666667  0.000000000
     0.000000000  0.022026544 -0.022026544     0.000000000  0.000000000  0.066666667

  Length of vectors
     0.031150237  0.031150237  0.031150237

  Shift w.r.t. Gamma in fractional coordinates (k-lattice)
     0.000000000  0.000000000  0.000000000

 
 Subroutine IBZKPT returns following result:
 ===========================================
 
 Found    120 irreducible k-points:
 
 Following reciprocal coordinates:
            Coordinates               Weight
  0.000000  0.000000  0.000000      1.000000
  0.066667  0.000000  0.000000     12.000000
  0.133333  0.000000  0.000000     12.000000
  0.200000  0.000000  0.000000     12.000000
  0.266667  0.000000  0.000000     12.000000
  0.333333  0.000000  0.000000     12.000000
  0.400000  0.000000  0.000000     12.000000
  0.466667  0.000000  0.000000     12.000000
  0.066667  0.066667  0.000000     24.000000
  0.133333  0.066667 -0.000000     48.000000
  0.200000  0.066667 -0.000000     48.000000
  0.266667  0.066667  0.000000     48.000000
  0.333333  0.066667 -0.000000     48.000000
  0.400000  0.066667  0.000000     48.000000
  0.466667  0.066667  0.000000     24.000000
  0.133333  0.133333  0.000000     24.000000
  0.200000  0.133333  0.000000     48.000000
  0.266667  0.133333  0.000000     48.000000
  0.333333  0.133333  0.000000     48.000000
  0.400000  0.133333  0.000000     48.000000
  0.200000  0.200000  0.000000     24.000000
  0.266667  0.200000  0.000000     48.000000
  0.333333  0.200000  0.000000     48.000000
  0.400000  0.200000  0.000000     24.000000
  0.266667  0.266667  0.000000     24.000000
  0.333333  0.266667  0.000000     48.000000
  0.333333  0.333333  0.000000      8.000000
  0.066667  0.066667  0.066667      8.000000
  0.133333  0.066667  0.066667     24.000000
  0.200000  0.066667  0.066667     24.000000
  0.266667  0.066667  0.066667     24.000000
  0.333333  0.066667  0.066667     24.000000
  0.400000  0.066667  0.066667     24.000000
 -0.066667  0.066667  0.066667      6.000000
  0.133333  0.133333  0.066667     24.000000
  0.200000  0.133333  0.066667     48.000000
  0.266667  0.133333  0.066667     48.000000
  0.333333  0.133333  0.066667     48.000000
  0.400000  0.133333  0.066667     24.000000
 -0.133333  0.133333  0.066667     24.000000
  0.200000  0.200000  0.066667     24.000000
  0.266667  0.200000  0.066667     48.000000
  0.333333  0.200000  0.066667     48.000000
 -0.200000  0.200000  0.066667     24.000000
 -0.133333  0.200000  0.066667     24.000000
  0.266667  0.266667  0.066667     24.000000
  0.333333  0.266667  0.066667     24.000000
 -0.266667  0.266667  0.066667     24.000000
 -0.200000  0.266667  0.066667     48.000000
 -0.333333  0.333333  0.066667     24.000000
 -0.266667  0.333333  0.066667     48.000000
 -0.200000  0.333333  0.066667     24.000000
 -0.400000  0.400000  0.066667     24.000000
 -0.333333  0.400000  0.066667     48.000000
 -0.266667  0.400000  0.066667     48.000000
 -0.466667  0.466667  0.066667     24.000000
 -0.400000  0.466667  0.066667     48.000000
 -0.333333  0.466667  0.066667     48.000000
 -0.266667  0.466667  0.066667     24.000000
 -0.466667 -0.466667  0.066667     24.000000
 -0.400000 -0.466667  0.066667     48.000000
 -0.333333 -0.466667  0.066667     48.000000
 -0.400000 -0.400000  0.066667     24.000000
 -0.333333 -0.400000  0.066667     24.000000
  0.133333  0.133333  0.133333      8.000000
  0.200000  0.133333  0.133333     24.000000
  0.266667  0.133333  0.133333     24.000000
  0.333333  0.133333  0.133333     24.000000
 -0.133333  0.133333  0.133333      6.000000
  0.200000  0.200000  0.133333     24.000000
  0.266667  0.200000  0.133333     48.000000
  0.333333  0.200000  0.133333     24.000000
 -0.200000  0.200000  0.133333     24.000000
  0.266667  0.266667  0.133333     24.000000
 -0.266667  0.266667  0.133333     24.000000
 -0.200000  0.266667  0.133333     24.000000
 -0.333333  0.333333  0.133333     24.000000
 -0.266667  0.333333  0.133333     48.000000
 -0.400000  0.400000  0.133333     24.000000
 -0.333333  0.400000  0.133333     48.000000
 -0.266667  0.400000  0.133333     24.000000
 -0.466667  0.466667  0.133333     24.000000
 -0.400000  0.466667  0.133333     48.000000
 -0.333333  0.466667  0.133333     48.000000
 -0.466667 -0.466667  0.133333     24.000000
 -0.400000 -0.466667  0.133333     48.000000
 -0.333333 -0.466667  0.133333     24.000000
 -0.400000 -0.400000  0.133333     24.000000
  0.200000  0.200000  0.200000      8.000000
  0.266667  0.200000  0.200000     24.000000
 -0.200000  0.200000  0.200000      6.000000
  0.266667  0.266667  0.200000      8.000000
 -0.266667  0.266667  0.200000     24.000000
 -0.333333  0.333333  0.200000     24.000000
 -0.266667  0.333333  0.200000     24.000000
 -0.400000  0.400000  0.200000     24.000000
 -0.333333  0.400000  0.200000     48.000000
 -0.466667  0.466667  0.200000     24.000000
 -0.400000  0.466667  0.200000     48.000000
 -0.333333  0.466667  0.200000     24.000000
 -0.466667 -0.466667  0.200000     24.000000
 -0.400000 -0.466667  0.200000     48.000000
 -0.400000 -0.400000  0.200000      8.000000
 -0.266667  0.266667  0.266667      6.000000
 -0.333333  0.333333  0.266667     24.000000
 -0.400000  0.400000  0.266667     24.000000
 -0.333333  0.400000  0.266667     24.000000
 -0.466667  0.466667  0.266667     24.000000
 -0.400000  0.466667  0.266667     48.000000
 -0.466667 -0.466667  0.266667     24.000000
 -0.400000 -0.466667  0.266667     24.000000
 -0.333333  0.333333  0.333333      6.000000
 -0.400000  0.400000  0.333333     24.000000
 -0.466667  0.466667  0.333333     24.000000
 -0.400000  0.466667  0.333333     24.000000
 -0.466667 -0.466667  0.333333     24.000000
 -0.400000  0.400000  0.400000      6.000000
 -0.466667  0.466667  0.400000     24.000000
 -0.466667 -0.466667  0.400000      8.000000
 -0.466667  0.466667  0.466667      6.000000
 
 Following cartesian coordinates:
            Coordinates               Weight
  0.000000  0.000000  0.000000      1.000000
  0.022027  0.022027  0.000000     12.000000
  0.044053  0.044053  0.000000     12.000000
  0.066080  0.066080  0.000000     12.000000
  0.088106  0.088106  0.000000     12.000000
  0.110133  0.110133  0.000000     12.000000
  0.132159  0.132159  0.000000     12.000000
  0.154186  0.154186  0.000000     12.000000
  0.044053  0.022027 -0.022027     24.000000
  0.066080  0.044053 -0.022027     48.000000
  0.088106  0.066080 -0.022027     48.000000
  0.110133  0.088106 -0.022027     48.000000
  0.132159  0.110133 -0.022027     48.000000
  0.154186  0.132159 -0.022027     48.000000
  0.176212  0.154186 -0.022027     24.000000
  0.088106  0.044053 -0.044053     24.000000
  0.110133  0.066080 -0.044053     48.000000
  0.132159  0.088106 -0.044053     48.000000
  0.154186  0.110133 -0.044053     48.000000
  0.176212  0.132159 -0.044053     48.000000
  0.132159  0.066080 -0.066080     24.000000
  0.154186  0.088106 -0.066080     48.000000
  0.176212  0.110133 -0.066080     48.000000
  0.198239  0.132159 -0.066080     24.000000
  0.176212  0.088106 -0.088106     24.000000
  0.198239  0.110133 -0.088106     48.000000
  0.220265  0.110133 -0.110133      8.000000
  0.044053  0.044053 -0.044053      8.000000
  0.066080  0.066080 -0.044053     24.000000
  0.088106  0.088106 -0.044053     24.000000
  0.110133  0.110133 -0.044053     24.000000
  0.132159  0.132159 -0.044053     24.000000
  0.154186  0.154186 -0.044053     24.000000
  0.000000  0.000000 -0.044053      6.000000
  0.088106  0.066080 -0.066080     24.000000
  0.110133  0.088106 -0.066080     48.000000
  0.132159  0.110133 -0.066080     48.000000
  0.154186  0.132159 -0.066080     48.000000
  0.176212  0.154186 -0.066080     24.000000
  0.000000 -0.022027 -0.066080     24.000000
  0.132159  0.088106 -0.088106     24.000000
  0.154186  0.110133 -0.088106     48.000000
  0.176212  0.132159 -0.088106     48.000000
  0.000000 -0.044053 -0.088106     24.000000
  0.022027 -0.022027 -0.088106     24.000000
  0.176212  0.110133 -0.110133     24.000000
  0.198239  0.132159 -0.110133     24.000000
  0.000000 -0.066080 -0.110133     24.000000
  0.022027 -0.044053 -0.110133     48.000000
  0.000000 -0.088106 -0.132159     24.000000
  0.022027 -0.066080 -0.132159     48.000000
  0.044053 -0.044053 -0.132159     24.000000
  0.000000 -0.110133 -0.154186     24.000000
  0.022027 -0.088106 -0.154186     48.000000
  0.044053 -0.066080 -0.154186     48.000000
  0.000000 -0.132159 -0.176212     24.000000
  0.022027 -0.110133 -0.176212     48.000000
  0.044053 -0.088106 -0.176212     48.000000
  0.066080 -0.066080 -0.176212     24.000000
 -0.308372 -0.132159  0.132159     24.000000
 -0.286345 -0.110133  0.132159     48.000000
 -0.264319 -0.088106  0.132159     48.000000
 -0.264319 -0.110133  0.110133     24.000000
 -0.242292 -0.088106  0.110133     24.000000
  0.088106  0.088106 -0.088106      8.000000
  0.110133  0.110133 -0.088106     24.000000
  0.132159  0.132159 -0.088106     24.000000
  0.154186  0.154186 -0.088106     24.000000
  0.000000  0.000000 -0.088106      6.000000
  0.132159  0.110133 -0.110133     24.000000
  0.154186  0.132159 -0.110133     48.000000
  0.176212  0.154186 -0.110133     24.000000
  0.000000 -0.022027 -0.110133     24.000000
  0.176212  0.132159 -0.132159     24.000000
  0.000000 -0.044053 -0.132159     24.000000
  0.022027 -0.022027 -0.132159     24.000000
  0.000000 -0.066080 -0.154186     24.000000
  0.022027 -0.044053 -0.154186     48.000000
  0.000000 -0.088106 -0.176212     24.000000
  0.022027 -0.066080 -0.176212     48.000000
  0.044053 -0.044053 -0.176212     24.000000
  0.000000 -0.110133 -0.198239     24.000000
  0.022027 -0.088106 -0.198239     48.000000
  0.044053 -0.066080 -0.198239     48.000000
 -0.308372 -0.110133  0.110133     24.000000
 -0.286345 -0.088106  0.110133     48.000000
 -0.264319 -0.066080  0.110133     24.000000
 -0.264319 -0.088106  0.088106     24.000000
  0.132159  0.132159 -0.132159      8.000000
  0.154186  0.154186 -0.132159     24.000000
  0.000000  0.000000 -0.132159      6.000000
  0.176212  0.154186 -0.154186      8.000000
  0.000000 -0.022027 -0.154186     24.000000
  0.000000 -0.044053 -0.176212     24.000000
  0.022027 -0.022027 -0.176212     24.000000
  0.000000 -0.066080 -0.198239     24.000000
  0.022027 -0.044053 -0.198239     48.000000
  0.000000 -0.088106 -0.220265     24.000000
  0.022027 -0.066080 -0.220265     48.000000
  0.044053 -0.044053 -0.220265     24.000000
 -0.308372 -0.088106  0.088106     24.000000
 -0.286345 -0.066080  0.088106     48.000000
 -0.264319 -0.066080  0.066080      8.000000
  0.000000  0.000000 -0.176212      6.000000
  0.000000 -0.022027 -0.198239     24.000000
  0.000000 -0.044053 -0.220265     24.000000
  0.022027 -0.022027 -0.220265     24.000000
  0.000000 -0.066080 -0.242292     24.000000
  0.022027 -0.044053 -0.242292     48.000000
 -0.308372 -0.066080  0.066080     24.000000
 -0.286345 -0.044053  0.066080     24.000000
  0.000000  0.000000 -0.220265      6.000000
  0.000000 -0.022027 -0.242292     24.000000
  0.000000 -0.044053 -0.264319     24.000000
  0.022027 -0.022027 -0.264319     24.000000
 -0.308372 -0.044053  0.044053     24.000000
  0.000000  0.000000 -0.264319      6.000000
  0.000000 -0.022027 -0.286345     24.000000
 -0.308372 -0.022027  0.022027      8.000000
  0.000000  0.000000 -0.308372      6.000000
 


--------------------------------------------------------------------------------------------------------




 Dimension of arrays:
   k-points           NKPTS =    120   k-points in BZ     NKDIM =    120   number of bands    NBANDS=      8
   number of dos      NEDOS =    301   number of ions     NIONS =      1
   non local maximal  LDIM  =      4   non local SUM 2l+1 LMDIM =      8
   total plane-waves  NPLWV =   4096
   max r-space proj   IRMAX =      1   max aug-charges    IRDMAX=  79220
   dimension x,y,z NGX =    16 NGY =   16 NGZ =   16
   dimension x,y,z NGXF=    32 NGYF=   32 NGZF=   32
   support grid    NGXF=    64 NGYF=   64 NGZF=   64
   ions per type =               1
   NGX,Y,Z   is equivalent  to a cutoff of  10.15, 10.15, 10.15 a.u.
   NGXF,Y,Z  is equivalent  to a cutoff of  20.30, 20.30, 20.30 a.u.

 SYSTEM =  unknown system                          
 POSCAR =  Si1                                     

 Startparameter for this run:
   NWRITE =      2    write-flag & timer
   PREC   = accura    normal or accurate (medium, high low for compatibility)
   ISTART =      0    job   : 0-new  1-cont  2-samecut
   ICHARG =      2    charge: 1-file 2-atom 10-const
   ISPIN  =      1    spin polarized calculation?
   LNONCOLLINEAR =      F non collinear calculations
   LSORBIT =      F    spin-orbit coupling
   INIWAV =      1    electr: 0-lowe 1-rand  2-diag
   LASPH  =      T    aspherical Exc in radial PAW
   METAGGA=      F    non-selfconsistent MetaGGA calc.

 Electronic Relaxation 1
   ENCUT  =  300.0 eV  22.05 Ry    4.70 a.u.   3.70  3.70  3.70*2*pi/ulx,y,z
   ENINI  =  300.0     initial cutoff
   ENAUG  =  322.1 eV  augmentation charge cutoff
   NELM   =     90;   NELMIN=  6; NELMDL= -5     # of ELM steps 
   EDIFF  = 0.1E-05   stopping-criterion for ELM
   LREAL  =      F    real-space projection
   NLSPLINE    = F    spline interpolate recip. space projectors
   LCOMPAT=      F    compatible to vasp.4.4
   GGA_COMPAT  = T    GGA compatible to vasp.4.4-vasp.4.6
   LMAXPAW     = -100 max onsite density
   LMAXMIX     =    2 max onsite mixed and CHGCAR
   VOSKOWN=      0    Vosko Wilk Nusair interpolation
   ROPT   =    0.00000
 Ionic relaxation
   EDIFFG = -.2E-02   stopping-criterion for IOM
   NSW    =    100    number of steps for IOM
   NBLOCK =      1;   KBLOCK =    100    inner block; outer block 
   IBRION =      2    ionic relax: 0-MD 1-quasi-New 2-CG
   NFREE  =      1    steps in history (QN), initial steepest desc. (CG)
   ISIF   =      3    stress and relaxation
   IWAVPR =     11    prediction:  0-non 1-charg 2-wave 3-comb
   ISYM   =      2    0-nonsym 1-usesym 2-fastsym
   LCORR  =      T    Harris-Foulkes like correction to forces

   POTIM  = 0.5000    time-step for ionic-motion
   TEIN   =    0.0    initial temperature
   TEBEG  =    0.0;   TEEND  =   0.0 temperature during run
   SMASS  =  -3.00    Nose mass-parameter (am)
   estimated Nose-frequenzy (Omega)   =  0.10E-29 period in steps = 0.13E+47 mass=  -0.157E-27a.u.
   SCALEE = 1.0000    scale energy and forces
   NPACO  =    256;   APACO  = 16.0  distance and # of slots for P.C.
   PSTRESS=    0.0 pullay stress

  Mass of Ions in am
   POMASS =  28.09
  Ionic Valenz
   ZVAL   =   4.00
  Atomic Wigner-Seitz radii
   RWIGS  =  -1.00
  virtual crystal weights 
   VCA    =   1.00
   NELECT =       4.0000    total number of electrons
   NUPDOWN=      -1.0000    fix difference up-down

 DOS related values:
   EMIN   =  10.00;   EMAX   =-10.00  energy-range for DOS
   EFERMI =   0.00
   ISMEAR =     0;   SIGMA  =   0.05  broadening in eV -4-tet -1-fermi 0-gaus

 Electronic relaxation 2 (details)
   IALGO  =     38    algorithm
   LDIAG  =      T    sub-space diagonalisation (order eigenvalues)
   LSUBROT=      F    optimize rotation matrix (better conditioning)
   TURBO    =      0    0=normal 1=particle mesh
   IRESTART =      0    0=no restart 2=restart with 2 vectors
   NREBOOT  =      0    no. of reboots
   NMIN     =      0    reboot dimension
   EREF     =   0.00    reference energy to select bands
   IMIX   =      4    mixing-type and parameters
     AMIX     =   0.40;   BMIX     =  1.00
     AMIX_MAG =   1.60;   BMIX_MAG =  1.00
     AMIN     =   0.10
     WC   =   100.;   INIMIX=   1;  MIXPRE=   1;  MAXMIX= -45

 Intra band minimization:
   WEIMIN = 0.0010     energy-eigenvalue tresh-hold
   EBREAK =  0.31E-07  absolut break condition
   DEPER  =   0.30     relativ break condition  

   TIME   =   0.40     timestep for ELM

  volume/ion in A,a.u.               =      13.86        93.55
  Fermi-wavevector in a.u.,A,eV,Ry     =   1.081789  2.044284 15.922447  1.170267
  Thomas-Fermi vector in A             =   2.217814
 
 Write flags
   LWAVE        =      F    write WAVECAR
   LDOWNSAMPLE  =      F    k-point downsampling of WAVECAR
   LCHARG       =      F    write CHGCAR
   LVTOT        =      F    write LOCPOT, total local potential
   LVHAR        =      F    write LOCPOT, Hartree potential only
   LELF         =      F    write electronic localiz. function (ELF)
   LORBIT       =      0    0 simple, 1 ext, 2 COOP (PROOUT), +10 PAW based schemes


 Dipole corrections
   LMONO  =      F    monopole corrections only (constant potential shift)
   LDIPOL =      F    correct potential (dipole corrections)
   IDIPOL =      0    1-x, 2-y, 3-z, 4-all directions 
   EPSILON=  1.0000000 bulk dielectric constant

 Exchange correlation treatment:
   GGA     =    --    GGA type
   LEXCH   =     8    internal setting for exchange type
   VOSKOWN=      0    Vosko Wilk Nusair interpolation
   LHFCALC =     F    Hartree Fock is set to
   LHFONE  =     F    Hartree Fock one center treatment
   AEXX    =    0.0000 exact exchange contribution

 Linear response parameters
   LEPSILON=     F    determine dielectric tensor
   LRPA    =     F    only Hartree local field effects (RPA)
   LNABLA  =     F    use nabla operator in PAW spheres
   LVEL    =     F    velocity operator in full k-point grid
   LINTERFAST=   F  fast interpolation
   KINTER  =     0    interpolate to denser k-point grid
   CSHIFT  =0.1000    complex shift for real part using Kramers Kronig
   OMEGAMAX=  -1.0    maximum frequency
   DEG_THRESHOLD= 0.2000000E-02 threshold for treating states as degnerate
   RTIME   =   -0.100 relaxation time in fs
  (WPLASMAI=    0.000 imaginary part of plasma frequency in eV, 0.658/RTIME)
   DFIELD  = 0.0000000 0.0000000 0.0000000 field for delta impulse in time
 
 Orbital magnetization related:
   ORBITALMAG=     F  switch on orbital magnetization
   LCHIMAG   =     F  perturbation theory with respect to B field
   DQ        =  0.001000  dq finite difference perturbation B field
   LLRAUG    =     F  two centre corrections for induced B field



--------------------------------------------------------------------------------------------------------


 conjugate gradient relaxation of ions
 charge density and potential will be updated during run
 non-spin polarized calculation
 Variant of blocked Davidson
 Davidson routine will perform the subspace rotation
 perform sub-space diagonalisation
    after iterative eigenvector-optimisation
 modified Broyden-mixing scheme, WC =      100.0
 initial mixing is a Kerker type mixing with AMIX =  0.4000 and BMIX =      1.0000
 Hartree-type preconditioning will be used
 using additional bands            6
 reciprocal scheme for non local part
 use partial core corrections
 calculate Harris-corrections to forces 
   (improved forces if not selfconsistent)
 use gradient corrections 
 use of overlap-Matrix (Vanderbilt PP)
 Gauss-broadening in eV      SIGMA  =   0.05


--------------------------------------------------------------------------------------------------------


  energy-cutoff  :      300.00
  volume of cell :       13.86
      direct lattice vectors                 reciprocal lattice vectors
     1.513325630  1.513325630  1.513325630     0.330398158  0.330398158  0.000000000
     1.513325630 -1.513325630 -1.513325630     0.330398158  0.000000000 -0.330398158
    -1.513325630  1.513325630 -1.513325630     0.000000000  0.330398158 -0.330398158

  length of vectors
     2.621156880  2.621156880  2.621156880     0.467253555  0.467253555  0.467253555


 
 k-points in units of 2pi/SCALE and weight: Automatic                               
   0.00000000  0.00000000  0.00000000       0.000
   0.02202654  0.02202654  0.00000000       0.004
   0.04405309  0.04405309  0.00000000       0.004
   0.06607963  0.06607963  0.00000000       0.004
   0.08810618  0.08810618  0.00000000       0.004
   0.11013272  0.11013272  0.00000000       0.004
   0.13215926  0.13215926  0.00000000       0.004
   0.15418581  0.15418581  0.00000000       0.004
   0.04405309  0.02202654 -0.02202654       0.007
   0.06607963  0.04405309 -0.02202654       0.014
   0.08810618  0.06607963 -0.02202654       0.014
   0.11013272  0.08810618 -0.02202654       0.014
   0.13215926  0.11013272 -0.02202654       0.014
   0.15418581  0.13215926 -0.02202654       0.014
   0.17621235  0.15418581 -0.02202654       0.007
   0.08810618  0.04405309 -0.04405309       0.007
   0.11013272  0.06607963 -0.04405309       0.014
   0.13215926  0.08810618 -0.04405309       0.014
   0.15418581  0.11013272 -0.04405309       0.014
   0.17621235  0.13215926 -0.04405309       0.014
   0.13215926  0.06607963 -0.06607963       0.007
   0.15418581  0.08810618 -0.06607963       0.014
   0.17621235  0.11013272 -0.06607963       0.014
   0.19823889  0.13215926 -0.06607963       0.007
   0.17621235  0.08810618 -0.08810618       0.007
   0.19823889  0.11013272 -0.08810618       0.014
   0.22026544  0.11013272 -0.11013272       0.002
   0.04405309  0.04405309 -0.04405309       0.002
   0.06607963  0.06607963 -0.04405309       0.007
   0.08810618  0.08810618 -0.04405309       0.007
   0.11013272  0.11013272 -0.04405309       0.007
   0.13215926  0.13215926 -0.04405309       0.007
   0.15418581  0.15418581 -0.04405309       0.007
   0.00000000  0.00000000 -0.04405309       0.002
   0.08810618  0.06607963 -0.06607963       0.007
   0.11013272  0.08810618 -0.06607963       0.014
   0.13215926  0.11013272 -0.06607963       0.014
   0.15418581  0.13215926 -0.06607963       0.014
   0.17621235  0.15418581 -0.06607963       0.007
   0.00000000 -0.02202654 -0.06607963       0.007
   0.13215926  0.08810618 -0.08810618       0.007
   0.15418581  0.11013272 -0.08810618       0.014
   0.17621235  0.13215926 -0.08810618       0.014
   0.00000000 -0.04405309 -0.08810618       0.007
   0.02202654 -0.02202654 -0.08810618       0.007
   0.17621235  0.11013272 -0.11013272       0.007
   0.19823889  0.13215926 -0.11013272       0.007
   0.00000000 -0.06607963 -0.11013272       0.007
   0.02202654 -0.04405309 -0.11013272       0.014
   0.00000000 -0.08810618 -0.13215926       0.007
   0.02202654 -0.06607963 -0.13215926       0.014
   0.04405309 -0.04405309 -0.13215926       0.007
   0.00000000 -0.11013272 -0.15418581       0.007
   0.02202654 -0.08810618 -0.15418581       0.014
   0.04405309 -0.06607963 -0.15418581       0.014
   0.00000000 -0.13215926 -0.17621235       0.007
   0.02202654 -0.11013272 -0.17621235       0.014
   0.04405309 -0.08810618 -0.17621235       0.014
   0.06607963 -0.06607963 -0.17621235       0.007
  -0.30837161 -0.13215926  0.13215926       0.007
  -0.28634507 -0.11013272  0.13215926       0.014
  -0.26431853 -0.08810618  0.13215926       0.014
  -0.26431853 -0.11013272  0.11013272       0.007
  -0.24229198 -0.08810618  0.11013272       0.007
   0.08810618  0.08810618 -0.08810618       0.002
   0.11013272  0.11013272 -0.08810618       0.007
   0.13215926  0.13215926 -0.08810618       0.007
   0.15418581  0.15418581 -0.08810618       0.007
   0.00000000  0.00000000 -0.08810618       0.002
   0.13215926  0.11013272 -0.11013272       0.007
   0.15418581  0.13215926 -0.11013272       0.014
   0.17621235  0.15418581 -0.11013272       0.007
   0.00000000 -0.02202654 -0.11013272       0.007
   0.17621235  0.13215926 -0.13215926       0.007
   0.00000000 -0.04405309 -0.13215926       0.007
   0.02202654 -0.02202654 -0.13215926       0.007
   0.00000000 -0.06607963 -0.15418581       0.007
   0.02202654 -0.04405309 -0.15418581       0.014
   0.00000000 -0.08810618 -0.17621235       0.007
   0.02202654 -0.06607963 -0.17621235       0.014
   0.04405309 -0.04405309 -0.17621235       0.007
   0.00000000 -0.11013272 -0.19823889       0.007
   0.02202654 -0.08810618 -0.19823889       0.014
   0.04405309 -0.06607963 -0.19823889       0.014
  -0.30837161 -0.11013272  0.11013272       0.007
  -0.28634507 -0.08810618  0.11013272       0.014
  -0.26431853 -0.06607963  0.11013272       0.007
  -0.26431853 -0.08810618  0.08810618       0.007
   0.13215926  0.13215926 -0.13215926       0.002
   0.15418581  0.15418581 -0.13215926       0.007
   0.00000000  0.00000000 -0.13215926       0.002
   0.17621235  0.15418581 -0.15418581       0.002
   0.00000000 -0.02202654 -0.15418581       0.007
   0.00000000 -0.04405309 -0.17621235       0.007
   0.02202654 -0.02202654 -0.17621235       0.007
   0.00000000 -0.06607963 -0.19823889       0.007
   0.02202654 -0.04405309 -0.19823889       0.014
   0.00000000 -0.08810618 -0.22026544       0.007
   0.02202654 -0.06607963 -0.22026544       0.014
   0.04405309 -0.04405309 -0.22026544       0.007
  -0.30837161 -0.08810618  0.08810618       0.007
  -0.28634507 -0.06607963  0.08810618       0.014
  -0.26431853 -0.06607963  0.06607963       0.002
   0.00000000  0.00000000 -0.17621235       0.002
   0.00000000 -0.02202654 -0.19823889       0.007
   0.00000000 -0.04405309 -0.22026544       0.007
   0.02202654 -0.02202654 -0.22026544       0.007
   0.00000000 -0.06607963 -0.24229198       0.007
   0.02202654 -0.04405309 -0.24229198       0.014
  -0.30837161 -0.06607963  0.06607963       0.007
  -0.28634507 -0.04405309  0.06607963       0.007
   0.00000000  0.00000000 -0.22026544       0.002
   0.00000000 -0.02202654 -0.24229198       0.007
   0.00000000 -0.04405309 -0.26431853       0.007
   0.02202654 -0.02202654 -0.26431853       0.007
  -0.30837161 -0.04405309  0.04405309       0.007
   0.00000000  0.00000000 -0.26431853       0.002
   0.00000000 -0.02202654 -0.28634507       0.007
  -0.30837161 -0.02202654  0.02202654       0.002
   0.00000000  0.00000000 -0.30837161       0.002
 
 k-points in reciprocal lattice and weights: Automatic                               
   0.00000000  0.00000000  0.00000000       0.000
   0.06666667  0.00000000  0.00000000       0.004
   0.13333333  0.00000000  0.00000000       0.004
   0.20000000  0.00000000  0.00000000       0.004
   0.26666667  0.00000000  0.00000000       0.004
   0.33333333  0.00000000  0.00000000       0.004
   0.40000000  0.00000000  0.00000000       0.004
   0.46666667  0.00000000  0.00000000       0.004
   0.06666667  0.06666667  0.00000000       0.007
   0.13333333  0.06666667 -0.00000000       0.014
   0.20000000  0.06666667 -0.00000000       0.014
   0.26666667  0.06666667  0.00000000       0.014
   0.33333333  0.06666667 -0.00000000       0.014
   0.40000000  0.06666667  0.00000000       0.014
   0.46666667  0.06666667  0.00000000       0.007
   0.13333333  0.13333333  0.00000000       0.007
   0.20000000  0.13333333  0.00000000       0.014
   0.26666667  0.13333333  0.00000000       0.014
   0.33333333  0.13333333  0.00000000       0.014
   0.40000000  0.13333333  0.00000000       0.014
   0.20000000  0.20000000  0.00000000       0.007
   0.26666667  0.20000000  0.00000000       0.014
   0.33333333  0.20000000  0.00000000       0.014
   0.40000000  0.20000000  0.00000000       0.007
   0.26666667  0.26666667  0.00000000       0.007
   0.33333333  0.26666667  0.00000000       0.014
   0.33333333  0.33333333  0.00000000       0.002
   0.06666667  0.06666667  0.06666667       0.002
   0.13333333  0.06666667  0.06666667       0.007
   0.20000000  0.06666667  0.06666667       0.007
   0.26666667  0.06666667  0.06666667       0.007
   0.33333333  0.06666667  0.06666667       0.007
   0.40000000  0.06666667  0.06666667       0.007
  -0.06666667  0.06666667  0.06666667       0.002
   0.13333333  0.13333333  0.06666667       0.007
   0.20000000  0.13333333  0.06666667       0.014
   0.26666667  0.13333333  0.06666667       0.014
   0.33333333  0.13333333  0.06666667       0.014
   0.40000000  0.13333333  0.06666667       0.007
  -0.13333333  0.13333333  0.06666667       0.007
   0.20000000  0.20000000  0.06666667       0.007
   0.26666667  0.20000000  0.06666667       0.014
   0.33333333  0.20000000  0.06666667       0.014
  -0.20000000  0.20000000  0.06666667       0.007
  -0.13333333  0.20000000  0.06666667       0.007
   0.26666667  0.26666667  0.06666667       0.007
   0.33333333  0.26666667  0.06666667       0.007
  -0.26666667  0.26666667  0.06666667       0.007
  -0.20000000  0.26666667  0.06666667       0.014
  -0.33333333  0.33333333  0.06666667       0.007
  -0.26666667  0.33333333  0.06666667       0.014
  -0.20000000  0.33333333  0.06666667       0.007
  -0.40000000  0.40000000  0.06666667       0.007
  -0.33333333  0.40000000  0.06666667       0.014
  -0.26666667  0.40000000  0.06666667       0.014
  -0.46666667  0.46666667  0.06666667       0.007
  -0.40000000  0.46666667  0.06666667       0.014
  -0.33333333  0.46666667  0.06666667       0.014
  -0.26666667  0.46666667  0.06666667       0.007
  -0.46666667 -0.46666667  0.06666667       0.007
  -0.40000000 -0.46666667  0.06666667       0.014
  -0.33333333 -0.46666667  0.06666667       0.014
  -0.40000000 -0.40000000  0.06666667       0.007
  -0.33333333 -0.40000000  0.06666667       0.007
   0.13333333  0.13333333  0.13333333       0.002
   0.20000000  0.13333333  0.13333333       0.007
   0.26666667  0.13333333  0.13333333       0.007
   0.33333333  0.13333333  0.13333333       0.007
  -0.13333333  0.13333333  0.13333333       0.002
   0.20000000  0.20000000  0.13333333       0.007
   0.26666667  0.20000000  0.13333333       0.014
   0.33333333  0.20000000  0.13333333       0.007
  -0.20000000  0.20000000  0.13333333       0.007
   0.26666667  0.26666667  0.13333333       0.007
  -0.26666667  0.26666667  0.13333333       0.007
  -0.20000000  0.26666667  0.13333333       0.007
  -0.33333333  0.33333333  0.13333333       0.007
  -0.26666667  0.33333333  0.13333333       0.014
  -0.40000000  0.40000000  0.13333333       0.007
  -0.33333333  0.40000000  0.13333333       0.014
  -0.26666667  0.40000000  0.13333333       0.007
  -0.46666667  0.46666667  0.13333333       0.007
  -0.40000000  0.46666667  0.13333333       0.014
  -0.33333333  0.46666667  0.13333333       0.014
  -0.46666667 -0.46666667  0.13333333       0.007
  -0.40000000 -0.46666667  0.13333333       0.014
  -0.33333333 -0.46666667  0.13333333       0.007
  -0.40000000 -0.40000000  0.13333333       0.007
   0.20000000  0.20000000  0.20000000       0.002
   0.26666667  0.20000000  0.20000000       0.007
  -0.20000000  0.20000000  0.20000000       0.002
   0.26666667  0.26666667  0.20000000       0.002
  -0.26666667  0.26666667  0.20000000       0.007
  -0.33333333  0.33333333  0.20000000       0.007
  -0.26666667  0.33333333  0.20000000       0.007
  -0.40000000  0.40000000  0.20000000       0.007
  -0.33333333  0.40000000  0.20000000       0.014
  -0.46666667  0.46666667  0.20000000       0.007
  -0.40000000  0.46666667  0.20000000       0.014
  -0.33333333  0.46666667  0.20000000       0.007
  -0.46666667 -0.46666667  0.20000000       0.007
  -0.40000000 -0.46666667  0.20000000       0.014
  -0.40000000 -0.40000000  0.20000000       0.002
  -0.26666667  0.26666667  0.26666667       0.002
  -0.33333333  0.33333333  0.26666667       0.007
  -0.40000000  0.40000000  0.26666667       0.007
  -0.33333333  0.40000000  0.26666667       0.007
  -0.46666667  0.46666667  0.26666667       0.007
  -0.40000000  0.46666667  0.26666667       0.014
  -0.46666667 -0.46666667  0.26666667       0.007
  -0.40000000 -0.46666667  0.26666667       0.007
  -0.33333333  0.33333333  0.33333333       0.002
  -0.40000000  0.40000000  0.33333333       0.007
  -0.46666667  0.46666667  0.33333333       0.007
  -0.40000000  0.46666667  0.33333333       0.007
  -0.46666667 -0.46666667  0.33333333       0.007
  -0.40000000  0.40000000  0.40000000       0.002
  -0.46666667  0.46666667  0.40000000       0.007
  -0.46666667 -0.46666667  0.40000000       0.002
  -0.46666667  0.46666667  0.46666667       0.002
 
 position of ions in fractional coordinates (direct lattice) 
   0.00000000  0.00000000  0.00000000
 
 position of ions in cartesian coordinates  (Angst):
   0.00000000  0.00000000  0.00000000
 


--------------------------------------------------------------------------------------------------------


 k-point   1 :   0.0000 0.0000 0.0000  plane waves:     177
 k-point   2 :   0.0667 0.0000 0.0000  plane waves:     162
 k-point   3 :   0.1333 0.0000 0.0000  plane waves:     162
 k-point   4 :   0.2000 0.0000 0.0000  plane waves:     164
 k-point   5 :   0.2667 0.0000 0.0000  plane waves:     166
 k-point   6 :   0.3333 0.0000 0.0000  plane waves:     168
 k-point   7 :   0.4000 0.0000 0.0000  plane waves:     158
 k-point   8 :   0.4667 0.0000 0.0000  plane waves:     162
 k-point   9 :   0.0667 0.0667 0.0000  plane waves:     162
 k-point  10 :   0.1333 0.0667-0.0000  plane waves:     163
 k-point  11 :   0.2000 0.0667-0.0000  plane waves:     164
 k-point  12 :   0.2667 0.0667 0.0000  plane waves:     162
 k-point  13 :   0.3333 0.0667-0.0000  plane waves:     167
 k-point  14 :   0.4000 0.0667 0.0000  plane waves:     166
 k-point  15 :   0.4667 0.0667 0.0000  plane waves:     166
 k-point  16 :   0.1333 0.1333 0.0000  plane waves:     164
 k-point  17 :   0.2000 0.1333 0.0000  plane waves:     165
 k-point  18 :   0.2667 0.1333 0.0000  plane waves:     168
 k-point  19 :   0.3333 0.1333 0.0000  plane waves:     167
 k-point  20 :   0.4000 0.1333 0.0000  plane waves:     165
 k-point  21 :   0.2000 0.2000 0.0000  plane waves:     170
 k-point  22 :   0.2667 0.2000 0.0000  plane waves:     166
 k-point  23 :   0.3333 0.2000 0.0000  plane waves:     163
 k-point  24 :   0.4000 0.2000 0.0000  plane waves:     164
 k-point  25 :   0.2667 0.2667 0.0000  plane waves:     163
 k-point  26 :   0.3333 0.2667 0.0000  plane waves:     159
 k-point  27 :   0.3333 0.3333 0.0000  plane waves:     161
 k-point  28 :   0.0667 0.0667 0.0667  plane waves:     162
 k-point  29 :   0.1333 0.0667 0.0667  plane waves:     166
 k-point  30 :   0.2000 0.0667 0.0667  plane waves:     165
 k-point  31 :   0.2667 0.0667 0.0667  plane waves:     169
 k-point  32 :   0.3333 0.0667 0.0667  plane waves:     166
 k-point  33 :   0.4000 0.0667 0.0667  plane waves:     162
 k-point  34 :  -0.0667 0.0667 0.0667  plane waves:     161
 k-point  35 :   0.1333 0.1333 0.0667  plane waves:     165
 k-point  36 :   0.2000 0.1333 0.0667  plane waves:     166
 k-point  37 :   0.2667 0.1333 0.0667  plane waves:     165
 k-point  38 :   0.3333 0.1333 0.0667  plane waves:     161
 k-point  39 :   0.4000 0.1333 0.0667  plane waves:     164
 k-point  40 :  -0.1333 0.1333 0.0667  plane waves:     162
 k-point  41 :   0.2000 0.2000 0.0667  plane waves:     164
 k-point  42 :   0.2667 0.2000 0.0667  plane waves:     163
 k-point  43 :   0.3333 0.2000 0.0667  plane waves:     162
 k-point  44 :  -0.2000 0.2000 0.0667  plane waves:     163
 k-point  45 :  -0.1333 0.2000 0.0667  plane waves:     168
 k-point  46 :   0.2667 0.2667 0.0667  plane waves:     159
 k-point  47 :   0.3333 0.2667 0.0667  plane waves:     162
 k-point  48 :  -0.2667 0.2667 0.0667  plane waves:     162
 k-point  49 :  -0.2000 0.2667 0.0667  plane waves:     165
 k-point  50 :  -0.3333 0.3333 0.0667  plane waves:     166
 k-point  51 :  -0.2667 0.3333 0.0667  plane waves:     164
 k-point  52 :  -0.2000 0.3333 0.0667  plane waves:     167
 k-point  53 :  -0.4000 0.4000 0.0667  plane waves:     166
 k-point  54 :  -0.3333 0.4000 0.0667  plane waves:     166
 k-point  55 :  -0.2667 0.4000 0.0667  plane waves:     167
 k-point  56 :  -0.4667 0.4667 0.0667  plane waves:     164
 k-point  57 :  -0.4000 0.4667 0.0667  plane waves:     165
 k-point  58 :  -0.3333 0.4667 0.0667  plane waves:     165
 k-point  59 :  -0.2667 0.4667 0.0667  plane waves:     166
 k-point  60 :  -0.4667-0.4667 0.0667  plane waves:     164
 k-point  61 :  -0.4000-0.4667 0.0667  plane waves:     164
 k-point  62 :  -0.3333-0.4667 0.0667  plane waves:     163
 k-point  63 :  -0.4000-0.4000 0.0667  plane waves:     160
 k-point  64 :  -0.3333-0.4000 0.0667  plane waves:     157
 k-point  65 :   0.1333 0.1333 0.1333  plane waves:     168
 k-point  66 :   0.2000 0.1333 0.1333  plane waves:     164
 k-point  67 :   0.2667 0.1333 0.1333  plane waves:     160
 k-point  68 :   0.3333 0.1333 0.1333  plane waves:     161
 k-point  69 :  -0.1333 0.1333 0.1333  plane waves:     165
 k-point  70 :   0.2000 0.2000 0.1333  plane waves:     158
 k-point  71 :   0.2667 0.2000 0.1333  plane waves:     162
 k-point  72 :   0.3333 0.2000 0.1333  plane waves:     164
 k-point  73 :  -0.2000 0.2000 0.1333  plane waves:     165
 k-point  74 :   0.2667 0.2667 0.1333  plane waves:     159
 k-point  75 :  -0.2667 0.2667 0.1333  plane waves:     163
 k-point  76 :  -0.2000 0.2667 0.1333  plane waves:     165
 k-point  77 :  -0.3333 0.3333 0.1333  plane waves:     165
 k-point  78 :  -0.2667 0.3333 0.1333  plane waves:     165
 k-point  79 :  -0.4000 0.4000 0.1333  plane waves:     168
 k-point  80 :  -0.3333 0.4000 0.1333  plane waves:     166
 k-point  81 :  -0.2667 0.4000 0.1333  plane waves:     163
 k-point  82 :  -0.4667 0.4667 0.1333  plane waves:     166
 k-point  83 :  -0.4000 0.4667 0.1333  plane waves:     162
 k-point  84 :  -0.3333 0.4667 0.1333  plane waves:     163
 k-point  85 :  -0.4667-0.4667 0.1333  plane waves:     164
 k-point  86 :  -0.4000-0.4667 0.1333  plane waves:     162
 k-point  87 :  -0.3333-0.4667 0.1333  plane waves:     163
 k-point  88 :  -0.4000-0.4000 0.1333  plane waves:     159
 k-point  89 :   0.2000 0.2000 0.2000  plane waves:     159
 k-point  90 :   0.2667 0.2000 0.2000  plane waves:     159
 k-point  91 :  -0.2000 0.2000 0.2000  plane waves:     164
 k-point  92 :   0.2667 0.2667 0.2000  plane waves:     152
 k-point  93 :  -0.2667 0.2667 0.2000  plane waves:     163
 k-point  94 :  -0.3333 0.3333 0.2000  plane waves:     163
 k-point  95 :  -0.2667 0.3333 0.2000  plane waves:     163
 k-point  96 :  -0.4000 0.4000 0.2000  plane waves:     165
 k-point  97 :  -0.3333 0.4000 0.2000  plane waves:     163
 k-point  98 :  -0.4667 0.4667 0.2000  plane waves:     166
 k-point  99 :  -0.4000 0.4667 0.2000  plane waves:     163
 k-point 100 :  -0.3333 0.4667 0.2000  plane waves:     163
 k-point 101 :  -0.4667-0.4667 0.2000  plane waves:     164
 k-point 102 :  -0.4000-0.4667 0.2000  plane waves:     160
 k-point 103 :  -0.4000-0.4000 0.2000  plane waves:     149
 k-point 104 :  -0.2667 0.2667 0.2667  plane waves:     164
 k-point 105 :  -0.3333 0.3333 0.2667  plane waves:     165
 k-point 106 :  -0.4000 0.4000 0.2667  plane waves:     165
 k-point 107 :  -0.3333 0.4000 0.2667  plane waves:     159
 k-point 108 :  -0.4667 0.4667 0.2667  plane waves:     161
 k-point 109 :  -0.4000 0.4667 0.2667  plane waves:     160
 k-point 110 :  -0.4667-0.4667 0.2667  plane waves:     158
 k-point 111 :  -0.4000-0.4667 0.2667  plane waves:     157
 k-point 112 :  -0.3333 0.3333 0.3333  plane waves:     156
 k-point 113 :  -0.4000 0.4000 0.3333  plane waves:     162
 k-point 114 :  -0.4667 0.4667 0.3333  plane waves:     161
 k-point 115 :  -0.4000 0.4667 0.3333  plane waves:     164
 k-point 116 :  -0.4667-0.4667 0.3333  plane waves:     165
 k-point 117 :  -0.4000 0.4000 0.4000  plane waves:     168
 k-point 118 :  -0.4667 0.4667 0.4000  plane waves:     168
 k-point 119 :  -0.4667-0.4667 0.4000  plane waves:     167
 k-point 120 :  -0.4667 0.4667 0.4667  plane waves:     164

 maximum and minimum number of plane-waves per node :       177      149

 maximum number of plane-waves:       177
 maximum index in each direction: 
   IXMAX=    4   IYMAX=    4   IZMAX=    3
   IXMIN=   -4   IYMIN=   -4   IZMIN=   -4


 serial   3D FFT for wavefunctions
 parallel 3D FFT for charge:
    minimum data exchange during FFTs selected (reduces bandwidth)


 total amount of memory used by VASP MPI-rank0    33932. kBytes
=======================================================================

   base      :      30000. kBytes
   nonl-proj :       1385. kBytes
   fftplans  :       1246. kBytes
   grid      :        577. kBytes
   one-center:          3. kBytes
   wavefun   :        721. kBytes
 
     INWAV:  cpu time    0.0000: real time    0.0007
 Broyden mixing: mesh for mixing (old mesh)
   NGX =  7   NGY =  7   NGZ =  7
  (NGX  = 32   NGY  = 32   NGZ  = 32)
  gives a total of    343 points

 initial charge density was supplied:
 charge density of overlapping atoms calculated
 number of electron       4.0000000 magnetization 
 keeping initial charge density in first step


--------------------------------------------------------------------------------------------------------


 Maximum index for augmentation-charges        19203 (set IRDMAX)


--------------------------------------------------------------------------------------------------------


 First call to EWALD:  gamma=   0.738
 Maximum number of real-space cells 3x 3x 3
 Maximum number of reciprocal cells 3x 3x 3

    FEWALD:  cpu time    0.0030: real time    0.0035


--------------------------------------- Iteration      1(   1)  ---------------------------------------


    POTLOK:  cpu time    0.0090: real time    0.0132
    SETDIJ:  cpu time    0.1640: real time    0.1636
     EDDAV:  cpu time    0.3659: real time    0.3667
       DOS:  cpu time    0.0020: real time    0.0022
    --------------------------------------------
      LOOP:  cpu time    0.5409: real time    0.5460

 eigenvalue-minimisations  :  2248
 total energy-change (2. order) :-0.3863500E+01  (-0.1334133E+03)
 number of electron       4.0000000 magnetization 
 augmentation part        4.0000000 magnetization 

 Free energy of the ion-electron system (eV)
  ---------------------------------------------------
  alpha Z        PSCENC =         2.42827211
  Ewald energy   TEWEN  =      -138.51397499
  -Hartree energ DENC   =        -0.48179554
  -exchange      EXHF   =         0.00000000
  -V(xc)+E(xc)   XCENC  =        -8.69332224
  PAW double counting   =        88.12379961      -70.53051779
  entropy T*S    EENTRO =        -0.00019952
  eigenvalues    EBANDS =        20.73939575
  atomic energy  EATOM  =       103.06484294
  Solvation  Ediel_sol  =         0.00000000
  ---------------------------------------------------
  free energy    TOTEN  =        -3.86349967 eV

  energy without entropy =       -3.86330015  energy(sigma->0) =       -3.86339991


--------------------------------------------------------------------------------------------------------




--------------------------------------- Iteration      1(   2)  ---------------------------------------


     EDDAV:  cpu time    0.4839: real time    0.4986
       DOS:  cpu time    0.0020: real time    0.0021
    --------------------------------------------
      LOOP:  cpu time    0.4869: real time    0.5007

 eigenvalue-minimisations  :  2896
 total energy-change (2. order) :-0.1039878E+01  (-0.9611464E+00)
 number of electron       4.0000000 magnetization 
 augmentation part        4.0000000 magnetization 

 Free energy of the ion-electron system (eV)
  ---------------------------------------------------
  alpha Z        PSCENC =         2.42827211
  Ewald energy   TEWEN  =      -138.51397499
  -Hartree energ DENC   =        -0.48179554
  -exchange      EXHF   =         0.00000000
  -V(xc)+E(xc)   XCENC  =        -8.69332224
  PAW double counting   =        88.12379961      -70.53051779
  entropy T*S    EENTRO =        -0.00057169
  eigenvalues    EBANDS =        19.69989034
  atomic energy  EATOM  =       103.06484294
  Solvation  Ediel_sol  =         0.00000000
  ---------------------------------------------------
  free energy    TOTEN  =        -4.90337725 eV

  energy without entropy =       -4.90280556  energy(sigma->0) =       -4.90309140


--------------------------------------------------------------------------------------------------------




--------------------------------------- Iteration      1(   3)  ---------------------------------------


     EDDAV:  cpu time    0.3429: real time    0.3506
       DOS:  cpu time    0.0020: real time    0.0020
    --------------------------------------------
      LOOP:  cpu time    0.3439: real time    0.3526

 eigenvalue-minimisations  :  2072
 total energy-change (2. order) :-0.3218637E-02  (-0.3213734E-02)
 number of electron       4.0000000 magnetization 
 augmentation part        4.0000000 magnetization 

 Free energy of the ion-electron system (eV)
  ---------------------------------------------------
  alpha Z        PSCENC =         2.42827211
  Ewald energy   TEWEN  =      -138.51397499
  -Hartree energ DENC   =        -0.48179554
  -exchange      EXHF   =         0.00000000
  -V(xc)+E(xc)   XCENC  =        -8.69332224
  PAW double counting   =        88.12379961      -70.53051779
  entropy T*S    EENTRO =        -0.00058892
  eigenvalues    EBANDS =        19.69668894
  atomic energy  EATOM  =       103.06484294
  Solvation  Ediel_sol  =         0.00000000
  ---------------------------------------------------
  free energy    TOTEN  =        -4.90659589 eV

  energy without entropy =       -4.90600696  energy(sigma->0) =       -4.90630142


--------------------------------------------------------------------------------------------------------




--------------------------------------- Iteration      1(   4)  ---------------------------------------


     EDDAV:  cpu time    0.5489: real time    0.5568
       DOS:  cpu time    0.0020: real time    0.0020
    --------------------------------------------
      LOOP:  cpu time    0.5509: real time    0.5588

 eigenvalue-minimisations  :  3160
 total energy-change (2. order) :-0.1698007E-05  (-0.1699315E-05)
 number of electron       4.0000000 magnetization 
 augmentation part        4.0000000 magnetization 

 Free energy of the ion-electron system (eV)
  ---------------------------------------------------
  alpha Z        PSCENC =         2.42827211
  Ewald energy   TEWEN  =      -138.51397499
  -Hartree energ DENC   =        -0.48179554
  -exchange      EXHF   =         0.00000000
  -V(xc)+E(xc)   XCENC  =        -8.69332224
  PAW double counting   =        88.12379961      -70.53051779
  entropy T*S    EENTRO =        -0.00058893
  eigenvalues    EBANDS =        19.69668725
  atomic energy  EATOM  =       103.06484294
  Solvation  Ediel_sol  =         0.00000000
  ---------------------------------------------------
  free energy    TOTEN  =        -4.90659758 eV

  energy without entropy =       -4.90600866  energy(sigma->0) =       -4.90630312


--------------------------------------------------------------------------------------------------------




--------------------------------------- Iteration      1(   5)  ---------------------------------------


     EDDAV:  cpu time    0.3479: real time    0.3581
       DOS:  cpu time    0.0010: real time    0.0019
    CHARGE:  cpu time    0.0180: real time    0.0178
    MIXING:  cpu time    0.0010: real time    0.0008
    --------------------------------------------
      LOOP:  cpu time    0.3679: real time    0.3787

 eigenvalue-minimisations  :  2120
 total energy-change (2. order) :-0.1445926E-08  (-0.8382328E-10)
 number of electron       4.0000000 magnetization 
 augmentation part       -0.2398386 magnetization 

 Broyden mixing:
  rms(total) = 0.29678E+00    rms(broyden)= 0.29678E+00
  rms(prec ) = 0.42185E+00
  weight for this iteration     100.00

 Free energy of the ion-electron system (eV)
  ---------------------------------------------------
  alpha Z        PSCENC =         2.42827211
  Ewald energy   TEWEN  =      -138.51397499
  -Hartree energ DENC   =        -0.48179554
  -exchange      EXHF   =         0.00000000
  -V(xc)+E(xc)   XCENC  =        -8.69332224
  PAW double counting   =        88.12379961      -70.53051779
  entropy T*S    EENTRO =        -0.00058893
  eigenvalues    EBANDS =        19.69668725
  atomic energy  EATOM  =       103.06484294
  Solvation  Ediel_sol  =         0.00000000
  ---------------------------------------------------
  free energy    TOTEN  =        -4.90659758 eV

  energy without entropy =       -4.90600866  energy(sigma->0) =       -4.90630312


--------------------------------------------------------------------------------------------------------




--------------------------------------- Iteration      1(   6)  ---------------------------------------


    POTLOK:  cpu time    0.0100: real time    0.0198
    SETDIJ:  cpu time    0.1630: real time    0.1626
     EDDAV:  cpu time    0.3240: real time    0.3256
       DOS:  cpu time    0.0020: real time    0.0020
    CHARGE:  cpu time    0.0170: real time    0.0165
    MIXING:  cpu time    0.0010: real time    0.0008
    --------------------------------------------
      LOOP:  cpu time    0.5169: real time    0.5273

 eigenvalue-minimisations  :  2008
 total energy-change (2. order) : 0.1166598E-01  (-0.3648879E-03)
 number of electron       4.0000000 magnetization 
 augmentation part       -0.2417919 magnetization 

 Broyden mixing:
  rms(total) = 0.16505E+00    rms(broyden)= 0.16505E+00
  rms(prec ) = 0.24391E+00
  weight for this iteration     100.00

 eigenvalues of (default mixing * dielectric matrix)
  average eigenvalue GAMMA=   2.2427
  2.2427

 Free energy of the ion-electron system (eV)
  ---------------------------------------------------
  alpha Z        PSCENC =         2.42827211
  Ewald energy   TEWEN  =      -138.51397499
  -Hartree energ DENC   =        -0.41836631
  -exchange      EXHF   =         0.00000000
  -V(xc)+E(xc)   XCENC  =        -8.66752406
  PAW double counting   =       181.74567136     -164.15956098
  entropy T*S    EENTRO =        -0.00060963
  eigenvalues    EBANDS =        19.62631797
  atomic energy  EATOM  =       103.06484294
  Solvation  Ediel_sol  =         0.00000000
  ---------------------------------------------------
  free energy    TOTEN  =        -4.89493161 eV

  energy without entropy =       -4.89432197  energy(sigma->0) =       -4.89462679


--------------------------------------------------------------------------------------------------------




--------------------------------------- Iteration      1(   7)  ---------------------------------------


    POTLOK:  cpu time    0.0120: real time    0.0214
    SETDIJ:  cpu time    0.1630: real time    0.1624
     EDDAV:  cpu time    0.3389: real time    0.3403
       DOS:  cpu time    0.0010: real time    0.0021
    CHARGE:  cpu time    0.0160: real time    0.0164
    MIXING:  cpu time    0.0010: real time    0.0008
    --------------------------------------------
      LOOP:  cpu time    0.5329: real time    0.5433

 eigenvalue-minimisations  :  2080
 total energy-change (2. order) : 0.6683630E-02  (-0.7274994E-03)
 number of electron       4.0000000 magnetization 
 augmentation part       -0.2446255 magnetization 

 Broyden mixing:
  rms(total) = 0.13741E-01    rms(broyden)= 0.13741E-01
  rms(prec ) = 0.18511E-01
  weight for this iteration     100.00

 eigenvalues of (default mixing * dielectric matrix)
  average eigenvalue GAMMA=   2.4730
  2.4730  2.4730

 Free energy of the ion-electron system (eV)
  ---------------------------------------------------
  alpha Z        PSCENC =         2.42827211
  Ewald energy   TEWEN  =      -138.51397499
  -Hartree energ DENC   =        -0.35420675
  -exchange      EXHF   =         0.00000000
  -V(xc)+E(xc)   XCENC  =        -8.62698678
  PAW double counting   =       367.99625621     -350.42433252
  entropy T*S    EENTRO =        -0.00063458
  eigenvalues    EBANDS =        19.54251639
  atomic energy  EATOM  =       103.06484294
  Solvation  Ediel_sol  =         0.00000000
  ---------------------------------------------------
  free energy    TOTEN  =        -4.88824798 eV

  energy without entropy =       -4.88761340  energy(sigma->0) =       -4.88793069


--------------------------------------------------------------------------------------------------------




--------------------------------------- Iteration      1(   8)  ---------------------------------------


    POTLOK:  cpu time    0.0130: real time    0.0304
    SETDIJ:  cpu time    0.1620: real time    0.1626
     EDDAV:  cpu time    0.4589: real time    0.4592
       DOS:  cpu time    0.0010: real time    0.0021
    CHARGE:  cpu time    0.0170: real time    0.0172
    MIXING:  cpu time    0.0000: real time    0.0008
    --------------------------------------------
      LOOP:  cpu time    0.6519: real time    0.6722

 eigenvalue-minimisations  :  2712
 total energy-change (2. order) : 0.2297176E-04  (-0.3029576E-05)
 number of electron       4.0000000 magnetization 
 augmentation part       -0.2447112 magnetization 

 Broyden mixing:
  rms(total) = 0.10386E-02    rms(broyden)= 0.10385E-02
  rms(prec ) = 0.18511E-02
  weight for this iteration     100.00

 eigenvalues of (default mixing * dielectric matrix)
  average eigenvalue GAMMA=   2.0152
  0.9762  2.6674  2.4021

 Free energy of the ion-electron system (eV)
  ---------------------------------------------------
  alpha Z        PSCENC =         2.42827211
  Ewald energy   TEWEN  =      -138.51397499
  -Hartree energ DENC   =        -0.35610385
  -exchange      EXHF   =         0.00000000
  -V(xc)+E(xc)   XCENC  =        -8.62212415
  PAW double counting   =       353.07589537     -335.51084504
  entropy T*S    EENTRO =        -0.00063524
  eigenvalues    EBANDS =        19.54644785
  atomic energy  EATOM  =       103.06484294
  Solvation  Ediel_sol  =         0.00000000
  ---------------------------------------------------
  free energy    TOTEN  =        -4.88822500 eV

  energy without entropy =       -4.88758977  energy(sigma->0) =       -4.88790739


--------------------------------------------------------------------------------------------------------




--------------------------------------- Iteration      1(   9)  ---------------------------------------


    POTLOK:  cpu time    0.0110: real time    0.0200
    SETDIJ:  cpu time    0.1630: real time    0.1627
     EDDAV:  cpu time    0.3539: real time    0.3544
       DOS:  cpu time    0.0020: real time    0.0021
    --------------------------------------------
      LOOP:  cpu time    0.5289: real time    0.5393

 eigenvalue-minimisations  :  2152
 total energy-change (2. order) :-0.5519408E-06  (-0.3818143E-07)
 number of electron       4.0000000 magnetization 
 augmentation part       -0.2447112 magnetization 

 Free energy of the ion-electron system (eV)
  ---------------------------------------------------
  alpha Z        PSCENC =         2.42827211
  Ewald energy   TEWEN  =      -138.51397499
  -Hartree energ DENC   =        -0.35618525
  -exchange      EXHF   =         0.00000000
  -V(xc)+E(xc)   XCENC  =        -8.62158697
  PAW double counting   =       351.98041635     -334.41585731
  entropy T*S    EENTRO =        -0.00063540
  eigenvalues    EBANDS =        19.54648296
  atomic energy  EATOM  =       103.06484294
  Solvation  Ediel_sol  =         0.00000000
  ---------------------------------------------------
  free energy    TOTEN  =        -4.88822556 eV

  energy without entropy =       -4.88759016  energy(sigma->0) =       -4.88790786


--------------------------------------------------------------------------------------------------------




 average (electrostatic) potential at core
  the test charge radii are     0.9892
  (the norm of the test charge is              1.0000)
       1 -79.2911
 
 
 
 E-fermi :  10.6401     XC(G=0): -11.3703     alpha+bet :-17.3011

 Fermi energy:        10.6400685689

 k-point     1 :       0.0000    0.0000    0.0000
  band No.  band energies     occupation 
      1      -4.0987      2.00000
      2      22.7234      0.00000
      3      22.7234      0.00000
      4      22.7234      0.00000
      5      23.4375      0.00000
      6      23.4375      0.00000
      7      23.4375      0.00000
      8      27.2464      0.00000

 k-point     2 :       0.0667    0.0000    0.0000
  band No.  band energies     occupation 
      1      -3.9574      2.00000
      2      20.8702      0.00000
      3      21.3871      0.00000
      4      22.4988      0.00000
      5      22.9767      0.00000
      6      24.4178      0.00000
      7      25.0302      0.00000
      8      26.3052      0.00000

 k-point     3 :       0.1333    0.0000    0.0000
  band No.  band energies     occupation 
      1      -3.5345      2.00000
      2      18.1087      0.00000
      3      19.9816      0.00000
      4      21.9014      0.00000
      5      21.9485      0.00000
      6      24.1605      0.00000
      7      26.2924      0.00000
      8      27.0804      0.00000

 k-point     4 :       0.2000    0.0000    0.0000
  band No.  band energies     occupation 
      1      -2.8316      2.00000
      2      15.1571      0.00000
      3      18.8036      0.00000
      4      20.8449      0.00000
      5      21.1332      0.00000
      6      23.1761      0.00000
      7      27.2297      0.00000
      8      27.4097      0.00000

 k-point     5 :       0.2667    0.0000    0.0000
  band No.  band energies     occupation 
      1      -1.8514      2.00000
      2      12.2716      0.00000
      3      17.8603      0.00000
      4      19.8654      0.00000
      5      20.3859      0.00000
      6      22.3016      0.00000
      7      28.0790      0.00000
      8      28.3621      0.00000

 k-point     6 :       0.3333    0.0000    0.0000
  band No.  band energies     occupation 
      1      -0.5981      2.00000
      2       9.5486      2.00000
      3      17.1546      0.00000
      4      19.1026      0.00000
      5      19.7712      0.00000
      6      21.6124      0.00000
      7      29.0222      0.00000
      8      29.6348      0.00000

 k-point     7 :       0.4000    0.0000    0.0000
  band No.  band energies     occupation 
      1       0.9240      2.00000
      2       7.0353      2.00000
      3      16.6853      0.00000
      4      18.5875      0.00000
      5      19.3424      0.00000
      6      21.1511      0.00000
      7      30.1674      0.00000
      8      31.0097      0.00000

 k-point     8 :       0.4667    0.0000    0.0000
  band No.  band energies     occupation 
      1       2.7053      2.00000
      2       4.7540      2.00000
      3      16.4506      0.00000
      4      18.3238      0.00000
      5      19.1228      0.00000
      6      20.9099      0.00000
      7      31.2626      0.00000
      8      32.1046      0.00000

 k-point     9 :       0.0667    0.0667    0.0000
  band No.  band energies     occupation 
      1      -3.6754      2.00000
      2      19.3327      0.00000
      3      19.7948      0.00000
      4      21.2688      0.00000
      5      23.3079      0.00000
      6      24.7758      0.00000
      7      25.5307      0.00000
      8      26.2589      0.00000

 k-point    10 :       0.1333    0.0667   -0.0000
  band No.  band energies     occupation 
      1      -3.1125      2.00000
      2      16.6990      0.00000
      3      18.3090      0.00000
      4      20.2005      0.00000
      5      22.8311      0.00000
      6      24.2432      0.00000
      7      25.9480      0.00000
      8      27.6550      0.00000

 k-point    11 :       0.2000    0.0667   -0.0000
  band No.  band energies     occupation 
      1      -2.2709      2.00000
      2      13.7882      0.00000
      3      17.2152      0.00000
      4      19.2146      0.00000
      5      22.0498      0.00000
      6      23.5872      0.00000
      7      26.5237      0.00000
      8      28.9499      0.00000

 k-point    12 :       0.2667    0.0667    0.0000
  band No.  band energies     occupation 
      1      -1.1541      2.00000
      2      10.9830      0.00000
      3      16.3633      0.00000
      4      18.3996      0.00000
      5      21.3085      0.00000
      6      22.9906      0.00000
      7      27.3633      0.00000
      8      30.1605      0.00000

 k-point    13 :       0.3333    0.0667   -0.0000
  band No.  band energies     occupation 
      1       0.2333      2.00000
      2       8.3628      2.00000
      3      15.7502      0.00000
      4      17.7984      0.00000
      5      20.7368      0.00000
      6      22.5066      0.00000
      7      28.4701      0.00000
      8      31.3291      0.00000

 k-point    14 :       0.4000    0.0667    0.0000
  band No.  band energies     occupation 
      1       1.8860      2.00000
      2       5.9645      2.00000
      3      15.3825      0.00000
      4      17.4314      0.00000
      5      20.3828      0.00000
      6      22.2013      0.00000
      7      29.7843      0.00000
      8      31.9735      0.00000

 k-point    15 :       0.4667    0.0667    0.0000
  band No.  band energies     occupation 
      1       3.7060      2.00000
      2       3.8947      2.00000
      3      15.2599      0.00000
      4      17.3088      0.00000
      5      20.2631      0.00000
      6      22.0965      0.00000
      7      30.9330      0.00000
      8      31.4292      0.00000

 k-point    16 :       0.1333    0.1333    0.0000
  band No.  band energies     occupation 
      1      -2.4109      2.00000
      2      15.3489      0.00000
      3      15.6524      0.00000
      4      19.0959      0.00000
      5      23.0984      0.00000
      6      24.0818      0.00000
      7      26.7494      0.00000
      8      28.0046      0.00000

 k-point    17 :       0.2000    0.1333    0.0000
  band No.  band energies     occupation 
      1      -1.4327      2.00000
      2      12.6433      0.00000
      3      14.5086      0.00000
      4      18.1893      0.00000
      5      22.6974      0.00000
      6      24.1906      0.00000
      7      27.0226      0.00000
      8      29.5258      0.00000

 k-point    18 :       0.2667    0.1333    0.0000
  band No.  band energies     occupation 
      1      -0.1818      2.00000
      2       9.9392      2.00000
      3      13.7466      0.00000
      4      17.4833      0.00000
      5      22.0956      0.00000
      6      24.4826      0.00000
      7      27.2615      0.00000
      8      31.1925      0.00000

 k-point    19 :       0.3333    0.1333    0.0000
  band No.  band energies     occupation 
      1       1.3371      2.00000
      2       7.4337      2.00000
      3      13.2379      0.00000
      4      17.0041      0.00000
      5      21.6478      0.00000
      6      24.5415      0.00000
      7      28.0769      0.00000
      8      31.7606      0.00000

 k-point    20 :       0.4000    0.1333    0.0000
  band No.  band energies     occupation 
      1       3.1157      2.00000
      2       5.1583      2.00000
      3      12.9831      0.00000
      4      16.7623      0.00000
      5      21.4155      0.00000
      6      24.5015      0.00000
      7      29.3001      0.00000
      8      30.8449      0.00000

 k-point    21 :       0.2000    0.2000    0.0000
  band No.  band energies     occupation 
      1      -0.3204      2.00000
      2      11.6688      0.00000
      3      11.8283      0.00000
      4      17.3893      0.00000
      5      23.2937      0.00000
      6      24.0175      0.00000
      7      28.6972      0.00000
      8      29.5666      0.00000

 k-point    22 :       0.2667    0.2000    0.0000
  band No.  band energies     occupation 
      1       1.0620      2.00000
      2       9.1508      2.00000
      3      11.1030      0.00000
      4      16.8020      0.00000
      5      23.0904      0.00000
      6      24.7564      0.00000
      7      28.7876      0.00000
      8      30.8184      0.00000

 k-point    23 :       0.3333    0.2000    0.0000
  band No.  band energies     occupation 
      1       2.7083      2.00000
      2       6.7667      2.00000
      3      10.7118      0.04235
      4      16.4430      0.00000
      5      22.7975      0.00000
      6      25.7465      0.00000
      7      28.5797      0.00000
      8      30.7678      0.00000

 k-point    24 :       0.4000    0.2000    0.0000
  band No.  band energies     occupation 
      1       4.5327      2.00000
      2       4.6949      2.00000
      3      10.5813      1.90368
      4      16.3223      0.00000
      5      22.6897      0.00000
      6      26.2486      0.00000
      7      28.5057      0.00000
      8      30.3326      0.00000

 k-point    25 :       0.2667    0.2667    0.0000
  band No.  band energies     occupation 
      1       2.5717      2.00000
      2       8.5703      2.00000
      3       8.6798      2.00000
      4      16.3341      0.00000
      5      24.0672      0.00000
      6      24.7792      0.00000
      7      29.1808      0.00000
      8      31.1775      0.00000

 k-point    26 :       0.3333    0.2667    0.0000
  band No.  band energies     occupation 
      1       4.3401      2.00000
      2       6.3655      2.00000
      3       8.3623      2.00000
      4      16.0964      0.00000
      5      24.1486      0.00000
      6      25.9009      0.00000
      7      27.7736      0.00000
      8      32.0306      0.00000

 k-point    27 :       0.3333    0.3333    0.0000
  band No.  band energies     occupation 
      1       6.1057      2.00000
      2       6.2927      2.00000
      3       6.2927      2.00000
      4      15.9794      0.00000
      5      25.1029      0.00000
      6      26.3043      0.00000
      7      26.3043      0.00000
      8      34.1189      0.00000

 k-point    28 :       0.0667    0.0667    0.0667
  band No.  band energies     occupation 
      1      -3.2531      2.00000
      2      17.8528      0.00000
      3      18.6758      0.00000
      4      18.6758      0.00000
      5      24.6770      0.00000
      6      24.6770      0.00000
      7      26.6204      0.00000
      8      26.6204      0.00000

 k-point    29 :       0.1333    0.0667    0.0667
  band No.  band energies     occupation 
      1      -2.5511      2.00000
      2      15.3827      0.00000
      3      16.9864      0.00000
      4      17.5416      0.00000
      5      24.3370      0.00000
      6      25.0286      0.00000
      7      27.0023      0.00000
      8      27.4966      0.00000

 k-point    30 :       0.2000    0.0667    0.0667
  band No.  band energies     occupation 
      1      -1.5722      2.00000
      2      12.5284      0.00000
      3      15.9855      0.00000
      4      16.5735      0.00000
      5      23.8361      0.00000
      6      24.4134      0.00000
      7      28.3001      0.00000
      8      28.3110      0.00000

 k-point    31 :       0.2667    0.0667    0.0667
  band No.  band energies     occupation 
      1      -0.3205      2.00000
      2       9.8130      2.00000
      3      15.2484      0.00000
      4      15.8231      0.00000
      5      23.3324      0.00000
      6      23.8262      0.00000
      7      29.2507      0.00000
      8      29.7046      0.00000

 k-point    32 :       0.3333    0.0667    0.0667
  band No.  band energies     occupation 
      1       1.1994      2.00000
      2       7.3027      2.00000
      3      14.7576      0.00000
      4      15.3152      0.00000
      5      22.9522      0.00000
      6      23.4082      0.00000
      7      30.3768      0.00000
      8      31.1188      0.00000

 k-point    33 :       0.4000    0.0667    0.0667
  band No.  band energies     occupation 
      1       2.9795      2.00000
      2       5.0246      2.00000
      3      14.5123      0.00000
      4      15.0595      0.00000
      5      22.7511      0.00000
      6      23.1938      0.00000
      7      31.4306      0.00000
      8      32.2354      0.00000

 k-point    34 :      -0.0667    0.0667    0.0667
  band No.  band energies     occupation 
      1      -3.8164      2.00000
      2      20.3615      0.00000
      3      20.3615      0.00000
      4      21.6257      0.00000
      5      23.7227      0.00000
      6      24.6495      0.00000
      7      25.0576      0.00000
      8      25.0576      0.00000

 k-point    35 :       0.1333    0.1333    0.0667
  band No.  band energies     occupation 
      1      -1.7117      2.00000
      2      14.1425      0.00000
      3      14.4517      0.00000
      4      16.2185      0.00000
      5      24.9804      0.00000
      6      25.8380      0.00000
      7      27.3606      0.00000
      8      28.3398      0.00000

 k-point    36 :       0.2000    0.1333    0.0667
  band No.  band energies     occupation 
      1      -0.5979      2.00000
      2      11.5018      0.00000
      3      13.4197      0.00000
      4      15.3498      0.00000
      5      24.8696      0.00000
      6      25.9076      0.00000
      7      28.2151      0.00000
      8      29.6725      0.00000

 k-point    37 :       0.2667    0.1333    0.0667
  band No.  band energies     occupation 
      1       0.7864      2.00000
      2       8.8948      2.00000
      3      12.7792      0.00000
      4      14.7250      0.00000
      5      24.5085      0.00000
      6      25.8285      0.00000
      7      29.1402      0.00000
      8      31.1924      0.00000

 k-point    38 :       0.3333    0.1333    0.0667
  band No.  band energies     occupation 
      1       2.4354      2.00000
      2       6.5024      2.00000
      3      12.3950      0.00000
      4      14.3475      0.00000
      5      24.2356      0.00000
      6      25.7063      0.00000
      7      30.3072      0.00000
      8      32.1275      0.00000

 k-point    39 :       0.4000    0.1333    0.0667
  band No.  band energies     occupation 
      1       4.2584      2.00000
      2       4.4301      2.00000
      3      12.2664      0.00000
      4      14.2211      0.00000
      5      24.1361      0.00000
      6      25.6483      0.00000
      7      31.2510      0.00000
      8      31.8920      0.00000

 k-point    40 :      -0.1333    0.1333    0.0667
  band No.  band energies     occupation 
      1      -3.3937      2.00000
      2      18.1045      0.00000
      3      18.9949      0.00000
      4      21.0173      0.00000
      5      23.1151      0.00000
      6      23.3785      0.00000
      7      25.5012      0.00000
      8      26.7207      0.00000

 k-point    41 :       0.2000    0.2000    0.0667
  band No.  band energies     occupation 
      1       0.6486      2.00000
      2      10.6544      0.68444
      3      10.8054      0.00000
      4      14.6015      0.00000
      5      25.5674      0.00000
      6      26.4568      0.00000
      7      29.4620      0.00000
      8      30.2668      0.00000

[...]
      1       3.9260      2.00000
      2       4.2876      2.00000
      3      11.5524      0.00000
      4      16.0312      0.00000
      5      20.7288      0.00000
      6      22.5075      0.00000
      7      23.8621      0.00000
      8      27.1003      0.00000

 k-point    86 :      -0.4000   -0.4667    0.1333
  band No.  band energies     occupation 
      1       3.6976      2.00000
      2       5.6769      2.00000
      3       9.4603      2.00000
      4      17.1534      0.00000
      5      20.1708      0.00000
      6      21.9041      0.00000
      7      23.1886      0.00000
      8      29.1823      0.00000

 k-point    87 :      -0.3333   -0.4667    0.1333
  band No.  band energies     occupation 
      1       3.5718      2.00000
      2       7.3273      2.00000
      3       7.6006      2.00000
      4      17.9755      0.00000
      5      19.6461      0.00000
      6      21.3255      0.00000
      7      23.1361      0.00000
      8      31.0713      0.00000

 k-point    88 :      -0.4000   -0.4000    0.1333
  band No.  band energies     occupation 
      1       5.2261      2.00000
      2       5.5673      2.00000
      3       7.3506      2.00000
      4      18.1043      0.00000
      5      20.2343      0.00000
      6      21.3838      0.00000
      7      21.9548      0.00000
      8      31.6911      0.00000

 k-point    89 :       0.2000    0.2000    0.2000
  band No.  band energies     occupation 
      1       2.9223      2.00000
      2       8.4496      2.00000
      3       8.9501      2.00000
      4       8.9501      2.00000
      5      28.5011      0.00000
      6      28.5011      0.00000
      7      30.3461      0.00000
      8      30.3461      0.00000

 k-point    90 :       0.2667    0.2000    0.2000
  band No.  band energies     occupation 
      1       4.6128      2.00000
      2       6.5841      2.00000
      3       8.3947      2.00000
      4       8.6969      2.00000
      5      29.0394      0.00000
      6      29.3971      0.00000
      7      31.0519      0.00000
      8      31.3249      0.00000

 k-point    91 :      -0.2000    0.2000    0.2000
  band No.  band energies     occupation 
      1      -1.8688      2.00000
      2      14.3433      0.00000
      3      14.3433      0.00000
      4      16.2611      0.00000
      5      17.8697      0.00000
      6      24.9178      0.00000
      7      26.4393      0.00000
      8      26.4393      0.00000

 k-point    92 :       0.2667    0.2667    0.2000
  band No.  band energies     occupation 
      1       6.1019      2.00000
      2       6.6310      2.00000
      3       6.6310      2.00000
      4       8.4345      2.00000
      5      29.8623      0.00000
      6      30.8544      0.00000
      7      30.8544      0.00000
      8      31.9603      0.00000

 k-point    93 :      -0.2667    0.2667    0.2000
  band No.  band energies     occupation 
      1      -0.9281      2.00000
      2      12.4028      0.00000
      3      13.3859      0.00000
      4      15.7456      0.00000
      5      17.3449      0.00000
      6      24.6438      0.00000
      7      26.4632      0.00000
      8      28.3510      0.00000

 k-point    94 :      -0.3333    0.3333    0.2000
  band No.  band energies     occupation 
      1       0.2746      2.00000
      2       9.9510      0.21221
      3      12.6608      0.00000
      4      15.1951      0.00000
      5      18.0047      0.00000
      6      24.0195      0.00000
      7      25.4713      0.00000
      8      27.9415      0.00000

 k-point    95 :      -0.2667    0.3333    0.2000
  band No.  band energies     occupation 
      1       0.1415      2.00000
      2      11.4540      0.00000
      3      11.6411      0.00000
      4      15.5997      0.00000
      5      16.7043      0.00000
      6      24.5426      0.00000
      7      26.2342      0.00000
      8      28.1984      0.00000

 k-point    96 :      -0.4000    0.4000    0.2000
  band No.  band energies     occupation 
      1       1.7342      2.00000
      2       7.5852      2.00000
      3      12.1764      0.00000
      4      14.7348      0.00000
      5      19.1307      0.00000
      6      23.5653      0.00000
      7      24.0613      0.00000
      8      27.4280      0.00000

 k-point    97 :      -0.3333    0.4000    0.2000
  band No.  band energies     occupation 
      1       1.4701      2.00000
      2       9.1909      2.00000
      3      10.9375      0.00000
      4      15.3789      0.00000
      5      17.3135      0.00000
      6      23.6670      0.00000
      7      24.7817      0.00000
      8      28.7349      0.00000

 k-point    98 :      -0.4667    0.4667    0.2000
  band No.  band energies     occupation 
      1       3.4356      2.00000
      2       5.4189      2.00000
      3      11.9338      0.00000
      4      14.4936      0.00000
      5      20.3656      0.00000
      6      22.6308      0.00000
      7      23.3327      0.00000
      8      27.1409      0.00000

 k-point    99 :      -0.4000    0.4667    0.2000
  band No.  band energies     occupation 
      1       3.0491      2.00000
      2       6.9442      2.00000
      3      10.5628      0.00000
      4      15.0686      0.00000
      5      18.5637      0.00000
      6      22.1119      0.00000
      7      24.1413      0.00000
      8      28.7389      0.00000

 k-point   100 :      -0.3333    0.4667    0.2000
  band No.  band energies     occupation 
      1       2.9187      2.00000
      2       8.5701      2.00000
      3       8.8157      2.00000
      4      16.1649      0.00000
      5      17.1855      0.00000
      6      21.9580      0.00000
      7      24.2661      0.00000
      8      30.5315      0.00000

 k-point   101 :      -0.4667   -0.4667    0.2000
  band No.  band energies     occupation 
      1       4.7148      2.00000
      2       5.0500      2.00000
      3      10.4380      0.00000
      4      14.9532      0.00000
      5      19.6336      0.00000
      6      20.8843      0.00000
      7      23.9807      0.00000
      8      28.7021      0.00000

 k-point   102 :      -0.4000   -0.4667    0.2000
  band No.  band energies     occupation 
      1       4.6066      2.00000
      2       6.5596      2.00000
      3       8.4495      2.00000
      4      16.2555      0.00000
      5      18.2624      0.00000
      6      20.1857      0.00000
      7      24.0122      0.00000
      8      31.1546      0.00000

 k-point   103 :      -0.4000   -0.4000    0.2000
  band No.  band energies     occupation 
      1       6.1368      2.00000
      2       6.5720      2.00000
      3       6.5720      2.00000
      4      17.1028      0.00000
      5      18.6364      0.00000
      6      18.6364      0.00000
      7      23.9431      0.00000
      8      33.3234      0.00000

 k-point   104 :      -0.2667    0.2667    0.2667
  band No.  band energies     occupation 
      1       0.0082      2.00000
      2      12.4211      0.00000
      3      12.4211      0.00000
      4      14.4539      0.00000
      5      15.6736      0.00000
      6      26.0200      0.00000
      7      26.7781      0.00000
      8      28.0857      0.00000

 k-point   105 :      -0.3333    0.3333    0.2667
  band No.  band energies     occupation 
      1       1.2049      2.00000
      2      10.6762      0.00000
      3      11.6935      0.00000
      4      14.0849      0.00000
      5      15.4999      0.00000
      6      23.9085      0.00000
      7      26.6381      0.00000
      8      28.7687      0.00000

 k-point   106 :      -0.4000    0.4000    0.2667
  band No.  band energies     occupation 
      1       2.6564      2.00000
      2       8.4333      2.00000
      3      11.2066      0.00000
      4      13.7028      0.00000
      5      16.5201      0.00000
      6      21.8258      0.00000
      7      26.2278      0.00000
      8      28.9700      0.00000

 k-point   107 :      -0.3333    0.4000    0.2667
  band No.  band energies     occupation 
      1       2.5255      2.00000
      2       9.9730      0.06166
      3      10.1430      0.00000
      4      14.2066      0.00000
      5      15.1021      0.00000
      6      21.7170      0.00000
      7      26.9195      0.00000
      8      30.2183      0.00000

 k-point   108 :      -0.4667    0.4667    0.2667
  band No.  band energies     occupation 
      1       4.3475      2.00000
      2       6.3063      2.00000
      3      10.9630      0.00000
      4      13.4694      0.00000
      5      17.9325      0.00000
      6      19.9504      0.00000
      7      26.0121      0.00000
      8      28.9862      0.00000

 k-point   109 :      -0.4000    0.4667    0.2667
  band No.  band energies     occupation 
      1       4.0924      2.00000
      2       7.9230      2.00000
      3       9.6913      2.00000
      4      14.1615      0.00000
      5      16.0502      0.00000
      6      19.6485      0.00000
      7      26.7169      0.00000
      8      30.7832      0.00000

 k-point   110 :      -0.4667   -0.4667    0.2667
  band No.  band energies     occupation 
      1       5.7521      2.00000
      2       6.0564      2.00000
      3       9.5649      2.00000
      4      14.0678      0.00000
      5      17.3043      0.00000
      6      18.1212      0.00000
      7      26.6284      0.00000
      8      30.8667      0.00000

 k-point   111 :      -0.4000   -0.4667    0.2667
  band No.  band energies     occupation 
      1       5.7581      2.00000
      2       7.5647      2.00000
      3       7.7944      2.00000
      4      15.2103      0.00000
      5      16.1402      0.00000
      6      17.6891      0.00000
      7      26.6751      0.00000
      8      32.7955      0.00000

 k-point   112 :      -0.3333    0.3333    0.3333
  band No.  band energies     occupation 
      1       2.3944      2.00000
      2      10.9638      0.00000
      3      10.9638      0.00000
      4      13.0177      0.00000
      5      14.0250      0.00000
      6      21.6138      0.00000
      7      29.0911      0.00000
      8      30.1071      0.00000

 k-point   113 :      -0.4000    0.4000    0.3333
  band No.  band energies     occupation 
      1       3.8329      2.00000
      2       9.4290      2.00000
      3      10.4749      0.00000
      4      12.8413      0.00000
      5      14.1753      0.00000
      6      19.3937      0.00000
      7      29.0783      0.00000
      8      30.8638      0.00000

 k-point   114 :      -0.4667    0.4667    0.3333
  band No.  band energies     occupation 
      1       5.5052      2.00000
      2       7.4189      2.00000
      3      10.2304      0.00000
      4      12.6716      0.00000
      5      15.4887      0.00000
      6      17.4049      0.00000
      7      28.8791      0.00000
      8      31.1426      0.00000

 k-point   115 :      -0.4000    0.4667    0.3333
  band No.  band energies     occupation 
      1       5.3798      2.00000
      2       8.9762      2.00000
      3       9.1379      2.00000
      4      13.2271      0.00000
      5      14.0246      0.00000
      6      17.2510      0.00000
      7      29.4904      0.00000
      8      32.4479      0.00000

 k-point   116 :      -0.4667   -0.4667    0.3333
  band No.  band energies     occupation 
      1       7.0158      2.00000
      2       7.2825      2.00000
      3       8.9402      2.00000
      4      13.3672      0.00000
      5      15.0535      0.00000
      6      15.6108      0.00000
      7      29.4698      0.00000
      8      32.9719      0.00000

 k-point   117 :      -0.4000    0.4000    0.4000
  band No.  band energies     occupation 
      1       5.2518      2.00000
      2       9.9850      0.02723
      3       9.9850      0.02723
      4      12.0156      0.00000
      5      12.9216      0.00000
      6      17.1142      0.00000
      7      31.7378      0.00000
      8      32.3378      0.00000

 k-point   118 :      -0.4667    0.4667    0.4000
  band No.  band energies     occupation 
      1       6.8868      2.00000
      2       8.6786      2.00000
      3       9.7402      2.00000
      4      12.0511      0.00000
      5      13.3671      0.00000
      6      15.0903      0.00000
      7      31.8048      0.00000
      8      33.0931      0.00000

 k-point   119 :      -0.4667   -0.4667    0.4000
  band No.  band energies     occupation 
      1       8.3741      2.00000
      2       8.6348      2.00000
      3       8.6348      2.00000
      4      12.4673      0.00000
      5      13.4880      0.00000
      6      13.4880      0.00000
      7      32.2272      0.00000
      8      34.4628      0.00000

 k-point   120 :      -0.4667    0.4667    0.4667
  band No.  band energies     occupation 
      1       8.4136      2.00000
      2       9.4952      2.00000
      3       9.4952      2.00000
      4      11.4032      0.00000
      5      12.3719      0.00000
      6      13.1794      0.00000
      7      34.2361      0.00000
      8      34.3649      0.00000


--------------------------------------------------------------------------------------------------------


 soft charge-density along one line, spin component           1
         0         1         2         3         4         5         6         7         8         9
 total charge-density along one line
 
 pseudopotential strength for first ion, spin component:           1
 17.984  25.088   0.000  -0.000   0.000   0.000  -0.000   0.000
 25.088  35.004   0.000  -0.000   0.000   0.000  -0.000   0.000
  0.000   0.000   4.100  -0.000   0.000   7.637  -0.000   0.000
 -0.000  -0.000  -0.000   4.100  -0.000  -0.000   7.637  -0.000
  0.000   0.000   0.000  -0.000   4.100   0.000  -0.000   7.637
  0.000   0.000   7.637  -0.000   0.000  14.238  -0.000   0.000
 -0.000  -0.000  -0.000   7.637  -0.000  -0.000  14.238  -0.000
  0.000   0.000   0.000  -0.000   7.637   0.000  -0.000  14.238
 total augmentation occupancy for first ion, spin component:           1
  4.881  -1.966   0.000   0.000   0.000   0.000   0.000   0.000
 -1.966   1.203   0.000   0.000   0.000   0.000   0.000   0.000
  0.000   0.000   2.442  -0.000  -0.000  -0.590   0.000  -0.000
  0.000   0.000   0.000   2.442   0.000   0.000  -0.590  -0.000
  0.000   0.000   0.000   0.000   2.442   0.000  -0.000  -0.590
  0.000   0.000  -0.590   0.000   0.000   0.155  -0.000   0.000
  0.000   0.000   0.000  -0.590  -0.000  -0.000   0.155   0.000
  0.000   0.000  -0.000  -0.000  -0.590   0.000   0.000   0.155


------------------------ aborting loop because EDIFF is reached ----------------------------------------


    CHARGE:  cpu time    0.0160: real time    0.0162
    FORLOC:  cpu time    0.0000: real time    0.0005
    FORNL :  cpu time    0.0370: real time    0.0370
    STRESS:  cpu time    0.2700: real time    0.2705
    FORCOR:  cpu time    0.0090: real time    0.0094
    FORHAR:  cpu time    0.0020: real time    0.0019
    MIXING:  cpu time    0.0000: real time    0.0006
    OFIELD:  cpu time    0.0000: real time    0.0002

  FORCE on cell =-STRESS in cart. coord.  units (eV):
  Direction    XX          YY          ZZ          XY          YZ          ZX
  --------------------------------------------------------------------------------------
  Alpha Z     2.30564     2.30564     2.30564
  Ewald     -45.38060   -45.38060   -45.38060    -0.00000    -0.00000    -0.00000
  Hartree     0.14303     0.14303     0.14303    -0.00000     0.00000     0.00000
  E(xc)     -12.68205   -12.68205   -12.68205     0.00000    -0.00000    -0.00000
  Local      -5.12461    -5.12461    -5.12461    -0.00001     0.00001     0.00001
  n-local    38.97655    38.40436    38.24722    -1.07901    -1.19235     0.46825
  augment    -6.26994    -6.26994    -6.26994     0.00001    -0.00001    -0.00001
  Kinetic    24.72692    33.82002    26.85455    12.29768    13.20561    -5.83555
  Fock        0.00000     0.00000     0.00000     0.00000     0.00000     0.00000
  -------------------------------------------------------------------------------------
  Total       0.00134     0.00134     0.00134    -0.00000     0.00000    -0.00000
  in kB       0.14711     0.14711     0.14711    -0.00000     0.00000    -0.00000
  external pressure =        0.15 kB  Pullay stress =        0.00 kB


 VOLUME and BASIS-vectors are now :
 -----------------------------------------------------------------------------
  energy-cutoff  :      300.00
  volume of cell :       14.60
      direct lattice vectors                 reciprocal lattice vectors
     1.539694223  1.539694223  1.539694223     0.324739804  0.324739804  0.000000000
     1.539694223 -1.539694223 -1.539694223     0.324739804  0.000000000 -0.324739804
    -1.539694223  1.539694223 -1.539694223     0.000000000  0.324739804 -0.324739804

  length of vectors
     2.666828622  2.666828622  2.666828622     0.459251435  0.459251435  0.459251435


 FORCES acting on ions
    electron-ion (+dipol)            ewald-force                    non-local-force                 convergence-correction
 -----------------------------------------------------------------------------------------------
   -.402E-15 -.103E-14 0.534E-15   0.258E-16 0.142E-15 0.453E-16   0.969E-26 0.969E-26 -.646E-26   0.175E-15 0.148E-15 -.228E-16
 -----------------------------------------------------------------------------------------------
   -.402E-15 -.103E-14 0.534E-15   0.258E-16 0.142E-15 0.453E-16   0.969E-26 0.969E-26 -.646E-26   0.175E-15 0.148E-15 -.228E-16
 
 
 POSITION                                       TOTAL-FORCE (eV/Angst)
 -----------------------------------------------------------------------------------
     -0.00000      0.00000      0.00000         0.000000     -0.000000     -0.000000
 -----------------------------------------------------------------------------------
    total drift:                               -0.000000     -0.000000      0.000000


--------------------------------------------------------------------------------------------------------



  FREE ENERGIE OF THE ION-ELECTRON SYSTEM (eV)
  ---------------------------------------------------
  free  energy   TOTEN  =        -4.90020615 eV

  energy  without entropy=       -4.89971180  energy(sigma->0) =       -4.89995897
 
 d Force = 0.0000000E+00[ 0.000E+00, 0.000E+00]  d Energy = 0.9776829E-03-0.978E-03
 d Force = 0.0000000E+00[ 0.000E+00, 0.000E+00]  d Ewald  = 0.6887047E+00-0.689E+00


--------------------------------------------------------------------------------------------------------


    POTLOK:  cpu time    0.1750: real time    0.1814


--------------------------------------------------------------------------------------------------------




--------------------------------------------------------------------------------------------------------


  
 reached required accuracy - stopping structural energy minimisation
     LOOP+:  cpu time    3.6244: real time    3.8255
    4ORBIT:  cpu time    0.0000: real time    0.0000

 total amount of memory used by VASP MPI-rank0    33932. kBytes
=======================================================================

   base      :      30000. kBytes
   nonl-proj :       1385. kBytes
   fftplans  :       1246. kBytes
   grid      :        577. kBytes
   one-center:          3. kBytes
   wavefun   :        721. kBytes
 
  
  
 General timing and accounting informations for this job:
 ========================================================
  
                  Total CPU time used (sec):       13.461
                            User time (sec):       13.048
                          System time (sec):        0.413
                         Elapsed time (sec):       14.859
  
                   Maximum memory used (kb):       52780.
                   Average memory used (kb):          N/A
  
                          Minor page faults:         9331
                          Major page faults:            1
                 Voluntary context switches:        22554
