   1   1   0   0
  0.1386300E+02  0.2621157E-09  0.2621157E-09  0.2621157E-09  0.5000000E-15
  1.000000000000000E-004
  CAR 
 unknown system                          
     37.55635790     -6.08358934  301     10.60918134      1.00000000
     -6.084  0.0000E+00  0.0000E+00
     -5.938  0.0000E+00  0.0000E+00
     -5.793  0.0000E+00  0.0000E+00
     -5.647  0.0000E+00  0.0000E+00
     -5.502  0.0000E+00  0.0000E+00
     -5.356  0.0000E+00  0.0000E+00
     -5.211  0.0000E+00  0.0000E+00
     -5.065  0.0000E+00  0.0000E+00
     -4.920  0.0000E+00  0.0000E+00
     -4.774  0.0000E+00  0.0000E+00
     -4.629  0.0000E+00  0.0000E+00
     -4.483  0.0000E+00  0.0000E+00
     -4.338  0.8603E-15  0.1251E-15
     -4.193  0.4565E-06  0.6640E-07
     -4.047  0.9589E-04  0.1401E-04
     -3.902  0.5038E-04  0.2134E-04
     -3.756  0.1183E-02  0.1934E-03
     -3.611  0.1120E-03  0.2097E-03
     -3.465  0.5204E-03  0.2854E-03
     -3.320  0.1072E-02  0.4414E-03
     -3.174  0.1408E-02  0.6462E-03
     -3.029  0.9253E-03  0.7808E-03
     -2.883  0.3253E-03  0.8281E-03
     -2.738  0.2304E-02  0.1163E-02
     -2.592  0.1965E-03  0.1192E-02
     -2.447  0.7860E-03  0.1306E-02
     -2.301  0.9323E-03  0.1442E-02
     -2.156  0.4030E-02  0.2028E-02
     -2.011  0.3075E-03  0.2073E-02
     -1.865  0.3175E-03  0.2119E-02
     -1.720  0.2992E-02  0.2554E-02
     -1.574  0.7471E-03  0.2663E-02
     -1.429  0.2357E-02  0.3006E-02
     -1.283  0.2767E-03  0.3046E-02
     -1.138  0.2292E-02  0.3379E-02
     -0.992  0.7263E-03  0.3485E-02
     -0.847  0.1763E-02  0.3742E-02
     -0.701  0.4769E-02  0.4435E-02
     -0.556  0.2668E-02  0.4823E-02
     -0.410  0.2827E-07  0.4823E-02
     -0.265  0.1457E-03  0.4845E-02
     -0.119  0.4748E-02  0.5535E-02
      0.026  0.2803E-03  0.5576E-02
      0.171  0.1023E-02  0.5725E-02
      0.317  0.2496E-02  0.6088E-02
      0.462  0.2465E-02  0.6447E-02
      0.608  0.2583E-02  0.6822E-02
      0.753  0.6261E-03  0.6913E-02
      0.899  0.7133E-02  0.7951E-02
      1.044  0.4893E-03  0.8022E-02
      1.190  0.2177E-02  0.8339E-02
      1.335  0.2119E-02  0.8647E-02
      1.481  0.2844E-02  0.9061E-02
      1.626  0.1963E-02  0.9347E-02
      1.772  0.5706E-03  0.9430E-02
      1.917  0.4737E-02  0.1012E-01
      2.063  0.2433E-03  0.1015E-01
      2.208  0.7467E-03  0.1026E-01
      2.353  0.3503E-02  0.1077E-01
      2.499  0.5177E-02  0.1153E-01
      2.644  0.1982E-02  0.1181E-01
      2.790  0.6181E-03  0.1190E-01
      2.935  0.9485E-02  0.1328E-01
      3.081  0.8767E-03  0.1341E-01
      3.226  0.4382E-02  0.1405E-01
      3.372  0.1177E-02  0.1422E-01
      3.517  0.1311E-02  0.1441E-01
      3.663  0.4048E-06  0.1441E-01
      3.808  0.1793E-02  0.1467E-01
      3.954  0.6138E-02  0.1556E-01
      4.099  0.2118E-02  0.1587E-01
      4.245  0.6070E-03  0.1596E-01
      4.390  0.5160E-02  0.1671E-01
      4.535  0.4565E-02  0.1738E-01
      4.681  0.4533E-02  0.1803E-01
      4.826  0.2036E-02  0.1833E-01
      4.972  0.2136E-02  0.1864E-01
      5.117  0.2381E-02  0.1899E-01
      5.263  0.2896E-02  0.1941E-01
      5.408  0.6656E-02  0.2038E-01
      5.554  0.5453E-02  0.2117E-01
      5.699  0.2298E-02  0.2150E-01
      5.845  0.5431E-03  0.2158E-01
      5.990  0.4587E-02  0.2225E-01
      6.136  0.1230E-02  0.2243E-01
      6.281  0.1827E-02  0.2270E-01
      6.427  0.3203E-02  0.2316E-01
      6.572  0.1380E-02  0.2336E-01
      6.717  0.4789E-02  0.2406E-01
      6.863  0.4459E-02  0.2471E-01
      7.008  0.7765E-02  0.2584E-01
      7.154  0.1605E-02  0.2607E-01
      7.299  0.1612E-02  0.2631E-01
      7.445  0.1021E-01  0.2779E-01
      7.590  0.1604E-02  0.2802E-01
      7.736  0.6558E-04  0.2803E-01
      7.881  0.5505E-02  0.2883E-01
      8.027  0.4351E-02  0.2947E-01
      8.172  0.2213E-02  0.2979E-01
      8.318  0.2826E-02  0.3020E-01
      8.463  0.8384E-02  0.3142E-01
      8.609  0.1925E-02  0.3170E-01
      8.754  0.2914E-02  0.3212E-01
      8.899  0.2982E-02  0.3256E-01
      9.045  0.3058E-02  0.3300E-01
      9.190  0.4775E-02  0.3370E-01
      9.336  0.4669E-02  0.3438E-01
      9.481  0.4596E-02  0.3504E-01
      9.627  0.1407E-02  0.3525E-01
      9.772  0.6970E-02  0.3626E-01
      9.918  0.6077E-02  0.3715E-01
     10.063  0.1947E-02  0.3743E-01
     10.209  0.9421E-03  0.3757E-01
     10.354  0.6720E-02  0.3855E-01
     10.500  0.5946E-02  0.3941E-01
     10.645  0.5569E-02  0.4022E-01
     10.791  0.7172E-02  0.4126E-01
     10.936  0.5856E-02  0.4212E-01
     11.081  0.1276E-02  0.4230E-01
     11.227  0.3121E-02  0.4275E-01
     11.372  0.6287E-02  0.4367E-01
     11.518  0.1801E-02  0.4393E-01
     11.663  0.5231E-02  0.4469E-01
     11.809  0.6733E-02  0.4567E-01
     11.954  0.4301E-03  0.4573E-01
     12.100  0.2364E-02  0.4608E-01
     12.245  0.2959E-02  0.4651E-01
     12.391  0.2959E-02  0.4694E-01
     12.536  0.2970E-02  0.4737E-01
     12.682  0.7788E-02  0.4850E-01
     12.827  0.5543E-02  0.4931E-01
     12.973  0.3060E-02  0.4976E-01
     13.118  0.5726E-02  0.5059E-01
     13.263  0.5652E-02  0.5141E-01
     13.409  0.6806E-02  0.5240E-01
     13.554  0.4909E-02  0.5311E-01
     13.700  0.6415E-03  0.5321E-01
     13.845  0.4408E-03  0.5327E-01
     13.991  0.6467E-02  0.5421E-01
     14.136  0.4477E-02  0.5486E-01
     14.282  0.3351E-02  0.5535E-01
     14.427  0.7923E-02  0.5650E-01
     14.573  0.5741E-02  0.5734E-01
     14.718  0.5609E-02  0.5816E-01
     14.864  0.5009E-02  0.5888E-01
     15.009  0.6468E-02  0.5982E-01
     15.155  0.3780E-03  0.5988E-01
     15.300  0.2054E-02  0.6018E-01
     15.445  0.1139E-01  0.6184E-01
     15.591  0.2053E-02  0.6213E-01
     15.736  0.1302E-02  0.6232E-01
     15.882  0.2852E-02  0.6274E-01
     16.027  0.4625E-02  0.6341E-01
     16.173  0.5510E-02  0.6421E-01
     16.318  0.6775E-02  0.6520E-01
     16.464  0.4507E-02  0.6585E-01
     16.609  0.1103E-01  0.6746E-01
     16.755  0.2647E-02  0.6784E-01
     16.900  0.6717E-02  0.6882E-01
     17.046  0.5129E-02  0.6957E-01
     17.191  0.4676E-02  0.7025E-01
     17.337  0.6294E-02  0.7116E-01
     17.482  0.1486E-02  0.7138E-01
     17.627  0.5894E-02  0.7224E-01
     17.773  0.4321E-02  0.7286E-01
     17.918  0.5715E-02  0.7370E-01
     18.064  0.1090E-01  0.7528E-01
     18.209  0.2869E-02  0.7570E-01
     18.355  0.1169E-01  0.7740E-01
     18.500  0.2905E-02  0.7782E-01
     18.646  0.2065E-06  0.7782E-01
     18.791  0.3281E-03  0.7787E-01
     18.937  0.1056E-01  0.7941E-01
     19.082  0.1077E-01  0.8097E-01
     19.228  0.6870E-02  0.8197E-01
     19.373  0.7395E-02  0.8305E-01
     19.519  0.1691E-02  0.8329E-01
     19.664  0.2262E-02  0.8362E-01
     19.809  0.1028E-02  0.8377E-01
     19.955  0.1558E-02  0.8400E-01
     20.100  0.2449E-02  0.8435E-01
     20.246  0.2398E-02  0.8470E-01
     20.391  0.1827E-02  0.8497E-01
     20.537  0.5791E-02  0.8581E-01
     20.682  0.4580E-02  0.8648E-01
     20.828  0.8188E-02  0.8767E-01
     20.973  0.1513E-01  0.8987E-01
     21.119  0.1079E-01  0.9144E-01
     21.264  0.4532E-02  0.9210E-01
     21.410  0.4203E-02  0.9271E-01
     21.555  0.5089E-02  0.9345E-01
     21.701  0.7884E-03  0.9356E-01
     21.846  0.6189E-02  0.9447E-01
     21.991  0.1076E-02  0.9462E-01
     22.137  0.2936E-02  0.9505E-01
     22.282  0.7943E-02  0.9620E-01
     22.428  0.1093E-01  0.9779E-01
     22.573  0.8049E-02  0.9897E-01
     22.719  0.4403E-02  0.9961E-01
     22.864  0.5292E-02  0.1004E+00
     23.010  0.3448E-02  0.1009E+00
     23.155  0.1358E-01  0.1029E+00
     23.301  0.7051E-02  0.1039E+00
     23.446  0.4051E-02  0.1045E+00
     23.592  0.5155E-02  0.1052E+00
     23.737  0.7098E-02  0.1062E+00
     23.883  0.3409E-02  0.1067E+00
     24.028  0.5828E-02  0.1076E+00
     24.173  0.7798E-02  0.1087E+00
     24.319  0.6489E-02  0.1097E+00
     24.464  0.4932E-02  0.1104E+00
     24.610  0.1078E-01  0.1120E+00
     24.755  0.2290E-02  0.1123E+00
     24.901  0.9636E-02  0.1137E+00
     25.046  0.9145E-02  0.1150E+00
     25.192  0.1683E-02  0.1153E+00
     25.337  0.1557E-02  0.1155E+00
     25.483  0.6296E-02  0.1164E+00
     25.628  0.5563E-02  0.1172E+00
     25.774  0.6576E-02  0.1182E+00
     25.919  0.4584E-02  0.1188E+00
     26.065  0.1746E-02  0.1191E+00
     26.210  0.1098E-01  0.1207E+00
     26.355  0.1153E-01  0.1224E+00
     26.501  0.1784E-02  0.1226E+00
     26.646  0.4351E-02  0.1233E+00
     26.792  0.9549E-03  0.1234E+00
     26.937  0.1523E-02  0.1236E+00
     27.083  0.6204E-02  0.1245E+00
     27.228  0.1309E-01  0.1264E+00
     27.374  0.8124E-02  0.1276E+00
     27.519  0.3666E-02  0.1281E+00
     27.665  0.8709E-02  0.1294E+00
     27.810  0.6367E-02  0.1303E+00
     27.956  0.2912E-02  0.1308E+00
     28.101  0.7782E-02  0.1319E+00
     28.247  0.9030E-02  0.1332E+00
     28.392  0.6603E-02  0.1342E+00
     28.537  0.7408E-02  0.1352E+00
     28.683  0.5755E-02  0.1361E+00
     28.828  0.5558E-02  0.1369E+00
     28.974  0.9343E-02  0.1383E+00
     29.119  0.4470E-02  0.1389E+00
     29.265  0.3114E-02  0.1394E+00
     29.410  0.2113E-04  0.1394E+00
     29.556  0.8008E-02  0.1405E+00
     29.701  0.1505E-02  0.1407E+00
     29.847  0.5239E-02  0.1415E+00
     29.992  0.6944E-02  0.1425E+00
     30.138  0.2630E-02  0.1429E+00
     30.283  0.7923E-02  0.1440E+00
     30.428  0.1805E-01  0.1467E+00
     30.574  0.1160E-01  0.1484E+00
     30.719  0.2273E-02  0.1487E+00
     30.865  0.5817E-02  0.1495E+00
     31.010  0.2953E-02  0.1500E+00
     31.156  0.1228E-01  0.1518E+00
     31.301  0.3190E-02  0.1522E+00
     31.447  0.6946E-02  0.1532E+00
     31.592  0.2002E-02  0.1535E+00
     31.738  0.3470E-02  0.1540E+00
     31.883  0.6349E-02  0.1549E+00
     32.029  0.8231E-02  0.1561E+00
     32.174  0.4684E-02  0.1568E+00
     32.320  0.2514E-02  0.1572E+00
     32.465  0.2744E-02  0.1576E+00
     32.610  0.1343E-02  0.1578E+00
     32.756  0.4036E-02  0.1584E+00
     32.901  0.2523E-04  0.1584E+00
     33.047  0.6213E-10  0.1584E+00
     33.192  0.3512E-03  0.1584E+00
     33.338  0.5358E-02  0.1592E+00
     33.483  0.1743E-02  0.1595E+00
     33.629  0.7938E-03  0.1596E+00
     33.774  0.1837E-04  0.1596E+00
     33.920  0.3767E-12  0.1596E+00
     34.065  0.3766E-08  0.1596E+00
     34.211  0.3086E-03  0.1596E+00
     34.356  0.5177E-03  0.1597E+00
     34.502  0.6184E-07  0.1597E+00
     34.647  0.0000E+00  0.1597E+00
     34.792  0.0000E+00  0.1597E+00
     34.938  0.6498E-09  0.1597E+00
     35.083  0.1640E-03  0.1597E+00
     35.229  0.4557E-03  0.1598E+00
     35.374  0.2590E-03  0.1598E+00
     35.520  0.4166E-03  0.1599E+00
     35.665  0.7671E-03  0.1600E+00
     35.811  0.3652E-05  0.1600E+00
     35.956  0.6882E-14  0.1600E+00
     36.102  0.0000E+00  0.1600E+00
     36.247  0.0000E+00  0.1600E+00
     36.393  0.0000E+00  0.1600E+00
     36.538  0.0000E+00  0.1600E+00
     36.684  0.0000E+00  0.1600E+00
     36.829  0.0000E+00  0.1600E+00
     36.974  0.0000E+00  0.1600E+00
     37.120  0.0000E+00  0.1600E+00
     37.265  0.0000E+00  0.1600E+00
     37.411  0.0000E+00  0.1600E+00
     37.556  0.0000E+00  0.1600E+00
