    1    1  100    1
  0.1386300E+02  0.2621157E-09  0.2621157E-09  0.2621157E-09  0.5000000E-15
  1.000000000000000E-004
  CAR 
 unknown system                          
      4     56      8
 
  0.0000000E+00  0.0000000E+00  0.0000000E+00  0.7513148E-03
    1       -4.099955   1.000000
    2       22.720422   0.000000
    3       22.720423   0.000000
    4       22.720423   0.000000
    5       23.421681   0.000000
    6       23.421681   0.000000
    7       23.421681   0.000000
    8       27.222234   0.000000
 
  0.9090909E-01  0.0000000E+00  0.0000000E+00  0.9015778E-02
    1       -3.837546   1.000000
    2       19.903410   0.000000
    3       20.839408   0.000000
    4       22.311927   0.000000
    5       22.611224   0.000000
    6       24.521822   0.000000
    7       25.733449   0.000000
    8       26.034714   0.000000
 
  0.1818182E+00  0.0000000E+00  0.0000000E+00  0.9015778E-02
    1       -3.052267   1.000000
    2       15.956858   0.000000
    3       19.093019   0.000000
    4       21.119951   0.000000
    5       21.342819   0.000000
    6       23.428024   0.000000
    7       26.917863   0.000000
    8       27.254738   0.000000
 
  0.2727273E+00  0.0000000E+00  0.0000000E+00  0.9015778E-02
    1       -1.750071   1.000000
    2       12.012260   0.000000
    3       17.781312   0.000000
    4       19.776377   0.000000
    5       20.319856   0.000000
    6       22.216397   0.000000
    7       28.126962   0.000000
    8       28.439026   0.000000
 
  0.3636364E+00  0.0000000E+00  0.0000000E+00  0.9015778E-02
    1        0.059192   1.000000
    2        8.374874   1.000000
    3       16.908822   0.000000
    4       18.826542   0.000000
    5       19.548216   0.000000
    6       21.355481   0.000000
    7       29.498894   0.000000
    8       30.215123   0.000000
 
  0.4545455E+00  0.0000000E+00  0.0000000E+00  0.9015778E-02
    1        2.360530   1.000000
    2        5.146963   1.000000
    3       16.473095   0.000000
    4       18.339876   0.000000
    5       19.143443   0.000000
    6       20.908554   0.000000
    7       31.058164   0.000000
    8       31.885986   0.000000
 
  0.9090909E-01  0.9090909E-01  0.0000000E+00  0.1803156E-01
    1       -3.313691   1.000000
    2       17.873397   0.000000
    3       18.294673   0.000000
    4       20.442507   0.000000
    5       23.192447   0.000000
    6       24.543636   0.000000
    7       25.741953   0.000000
    8       26.983323   0.000000
 
  0.1818182E+00  0.9090909E-01 -0.6938894E-17  0.3606311E-01
    1       -2.269965   1.000000
    2       14.120602   0.000000
    3       16.530290   0.000000
    4       19.042786   0.000000
    5       22.477607   0.000000
    6       24.018495   0.000000
    7       26.322281   0.000000
    8       28.850753   0.000000
 
  0.2727273E+00  0.9090909E-01  0.2775558E-16  0.3606311E-01
    1       -0.714165   1.000000
    2       10.327541   1.000000
    3       15.380488   0.000000
    4       17.962276   0.000000
    5       21.513956   0.000000
    6       23.538765   0.000000
    7       27.236490   0.000000
    8       30.776378   0.000000
 
  0.3636364E+00  0.9090909E-01  0.0000000E+00  0.3606311E-01
    1        1.341747   1.000000
    2        6.892118   1.000000
    3       14.686671   0.000000
    4       17.292733   0.000000
    5       20.869552   0.000000
    6       23.096416   0.000000
    7       28.814787   0.000000
    8       31.916544   0.000000
 
  0.4545455E+00  0.9090909E-01  0.0000000E+00  0.1803156E-01
    1        3.791326   1.000000
    2        3.978821   1.000000
    3       14.454377   0.000000
    4       17.066643   0.000000
    5       20.647716   0.000000
    6       22.928069   0.000000
    7       30.502001   0.000000
    8       30.979348   0.000000
 
  0.1818182E+00  0.1818182E+00 -0.1387779E-16  0.1803156E-01
    1       -0.972587   1.000000
    2       12.619061   0.000000
    3       12.806417   0.000000
    4       17.789199   0.000000
    5       23.177195   0.000000
    6       23.927956   0.000000
    7       28.096299   0.000000
    8       29.139462   0.000000
 
  0.2727273E+00  0.1818182E+00  0.2775558E-16  0.3606311E-01
    1        0.830105   1.000000
    2        9.107718   1.000000
    3       11.757664   0.000000
    4       16.918368   0.000000
    5       22.747048   0.000000
    6       24.837516   0.000000
    7       28.240990   0.000000
    8       31.045488   0.000000
 
  0.3636364E+00  0.1818182E+00 -0.6938894E-16  0.3606311E-01
    1        3.123359   1.000000
    2        5.896615   1.000000
    3       11.275544   0.000000
    4       16.472370   0.000000
    5       22.353224   0.000000
    6       25.783234   0.000000
    7       28.563101   0.000000
    8       30.533575   0.000000
 
  0.2727273E+00  0.2727273E+00  0.0000000E+00  0.1803156E-01
    1        2.870862   1.000000
    2        8.318740   1.000000
    3        8.426002   1.000000
    4       16.268556   0.000000
    5       24.152134   0.000000
    6       24.856575   0.000000
    7       28.914387   0.000000
    8       31.391834   0.000000
 
  0.3636364E+00  0.2727273E+00  0.0000000E+00  0.1803156E-01
    1        5.321243   1.000000
    2        5.464958   1.000000
    3        8.127889   1.000000
    4       16.047144   0.000000
    5       24.245829   0.000000
    6       26.252447   0.000000
    7       27.198295   0.000000
    8       32.257030   0.000000
 
  0.9090909E-01  0.9090909E-01  0.9090909E-01  0.6010518E-02
    1       -2.530412   1.000000
    2       16.013883   0.000000
    3       16.665615   0.000000
    4       16.665615   0.000000
    5       25.281748   0.000000
    6       25.281748   0.000000
    7       27.065880   0.000000
    8       27.065880   0.000000
 
  0.1818182E+00  0.9090909E-01  0.9090909E-01  0.1803156E-01
    1       -1.231433   1.000000
    2       12.489469   0.000000
    3       14.887586   0.000000
    4       15.299753   0.000000
    5       25.031043   0.000000
    6       25.499061   0.000000
    7       28.332523   0.000000
    8       28.488598   0.000000
 
  0.2727273E+00  0.9090909E-01  0.9090909E-01  0.1803156E-01
    1        0.573620   1.000000
    2        8.869366   1.000000
    3       13.957960   0.000000
    4       14.356787   0.000000
    5       24.566652   0.000000
    6       24.889676   0.000000
    7       29.903564   0.000000
    8       30.366082   0.000000
 
  0.3636364E+00  0.9090909E-01  0.9090909E-01  0.1803156E-01
    1        2.870029   1.000000
    2        5.648877   1.000000
    3       13.493753   0.000000
    4       13.878247   0.000000
    5       24.260546   0.000000
    6       24.529153   0.000000
    7       31.375833   0.000000
    8       32.119235   0.000000
 
 -0.9090909E-01  0.9090909E-01  0.9090909E-01  0.4507889E-02
    1       -3.575427   1.000000
    2       19.331775   0.000000
    3       19.331775   0.000000
    4       20.908521   0.000000
    5       23.397007   0.000000
    6       23.928023   0.000000
    7       25.534665   0.000000
    8       25.534665   0.000000
 
  0.1818182E+00  0.1818182E+00  0.9090909E-01  0.1803156E-01
    1        0.316891   1.000000
    2       11.216665   0.000000
    3       11.390335   0.000000
    4       13.952513   0.000000
    5       26.173159   0.000000
    6       26.993308   0.000000
    7       29.120927   0.000000
    8       29.942211   0.000000
 
  0.2727273E+00  0.1818182E+00  0.9090909E-01  0.3606311E-01
    1        2.363350   1.000000
    2        7.886291   1.000000
    3       10.580750   0.789345
    4       13.245279   0.000000
    5       26.224893   0.000000
    6       27.593673   0.000000
    7       30.202606   0.000000
    8       31.753556   0.000000
 
  0.3636364E+00  0.1818182E+00  0.9090909E-01  0.1803156E-01
    1        4.815500   1.000000
    2        4.973392   1.000000
    3       10.338003   1.000000
    4       13.008730   0.000000
    5       26.116781   0.000000
    6       27.805708   0.000000
    7       31.110127   0.000000
    8       32.010415   0.000000
 
 -0.1818182E+00  0.1818182E+00  0.9090909E-01  0.1803156E-01
    1       -2.791118   1.000000
    2       16.085909   0.000000
    3       17.582537   0.000000
    4       20.004731   0.000000
    5       22.159215   0.000000
    6       23.034327   0.000000
    7       25.763143   0.000000
    8       28.021866   0.000000
 
  0.2727273E+00  0.2727273E+00  0.9090909E-01  0.1803156E-01
    1        4.640556   1.000000
    2        7.336452   1.000000
    3        7.451414   1.000000
    4       12.774159   0.000000
    5       27.577151   0.000000
    6       28.674203   0.000000
    7       30.390263   0.000000
    8       32.673785   0.000000
 
 -0.2727273E+00  0.2727273E+00  0.9090909E-01  0.1803156E-01
    1       -1.490544   1.000000
    2       12.229504   0.000000
    3       16.229156   0.000000
    4       18.914331   0.000000
    5       21.784979   0.000000
    6       22.345601   0.000000
    7       25.514474   0.000000
    8       31.256966   0.000000
 
 -0.1818182E+00  0.2727273E+00  0.9090909E-01  0.1803156E-01
    1       -1.749969   1.000000
    2       14.388897   0.000000
    3       14.561142   0.000000
    4       19.519615   0.000000
    5       20.946411   0.000000
    6       22.683679   0.000000
    7       27.495180   0.000000
    8       28.364355   0.000000
 
 -0.3636364E+00  0.3636364E+00  0.9090909E-01  0.1803156E-01
    1        0.316405   1.000000
    2        8.614998   1.000000
    3       15.318366   0.000000
    4       18.045286   0.000000
    5       20.885424   0.000000
    6       22.498638   0.000000
    7       26.105633   0.000000
    8       31.612966   0.000000
 
 -0.2727273E+00  0.3636364E+00  0.9090909E-01  0.3606311E-01
    1       -0.198112   1.000000
    2       10.784660   0.000000
    3       13.302173   0.000000
    4       18.864332   0.000000
    5       21.071511   0.000000
    6       22.243851   0.000000
    7       27.170773   0.000000
    8       30.422286   0.000000
 
 -0.4545455E+00  0.4545455E+00  0.9090909E-01  0.1803156E-01
    1        2.614691   1.000000
    2        5.395465   1.000000
    3       14.861540   0.000000
    4       17.591271   0.000000
    5       20.424953   0.000000
    6       22.412851   0.000000
    7       27.673531   0.000000
    8       29.879513   0.000000
 
 -0.3636364E+00  0.4545455E+00  0.9090909E-01  0.3606311E-01
    1        1.852272   1.000000
    2        7.380006   1.000000
    3       12.589842   0.000000
    4       18.253809   0.000000
    5       20.739995   0.000000
    6       23.298577   0.000000
    7       26.604984   0.000000
    8       29.510186   0.000000
 
 -0.2727273E+00  0.4545455E+00  0.9090909E-01  0.1803156E-01
    1        1.597334   1.000000
    2        9.762491   1.000000
    3        9.864542   1.000000
    4       19.175228   0.000000
    5       21.164853   0.000000
    6       21.754232   0.000000
    7       27.798626   0.000000
    8       30.375444   0.000000
 
 -0.4545455E+00 -0.4545455E+00  0.9090909E-01  0.1803156E-01
    1        4.303244   1.000000
    2        4.470998   1.000000
    3       12.351863   0.000000
    4       18.037871   0.000000
    5       20.551531   0.000000
    6       24.160623   0.000000
    7       26.343341   0.000000
    8       28.493602   0.000000
 
 -0.3636364E+00 -0.4545455E+00  0.9090909E-01  0.3606311E-01
    1        3.880515   1.000000
    2        6.635237   1.000000
    3        9.326171   1.000000
    4       18.979828   0.000000
    5       21.093517   0.000000
    6       23.099187   0.000000
    7       25.439269   0.000000
    8       31.116676   0.000000
 
 -0.3636364E+00 -0.3636364E+00  0.9090909E-01  0.6010518E-02
    1        6.269135   1.000000
    2        6.443464   1.000000
    3        6.443464   1.000000
    4       19.042146   0.000000
    5       22.819658   0.000000
    6       23.039576   0.000000
    7       23.039576   0.000000
    8       34.222040   0.000000
 
  0.1818182E+00  0.1818182E+00  0.1818182E+00  0.6010518E-02
    1        2.109103   1.000000
    2       10.193767   1.000000
    3       10.424948   1.000000
    4       10.424948   1.000000
    5       28.914084   0.000000
    6       28.914084   0.000000
    7       30.704618   0.000000
    8       30.704618   0.000000
 
  0.2727273E+00  0.1818182E+00  0.1818182E+00  0.1803156E-01
    1        4.390029   1.000000
    2        7.146405   1.000000
    3        9.791051   1.000000
    4        9.938228   1.000000
    5       29.525774   0.000000
    6       29.774703   0.000000
    7       32.034741   0.000000
    8       32.429117   0.000000
 
 -0.1818182E+00  0.1818182E+00  0.1818182E+00  0.4507889E-02
    1       -2.009737   1.000000
    2       15.801628   0.000000
    3       15.801628   0.000000
    4       18.001187   0.000000
    5       19.273624   0.000000
    6       25.460315   0.000000
    7       27.294338   0.000000
    8       27.294338   0.000000
 
  0.2727273E+00  0.2727273E+00  0.1818182E+00  0.6010518E-02
    1        6.772460   1.000000
    2        6.961388   1.000000
    3        6.961388   1.000000
    4        9.625234   1.000000
    5       30.740155   0.000000
    6       31.800691   0.000000
    7       31.800691   0.000000
    8       33.557708   0.000000
 
 -0.2727273E+00  0.2727273E+00  0.1818182E+00  0.1803156E-01
    1       -0.714028   1.000000
    2       12.823641   0.000000
    3       14.424609   0.000000
    4       17.094410   0.000000
    5       18.868628   0.000000
    6       24.931755   0.000000
    7       27.231393   0.000000
    8       30.038298   0.000000
 
 -0.3636364E+00  0.3636364E+00  0.1818182E+00  0.1803156E-01
    1        1.085802   1.000000
    2        9.322434   1.000000
    3       13.498739   0.000000
    4       16.210420   0.000000
    5       20.164741   0.000000
    6       24.105047   0.000000
    7       26.107647   0.000000
    8       29.048216   0.000000
 
 -0.2727273E+00  0.3636364E+00  0.1818182E+00  0.1803156E-01
    1        0.829691   1.000000
    2       11.586670   0.000000
    3       11.677661   0.000000
    4       17.215504   0.000000
    5       17.948948   0.000000
    6       24.733946   0.000000
    7       27.141171   0.000000
    8       29.751682   0.000000
 
 -0.4545455E+00  0.4545455E+00  0.1818182E+00  0.1803156E-01
    1        3.374285   1.000000
    2        6.136652   1.000000
    3       13.034316   0.000000
    4       15.735602   0.000000
    5       21.835534   0.000000
    6       23.665527   0.000000
    7       24.536179   0.000000
    8       28.116192   0.000000
 
 -0.3636364E+00  0.4545455E+00  0.1818182E+00  0.3606311E-01
    1        2.868431   1.000000
    2        8.340330   1.000000
    3       10.912681   0.000000
    4       16.815632   0.000000
    5       19.297577   0.000000
    6       23.703875   0.000000
    7       25.012570   0.000000
    8       30.319072   0.000000
 
 -0.4545455E+00 -0.4545455E+00  0.1818182E+00  0.1803156E-01
    1        5.317071   1.000000
    2        5.451213   1.000000
    3       10.671523   0.038927
    4       16.593772   0.000000
    5       20.926415   0.000000
    6       22.088470   0.000000
    7       24.421630   0.000000
    8       30.287189   0.000000
 
 -0.3636364E+00 -0.4545455E+00  0.1818182E+00  0.1803156E-01
    1        5.131651   1.000000
    2        7.804205   1.000000
    3        7.892339   1.000000
    4       18.338486   0.000000
    5       19.211647   0.000000
    6       21.386248   0.000000
    7       24.376000   0.000000
    8       33.241856   0.000000
 
 -0.2727273E+00  0.2727273E+00  0.2727273E+00  0.4507889E-02
    1        0.573230   1.000000
    2       13.034628   0.000000
    3       13.034628   0.000000
    4       15.425467   0.000000
    5       16.117574   0.000000
    6       26.785296   0.000000
    7       27.982322   0.000000
    8       29.542255   0.000000
 
 -0.3636364E+00  0.3636364E+00  0.2727273E+00  0.1803156E-01
    1        2.360427   1.000000
    2       10.427762   1.000000
    3       12.101299   0.000000
    4       14.741031   0.000000
    5       16.448463   0.000000
    6       23.779095   0.000000
    7       27.787237   0.000000
    8       30.351484   0.000000
 
 -0.4545455E+00  0.4545455E+00  0.2727273E+00  0.1803156E-01
    1        4.629658   1.000000
    2        7.353076   1.000000
    3       11.633448   0.000000
    4       14.265671   0.000000
    5       18.366715   0.000000
    6       20.957403   0.000000
    7       27.385990   0.000000
    8       30.465545   0.000000
 
 -0.3636364E+00  0.4545455E+00  0.2727273E+00  0.1803156E-01
    1        4.378625   1.000000
    2        9.669858   1.000000
    3        9.734962   1.000000
    4       15.450627   0.000000
    5       15.915180   0.000000
    6       20.708311   0.000000
    7       28.160748   0.000000
    8       32.626526   0.000000
 
 -0.4545455E+00 -0.4545455E+00  0.2727273E+00  0.1803156E-01
    1        6.807249   1.000000
    2        6.904583   1.000000
    3        9.460937   1.000000
    4       15.405972   0.000000
    5       17.702880   0.000000
    6       18.218657   0.000000
    7       28.044404   0.000000
    8       33.247070   0.000000
 
 -0.3636364E+00  0.3636364E+00  0.3636364E+00  0.4507889E-02
    1        4.126909   1.000000
    2       11.164496   0.000000
    3       11.164496   0.000000
    4       13.566258   0.000000
    5       13.998688   0.000000
    6       20.479806   0.000000
    7       31.390475   0.000000
    8       32.419853   0.000000
 
 -0.4545455E+00  0.4545455E+00  0.3636364E+00  0.1803156E-01
    1        6.358520   1.000000
    2        8.973066   1.000000
    3       10.695380   0.007383
    4       13.254538   0.000000
    5       14.972680   0.000000
    6       17.492737   0.000000
    7       31.440744   0.000000
    8       33.355243   0.000000
 
 -0.4545455E+00 -0.4545455E+00  0.3636364E+00  0.6010518E-02
    1        8.667530   1.000000
    2        8.760177   1.000000
    3        8.760177   1.000000
    4       14.382856   0.000000
    5       14.893433   0.000000
    6       14.893433   0.000000
    7       32.000919   0.000000
    8       35.572724   0.000000
 
 -0.4545455E+00  0.4545455E+00  0.4545455E+00  0.4507889E-02
    1        8.484729   1.000000
    2       10.225611   1.000000
    3       10.225611   1.000000
    4       12.585929   0.000000
    5       12.935489   0.000000
    6       14.503643   0.000000
    7       35.105681   0.000000
    8       35.381716   0.000000
