<?xml version="1.0" encoding="ISO-8859-1"?>
<modeling>
 <generator>
  <i name="program" type="string">vasp </i>
  <i name="version" type="string">6.2.0  </i>
  <i name="subversion" type="string">18Jan21 (build Aug 12 2022 13:00:08) complex                          parallel </i>
  <i name="platform" type="string">LinuxIFC </i>
  <i name="date" type="string">2024 11 05 </i>
  <i name="time" type="string">05:28:57 </i>
 </generator>
 <incar>
  <i type="int" name="ISTART">     0</i>
  <i type="string" name="PREC">Accurate      (Accurate strictly avoids</i>
  <i type="logical" name="ADDGRID"> T  </i>
  <i type="int" name="ISPIN">     1</i>
  <i type="int" name="NELM">    90</i>
  <i type="int" name="NELMIN">     6</i>
  <i type="int" name="IBRION">     2</i>
  <i name="EDIFF">      0.00000100</i>
  <i name="EDIFFG">     -0.00200000</i>
  <i type="int" name="NSW">   100</i>
  <i type="int" name="ISIF">     2</i>
  <i type="int" name="ISYM">     2</i>
  <i name="ENCUT">    350.00000000</i>
  <i type="logical" name="LREAL"> F  </i>
  <i type="int" name="ISMEAR">     0</i>
  <i name="SIGMA">      0.05000000</i>
  <i type="logical" name="LWAVE"> F  </i>
  <i type="logical" name="LCHARG"> F  </i>
  <i type="logical" name="LASPH"> T  </i>
 </incar>
 <primitive_cell>
  <structure name="primitive_cell" >
   <crystal>
    <varray name="basis" >
     <v>       1.51332563       1.51332563       1.51332563 </v>
     <v>       1.51332563      -1.51332563      -1.51332563 </v>
     <v>      -1.51332563       1.51332563      -1.51332563 </v>
    </varray>
    <i name="volume">     13.86299778 </i>
    <varray name="rec_basis" >
     <v>       0.33039816       0.33039816       0.00000000 </v>
     <v>       0.33039816       0.00000000      -0.33039816 </v>
     <v>       0.00000000       0.33039816      -0.33039816 </v>
    </varray>
   </crystal>
   <varray name="positions" >
    <v>       0.00000000       0.00000000       0.00000000 </v>
   </varray>
  </structure>
  <varray name="primitive_index" >
   <v type="int" >        1 </v>
  </varray>
 </primitive_cell>
 <kpoints>
  <generation param="Monkhorst-Pack">
   <v type="int" name="divisions">      11       11       11 </v>
   <v name="usershift">      0.00000000       0.00000000       0.00000000 </v>
   <v name="genvec1">      0.09090909       0.00000000       0.00000000 </v>
   <v name="genvec2">      0.00000000       0.09090909       0.00000000 </v>
   <v name="genvec3">      0.00000000       0.00000000       0.09090909 </v>
   <v name="shift">      0.00000000       0.00000000       0.00000000 </v>
  </generation>
  <varray name="kpointlist" >
   <v>       0.00000000       0.00000000       0.00000000 </v>
   <v>       0.09090909       0.00000000       0.00000000 </v>
   <v>       0.18181818       0.00000000       0.00000000 </v>
   <v>       0.27272727       0.00000000       0.00000000 </v>
   <v>       0.36363636       0.00000000       0.00000000 </v>
   <v>       0.45454545       0.00000000       0.00000000 </v>
   <v>       0.09090909       0.09090909       0.00000000 </v>
   <v>       0.18181818       0.09090909      -0.00000000 </v>
   <v>       0.27272727       0.09090909       0.00000000 </v>
   <v>       0.36363636       0.09090909       0.00000000 </v>
   <v>       0.45454545       0.09090909       0.00000000 </v>
   <v>       0.18181818       0.18181818      -0.00000000 </v>
   <v>       0.27272727       0.18181818       0.00000000 </v>
   <v>       0.36363636       0.18181818      -0.00000000 </v>
   <v>       0.27272727       0.27272727       0.00000000 </v>
   <v>       0.36363636       0.27272727       0.00000000 </v>
   <v>       0.09090909       0.09090909       0.09090909 </v>
   <v>       0.18181818       0.09090909       0.09090909 </v>
   <v>       0.27272727       0.09090909       0.09090909 </v>
   <v>       0.36363636       0.09090909       0.09090909 </v>
   <v>      -0.09090909       0.09090909       0.09090909 </v>
   <v>       0.18181818       0.18181818       0.09090909 </v>
   <v>       0.27272727       0.18181818       0.09090909 </v>
   <v>       0.36363636       0.18181818       0.09090909 </v>
   <v>      -0.18181818       0.18181818       0.09090909 </v>
   <v>       0.27272727       0.27272727       0.09090909 </v>
   <v>      -0.27272727       0.27272727       0.09090909 </v>
   <v>      -0.18181818       0.27272727       0.09090909 </v>
   <v>      -0.36363636       0.36363636       0.09090909 </v>
   <v>      -0.27272727       0.36363636       0.09090909 </v>
   <v>      -0.45454545       0.45454545       0.09090909 </v>
   <v>      -0.36363636       0.45454545       0.09090909 </v>
   <v>      -0.27272727       0.45454545       0.09090909 </v>
   <v>      -0.45454545      -0.45454545       0.09090909 </v>
   <v>      -0.36363636      -0.45454545       0.09090909 </v>
   <v>      -0.36363636      -0.36363636       0.09090909 </v>
   <v>       0.18181818       0.18181818       0.18181818 </v>
   <v>       0.27272727       0.18181818       0.18181818 </v>
   <v>      -0.18181818       0.18181818       0.18181818 </v>
   <v>       0.27272727       0.27272727       0.18181818 </v>
   <v>      -0.27272727       0.27272727       0.18181818 </v>
   <v>      -0.36363636       0.36363636       0.18181818 </v>
   <v>      -0.27272727       0.36363636       0.18181818 </v>
   <v>      -0.45454545       0.45454545       0.18181818 </v>
   <v>      -0.36363636       0.45454545       0.18181818 </v>
   <v>      -0.45454545      -0.45454545       0.18181818 </v>
   <v>      -0.36363636      -0.45454545       0.18181818 </v>
   <v>      -0.27272727       0.27272727       0.27272727 </v>
   <v>      -0.36363636       0.36363636       0.27272727 </v>
   <v>      -0.45454545       0.45454545       0.27272727 </v>
   <v>      -0.36363636       0.45454545       0.27272727 </v>
   <v>      -0.45454545      -0.45454545       0.27272727 </v>
   <v>      -0.36363636       0.36363636       0.36363636 </v>
   <v>      -0.45454545       0.45454545       0.36363636 </v>
   <v>      -0.45454545      -0.45454545       0.36363636 </v>
   <v>      -0.45454545       0.45454545       0.45454545 </v>
  </varray>
  <varray name="weights" >
   <v>       0.00075131 </v>
   <v>       0.00901578 </v>
   <v>       0.00901578 </v>
   <v>       0.00901578 </v>
   <v>       0.00901578 </v>
   <v>       0.00901578 </v>
   <v>       0.01803156 </v>
   <v>       0.03606311 </v>
   <v>       0.03606311 </v>
   <v>       0.03606311 </v>
   <v>       0.01803156 </v>
   <v>       0.01803156 </v>
   <v>       0.03606311 </v>
   <v>       0.03606311 </v>
   <v>       0.01803156 </v>
   <v>       0.01803156 </v>
   <v>       0.00601052 </v>
   <v>       0.01803156 </v>
   <v>       0.01803156 </v>
   <v>       0.01803156 </v>
   <v>       0.00450789 </v>
   <v>       0.01803156 </v>
   <v>       0.03606311 </v>
   <v>       0.01803156 </v>
   <v>       0.01803156 </v>
   <v>       0.01803156 </v>
   <v>       0.01803156 </v>
   <v>       0.01803156 </v>
   <v>       0.01803156 </v>
   <v>       0.03606311 </v>
   <v>       0.01803156 </v>
   <v>       0.03606311 </v>
   <v>       0.01803156 </v>
   <v>       0.01803156 </v>
   <v>       0.03606311 </v>
   <v>       0.00601052 </v>
   <v>       0.00601052 </v>
   <v>       0.01803156 </v>
   <v>       0.00450789 </v>
   <v>       0.00601052 </v>
   <v>       0.01803156 </v>
   <v>       0.01803156 </v>
   <v>       0.01803156 </v>
   <v>       0.01803156 </v>
   <v>       0.03606311 </v>
   <v>       0.01803156 </v>
   <v>       0.01803156 </v>
   <v>       0.00450789 </v>
   <v>       0.01803156 </v>
   <v>       0.01803156 </v>
   <v>       0.01803156 </v>
   <v>       0.01803156 </v>
   <v>       0.00450789 </v>
   <v>       0.01803156 </v>
   <v>       0.00601052 </v>
   <v>       0.00450789 </v>
  </varray>
 </kpoints>
 <parameters>
  <separator name="general" >
   <i type="string" name="SYSTEM">unknown system</i>
   <i type="logical" name="LCOMPAT"> F  </i>
  </separator>
  <separator name="electronic" >
   <i type="string" name="PREC">accura</i>
   <i name="ENMAX">    350.00000000</i>
   <i name="ENAUG">    322.06900000</i>
   <i name="EDIFF">      0.00000100</i>
   <i type="int" name="IALGO">    38</i>
   <i type="int" name="IWAVPR">    11</i>
   <i type="int" name="NBANDS">     8</i>
   <i type="int" name="NBANDSLOW">    -1</i>
   <i type="int" name="NBANDSHIGH">    -1</i>
   <i name="NELECT">      4.00000000</i>
   <i type="int" name="TURBO">     0</i>
   <i type="int" name="IRESTART">     0</i>
   <i type="int" name="NREBOOT">     0</i>
   <i type="int" name="NMIN">     0</i>
   <i name="EREF">      0.00000000</i>
   <separator name="electronic smearing" >
    <i type="int" name="ISMEAR">     0</i>
    <i name="SIGMA">      0.05000000</i>
    <i name="KSPACING">      0.50000000</i>
    <i type="logical" name="KGAMMA"> T  </i>
    <i type="logical" name="KBLOWUP"> T  </i>
   </separator>
   <separator name="electronic projectors" >
    <i type="logical" name="LREAL"> F  </i>
    <v name="ROPT">      0.00000000</v>
    <i type="int" name="LMAXPAW">  -100</i>
    <i type="int" name="LMAXMIX">     2</i>
    <i type="logical" name="NLSPLINE"> F  </i>
   </separator>
   <separator name="electronic startup" >
    <i type="int" name="ISTART">     0</i>
    <i type="int" name="ICHARG">     2</i>
    <i type="int" name="INIWAV">     1</i>
   </separator>
   <separator name="electronic spin" >
    <i type="int" name="ISPIN">     1</i>
    <i type="logical" name="LNONCOLLINEAR"> F  </i>
    <v name="MAGMOM">      1.00000000</v>
    <i name="NUPDOWN">     -1.00000000</i>
    <i type="logical" name="LSORBIT"> F  </i>
    <v name="SAXIS">      0.00000000      0.00000000      1.00000000</v>
    <i type="logical" name="LSPIRAL"> F  </i>
    <v name="QSPIRAL">      0.00000000      0.00000000      0.00000000</v>
    <i type="logical" name="LZEROZ"> F  </i>
   </separator>
   <separator name="electronic exchange-correlation" >
    <i type="logical" name="LASPH"> T  </i>
    <i type="logical" name="LMETAGGA"> F  </i>
   </separator>
   <separator name="electronic convergence" >
    <i type="int" name="NELM">    90</i>
    <i type="int" name="NELMDL">    -5</i>
    <i type="int" name="NELMIN">     6</i>
    <i name="ENINI">    350.00000000</i>
    <separator name="electronic convergence detail" >
     <i type="logical" name="LDIAG"> T  </i>
     <i type="logical" name="LSUBROT"> F  </i>
     <i name="WEIMIN">      0.00100000</i>
     <i name="EBREAK">      0.00000003</i>
     <i name="DEPER">      0.30000000</i>
     <i type="int" name="NRMM">     4</i>
     <i name="TIME">      0.40000000</i>
    </separator>
   </separator>
   <separator name="electronic mixer" >
    <i name="AMIX">      0.40000000</i>
    <i name="BMIX">      1.00000000</i>
    <i name="AMIN">      0.10000000</i>
    <i name="AMIX_MAG">      1.60000000</i>
    <i name="BMIX_MAG">      1.00000000</i>
    <separator name="electronic mixer details" >
     <i type="int" name="IMIX">     4</i>
     <i type="logical" name="MIXFIRST"> F  </i>
     <i type="int" name="MAXMIX">   -45</i>
     <i name="WC">    100.00000000</i>
     <i type="int" name="INIMIX">     1</i>
     <i type="int" name="MIXPRE">     1</i>
     <i type="int" name="MREMOVE">     5</i>
    </separator>
   </separator>
   <separator name="electronic dipolcorrection" >
    <i type="logical" name="LDIPOL"> F  </i>
    <i type="logical" name="LMONO"> F  </i>
    <i type="int" name="IDIPOL">     0</i>
    <i name="EPSILON">      1.00000000</i>
    <v name="DIPOL">   -100.00000000   -100.00000000   -100.00000000</v>
    <i name="EFIELD">      0.00000000</i>
   </separator>
  </separator>
  <separator name="grids" >
   <i type="int" name="NGX">    16</i>
   <i type="int" name="NGY">    16</i>
   <i type="int" name="NGZ">    16</i>
   <i type="int" name="NGXF">    32</i>
   <i type="int" name="NGYF">    32</i>
   <i type="int" name="NGZF">    32</i>
   <i type="logical" name="ADDGRID"> T  </i>
  </separator>
  <separator name="ionic" >
   <i type="int" name="NSW">   100</i>
   <i type="int" name="IBRION">     2</i>
   <i type="int" name="MDALGO">     0</i>
   <i type="int" name="ISIF">     2</i>
   <i name="PSTRESS">      0.00000000</i>
   <i name="EDIFFG">     -0.00200000</i>
   <i type="int" name="NFREE">     1</i>
   <i name="POTIM">      0.50000000</i>
   <i name="SMASS">     -3.00000000</i>
   <i name="SCALEE">      1.00000000</i>
  </separator>
  <separator name="ionic md" >
   <i name="TEBEG">      0.00010000</i>
   <i name="TEEND">      0.00010000</i>
   <i type="int" name="NBLOCK">     1</i>
   <i type="int" name="KBLOCK">   100</i>
   <i type="int" name="NPACO">   256</i>
   <i name="APACO">     16.00000000</i>
  </separator>
  <separator name="symmetry" >
   <i type="int" name="ISYM">     2</i>
   <i name="SYMPREC">      0.00001000</i>
  </separator>
  <separator name="dos" >
   <i type="int" name="LORBIT">     0</i>
   <v name="RWIGS">     -1.00000000</v>
   <i type="int" name="NEDOS">   301</i>
   <i name="EMIN">     10.00000000</i>
   <i name="EMAX">    -10.00000000</i>
   <i name="EFERMI">      0.00000000</i>
  </separator>
  <separator name="writing" >
   <i type="int" name="NWRITE">     2</i>
   <i type="logical" name="LWAVE"> F  </i>
   <i type="logical" name="LDOWNSAMPLE"> F  </i>
   <i type="logical" name="LCHARG"> F  </i>
   <i type="logical" name="LPARD"> F  </i>
   <i type="logical" name="LVTOT"> F  </i>
   <i type="logical" name="LVHAR"> F  </i>
   <i type="logical" name="LELF"> F  </i>
   <i type="logical" name="LOPTICS"> F  </i>
   <v name="STM">      0.00000000      0.00000000      0.00000000      0.00000000      0.00000000      0.00000000      0.00000000</v>
  </separator>
  <separator name="performance" >
   <i type="int" name="NPAR">     4</i>
   <i type="int" name="NSIM">     4</i>
   <i type="int" name="NBLK">    -1</i>
   <i type="logical" name="LPLANE"> T  </i>
   <i type="logical" name="LSCALAPACK"> T  </i>
   <i type="logical" name="LSCAAWARE"> F  </i>
   <i type="logical" name="LSCALU"> F  </i>
   <i type="logical" name="LASYNC"> F  </i>
   <i type="logical" name="LORBITALREAL"> F  </i>
  </separator>
  <separator name="miscellaneous" >
   <i type="int" name="IDIOT">     3</i>
   <i type="int" name="PHON_NSTRUCT">    -1</i>
   <i type="logical" name="LMUSIC"> F  </i>
   <v name="POMASS">     28.08500000</v>
   <v name="DARWINR">      0.00000000</v>
   <v name="DARWINV">      1.00000000</v>
   <i type="logical" name="LCORR"> T  </i>
  </separator>
  <i type="logical" name="GGA_COMPAT"> T  </i>
  <i type="logical" name="LBERRY"> F  </i>
  <i type="int" name="ICORELEVEL">     0</i>
  <i type="logical" name="LDAU"> F  </i>
  <i type="int" name="I_CONSTRAINED_M">     0</i>
  <separator name="electronic exchange-correlation" >
   <i type="string" name="GGA">--</i>
   <i type="int" name="VOSKOWN">     0</i>
   <i type="logical" name="LHFCALC"> F  </i>
   <i type="string" name="PRECFOCK"></i>
   <i type="logical" name="LSYMGRAD"> F  </i>
   <i type="logical" name="LHFONE"> F  </i>
   <i type="logical" name="LRHFCALC"> F  </i>
   <i type="logical" name="LTHOMAS"> F  </i>
   <i type="logical" name="LMODELHF"> F  </i>
   <i type="logical" name="LFOCKACE"> F  </i>
   <i name="ENCUT4O">     -1.00000000</i>
   <i type="int" name="EXXOEP">     0</i>
   <i type="int" name="FOURORBIT">     0</i>
   <i name="AEXX">      0.00000000</i>
   <i name="HFALPHA">      0.00000000</i>
   <i name="MCALPHA">      0.00000000</i>
   <i name="ALDAX">      1.00000000</i>
   <i name="AGGAX">      1.00000000</i>
   <i name="ALDAC">      1.00000000</i>
   <i name="AGGAC">      1.00000000</i>
   <i type="int" name="NKREDX">     1</i>
   <i type="int" name="NKREDY">     1</i>
   <i type="int" name="NKREDZ">     1</i>
   <i type="logical" name="SHIFTRED"> F  </i>
   <i type="logical" name="ODDONLY"> F  </i>
   <i type="logical" name="EVENONLY"> F  </i>
   <i type="int" name="LMAXFOCK">     0</i>
   <i type="int" name="NMAXFOCKAE">     0</i>
   <i type="logical" name="LFOCKAEDFT"> F  </i>
   <i name="HFSCREEN">      0.00000000</i>
   <i name="HFSCREENC">      0.00000000</i>
   <i type="int" name="NBANDSGWLOW">     0</i>
  </separator>
  <separator name="vdW DFT" >
   <i type="logical" name="LUSE_VDW"> F  </i>
   <i name="Zab_VDW">     -0.84910000</i>
   <i name="PARAM1">      0.12340000</i>
   <i name="PARAM2">      1.00000000</i>
   <i name="PARAM3">      0.00000000</i>
  </separator>
  <separator name="model GW" >
   <i type="int" name="MODEL_GW">     0</i>
   <i name="MODEL_EPS0">      8.31779867</i>
   <i name="MODEL_ALPHA">      1.00000000</i>
  </separator>
  <separator name="linear response parameters" >
   <i type="logical" name="LEPSILON"> F  </i>
   <i type="logical" name="LRPA"> F  </i>
   <i type="logical" name="LNABLA"> F  </i>
   <i type="logical" name="LVEL"> F  </i>
   <i type="int" name="KINTER">     0</i>
   <i name="CSHIFT">      0.10000000</i>
   <i name="OMEGAMAX">     -1.00000000</i>
   <i name="DEG_THRESHOLD">      0.00200000</i>
   <i name="RTIME">     -0.10000000</i>
   <i name="WPLASMAI">      0.00000000</i>
   <v name="DFIELD">      0.00000000      0.00000000      0.00000000</v>
   <v name="WPLASMA">      0.00000000      0.00000000      0.00000000      0.00000000      0.00000000      0.00000000      0.00000000      0.00000000      0.00000000</v>
  </separator>
  <separator name="orbital magnetization" >
   <i type="logical" name="NUCIND"> F  </i>
   <v name="MAGPOS">      0.00000000      0.00000000      0.00000000</v>
   <i type="logical" name="LNICSALL"> T  </i>
   <i type="logical" name="ORBITALMAG"> F  </i>
   <i type="logical" name="LMAGBLOCH"> F  </i>
   <i type="logical" name="LCHIMAG"> F  </i>
   <i type="logical" name="LGAUGE"> T  </i>
   <i type="int" name="MAGATOM">     0</i>
   <v name="MAGDIPOL">      0.00000000      0.00000000      0.00000000</v>
   <v name="AVECCONST">      0.00000000      0.00000000      0.00000000</v>
  </separator>
  <separator name="response functions" >
   <i type="logical" name="LFINITE_TEMPERATURE"> F  </i>
   <i type="logical" name="LADDER"> F  </i>
   <i type="logical" name="LRPAFORCE"> F  </i>
   <i type="logical" name="LFXC"> F  </i>
   <i type="logical" name="LHARTREE"> T  </i>
   <i type="int" name="IBSE">     0</i>
   <v type="int" name="KPOINT">    -1     0     0     0</v>
   <i type="logical" name="LTCTC"> F  </i>
   <i type="logical" name="LTCTE"> F  </i>
   <i type="logical" name="LTETE"> F  </i>
   <i type="logical" name="LTRIPLET"> F  </i>
   <i type="logical" name="LFXCEPS"> F  </i>
   <i type="logical" name="LFXHEG"> F  </i>
   <i type="int" name="NATURALO">     2</i>
   <i type="logical" name="LHOLEGF"> F  </i>
   <i type="logical" name="L2ORDER"> F  </i>
   <i type="logical" name="LDMP1"> F  </i>
   <i type="logical" name="LMP2LT"> F  </i>
   <i type="logical" name="LSMP2LT"> F  </i>
   <i type="logical" name="LGWLF"> F  </i>
   <i name="ENCUTGW">     -2.00000000</i>
   <i name="ENCUTGWSOFT">     -2.00000000</i>
   <i name="ENCUTLF">     -1.00000000</i>
   <i type="logical" name="LESF_SPLINES"> F  </i>
   <i type="int" name="LMAXMP2">    -1</i>
   <i name="SCISSOR">      0.00000000</i>
   <i type="int" name="NOMEGA">     0</i>
   <i type="int" name="NOMEGAR">     0</i>
   <i type="int" name="NBANDSGW">    -1</i>
   <i type="int" name="NBANDSO">    -1</i>
   <i type="int" name="NBANDSV">    -1</i>
   <i type="int" name="NELM">    90</i>
   <i type="int" name="NELMHF">     1</i>
   <i type="int" name="DIM">     3</i>
   <i type="int" name="IESPILON">     4</i>
   <i type="int" name="ANTIRES">     0</i>
   <i name="OMEGAMAX">    -30.00000000</i>
   <i name="OMEGAMIN">    -30.00000000</i>
   <i name="OMEGATL">   -200.00000000</i>
   <i type="int" name="OMEGAGRID">     0</i>
   <i name="CSHIFT">     -0.10000000</i>
   <i type="logical" name="LSELFENERGY"> F  </i>
   <i type="logical" name="LSPECTRAL"> F  </i>
   <i type="logical" name="LSPECTRALGW"> F  </i>
   <i type="logical" name="LSINGLES"> F  </i>
   <i type="logical" name="LFERMIGW"> F  </i>
   <i type="logical" name="ODDONLYGW"> F  </i>
   <i type="logical" name="EVENONLYGW"> F  </i>
   <i type="int" name="NKREDLFX">     1</i>
   <i type="int" name="NKREDLFY">     1</i>
   <i type="int" name="NKREDLFZ">     1</i>
   <i type="int" name="MAXMEM">  2800</i>
   <i type="int" name="TELESCOPE">     0</i>
   <i type="int" name="NTAUPAR">    -1</i>
   <i type="int" name="NOMEGAPAR">    -1</i>
   <i name="DAMP_NEWTON">      0.80000001</i>
   <i name="LAMBDA">      1.00000000</i>
  </separator>
  <separator name="External order field" >
   <i name="OFIELD_KAPPA">      0.00000000</i>
   <v name="OFIELD_K">      0.00000000      0.00000000      0.00000000</v>
   <i name="OFIELD_Q6_NEAR">      0.00000000</i>
   <i name="OFIELD_Q6_FAR">      0.00000000</i>
   <i name="OFIELD_A">      0.00000000</i>
  </separator>
 </parameters>
 <atominfo>
  <atoms>       1 </atoms>
  <types>       1 </types>
  <array name="atoms" >
   <dimension dim="1">ion</dimension>
   <field type="string">element</field>
   <field type="int">atomtype</field>
   <set>
    <rc><c>Si</c><c>   1</c></rc>
   </set>
  </array>
  <array name="atomtypes" >
   <dimension dim="1">type</dimension>
   <field type="int">atomspertype</field>
   <field type="string">element</field>
   <field>mass</field>
   <field>valence</field>
   <field type="string">pseudopotential</field>
   <set>
    <rc><c>   1</c><c>Si</c><c>     28.08500000</c><c>      4.00000000</c><c>  PAW_PBE Si 05Jan2001                  </c></rc>
   </set>
  </array>
 </atominfo>
 <structure name="initialpos" >
  <crystal>
   <varray name="basis" >
    <v>       1.51332563       1.51332563       1.51332563 </v>
    <v>       1.51332563      -1.51332563      -1.51332563 </v>
    <v>      -1.51332563       1.51332563      -1.51332563 </v>
   </varray>
   <i name="volume">     13.86299778 </i>
   <varray name="rec_basis" >
    <v>       0.33039816       0.33039816       0.00000000 </v>
    <v>       0.33039816       0.00000000      -0.33039816 </v>
    <v>       0.00000000       0.33039816      -0.33039816 </v>
   </varray>
  </crystal>
  <varray name="positions" >
   <v>       0.00000000       0.00000000       0.00000000 </v>
  </varray>
 </structure>
 <calculation>
  <scstep>
   <time name="dav">    0.17    0.17</time>
   <time name="total">    0.34    0.34</time>
   <energy>
    <i name="alphaZ">      2.42827211 </i>
    <i name="ewald">   -138.51397499 </i>
    <i name="hartreedc">     -0.48179554 </i>
    <i name="XCdc">     -8.69332224 </i>
    <i name="pawpsdc">     88.12379961 </i>
    <i name="pawaedc">    -70.53051779 </i>
    <i name="eentropy">     -0.00041749 </i>
    <i name="bandstr">     21.28461743 </i>
    <i name="atom">    103.06562707 </i>
    <i name="e_fr_energy">     -3.31771183 </i>
    <i name="e_wo_entrp">     -3.31729434 </i>
    <i name="e_0_energy">     -3.31750308 </i>
   </energy>
  </scstep>
  <scstep>
   <time name="dav">    0.24    0.26</time>
   <time name="total">    0.24    0.26</time>
   <energy>
    <i name="e_fr_energy">     -4.87974759 </i>
    <i name="e_wo_entrp">     -4.87892646 </i>
    <i name="e_0_energy">     -4.87933703 </i>
   </energy>
  </scstep>
  <scstep>
   <time name="dav">    0.16    0.17</time>
   <time name="total">    0.16    0.17</time>
   <energy>
    <i name="e_fr_energy">     -4.88921789 </i>
    <i name="e_wo_entrp">     -4.88839196 </i>
    <i name="e_0_energy">     -4.88880493 </i>
   </energy>
  </scstep>
  <scstep>
   <time name="dav">    0.24    0.25</time>
   <time name="total">    0.24    0.25</time>
   <energy>
    <i name="e_fr_energy">     -4.88922303 </i>
    <i name="e_wo_entrp">     -4.88839710 </i>
    <i name="e_0_energy">     -4.88881006 </i>
   </energy>
  </scstep>
  <scstep>
   <time name="dav">    0.17    0.18</time>
   <time name="total">    0.18    0.19</time>
   <energy>
    <i name="e_fr_energy">     -4.88922303 </i>
    <i name="e_wo_entrp">     -4.88839710 </i>
    <i name="e_0_energy">     -4.88881007 </i>
   </energy>
  </scstep>
  <scstep>
   <time name="dav">    0.15    0.15</time>
   <time name="total">    0.34    0.35</time>
   <energy>
    <i name="e_fr_energy">     -4.87739555 </i>
    <i name="e_wo_entrp">     -4.87655312 </i>
    <i name="e_0_energy">     -4.87697433 </i>
   </energy>
  </scstep>
  <scstep>
   <time name="dav">    0.16    0.16</time>
   <time name="total">    0.34    0.36</time>
   <energy>
    <i name="e_fr_energy">     -4.87062587 </i>
    <i name="e_wo_entrp">     -4.86975730 </i>
    <i name="e_0_energy">     -4.87019158 </i>
   </energy>
  </scstep>
  <scstep>
   <time name="dav">    0.22    0.22</time>
   <time name="total">    0.40    0.41</time>
   <energy>
    <i name="e_fr_energy">     -4.87060226 </i>
    <i name="e_wo_entrp">     -4.86973271 </i>
    <i name="e_0_energy">     -4.87016748 </i>
   </energy>
  </scstep>
  <scstep>
   <time name="dav">    0.16    0.16</time>
   <time name="total">    0.34    0.35</time>
   <energy>
    <i name="alphaZ">      2.42827211 </i>
    <i name="ewald">   -138.51397499 </i>
    <i name="hartreedc">     -0.35134349 </i>
    <i name="XCdc">     -8.62430553 </i>
    <i name="pawpsdc">    333.64822160 </i>
    <i name="pawaedc">   -316.08067563 </i>
    <i name="eentropy">     -0.00086979 </i>
    <i name="bandstr">     19.55844588 </i>
    <i name="atom">    103.06562707 </i>
    <i name="e_fr_energy">     -4.87060277 </i>
    <i name="e_wo_entrp">     -4.86973298 </i>
    <i name="e_0_energy">     -4.87016788 </i>
   </energy>
  </scstep>
  <structure>
   <crystal>
    <varray name="basis" >
     <v>       1.51332563       1.51332563       1.51332563 </v>
     <v>       1.51332563      -1.51332563      -1.51332563 </v>
     <v>      -1.51332563       1.51332563      -1.51332563 </v>
    </varray>
    <i name="volume">     13.86299778 </i>
    <varray name="rec_basis" >
     <v>       0.33039816       0.33039816       0.00000000 </v>
     <v>       0.33039816       0.00000000      -0.33039816 </v>
     <v>       0.00000000       0.33039816      -0.33039816 </v>
    </varray>
   </crystal>
   <varray name="positions" >
    <v>       0.00000000       0.00000000       0.00000000 </v>
   </varray>
  </structure>
  <varray name="forces" >
   <v>       0.00000000      -0.00000000       0.00000000 </v>
  </varray>
  <varray name="stress" >
   <v>      54.87917567      -0.00000000      -0.00000000 </v>
   <v>       0.00000000      54.87917567       0.00000000 </v>
   <v>       0.00000000       0.00000000      54.87917567 </v>
  </varray>
  <energy>
   <i name="e_fr_energy">     -4.87060277 </i>
   <i name="e_wo_entrp">     -4.86973298 </i>
   <i name="e_0_energy">     -4.87016788 </i>
  </energy>
  <time name="totalsc">    3.21    3.37</time>
  <eigenvalues>
   <array>
    <dimension dim="1">band</dimension>
    <dimension dim="2">kpoint</dimension>
    <dimension dim="3">spin</dimension>
    <field>eigene</field>
    <field>occ</field>
    <set>
     <set comment="spin 1">
      <set comment="kpoint 1">
       <r>   -4.1000    1.0000 </r>
       <r>   22.7204    0.0000 </r>
       <r>   22.7204    0.0000 </r>
       <r>   22.7204    0.0000 </r>
       <r>   23.4217    0.0000 </r>
       <r>   23.4217    0.0000 </r>
       <r>   23.4217    0.0000 </r>
       <r>   27.2222    0.0000 </r>
      </set>
      <set comment="kpoint 2">
       <r>   -3.8375    1.0000 </r>
       <r>   19.9034    0.0000 </r>
       <r>   20.8394    0.0000 </r>
       <r>   22.3119    0.0000 </r>
       <r>   22.6112    0.0000 </r>
       <r>   24.5218    0.0000 </r>
       <r>   25.7334    0.0000 </r>
       <r>   26.0347    0.0000 </r>
      </set>
      <set comment="kpoint 3">
       <r>   -3.0523    1.0000 </r>
       <r>   15.9569    0.0000 </r>
       <r>   19.0930    0.0000 </r>
       <r>   21.1200    0.0000 </r>
       <r>   21.3428    0.0000 </r>
       <r>   23.4280    0.0000 </r>
       <r>   26.9179    0.0000 </r>
       <r>   27.2547    0.0000 </r>
      </set>
      <set comment="kpoint 4">
       <r>   -1.7501    1.0000 </r>
       <r>   12.0123    0.0000 </r>
       <r>   17.7813    0.0000 </r>
       <r>   19.7764    0.0000 </r>
       <r>   20.3199    0.0000 </r>
       <r>   22.2164    0.0000 </r>
       <r>   28.1270    0.0000 </r>
       <r>   28.4390    0.0000 </r>
      </set>
      <set comment="kpoint 5">
       <r>    0.0592    1.0000 </r>
       <r>    8.3749    1.0000 </r>
       <r>   16.9088    0.0000 </r>
       <r>   18.8265    0.0000 </r>
       <r>   19.5482    0.0000 </r>
       <r>   21.3555    0.0000 </r>
       <r>   29.4989    0.0000 </r>
       <r>   30.2151    0.0000 </r>
      </set>
      <set comment="kpoint 6">
       <r>    2.3605    1.0000 </r>
       <r>    5.1470    1.0000 </r>
       <r>   16.4731    0.0000 </r>
       <r>   18.3399    0.0000 </r>
       <r>   19.1434    0.0000 </r>
       <r>   20.9086    0.0000 </r>
       <r>   31.0582    0.0000 </r>
       <r>   31.8860    0.0000 </r>
      </set>
      <set comment="kpoint 7">
       <r>   -3.3137    1.0000 </r>
       <r>   17.8734    0.0000 </r>
       <r>   18.2947    0.0000 </r>
       <r>   20.4425    0.0000 </r>
       <r>   23.1924    0.0000 </r>
       <r>   24.5436    0.0000 </r>
       <r>   25.7420    0.0000 </r>
       <r>   26.9833    0.0000 </r>
      </set>
      <set comment="kpoint 8">
       <r>   -2.2700    1.0000 </r>
       <r>   14.1206    0.0000 </r>
       <r>   16.5303    0.0000 </r>
       <r>   19.0428    0.0000 </r>
       <r>   22.4776    0.0000 </r>
       <r>   24.0185    0.0000 </r>
       <r>   26.3223    0.0000 </r>
       <r>   28.8508    0.0000 </r>
      </set>
      <set comment="kpoint 9">
       <r>   -0.7142    1.0000 </r>
       <r>   10.3275    1.0000 </r>
       <r>   15.3805    0.0000 </r>
       <r>   17.9623    0.0000 </r>
       <r>   21.5140    0.0000 </r>
       <r>   23.5388    0.0000 </r>
       <r>   27.2365    0.0000 </r>
       <r>   30.7764    0.0000 </r>
      </set>
      <set comment="kpoint 10">
       <r>    1.3417    1.0000 </r>
       <r>    6.8921    1.0000 </r>
       <r>   14.6867    0.0000 </r>
       <r>   17.2927    0.0000 </r>
       <r>   20.8696    0.0000 </r>
       <r>   23.0964    0.0000 </r>
       <r>   28.8148    0.0000 </r>
       <r>   31.9165    0.0000 </r>
      </set>
      <set comment="kpoint 11">
       <r>    3.7913    1.0000 </r>
       <r>    3.9788    1.0000 </r>
       <r>   14.4544    0.0000 </r>
       <r>   17.0666    0.0000 </r>
       <r>   20.6477    0.0000 </r>
       <r>   22.9281    0.0000 </r>
       <r>   30.5020    0.0000 </r>
       <r>   30.9793    0.0000 </r>
      </set>
      <set comment="kpoint 12">
       <r>   -0.9726    1.0000 </r>
       <r>   12.6191    0.0000 </r>
       <r>   12.8064    0.0000 </r>
       <r>   17.7892    0.0000 </r>
       <r>   23.1772    0.0000 </r>
       <r>   23.9280    0.0000 </r>
       <r>   28.0963    0.0000 </r>
       <r>   29.1395    0.0000 </r>
      </set>
      <set comment="kpoint 13">
       <r>    0.8301    1.0000 </r>
       <r>    9.1077    1.0000 </r>
       <r>   11.7577    0.0000 </r>
       <r>   16.9184    0.0000 </r>
       <r>   22.7470    0.0000 </r>
       <r>   24.8375    0.0000 </r>
       <r>   28.2410    0.0000 </r>
       <r>   31.0455    0.0000 </r>
      </set>
      <set comment="kpoint 14">
       <r>    3.1234    1.0000 </r>
       <r>    5.8966    1.0000 </r>
       <r>   11.2755    0.0000 </r>
       <r>   16.4724    0.0000 </r>
       <r>   22.3532    0.0000 </r>
       <r>   25.7832    0.0000 </r>
       <r>   28.5631    0.0000 </r>
       <r>   30.5336    0.0000 </r>
      </set>
      <set comment="kpoint 15">
       <r>    2.8709    1.0000 </r>
       <r>    8.3187    1.0000 </r>
       <r>    8.4260    1.0000 </r>
       <r>   16.2686    0.0000 </r>
       <r>   24.1521    0.0000 </r>
       <r>   24.8566    0.0000 </r>
       <r>   28.9144    0.0000 </r>
       <r>   31.3918    0.0000 </r>
      </set>
      <set comment="kpoint 16">
       <r>    5.3212    1.0000 </r>
       <r>    5.4650    1.0000 </r>
       <r>    8.1279    1.0000 </r>
       <r>   16.0471    0.0000 </r>
       <r>   24.2458    0.0000 </r>
       <r>   26.2524    0.0000 </r>
       <r>   27.1983    0.0000 </r>
       <r>   32.2570    0.0000 </r>
      </set>
      <set comment="kpoint 17">
       <r>   -2.5304    1.0000 </r>
       <r>   16.0139    0.0000 </r>
       <r>   16.6656    0.0000 </r>
       <r>   16.6656    0.0000 </r>
       <r>   25.2817    0.0000 </r>
       <r>   25.2817    0.0000 </r>
       <r>   27.0659    0.0000 </r>
       <r>   27.0659    0.0000 </r>
      </set>
      <set comment="kpoint 18">
       <r>   -1.2314    1.0000 </r>
       <r>   12.4895    0.0000 </r>
       <r>   14.8876    0.0000 </r>
       <r>   15.2998    0.0000 </r>
       <r>   25.0310    0.0000 </r>
       <r>   25.4991    0.0000 </r>
       <r>   28.3325    0.0000 </r>
       <r>   28.4886    0.0000 </r>
      </set>
      <set comment="kpoint 19">
       <r>    0.5736    1.0000 </r>
       <r>    8.8694    1.0000 </r>
       <r>   13.9580    0.0000 </r>
       <r>   14.3568    0.0000 </r>
       <r>   24.5667    0.0000 </r>
       <r>   24.8897    0.0000 </r>
       <r>   29.9036    0.0000 </r>
       <r>   30.3661    0.0000 </r>
      </set>
      <set comment="kpoint 20">
       <r>    2.8700    1.0000 </r>
       <r>    5.6489    1.0000 </r>
       <r>   13.4938    0.0000 </r>
       <r>   13.8782    0.0000 </r>
       <r>   24.2605    0.0000 </r>
       <r>   24.5292    0.0000 </r>
       <r>   31.3758    0.0000 </r>
       <r>   32.1192    0.0000 </r>
      </set>
      <set comment="kpoint 21">
       <r>   -3.5754    1.0000 </r>
       <r>   19.3318    0.0000 </r>
       <r>   19.3318    0.0000 </r>
       <r>   20.9085    0.0000 </r>
       <r>   23.3970    0.0000 </r>
       <r>   23.9280    0.0000 </r>
       <r>   25.5347    0.0000 </r>
       <r>   25.5347    0.0000 </r>
      </set>
      <set comment="kpoint 22">
       <r>    0.3169    1.0000 </r>
       <r>   11.2167    0.0000 </r>
       <r>   11.3903    0.0000 </r>
       <r>   13.9525    0.0000 </r>
       <r>   26.1732    0.0000 </r>
       <r>   26.9933    0.0000 </r>
       <r>   29.1209    0.0000 </r>
       <r>   29.9422    0.0000 </r>
      </set>
      <set comment="kpoint 23">
       <r>    2.3633    1.0000 </r>
       <r>    7.8863    1.0000 </r>
       <r>   10.5808    0.7893 </r>
       <r>   13.2453    0.0000 </r>
       <r>   26.2249    0.0000 </r>
       <r>   27.5937    0.0000 </r>
       <r>   30.2026    0.0000 </r>
       <r>   31.7536    0.0000 </r>
      </set>
      <set comment="kpoint 24">
       <r>    4.8155    1.0000 </r>
       <r>    4.9734    1.0000 </r>
       <r>   10.3380    1.0000 </r>
       <r>   13.0087    0.0000 </r>
       <r>   26.1168    0.0000 </r>
       <r>   27.8057    0.0000 </r>
       <r>   31.1101    0.0000 </r>
       <r>   32.0104    0.0000 </r>
      </set>
      <set comment="kpoint 25">
       <r>   -2.7911    1.0000 </r>
       <r>   16.0859    0.0000 </r>
       <r>   17.5825    0.0000 </r>
       <r>   20.0047    0.0000 </r>
       <r>   22.1592    0.0000 </r>
       <r>   23.0343    0.0000 </r>
       <r>   25.7631    0.0000 </r>
       <r>   28.0219    0.0000 </r>
      </set>
      <set comment="kpoint 26">
       <r>    4.6406    1.0000 </r>
       <r>    7.3365    1.0000 </r>
       <r>    7.4514    1.0000 </r>
       <r>   12.7742    0.0000 </r>
       <r>   27.5772    0.0000 </r>
       <r>   28.6742    0.0000 </r>
       <r>   30.3903    0.0000 </r>
       <r>   32.6738    0.0000 </r>
      </set>
      <set comment="kpoint 27">
       <r>   -1.4905    1.0000 </r>
       <r>   12.2295    0.0000 </r>
       <r>   16.2292    0.0000 </r>
       <r>   18.9143    0.0000 </r>
       <r>   21.7850    0.0000 </r>
       <r>   22.3456    0.0000 </r>
       <r>   25.5145    0.0000 </r>
       <r>   31.2570    0.0000 </r>
      </set>
      <set comment="kpoint 28">
       <r>   -1.7500    1.0000 </r>
       <r>   14.3889    0.0000 </r>
       <r>   14.5611    0.0000 </r>
       <r>   19.5196    0.0000 </r>
       <r>   20.9464    0.0000 </r>
       <r>   22.6837    0.0000 </r>
       <r>   27.4952    0.0000 </r>
       <r>   28.3644    0.0000 </r>
      </set>
      <set comment="kpoint 29">
       <r>    0.3164    1.0000 </r>
       <r>    8.6150    1.0000 </r>
       <r>   15.3184    0.0000 </r>
       <r>   18.0453    0.0000 </r>
       <r>   20.8854    0.0000 </r>
       <r>   22.4986    0.0000 </r>
       <r>   26.1056    0.0000 </r>
       <r>   31.6130    0.0000 </r>
      </set>
      <set comment="kpoint 30">
       <r>   -0.1981    1.0000 </r>
       <r>   10.7847    0.0000 </r>
       <r>   13.3022    0.0000 </r>
       <r>   18.8643    0.0000 </r>
       <r>   21.0715    0.0000 </r>
       <r>   22.2439    0.0000 </r>
       <r>   27.1708    0.0000 </r>
       <r>   30.4223    0.0000 </r>
      </set>
      <set comment="kpoint 31">
       <r>    2.6147    1.0000 </r>
       <r>    5.3955    1.0000 </r>
       <r>   14.8615    0.0000 </r>
       <r>   17.5913    0.0000 </r>
       <r>   20.4250    0.0000 </r>
       <r>   22.4129    0.0000 </r>
       <r>   27.6735    0.0000 </r>
       <r>   29.8795    0.0000 </r>
      </set>
      <set comment="kpoint 32">
       <r>    1.8523    1.0000 </r>
       <r>    7.3800    1.0000 </r>
       <r>   12.5898    0.0000 </r>
       <r>   18.2538    0.0000 </r>
       <r>   20.7400    0.0000 </r>
       <r>   23.2986    0.0000 </r>
       <r>   26.6050    0.0000 </r>
       <r>   29.5102    0.0000 </r>
      </set>
      <set comment="kpoint 33">
       <r>    1.5973    1.0000 </r>
       <r>    9.7625    1.0000 </r>
       <r>    9.8645    1.0000 </r>
       <r>   19.1752    0.0000 </r>
       <r>   21.1649    0.0000 </r>
       <r>   21.7542    0.0000 </r>
       <r>   27.7986    0.0000 </r>
       <r>   30.3754    0.0000 </r>
      </set>
      <set comment="kpoint 34">
       <r>    4.3032    1.0000 </r>
       <r>    4.4710    1.0000 </r>
       <r>   12.3519    0.0000 </r>
       <r>   18.0379    0.0000 </r>
       <r>   20.5515    0.0000 </r>
       <r>   24.1606    0.0000 </r>
       <r>   26.3433    0.0000 </r>
       <r>   28.4936    0.0000 </r>
      </set>
      <set comment="kpoint 35">
       <r>    3.8805    1.0000 </r>
       <r>    6.6352    1.0000 </r>
       <r>    9.3262    1.0000 </r>
       <r>   18.9798    0.0000 </r>
       <r>   21.0935    0.0000 </r>
       <r>   23.0992    0.0000 </r>
       <r>   25.4393    0.0000 </r>
       <r>   31.1167    0.0000 </r>
      </set>
      <set comment="kpoint 36">
       <r>    6.2691    1.0000 </r>
       <r>    6.4435    1.0000 </r>
       <r>    6.4435    1.0000 </r>
       <r>   19.0421    0.0000 </r>
       <r>   22.8197    0.0000 </r>
       <r>   23.0396    0.0000 </r>
       <r>   23.0396    0.0000 </r>
       <r>   34.2220    0.0000 </r>
      </set>
      <set comment="kpoint 37">
       <r>    2.1091    1.0000 </r>
       <r>   10.1938    1.0000 </r>
       <r>   10.4249    1.0000 </r>
       <r>   10.4249    1.0000 </r>
       <r>   28.9141    0.0000 </r>
       <r>   28.9141    0.0000 </r>
       <r>   30.7046    0.0000 </r>
       <r>   30.7046    0.0000 </r>
      </set>
      <set comment="kpoint 38">
       <r>    4.3900    1.0000 </r>
       <r>    7.1464    1.0000 </r>
       <r>    9.7911    1.0000 </r>
       <r>    9.9382    1.0000 </r>
       <r>   29.5258    0.0000 </r>
       <r>   29.7747    0.0000 </r>
       <r>   32.0347    0.0000 </r>
       <r>   32.4291    0.0000 </r>
      </set>
      <set comment="kpoint 39">
       <r>   -2.0097    1.0000 </r>
       <r>   15.8016    0.0000 </r>
       <r>   15.8016    0.0000 </r>
       <r>   18.0012    0.0000 </r>
       <r>   19.2736    0.0000 </r>
       <r>   25.4603    0.0000 </r>
       <r>   27.2943    0.0000 </r>
       <r>   27.2943    0.0000 </r>
      </set>
      <set comment="kpoint 40">
       <r>    6.7725    1.0000 </r>
       <r>    6.9614    1.0000 </r>
       <r>    6.9614    1.0000 </r>
       <r>    9.6252    1.0000 </r>
       <r>   30.7402    0.0000 </r>
       <r>   31.8007    0.0000 </r>
       <r>   31.8007    0.0000 </r>
       <r>   33.5577    0.0000 </r>
      </set>
      <set comment="kpoint 41">
       <r>   -0.7140    1.0000 </r>
       <r>   12.8236    0.0000 </r>
       <r>   14.4246    0.0000 </r>
       <r>   17.0944    0.0000 </r>
       <r>   18.8686    0.0000 </r>
       <r>   24.9318    0.0000 </r>
       <r>   27.2314    0.0000 </r>
       <r>   30.0383    0.0000 </r>
      </set>
      <set comment="kpoint 42">
       <r>    1.0858    1.0000 </r>
       <r>    9.3224    1.0000 </r>
       <r>   13.4987    0.0000 </r>
       <r>   16.2104    0.0000 </r>
       <r>   20.1647    0.0000 </r>
       <r>   24.1050    0.0000 </r>
       <r>   26.1076    0.0000 </r>
       <r>   29.0482    0.0000 </r>
      </set>
      <set comment="kpoint 43">
       <r>    0.8297    1.0000 </r>
       <r>   11.5867    0.0000 </r>
       <r>   11.6777    0.0000 </r>
       <r>   17.2155    0.0000 </r>
       <r>   17.9489    0.0000 </r>
       <r>   24.7339    0.0000 </r>
       <r>   27.1412    0.0000 </r>
       <r>   29.7517    0.0000 </r>
      </set>
      <set comment="kpoint 44">
       <r>    3.3743    1.0000 </r>
       <r>    6.1367    1.0000 </r>
       <r>   13.0343    0.0000 </r>
       <r>   15.7356    0.0000 </r>
       <r>   21.8355    0.0000 </r>
       <r>   23.6655    0.0000 </r>
       <r>   24.5362    0.0000 </r>
       <r>   28.1162    0.0000 </r>
      </set>
      <set comment="kpoint 45">
       <r>    2.8684    1.0000 </r>
       <r>    8.3403    1.0000 </r>
       <r>   10.9127    0.0000 </r>
       <r>   16.8156    0.0000 </r>
       <r>   19.2976    0.0000 </r>
       <r>   23.7039    0.0000 </r>
       <r>   25.0126    0.0000 </r>
       <r>   30.3191    0.0000 </r>
      </set>
      <set comment="kpoint 46">
       <r>    5.3171    1.0000 </r>
       <r>    5.4512    1.0000 </r>
       <r>   10.6715    0.0389 </r>
       <r>   16.5938    0.0000 </r>
       <r>   20.9264    0.0000 </r>
       <r>   22.0885    0.0000 </r>
       <r>   24.4216    0.0000 </r>
       <r>   30.2872    0.0000 </r>
      </set>
      <set comment="kpoint 47">
       <r>    5.1317    1.0000 </r>
       <r>    7.8042    1.0000 </r>
       <r>    7.8923    1.0000 </r>
       <r>   18.3385    0.0000 </r>
       <r>   19.2116    0.0000 </r>
       <r>   21.3862    0.0000 </r>
       <r>   24.3760    0.0000 </r>
       <r>   33.2419    0.0000 </r>
      </set>
      <set comment="kpoint 48">
       <r>    0.5732    1.0000 </r>
       <r>   13.0346    0.0000 </r>
       <r>   13.0346    0.0000 </r>
       <r>   15.4255    0.0000 </r>
       <r>   16.1176    0.0000 </r>
       <r>   26.7853    0.0000 </r>
       <r>   27.9823    0.0000 </r>
       <r>   29.5423    0.0000 </r>
      </set>
      <set comment="kpoint 49">
       <r>    2.3604    1.0000 </r>
       <r>   10.4278    1.0000 </r>
       <r>   12.1013    0.0000 </r>
       <r>   14.7410    0.0000 </r>
       <r>   16.4485    0.0000 </r>
       <r>   23.7791    0.0000 </r>
       <r>   27.7872    0.0000 </r>
       <r>   30.3515    0.0000 </r>
      </set>
      <set comment="kpoint 50">
       <r>    4.6297    1.0000 </r>
       <r>    7.3531    1.0000 </r>
       <r>   11.6334    0.0000 </r>
       <r>   14.2657    0.0000 </r>
       <r>   18.3667    0.0000 </r>
       <r>   20.9574    0.0000 </r>
       <r>   27.3860    0.0000 </r>
       <r>   30.4655    0.0000 </r>
      </set>
      <set comment="kpoint 51">
       <r>    4.3786    1.0000 </r>
       <r>    9.6699    1.0000 </r>
       <r>    9.7350    1.0000 </r>
       <r>   15.4506    0.0000 </r>
       <r>   15.9152    0.0000 </r>
       <r>   20.7083    0.0000 </r>
       <r>   28.1607    0.0000 </r>
       <r>   32.6265    0.0000 </r>
      </set>
      <set comment="kpoint 52">
       <r>    6.8072    1.0000 </r>
       <r>    6.9046    1.0000 </r>
       <r>    9.4609    1.0000 </r>
       <r>   15.4060    0.0000 </r>
       <r>   17.7029    0.0000 </r>
       <r>   18.2187    0.0000 </r>
       <r>   28.0444    0.0000 </r>
       <r>   33.2471    0.0000 </r>
      </set>
      <set comment="kpoint 53">
       <r>    4.1269    1.0000 </r>
       <r>   11.1645    0.0000 </r>
       <r>   11.1645    0.0000 </r>
       <r>   13.5663    0.0000 </r>
       <r>   13.9987    0.0000 </r>
       <r>   20.4798    0.0000 </r>
       <r>   31.3905    0.0000 </r>
       <r>   32.4199    0.0000 </r>
      </set>
      <set comment="kpoint 54">
       <r>    6.3585    1.0000 </r>
       <r>    8.9731    1.0000 </r>
       <r>   10.6954    0.0074 </r>
       <r>   13.2545    0.0000 </r>
       <r>   14.9727    0.0000 </r>
       <r>   17.4927    0.0000 </r>
       <r>   31.4407    0.0000 </r>
       <r>   33.3552    0.0000 </r>
      </set>
      <set comment="kpoint 55">
       <r>    8.6675    1.0000 </r>
       <r>    8.7602    1.0000 </r>
       <r>    8.7602    1.0000 </r>
       <r>   14.3829    0.0000 </r>
       <r>   14.8934    0.0000 </r>
       <r>   14.8934    0.0000 </r>
       <r>   32.0009    0.0000 </r>
       <r>   35.5727    0.0000 </r>
      </set>
      <set comment="kpoint 56">
       <r>    8.4847    1.0000 </r>
       <r>   10.2256    1.0000 </r>
       <r>   10.2256    1.0000 </r>
       <r>   12.5859    0.0000 </r>
       <r>   12.9355    0.0000 </r>
       <r>   14.5036    0.0000 </r>
       <r>   35.1057    0.0000 </r>
       <r>   35.3817    0.0000 </r>
      </set>
     </set>
    </set>
   </array>
  </eigenvalues>
  <separator name="orbital magnetization" >
   <v name="MAGDIPOLOUT">      0.00000000      0.00000000      0.00000000</v>
  </separator>
  <dos>
   <i name="efermi">     10.60918134 </i>
   <total>
    <array>
     <dimension dim="1">gridpoints</dimension>
     <dimension dim="2">spin</dimension>
     <field>energy</field>
     <field>total</field>
     <field>integrated</field>
     <set>
      <set comment="spin 1">
       <r>    -6.0836     0.0000     0.0000 </r>
       <r>    -5.9381     0.0000     0.0000 </r>
       <r>    -5.7927     0.0000     0.0000 </r>
       <r>    -5.6472     0.0000     0.0000 </r>
       <r>    -5.5017     0.0000     0.0000 </r>
       <r>    -5.3563     0.0000     0.0000 </r>
       <r>    -5.2108     0.0000     0.0000 </r>
       <r>    -5.0653     0.0000     0.0000 </r>
       <r>    -4.9199     0.0000     0.0000 </r>
       <r>    -4.7744     0.0000     0.0000 </r>
       <r>    -4.6289     0.0000     0.0000 </r>
       <r>    -4.4835     0.0000     0.0000 </r>
       <r>    -4.3380     0.0000     0.0000 </r>
       <r>    -4.1925     0.0000     0.0000 </r>
       <r>    -4.0471     0.0096     0.0014 </r>
       <r>    -3.9016     0.0050     0.0021 </r>
       <r>    -3.7561     0.1183     0.0193 </r>
       <r>    -3.6107     0.0112     0.0210 </r>
       <r>    -3.4652     0.0520     0.0285 </r>
       <r>    -3.3197     0.1072     0.0441 </r>
       <r>    -3.1743     0.1408     0.0646 </r>
       <r>    -3.0288     0.0925     0.0781 </r>
       <r>    -2.8833     0.0325     0.0828 </r>
       <r>    -2.7379     0.2304     0.1163 </r>
       <r>    -2.5924     0.0196     0.1192 </r>
       <r>    -2.4469     0.0786     0.1306 </r>
       <r>    -2.3015     0.0932     0.1442 </r>
       <r>    -2.1560     0.4030     0.2028 </r>
       <r>    -2.0105     0.0307     0.2073 </r>
       <r>    -1.8651     0.0318     0.2119 </r>
       <r>    -1.7196     0.2992     0.2554 </r>
       <r>    -1.5741     0.0747     0.2663 </r>
       <r>    -1.4287     0.2357     0.3006 </r>
       <r>    -1.2832     0.0277     0.3046 </r>
       <r>    -1.1377     0.2292     0.3379 </r>
       <r>    -0.9923     0.0726     0.3485 </r>
       <r>    -0.8468     0.1763     0.3742 </r>
       <r>    -0.7013     0.4769     0.4435 </r>
       <r>    -0.5559     0.2668     0.4823 </r>
       <r>    -0.4104     0.0000     0.4823 </r>
       <r>    -0.2649     0.0146     0.4845 </r>
       <r>    -0.1195     0.4748     0.5535 </r>
       <r>     0.0260     0.0280     0.5576 </r>
       <r>     0.1715     0.1023     0.5725 </r>
       <r>     0.3169     0.2496     0.6088 </r>
       <r>     0.4624     0.2465     0.6447 </r>
       <r>     0.6079     0.2583     0.6822 </r>
       <r>     0.7533     0.0626     0.6913 </r>
       <r>     0.8988     0.7133     0.7951 </r>
       <r>     1.0443     0.0489     0.8022 </r>
       <r>     1.1897     0.2177     0.8339 </r>
       <r>     1.3352     0.2119     0.8647 </r>
       <r>     1.4807     0.2844     0.9061 </r>
       <r>     1.6261     0.1963     0.9347 </r>
       <r>     1.7716     0.0571     0.9430 </r>
       <r>     1.9171     0.4737     1.0119 </r>
       <r>     2.0625     0.0243     1.0154 </r>
       <r>     2.2080     0.0747     1.0263 </r>
       <r>     2.3535     0.3503     1.0772 </r>
       <r>     2.4989     0.5177     1.1525 </r>
       <r>     2.6444     0.1982     1.1814 </r>
       <r>     2.7899     0.0618     1.1903 </r>
       <r>     2.9353     0.9485     1.3283 </r>
       <r>     3.0808     0.0877     1.3411 </r>
       <r>     3.2263     0.4382     1.4048 </r>
       <r>     3.3717     0.1177     1.4220 </r>
       <r>     3.5172     0.1311     1.4410 </r>
       <r>     3.6627     0.0000     1.4410 </r>
       <r>     3.8081     0.1793     1.4671 </r>
       <r>     3.9536     0.6138     1.5564 </r>
       <r>     4.0991     0.2118     1.5872 </r>
       <r>     4.2445     0.0607     1.5960 </r>
       <r>     4.3900     0.5160     1.6711 </r>
       <r>     4.5355     0.4565     1.7375 </r>
       <r>     4.6809     0.4533     1.8035 </r>
       <r>     4.8264     0.2036     1.8331 </r>
       <r>     4.9719     0.2136     1.8641 </r>
       <r>     5.1173     0.2381     1.8988 </r>
       <r>     5.2628     0.2896     1.9409 </r>
       <r>     5.4083     0.6656     2.0377 </r>
       <r>     5.5537     0.5453     2.1170 </r>
       <r>     5.6992     0.2298     2.1505 </r>
       <r>     5.8447     0.0543     2.1584 </r>
       <r>     5.9901     0.4587     2.2251 </r>
       <r>     6.1356     0.1230     2.2430 </r>
       <r>     6.2811     0.1827     2.2696 </r>
       <r>     6.4265     0.3203     2.3162 </r>
       <r>     6.5720     0.1380     2.3362 </r>
       <r>     6.7175     0.4789     2.4059 </r>
       <r>     6.8629     0.4459     2.4708 </r>
       <r>     7.0084     0.7765     2.5837 </r>
       <r>     7.1539     0.1605     2.6071 </r>
       <r>     7.2993     0.1612     2.6305 </r>
       <r>     7.4448     1.0213     2.7791 </r>
       <r>     7.5903     0.1604     2.8024 </r>
       <r>     7.7357     0.0066     2.8034 </r>
       <r>     7.8812     0.5505     2.8834 </r>
       <r>     8.0267     0.4351     2.9467 </r>
       <r>     8.1721     0.2213     2.9789 </r>
       <r>     8.3176     0.2826     3.0200 </r>
       <r>     8.4631     0.8384     3.1420 </r>
       <r>     8.6085     0.1925     3.1700 </r>
       <r>     8.7540     0.2914     3.2124 </r>
       <r>     8.8995     0.2982     3.2558 </r>
       <r>     9.0449     0.3058     3.3002 </r>
       <r>     9.1904     0.4775     3.3697 </r>
       <r>     9.3359     0.4669     3.4376 </r>
       <r>     9.4813     0.4596     3.5045 </r>
       <r>     9.6268     0.1407     3.5249 </r>
       <r>     9.7723     0.6970     3.6263 </r>
       <r>     9.9177     0.6077     3.7147 </r>
       <r>    10.0632     0.1947     3.7430 </r>
       <r>    10.2087     0.0942     3.7567 </r>
       <r>    10.3541     0.6720     3.8545 </r>
       <r>    10.4996     0.5946     3.9410 </r>
       <r>    10.6451     0.5569     4.0220 </r>
       <r>    10.7905     0.7172     4.1263 </r>
       <r>    10.9360     0.5856     4.2115 </r>
       <r>    11.0815     0.1276     4.2301 </r>
       <r>    11.2269     0.3121     4.2755 </r>
       <r>    11.3724     0.6287     4.3669 </r>
       <r>    11.5179     0.1801     4.3931 </r>
       <r>    11.6633     0.5231     4.4692 </r>
       <r>    11.8088     0.6733     4.5672 </r>
       <r>    11.9543     0.0430     4.5734 </r>
       <r>    12.0997     0.2364     4.6078 </r>
       <r>    12.2452     0.2959     4.6509 </r>
       <r>    12.3907     0.2959     4.6939 </r>
       <r>    12.5361     0.2970     4.7371 </r>
       <r>    12.6816     0.7788     4.8504 </r>
       <r>    12.8271     0.5543     4.9310 </r>
       <r>    12.9725     0.3060     4.9755 </r>
       <r>    13.1180     0.5726     5.0588 </r>
       <r>    13.2635     0.5652     5.1411 </r>
       <r>    13.4089     0.6806     5.2401 </r>
       <r>    13.5544     0.4909     5.3115 </r>
       <r>    13.6999     0.0642     5.3208 </r>
       <r>    13.8453     0.0441     5.3272 </r>
       <r>    13.9908     0.6467     5.4213 </r>
       <r>    14.1363     0.4477     5.4864 </r>
       <r>    14.2817     0.3351     5.5352 </r>
       <r>    14.4272     0.7923     5.6504 </r>
       <r>    14.5727     0.5741     5.7339 </r>
       <r>    14.7181     0.5609     5.8155 </r>
       <r>    14.8636     0.5009     5.8884 </r>
       <r>    15.0091     0.6468     5.9825 </r>
       <r>    15.1545     0.0378     5.9880 </r>
       <r>    15.3000     0.2054     6.0179 </r>
       <r>    15.4455     1.1388     6.1835 </r>
       <r>    15.5909     0.2053     6.2134 </r>
       <r>    15.7364     0.1302     6.2323 </r>
       <r>    15.8819     0.2852     6.2738 </r>
       <r>    16.0273     0.4625     6.3411 </r>
       <r>    16.1728     0.5510     6.4212 </r>
       <r>    16.3183     0.6775     6.5198 </r>
       <r>    16.4637     0.4507     6.5853 </r>
       <r>    16.6092     1.1028     6.7458 </r>
       <r>    16.7546     0.2647     6.7843 </r>
       <r>    16.9001     0.6717     6.8820 </r>
       <r>    17.0456     0.5129     6.9566 </r>
       <r>    17.1910     0.4676     7.0246 </r>
       <r>    17.3365     0.6294     7.1162 </r>
       <r>    17.4820     0.1486     7.1378 </r>
       <r>    17.6274     0.5894     7.2235 </r>
       <r>    17.7729     0.4321     7.2864 </r>
       <r>    17.9184     0.5715     7.3695 </r>
       <r>    18.0638     1.0897     7.5280 </r>
       <r>    18.2093     0.2869     7.5698 </r>
       <r>    18.3548     1.1692     7.7399 </r>
       <r>    18.5002     0.2905     7.7821 </r>
       <r>    18.6457     0.0000     7.7821 </r>
       <r>    18.7912     0.0328     7.7869 </r>
       <r>    18.9366     1.0562     7.9405 </r>
       <r>    19.0821     1.0765     8.0971 </r>
       <r>    19.2276     0.6870     8.1971 </r>
       <r>    19.3730     0.7395     8.3046 </r>
       <r>    19.5185     0.1691     8.3292 </r>
       <r>    19.6640     0.2262     8.3621 </r>
       <r>    19.8094     0.1028     8.3771 </r>
       <r>    19.9549     0.1558     8.3998 </r>
       <r>    20.1004     0.2449     8.4354 </r>
       <r>    20.2458     0.2398     8.4703 </r>
       <r>    20.3913     0.1827     8.4968 </r>
       <r>    20.5368     0.5791     8.5811 </r>
       <r>    20.6822     0.4580     8.6477 </r>
       <r>    20.8277     0.8188     8.7668 </r>
       <r>    20.9732     1.5134     8.9869 </r>
       <r>    21.1186     1.0791     9.1439 </r>
       <r>    21.2641     0.4532     9.2099 </r>
       <r>    21.4096     0.4203     9.2710 </r>
       <r>    21.5550     0.5089     9.3450 </r>
       <r>    21.7005     0.0788     9.3565 </r>
       <r>    21.8460     0.6189     9.4465 </r>
       <r>    21.9914     0.1076     9.4622 </r>
       <r>    22.1369     0.2936     9.5049 </r>
       <r>    22.2824     0.7943     9.6204 </r>
       <r>    22.4278     1.0932     9.7795 </r>
       <r>    22.5733     0.8049     9.8965 </r>
       <r>    22.7188     0.4403     9.9606 </r>
       <r>    22.8642     0.5292    10.0376 </r>
       <r>    23.0097     0.3448    10.0877 </r>
       <r>    23.1552     1.3580    10.2853 </r>
       <r>    23.3006     0.7051    10.3878 </r>
       <r>    23.4461     0.4051    10.4468 </r>
       <r>    23.5916     0.5155    10.5218 </r>
       <r>    23.7370     0.7098    10.6250 </r>
       <r>    23.8825     0.3409    10.6746 </r>
       <r>    24.0280     0.5828    10.7594 </r>
       <r>    24.1734     0.7798    10.8728 </r>
       <r>    24.3189     0.6489    10.9672 </r>
       <r>    24.4644     0.4932    11.0389 </r>
       <r>    24.6098     1.0785    11.1958 </r>
       <r>    24.7553     0.2290    11.2291 </r>
       <r>    24.9008     0.9636    11.3693 </r>
       <r>    25.0462     0.9145    11.5023 </r>
       <r>    25.1917     0.1683    11.5268 </r>
       <r>    25.3372     0.1557    11.5494 </r>
       <r>    25.4826     0.6296    11.6410 </r>
       <r>    25.6281     0.5563    11.7220 </r>
       <r>    25.7736     0.6576    11.8176 </r>
       <r>    25.9190     0.4584    11.8843 </r>
       <r>    26.0645     0.1746    11.9097 </r>
       <r>    26.2100     1.0979    12.0694 </r>
       <r>    26.3554     1.1530    12.2371 </r>
       <r>    26.5009     0.1784    12.2631 </r>
       <r>    26.6464     0.4351    12.3264 </r>
       <r>    26.7918     0.0955    12.3403 </r>
       <r>    26.9373     0.1523    12.3624 </r>
       <r>    27.0828     0.6204    12.4527 </r>
       <r>    27.2282     1.3088    12.6430 </r>
       <r>    27.3737     0.8124    12.7612 </r>
       <r>    27.5192     0.3666    12.8146 </r>
       <r>    27.6646     0.8709    12.9412 </r>
       <r>    27.8101     0.6367    13.0338 </r>
       <r>    27.9556     0.2912    13.0762 </r>
       <r>    28.1010     0.7782    13.1894 </r>
       <r>    28.2465     0.9030    13.3208 </r>
       <r>    28.3920     0.6603    13.4168 </r>
       <r>    28.5374     0.7408    13.5246 </r>
       <r>    28.6829     0.5755    13.6083 </r>
       <r>    28.8284     0.5558    13.6891 </r>
       <r>    28.9738     0.9343    13.8251 </r>
       <r>    29.1193     0.4470    13.8901 </r>
       <r>    29.2648     0.3114    13.9354 </r>
       <r>    29.4102     0.0021    13.9357 </r>
       <r>    29.5557     0.8008    14.0522 </r>
       <r>    29.7012     0.1505    14.0741 </r>
       <r>    29.8466     0.5239    14.1503 </r>
       <r>    29.9921     0.6944    14.2513 </r>
       <r>    30.1376     0.2630    14.2895 </r>
       <r>    30.2830     0.7923    14.4048 </r>
       <r>    30.4285     1.8049    14.6674 </r>
       <r>    30.5740     1.1597    14.8361 </r>
       <r>    30.7194     0.2273    14.8691 </r>
       <r>    30.8649     0.5817    14.9537 </r>
       <r>    31.0104     0.2953    14.9967 </r>
       <r>    31.1558     1.2280    15.1753 </r>
       <r>    31.3013     0.3190    15.2217 </r>
       <r>    31.4468     0.6946    15.3228 </r>
       <r>    31.5922     0.2002    15.3519 </r>
       <r>    31.7377     0.3470    15.4024 </r>
       <r>    31.8832     0.6349    15.4947 </r>
       <r>    32.0286     0.8231    15.6145 </r>
       <r>    32.1741     0.4684    15.6826 </r>
       <r>    32.3196     0.2514    15.7192 </r>
       <r>    32.4650     0.2744    15.7591 </r>
       <r>    32.6105     0.1343    15.7786 </r>
       <r>    32.7560     0.4036    15.8373 </r>
       <r>    32.9014     0.0025    15.8377 </r>
       <r>    33.0469     0.0000    15.8377 </r>
       <r>    33.1924     0.0351    15.8428 </r>
       <r>    33.3378     0.5358    15.9208 </r>
       <r>    33.4833     0.1743    15.9461 </r>
       <r>    33.6288     0.0794    15.9577 </r>
       <r>    33.7742     0.0018    15.9579 </r>
       <r>    33.9197     0.0000    15.9579 </r>
       <r>    34.0652     0.0000    15.9579 </r>
       <r>    34.2106     0.0309    15.9624 </r>
       <r>    34.3561     0.0518    15.9699 </r>
       <r>    34.5016     0.0000    15.9699 </r>
       <r>    34.6470     0.0000    15.9699 </r>
       <r>    34.7925     0.0000    15.9699 </r>
       <r>    34.9380     0.0000    15.9699 </r>
       <r>    35.0834     0.0164    15.9723 </r>
       <r>    35.2289     0.0456    15.9790 </r>
       <r>    35.3744     0.0259    15.9827 </r>
       <r>    35.5198     0.0417    15.9888 </r>
       <r>    35.6653     0.0767    15.9999 </r>
       <r>    35.8108     0.0004    16.0000 </r>
       <r>    35.9562     0.0000    16.0000 </r>
       <r>    36.1017     0.0000    16.0000 </r>
       <r>    36.2472     0.0000    16.0000 </r>
       <r>    36.3926     0.0000    16.0000 </r>
       <r>    36.5381     0.0000    16.0000 </r>
       <r>    36.6836     0.0000    16.0000 </r>
       <r>    36.8290     0.0000    16.0000 </r>
       <r>    36.9745     0.0000    16.0000 </r>
       <r>    37.1200     0.0000    16.0000 </r>
       <r>    37.2654     0.0000    16.0000 </r>
       <r>    37.4109     0.0000    16.0000 </r>
       <r>    37.5564     0.0000    16.0000 </r>
      </set>
     </set>
    </array>
   </total>
  </dos>
 </calculation>
 <structure name="finalpos" >
  <crystal>
   <varray name="basis" >
    <v>       1.51332563       1.51332563       1.51332563 </v>
    <v>       1.51332563      -1.51332563      -1.51332563 </v>
    <v>      -1.51332563       1.51332563      -1.51332563 </v>
   </varray>
   <i name="volume">     13.86299778 </i>
   <varray name="rec_basis" >
    <v>       0.33039816       0.33039816       0.00000000 </v>
    <v>       0.33039816       0.00000000      -0.33039816 </v>
    <v>       0.00000000       0.33039816      -0.33039816 </v>
   </varray>
  </crystal>
  <varray name="positions" >
   <v>       0.00000000       0.00000000       0.00000000 </v>
  </varray>
 </structure>
</modeling>
