unknown system                          
           1
     1.513326    1.513326    1.513326
     1.513326   -1.513326   -1.513326
    -1.513326    1.513326   -1.513326
   Si
     1
Direct configuration=     1
   0.00000000  0.00000000  0.00000000
