   1   1   0   0
  0.1472481E+02  0.2751196E-09  0.2751196E-09  0.2751196E-09  0.5000000E-15
  1.000000000000000E-004
  CAR 
 unknown system                          
     37.68551649     -6.35352660  301      9.92277496      1.00000000
     -6.354  0.0000E+00  0.0000E+00
     -6.207  0.0000E+00  0.0000E+00
     -6.060  0.0000E+00  0.0000E+00
     -5.913  0.0000E+00  0.0000E+00
     -5.766  0.0000E+00  0.0000E+00
     -5.620  0.0000E+00  0.0000E+00
     -5.473  0.0000E+00  0.0000E+00
     -5.326  0.0000E+00  0.0000E+00
     -5.179  0.0000E+00  0.0000E+00
     -5.032  0.0000E+00  0.0000E+00
     -4.886  0.0000E+00  0.0000E+00
     -4.739  0.0000E+00  0.0000E+00
     -4.592  0.2198E-15  0.3226E-16
     -4.445  0.1663E-06  0.2441E-07
     -4.298  0.4332E-04  0.6384E-05
     -4.152  0.5068E-03  0.8078E-04
     -4.005  0.3307E-03  0.1293E-03
     -3.858  0.1047E-02  0.2830E-03
     -3.711  0.4836E-03  0.3540E-03
     -3.564  0.5103E-03  0.4289E-03
     -3.418  0.1637E-02  0.6692E-03
     -3.271  0.9643E-03  0.8108E-03
     -3.124  0.1283E-02  0.9991E-03
     -2.977  0.3358E-03  0.1048E-02
     -2.830  0.2271E-02  0.1382E-02
     -2.684  0.1226E-02  0.1562E-02
     -2.537  0.1220E-02  0.1741E-02
     -2.390  0.1504E-02  0.1962E-02
     -2.243  0.4323E-03  0.2025E-02
     -2.096  0.2709E-02  0.2423E-02
     -1.950  0.1618E-02  0.2660E-02
     -1.803  0.3062E-02  0.3110E-02
     -1.656  0.3275E-03  0.3158E-02
     -1.509  0.9985E-03  0.3305E-02
     -1.362  0.2143E-02  0.3619E-02
     -1.216  0.1726E-02  0.3872E-02
     -1.069  0.2862E-02  0.4293E-02
     -0.922  0.9404E-03  0.4431E-02
     -0.775  0.4371E-02  0.5072E-02
     -0.628  0.1100E-02  0.5234E-02
     -0.482  0.1875E-02  0.5509E-02
     -0.335  0.6242E-03  0.5601E-02
     -0.188  0.1931E-02  0.5884E-02
     -0.041  0.3032E-02  0.6329E-02
      0.106  0.3003E-02  0.6770E-02
      0.252  0.3954E-02  0.7350E-02
      0.399  0.1167E-03  0.7367E-02
      0.546  0.3764E-02  0.7920E-02
      0.693  0.1869E-02  0.8194E-02
      0.840  0.2495E-02  0.8561E-02
      0.986  0.6319E-03  0.8653E-02
      1.133  0.1846E-02  0.8924E-02
      1.280  0.5400E-02  0.9717E-02
      1.427  0.2049E-02  0.1002E-01
      1.574  0.4521E-02  0.1068E-01
      1.720  0.1262E-02  0.1087E-01
      1.867  0.2773E-02  0.1127E-01
      2.014  0.2075E-02  0.1158E-01
      2.161  0.4618E-02  0.1226E-01
      2.307  0.7872E-03  0.1237E-01
      2.454  0.2260E-02  0.1270E-01
      2.601  0.3480E-02  0.1321E-01
      2.748  0.3436E-02  0.1372E-01
      2.895  0.4266E-02  0.1435E-01
      3.041  0.1848E-02  0.1462E-01
      3.188  0.5515E-02  0.1543E-01
      3.335  0.2179E-02  0.1575E-01
      3.482  0.1899E-02  0.1602E-01
      3.629  0.5050E-03  0.1610E-01
      3.775  0.3699E-02  0.1664E-01
      3.922  0.1736E-02  0.1690E-01
      4.069  0.5898E-02  0.1776E-01
      4.216  0.4913E-02  0.1848E-01
      4.363  0.1730E-02  0.1874E-01
      4.509  0.2528E-02  0.1911E-01
      4.656  0.4234E-02  0.1973E-01
      4.803  0.4637E-02  0.2041E-01
      4.950  0.1761E-02  0.2067E-01
      5.097  0.3650E-02  0.2121E-01
      5.243  0.4838E-02  0.2192E-01
      5.390  0.3321E-02  0.2240E-01
      5.537  0.1478E-02  0.2262E-01
      5.684  0.1396E-02  0.2282E-01
      5.831  0.4936E-02  0.2355E-01
      5.977  0.3948E-02  0.2413E-01
      6.124  0.6020E-02  0.2501E-01
      6.271  0.2613E-02  0.2540E-01
      6.418  0.2581E-02  0.2578E-01
      6.565  0.4430E-02  0.2643E-01
      6.711  0.5002E-02  0.2716E-01
      6.858  0.2974E-02  0.2760E-01
      7.005  0.3167E-02  0.2806E-01
      7.152  0.6481E-02  0.2901E-01
      7.299  0.1418E-02  0.2922E-01
      7.445  0.1493E-02  0.2944E-01
      7.592  0.1689E-02  0.2969E-01
      7.739  0.4483E-02  0.3035E-01
      7.886  0.4465E-02  0.3100E-01
      8.033  0.1043E-01  0.3253E-01
      8.179  0.3684E-02  0.3307E-01
      8.326  0.1730E-02  0.3333E-01
      8.473  0.2784E-02  0.3374E-01
      8.620  0.5666E-02  0.3457E-01
      8.767  0.2469E-02  0.3493E-01
      8.913  0.1969E-02  0.3522E-01
      9.060  0.6506E-02  0.3617E-01
      9.207  0.4125E-02  0.3678E-01
      9.354  0.5023E-02  0.3752E-01
      9.501  0.9887E-03  0.3766E-01
      9.647  0.6163E-02  0.3857E-01
      9.794  0.3771E-02  0.3912E-01
      9.941  0.6830E-02  0.4012E-01
     10.088  0.4308E-02  0.4076E-01
     10.235  0.2949E-02  0.4119E-01
     10.381  0.1633E-02  0.4143E-01
     10.528  0.7950E-02  0.4260E-01
     10.675  0.5697E-02  0.4343E-01
     10.822  0.3444E-02  0.4394E-01
     10.968  0.4833E-02  0.4465E-01
     11.115  0.5825E-02  0.4550E-01
     11.262  0.2935E-02  0.4593E-01
     11.409  0.8704E-03  0.4606E-01
     11.556  0.6242E-02  0.4698E-01
     11.702  0.2575E-02  0.4735E-01
     11.849  0.9532E-02  0.4875E-01
     11.996  0.5031E-02  0.4949E-01
     12.143  0.6126E-02  0.5039E-01
     12.290  0.4125E-02  0.5100E-01
     12.436  0.3806E-02  0.5156E-01
     12.583  0.4213E-02  0.5217E-01
     12.730  0.5584E-02  0.5299E-01
     12.877  0.7457E-02  0.5409E-01
     13.024  0.5436E-02  0.5489E-01
     13.170  0.4114E-02  0.5549E-01
     13.317  0.5350E-02  0.5628E-01
     13.464  0.4780E-02  0.5698E-01
     13.611  0.6024E-02  0.5786E-01
     13.758  0.7470E-02  0.5896E-01
     13.904  0.3710E-02  0.5950E-01
     14.051  0.5447E-02  0.6030E-01
     14.198  0.5463E-02  0.6110E-01
     14.345  0.7566E-02  0.6221E-01
     14.492  0.3976E-02  0.6280E-01
     14.638  0.4022E-02  0.6339E-01
     14.785  0.5485E-02  0.6419E-01
     14.932  0.1354E-02  0.6439E-01
     15.079  0.4347E-02  0.6503E-01
     15.226  0.6128E-02  0.6593E-01
     15.372  0.5768E-02  0.6678E-01
     15.519  0.8279E-02  0.6799E-01
     15.666  0.2912E-02  0.6842E-01
     15.813  0.5386E-02  0.6921E-01
     15.960  0.2351E-02  0.6956E-01
     16.106  0.5932E-02  0.7043E-01
     16.253  0.3675E-02  0.7097E-01
     16.400  0.3057E-02  0.7141E-01
     16.547  0.6064E-02  0.7231E-01
     16.694  0.5895E-02  0.7317E-01
     16.840  0.5208E-02  0.7394E-01
     16.987  0.3687E-02  0.7448E-01
     17.134  0.4260E-02  0.7510E-01
     17.281  0.6796E-02  0.7610E-01
     17.428  0.5503E-02  0.7691E-01
     17.574  0.1992E-02  0.7720E-01
     17.721  0.5252E-02  0.7797E-01
     17.868  0.9980E-02  0.7944E-01
     18.015  0.7095E-02  0.8048E-01
     18.162  0.3017E-02  0.8092E-01
     18.308  0.4819E-02  0.8163E-01
     18.455  0.6203E-02  0.8254E-01
     18.602  0.3249E-02  0.8301E-01
     18.749  0.4577E-02  0.8369E-01
     18.896  0.9548E-02  0.8509E-01
     19.042  0.5578E-02  0.8591E-01
     19.189  0.1385E-02  0.8611E-01
     19.336  0.4035E-02  0.8670E-01
     19.483  0.3194E-02  0.8717E-01
     19.630  0.7695E-02  0.8830E-01
     19.776  0.7246E-02  0.8936E-01
     19.923  0.8416E-02  0.9060E-01
     20.070  0.5237E-02  0.9137E-01
     20.217  0.5737E-02  0.9221E-01
     20.363  0.6085E-02  0.9310E-01
     20.510  0.2347E-02  0.9345E-01
     20.657  0.9626E-02  0.9486E-01
     20.804  0.6993E-02  0.9589E-01
     20.951  0.5520E-02  0.9670E-01
     21.097  0.6945E-02  0.9772E-01
     21.244  0.2544E-02  0.9809E-01
     21.391  0.8633E-02  0.9936E-01
     21.538  0.7194E-02  0.1004E+00
     21.685  0.2982E-02  0.1009E+00
     21.831  0.2984E-02  0.1013E+00
     21.978  0.5230E-02  0.1021E+00
     22.125  0.6982E-02  0.1031E+00
     22.272  0.5667E-02  0.1039E+00
     22.419  0.4632E-02  0.1046E+00
     22.565  0.4882E-02  0.1053E+00
     22.712  0.7418E-02  0.1064E+00
     22.859  0.8844E-02  0.1077E+00
     23.006  0.1152E-01  0.1094E+00
     23.153  0.5980E-02  0.1103E+00
     23.299  0.9431E-02  0.1117E+00
     23.446  0.1960E-02  0.1119E+00
     23.593  0.6489E-02  0.1129E+00
     23.740  0.5343E-02  0.1137E+00
     23.887  0.3459E-02  0.1142E+00
     24.033  0.9171E-02  0.1155E+00
     24.180  0.5957E-02  0.1164E+00
     24.327  0.4613E-02  0.1171E+00
     24.474  0.4453E-02  0.1177E+00
     24.621  0.3301E-02  0.1182E+00
     24.767  0.1284E-01  0.1201E+00
     24.914  0.1231E-01  0.1219E+00
     25.061  0.4475E-02  0.1226E+00
     25.208  0.4751E-02  0.1233E+00
     25.355  0.8206E-02  0.1245E+00
     25.501  0.6226E-02  0.1254E+00
     25.648  0.6078E-02  0.1263E+00
     25.795  0.5899E-02  0.1271E+00
     25.942  0.6477E-02  0.1281E+00
     26.089  0.8872E-02  0.1294E+00
     26.235  0.5405E-02  0.1302E+00
     26.382  0.1431E-02  0.1304E+00
     26.529  0.5117E-02  0.1312E+00
     26.676  0.5971E-02  0.1320E+00
     26.823  0.8250E-02  0.1332E+00
     26.969  0.8938E-02  0.1346E+00
     27.116  0.7826E-02  0.1357E+00
     27.263  0.6871E-02  0.1367E+00
     27.410  0.9293E-03  0.1368E+00
     27.557  0.6897E-02  0.1379E+00
     27.703  0.9891E-02  0.1393E+00
     27.850  0.4894E-02  0.1400E+00
     27.997  0.3919E-02  0.1406E+00
     28.144  0.5529E-03  0.1407E+00
     28.291  0.3896E-02  0.1413E+00
     28.437  0.8927E-02  0.1426E+00
     28.584  0.3581E-02  0.1431E+00
     28.731  0.5329E-02  0.1439E+00
     28.878  0.2987E-02  0.1443E+00
     29.025  0.5525E-02  0.1451E+00
     29.171  0.1056E-01  0.1467E+00
     29.318  0.6279E-02  0.1476E+00
     29.465  0.6908E-02  0.1486E+00
     29.612  0.3625E-02  0.1491E+00
     29.758  0.4929E-02  0.1499E+00
     29.905  0.1637E-02  0.1501E+00
     30.052  0.4628E-02  0.1508E+00
     30.199  0.5536E-02  0.1516E+00
     30.346  0.3912E-02  0.1522E+00
     30.492  0.2328E-02  0.1525E+00
     30.639  0.4745E-02  0.1532E+00
     30.786  0.4772E-02  0.1539E+00
     30.933  0.4147E-02  0.1545E+00
     31.080  0.9889E-03  0.1547E+00
     31.226  0.1462E-03  0.1547E+00
     31.373  0.4516E-02  0.1554E+00
     31.520  0.2569E-02  0.1557E+00
     31.667  0.9599E-03  0.1559E+00
     31.814  0.1495E-02  0.1561E+00
     31.960  0.1396E-02  0.1563E+00
     32.107  0.2369E-02  0.1566E+00
     32.254  0.3357E-02  0.1571E+00
     32.401  0.2200E-02  0.1575E+00
     32.548  0.8201E-03  0.1576E+00
     32.694  0.1040E-02  0.1577E+00
     32.841  0.2806E-02  0.1581E+00
     32.988  0.1341E-02  0.1583E+00
     33.135  0.1645E-02  0.1586E+00
     33.282  0.1699E-02  0.1588E+00
     33.428  0.4649E-03  0.1589E+00
     33.575  0.3358E-04  0.1589E+00
     33.722  0.1865E-02  0.1592E+00
     33.869  0.4632E-03  0.1592E+00
     34.016  0.6091E-04  0.1593E+00
     34.162  0.8695E-03  0.1594E+00
     34.309  0.3415E-03  0.1594E+00
     34.456  0.1266E-02  0.1596E+00
     34.603  0.9132E-03  0.1598E+00
     34.750  0.5493E-03  0.1598E+00
     34.896  0.4195E-03  0.1599E+00
     35.043  0.7536E-08  0.1599E+00
     35.190  0.3806E-12  0.1599E+00
     35.337  0.1440E-04  0.1599E+00
     35.484  0.4644E-03  0.1600E+00
     35.630  0.2154E-04  0.1600E+00
     35.777  0.2253E-03  0.1600E+00
     35.924  0.9975E-06  0.1600E+00
     36.071  0.1319E-14  0.1600E+00
     36.218  0.0000E+00  0.1600E+00
     36.364  0.0000E+00  0.1600E+00
     36.511  0.0000E+00  0.1600E+00
     36.658  0.0000E+00  0.1600E+00
     36.805  0.0000E+00  0.1600E+00
     36.952  0.0000E+00  0.1600E+00
     37.098  0.0000E+00  0.1600E+00
     37.245  0.0000E+00  0.1600E+00
     37.392  0.0000E+00  0.1600E+00
     37.539  0.0000E+00  0.1600E+00
     37.686  0.0000E+00  0.1600E+00
