    1    1  100    1
  0.1472481E+02  0.2751196E-09  0.2751196E-09  0.2751196E-09  0.5000000E-15
  1.000000000000000E-004
  CAR 
 unknown system                          
      4    120      8
 
  0.0000000E+00  0.0000000E+00  0.0000000E+00  0.2962963E-03
    1       -4.351752   1.000000
    2       20.869749   0.000000
    3       20.869756   0.000000
    4       20.869764   0.000000
    5       21.802155   0.000000
    6       21.802163   0.000000
    7       21.802172   0.000000
    8       27.099415   0.000000
 
  0.6666667E-01  0.3469447E-17  0.0000000E+00  0.2370370E-02
    1       -4.223837   1.000000
    2       18.819916   0.000000
    3       20.255692   0.000000
    4       20.255704   0.000000
    5       22.571280   0.000000
    6       22.571294   0.000000
    7       22.767507   0.000000
    8       27.933195   0.000000
 
  0.1333333E+00  0.6938894E-17  0.0000000E+00  0.2370370E-02
    1       -3.840590   1.000000
    2       16.038596   0.000000
    3       19.513333   0.000000
    4       19.513344   0.000000
    5       23.044556   0.000000
    6       23.634745   0.000000
    7       23.634759   0.000000
    8       26.922909   0.000000
 
  0.2000000E+00  0.1387779E-16  0.0000000E+00  0.2370370E-02
    1       -3.203576   1.000000
    2       13.248095   0.000000
    3       18.943560   0.000000
    4       18.943569   0.000000
    5       22.972379   0.000000
    6       23.865462   0.000000
    7       23.865472   0.000000
    8       26.891945   0.000000
 
  0.2666667E+00  0.1387779E-16  0.0000000E+00  0.2370370E-02
    1       -2.315484   1.000000
    2       10.580484   0.000000
    3       18.565216   0.000000
    4       18.565225   0.000000
    5       22.871644   0.000000
    6       23.005745   0.000000
    7       23.005754   0.000000
    8       28.272908   0.000000
 
  0.3333333E+00  0.1387779E-16  0.0000000E+00  0.2370370E-02
    1       -1.180511   1.000000
    2        8.088402   1.000000
    3       18.367761   0.000000
    4       18.367767   0.000000
    5       22.025185   0.000000
    6       22.025194   0.000000
    7       22.850954   0.000000
    8       27.130324   0.000000
 
  0.4000000E+00  0.2775558E-16  0.0000000E+00  0.2370370E-02
    1        0.193691   1.000000
    2        5.801197   1.000000
    3       18.316054   0.000000
    4       18.316060   0.000000
    5       21.243272   0.000000
    6       21.243283   0.000000
    7       22.924164   0.000000
    8       26.232300   0.000000
 
  0.4666667E+00  0.2775558E-16  0.0000000E+00  0.2370370E-02
    1        1.772080   1.000000
    2        3.764194   1.000000
    3       18.336012   0.000000
    4       18.336016   0.000000
    5       20.797611   0.000000
    6       20.797624   0.000000
    7       23.021770   0.000000
    8       25.709733   0.000000
 
  0.6666667E-01  0.6666667E-01  0.0000000E+00  0.1777778E-02
    1       -4.181210   1.000000
    2       19.282197   0.000000
    3       19.282199   0.000000
    4       20.467134   0.000000
    5       20.899837   0.000000
    6       23.602208   0.000000
    7       23.602209   0.000000
    8       26.830657   0.000000
 
  0.1333333E+00  0.6666667E-01  0.0000000E+00  0.7111111E-02
    1       -3.883106   1.000000
    2       17.030609   0.000000
    3       18.455783   0.000000
    4       19.970392   0.000000
    5       21.362979   0.000000
    6       24.310138   0.000000
    7       24.729210   0.000000
    8       25.386663   0.000000
 
  0.2000000E+00  0.6666667E-01  0.0000000E+00  0.7111111E-02
    1       -3.330726   1.000000
    2       14.257194   0.000000
    3       17.828014   0.000000
    4       19.345326   0.000000
    5       22.044757   0.000000
    6       24.125449   0.000000
    7       24.903250   0.000000
    8       25.336502   0.000000
 
  0.2666667E+00  0.6666667E-01  0.0000000E+00  0.7111111E-02
    1       -2.526360   1.000000
    2       11.550995   0.000000
    3       17.410429   0.000000
    4       18.831232   0.000000
    5       21.530542   0.000000
    6       23.933931   0.000000
    7       24.711036   0.000000
    8       25.916965   0.000000
 
  0.3333333E+00  0.6666667E-01  0.0000000E+00  0.7111111E-02
    1       -1.473613   1.000000
    2        9.001255   1.000000
    3       17.204633   0.000000
    4       18.390206   0.000000
    5       20.693608   0.000000
    6       23.698474   0.000000
    7       23.898692   0.000000
    8       27.492175   0.000000
 
  0.4000000E+00  0.6666667E-01  0.0000000E+00  0.7111111E-02
    1       -0.178461   1.000000
    2        6.645536   1.000000
    3       17.206830   0.000000
    4       17.922265   0.000000
    5       20.185450   0.000000
    6       22.759407   0.000000
    7       23.906555   0.000000
    8       27.434101   0.000000
 
  0.4666667E+00  0.6666667E-01  0.0000000E+00  0.7111111E-02
    1        1.342188   1.000000
    2        4.515016   1.000000
    3       17.402823   0.000000
    4       17.406836   0.000000
    5       20.135214   0.000000
    6       22.009650   0.000000
    7       23.920263   0.000000
    8       26.911966   0.000000
 
 -0.4666667E+00  0.6666667E-01  0.0000000E+00  0.7111111E-02
    1        2.378469   1.000000
    2        3.325853   1.000000
    3       16.933227   0.000000
    4       17.782988   0.000000
    5       20.467769   0.000000
    6       21.502637   0.000000
    7       23.858430   0.000000
    8       26.824804   0.000000
 
 -0.4000000E+00  0.6666667E-01  0.0000000E+00  0.7111111E-02
    1        0.812992   1.000000
    2        5.196822   1.000000
    3       16.604826   0.000000
    4       18.291133   0.000000
    5       21.096074   0.000000
    6       21.290801   0.000000
    7       23.720771   0.000000
    8       27.205130   0.000000
 
 -0.3333333E+00  0.6666667E-01  0.0000000E+00  0.7111111E-02
    1       -0.636567   1.000000
    2        7.407320   1.000000
    3       16.462190   0.000000
    4       18.854119   0.000000
    5       21.443953   0.000000
    6       21.965689   0.000000
    7       23.599779   0.000000
    8       27.915437   0.000000
 
 -0.2666667E+00  0.6666667E-01  0.0000000E+00  0.7111111E-02
    1       -1.851859   1.000000
    2        9.830464   0.995486
    3       16.524641   0.000000
    4       19.397808   0.000000
    5       21.999652   0.000000
    6       23.023253   0.000000
    7       23.556465   0.000000
    8       27.547638   0.000000
 
 -0.2000000E+00  0.6666667E-01  0.0000000E+00  0.7111111E-02
    1       -2.822319   1.000000
    2       12.437005   0.000000
    3       16.799923   0.000000
    4       19.934325   0.000000
    5       22.779541   0.000000
    6       23.570868   0.000000
    7       24.145723   0.000000
    8       25.904082   0.000000
 
 -0.1333333E+00  0.6666667E-01  0.0000000E+00  0.7111111E-02
    1       -3.543014   1.000000
    2       15.179253   0.000000
    3       17.289684   0.000000
    4       20.516389   0.000000
    5       22.869550   0.000000
    6       23.525227   0.000000
    7       24.737677   0.000000
    8       25.494260   0.000000
 
 -0.6666667E-01  0.6666667E-01  0.0000000E+00  0.3555556E-02
    1       -4.010831   1.000000
    2       17.855376   0.000000
    3       18.070789   0.000000
    4       20.943425   0.000000
    5       22.131870   0.000000
    6       23.167337   0.000000
    7       24.059005   0.000000
    8       26.593855   0.000000
 
  0.1333333E+00  0.1333333E+00  0.0000000E+00  0.1777778E-02
    1       -3.670370   1.000000
    2       17.556983   0.000000
    3       17.556984   0.000000
    4       19.275051   0.000000
    5       19.396723   0.000000
    6       23.608073   0.000000
    7       25.935179   0.000000
    8       25.935180   0.000000
 
  0.2000000E+00  0.1333333E+00  0.0000000E+00  0.7111111E-02
    1       -3.203252   1.000000
    2       15.405503   0.000000
    3       16.859484   0.000000
    4       18.622899   0.000000
    5       19.758348   0.000000
    6       22.312127   0.000000
    7       26.644469   0.000000
    8       26.880543   0.000000
 
  0.2666667E+00  0.1333333E+00  0.0000000E+00  0.7111111E-02
    1       -2.483661   1.000000
    2       12.723642   0.000000
    3       16.375559   0.000000
    4       17.896797   0.000000
    5       19.709596   0.000000
    6       22.616567   0.000000
    7       26.635922   0.000000
    8       26.821544   0.000000
 
  0.3333333E+00  0.1333333E+00  0.0000000E+00  0.7111111E-02
    1       -1.514691   1.000000
    2       10.136756   0.000000
    3       16.108973   0.000000
    4       17.086272   0.000000
    5       19.129938   0.000000
    6       24.051540   0.000000
    7       25.700208   0.000000
    8       26.985517   0.000000
 
  0.4000000E+00  0.1333333E+00  0.0000000E+00  0.7111111E-02
    1       -0.301246   1.000000
    2        7.723385   1.000000
    3       16.059895   0.000000
    4       16.204287   0.000000
    5       18.874453   0.000000
    6       24.731964   0.000000
    7       25.269852   0.000000
    8       27.688022   0.000000
 
  0.4666667E+00  0.1333333E+00  0.0000000E+00  0.7111111E-02
    1        1.146281   1.000000
    2        5.518532   1.000000
    3       15.385541   0.000000
    4       16.226018   0.000000
    5       18.966171   0.000000
    6       23.902143   0.000000
    7       25.632090   0.000000
    8       29.201580   0.000000
 
 -0.4666667E+00  0.1333333E+00  0.0000000E+00  0.7111111E-02
    1        2.713169   1.000000
    2        3.647188   1.000000
    3       14.723042   0.000000
    4       16.602087   0.000000
    5       19.346068   0.000000
    6       23.267885   0.000000
    7       25.546740   0.000000
    8       29.361072   0.000000
 
 -0.4000000E+00  0.1333333E+00  0.0000000E+00  0.7111111E-02
    1        1.674772   1.000000
    2        4.837250   1.000000
    3       14.257975   0.000000
    4       17.177925   0.000000
    5       19.980821   0.000000
    6       22.857416   0.000000
    7       25.326292   0.000000
    8       29.651345   0.000000
 
 -0.3333333E+00  0.1333333E+00  0.0000000E+00  0.7111111E-02
    1        0.155880   1.000000
    2        6.961804   1.000000
    3       14.008631   0.000000
    4       17.933871   0.000000
    5       20.847785   0.000000
    6       22.691839   0.000000
    7       25.106165   0.000000
    8       29.159954   0.000000
 
 -0.2666667E+00  0.1333333E+00  0.0000000E+00  0.7111111E-02
    1       -1.137351   1.000000
    2        9.305632   1.000000
    3       13.984641   0.000000
    4       18.830855   0.000000
    5       21.919968   0.000000
    6       22.791697   0.000000
    7       24.925117   0.000000
    8       27.031448   0.000000
 
 -0.2000000E+00  0.1333333E+00  0.0000000E+00  0.7111111E-02
    1       -2.188455   1.000000
    2       11.826452   0.000000
    3       14.197508   0.000000
    4       19.787392   0.000000
    5       23.142286   0.000000
    6       23.144033   0.000000
    7       24.716081   0.000000
    8       25.186412   0.000000
 
 -0.1333333E+00  0.1333333E+00  0.0000000E+00  0.3555556E-02
    1       -2.991532   1.000000
    2       14.273115   0.000000
    3       14.851587   0.000000
    4       20.592299   0.000000
    5       23.116699   0.000000
    6       24.278323   0.000000
    7       24.331576   0.000000
    8       24.491163   0.000000
 
  0.2000000E+00  0.2000000E+00  0.0000000E+00  0.1777778E-02
    1       -2.821692   1.000000
    2       16.090037   0.000000
    3       16.090038   0.000000
    4       17.669497   0.000000
    5       17.719179   0.000000
    6       20.638977   0.000000
    7       28.317389   0.000000
    8       28.317389   0.000000
 
  0.2666667E+00  0.2000000E+00  0.0000000E+00  0.7111111E-02
    1       -2.187576   1.000000
    2       14.033839   0.000000
    3       15.534425   0.000000
    4       16.578889   0.000000
    5       17.958737   0.000000
    6       20.173158   0.000000
    7       28.655525   0.000000
    8       29.046896   0.000000
 
  0.3333333E+00  0.2000000E+00  0.0000000E+00  0.7111111E-02
    1       -1.303602   1.000000
    2       11.472515   0.000000
    3       15.197622   0.000000
    4       15.389331   0.000000
    5       17.860822   0.000000
    6       21.400239   0.000000
    7       27.877590   0.000000
    8       29.204877   0.000000
 
  0.4000000E+00  0.2000000E+00  0.0000000E+00  0.7111111E-02
    1       -0.173905   1.000000
    2        9.022889   1.000000
    3       14.249433   0.000000
    4       15.081023   0.000000
    5       17.734091   0.000000
    6       23.268892   0.000000
    7       26.931333   0.000000
    8       29.127800   0.000000
 
  0.4666667E+00  0.2000000E+00  0.0000000E+00  0.7111111E-02
    1        1.194049   1.000000
    2        6.758392   1.000000
    3       13.262909   0.000000
    4       15.184157   0.000000
    5       17.835594   0.000000
    6       25.245547   0.000000
    7       26.067934   0.000000
    8       29.013770   0.000000
 
 -0.4666667E+00  0.2000000E+00  0.0000000E+00  0.7111111E-02
    1        2.768251   1.000000
    2        4.731611   1.000000
    3       12.475379   0.000000
    4       15.504921   0.000000
    5       18.184523   0.000000
    6       25.369428   0.000000
    7       26.738716   0.000000
    8       29.335706   0.000000
 
 -0.4000000E+00  0.2000000E+00  0.0000000E+00  0.7111111E-02
    1        2.768046   1.000000
    2        4.729849   1.000000
    3       11.907549   0.000000
    4       16.038944   0.000000
    5       18.775761   0.000000
    6       24.871055   0.000000
    7       27.046283   0.000000
    8       30.508495   0.000000
 
 -0.3333333E+00  0.2000000E+00  0.0000000E+00  0.7111111E-02
    1        1.193156   1.000000
    2        6.750846   1.000000
    3       11.571896   0.000000
    4       16.777615   0.000000
    5       19.598895   0.000000
    6       24.591434   0.000000
    7       26.816037   0.000000
    8       28.983138   0.000000
 
 -0.2666667E+00  0.2000000E+00  0.0000000E+00  0.7111111E-02
    1       -0.174999   1.000000
    2        8.992259   1.000000
    3       11.487840   0.000000
    4       17.702595   0.000000
    5       20.636160   0.000000
    6       24.543085   0.000000
    7       26.415643   0.000000
    8       26.750911   0.000000
 
 -0.2000000E+00  0.2000000E+00  0.0000000E+00  0.3555556E-02
    1       -1.304654   1.000000
    2       11.140140   0.000000
    3       11.922974   0.000000
    4       18.766539   0.000000
    5       21.850878   0.000000
    6       24.734225   0.000000
    7       24.741598   0.000000
    8       25.751423   0.000000
 
  0.2666667E+00  0.2666667E+00  0.0000000E+00  0.1777778E-02
    1       -1.639343   1.000000
    2       14.905939   0.000000
    3       14.905940   0.000000
    4       15.022499   0.000000
    5       16.417440   0.000000
    6       18.764345   0.000000
    7       30.602199   0.000000
    8       30.602441   0.000000
 
  0.3333333E+00  0.2666667E+00  0.0000000E+00  0.7111111E-02
    1       -0.841219   1.000000
    2       12.895426   0.000000
    3       13.707313   0.000000
    4       14.496439   0.000000
    5       16.706195   0.000000
    6       18.930213   0.000000
    7       30.135082   0.000000
    8       31.271240   0.000000
 
  0.4000000E+00  0.2666667E+00  0.0000000E+00  0.7111111E-02
    1        0.203094   1.000000
    2       10.504966   0.000000
    3       12.380716   0.000000
    4       14.308097   0.000000
    5       16.786340   0.000000
    6       20.521283   0.000000
    7       29.269584   0.000000
    8       31.288033   0.000000
 
  0.4666667E+00  0.2666667E+00  0.0000000E+00  0.7111111E-02
    1        1.487598   1.000000
    2        8.213046   1.000000
    3       11.261542   0.000000
    4       14.341266   0.000000
    5       16.882812   0.000000
    6       22.624402   0.000000
    7       28.410191   0.000000
    8       30.931882   0.000000
 
 -0.4666667E+00  0.2666667E+00  0.0000000E+00  0.7111111E-02
    1        2.996621   1.000000
    2        6.113802   1.000000
    3       10.366231   0.000000
    4       14.595030   0.000000
    5       17.183424   0.000000
    6       24.904757   0.000000
    7       27.673255   0.000000
    8       30.396680   0.000000
 
 -0.4000000E+00  0.2666667E+00  0.0000000E+00  0.7111111E-02
    1        4.041714   1.000000
    2        4.914545   1.000000
    3        9.707040   1.000000
    4       15.067032   0.000000
    5       17.715846   0.000000
    6       27.108705   0.000000
    7       27.123037   0.000000
    8       29.817450   0.000000
 
 -0.3333333E+00  0.2666667E+00  0.0000000E+00  0.7111111E-02
    1        2.469163   1.000000
    2        6.757176   1.000000
    3        9.306677   1.000000
    4       15.752393   0.000000
    5       18.479697   0.000000
    6       26.732231   0.000000
    7       28.417260   0.000000
    8       29.056602   0.000000
 
 -0.2666667E+00  0.2666667E+00  0.0000000E+00  0.3555556E-02
    1        1.030410   1.000000
    2        8.594914   1.000000
    3        9.459642   1.000000
    4       16.640355   0.000000
    5       19.462872   0.000000
    6       26.357453   0.000000
    7       26.972148   0.000000
    8       27.722256   0.000000
 
  0.3333333E+00  0.3333333E+00  0.0000000E+00  0.1777778E-02
    1       -0.129578   1.000000
    2       11.989890   0.000000
    3       14.013615   0.000000
    4       14.013616   0.000000
    5       15.422043   0.000000
    6       17.676284   0.000000
    7       32.059198   0.000000
    8       32.682239   0.000000
 
  0.4000000E+00  0.3333333E+00  0.0000000E+00  0.7111111E-02
    1        0.828021   1.000000
    2       10.552638   0.000000
    3       12.249396   0.000000
    4       13.752155   0.000000
    5       15.868938   0.000000
    6       18.127169   0.000000
    7       31.607421   0.000000
    8       33.208079   0.000000
 
  0.4666667E+00  0.3333333E+00  0.0000000E+00  0.7111111E-02
    1        2.025911   1.000000
    2        9.251831   1.000000
    3       10.060632   0.000048
    4       13.712947   0.000000
    5       16.112596   0.000000
    6       19.933651   0.000000
    7       30.825074   0.000000
    8       32.994591   0.000000
 
 -0.4666667E+00  0.3333333E+00  0.0000000E+00  0.7111111E-02
    1        3.452226   1.000000
    2        7.631240   1.000000
    3        8.549300   1.000000
    4       13.895747   0.000000
    5       16.385832   0.000000
    6       22.220147   0.000000
    7       30.080510   0.000000
    8       32.335395   0.000000
 
 -0.4000000E+00  0.3333333E+00  0.0000000E+00  0.7111111E-02
    1        5.016504   1.000000
    2        5.815331   1.000000
    3        7.754318   1.000000
    4       14.299245   0.000000
    5       16.859416   0.000000
    6       24.693782   0.000000
    7       29.436524   0.000000
    8       31.386938   0.000000
 
 -0.3333333E+00  0.3333333E+00  0.0000000E+00  0.3555556E-02
    1        3.969561   1.000000
    2        6.674867   1.000000
    3        7.574383   1.000000
    4       14.920398   0.000000
    5       17.558758   0.000000
    6       27.170326   0.000000
    7       28.664634   0.000000
    8       29.728407   0.000000
 
  0.4000000E+00  0.4000000E+00  0.0000000E+00  0.1777778E-02
    1        1.697395   1.000000
    2        9.049496   1.000000
    3       13.417212   0.000000
    4       13.417213   0.000000
    5       14.752093   0.000000
    6       17.008917   0.000000
    7       33.278214   0.000000
    8       34.471145   0.000000
 
  0.4666667E+00  0.4000000E+00  0.0000000E+00  0.7111111E-02
    1        2.804447   1.000000
    2        7.742052   1.000000
    3       11.761842   0.000000
    4       13.304706   0.000000
    5       15.371334   0.000000
    6       17.655419   0.000000
    7       33.036565   0.000000
    8       34.743619   0.000000
 
 -0.4666667E+00  0.4000000E+00  0.0000000E+00  0.7111111E-02
    1        4.128688   1.000000
    2        6.672435   1.000000
    3        9.644798   1.000000
    4       13.414865   0.000000
    5       15.779341   0.000000
    6       19.637959   0.000000
    7       32.355198   0.000000
    8       34.139267   0.000000
 
 -0.4000000E+00  0.4000000E+00  0.0000000E+00  0.3555556E-02
    1        5.391921   1.000000
    2        6.075525   1.000000
    3        7.716909   1.000000
    4       13.747014   0.000000
    5       16.220852   0.000000
    6       22.083064   0.000000
    7       31.381981   0.000000
    8       32.793103   0.000000
 
  0.4666667E+00  0.4666667E+00  0.0000000E+00  0.1777778E-02
    1        3.806087   1.000000
    2        6.367013   1.000000
    3       13.118643   0.000000
    4       13.118644   0.000000
    5       14.415583   0.000000
    6       16.681826   0.000000
    7       34.151858   0.000000
    8       35.683742   0.000000
 
 -0.4666667E+00  0.4666667E+00  0.0000000E+00  0.3555556E-02
    1        4.749950   1.000000
    2        5.510173   1.000000
    3       11.602773   0.000000
    4       13.155431   0.000000
    5       15.205639   0.000000
    6       17.498706   0.000000
    7       33.828171   0.000000
    8       35.403406   0.000000
 
  0.2000000E+00  0.1333333E+00  0.6666667E-01  0.7111111E-02
    1       -3.500467   1.000000
    2       16.085757   0.000000
    3       16.452703   0.000000
    4       20.240064   0.000000
    5       20.993940   0.000000
    6       23.935833   0.000000
    7       25.212143   0.000000
    8       25.563630   0.000000
 
  0.2666667E+00  0.1333333E+00  0.6666667E-01  0.1422222E-01
    1       -2.864442   1.000000
    2       13.516087   0.000000
    3       15.742621   0.000000
    4       19.624372   0.000000
    5       21.418778   0.000000
    6       23.457139   0.000000
    7       25.431083   0.000000
    8       25.662779   0.000000
 
  0.3333333E+00  0.1333333E+00  0.6666667E-01  0.1422222E-01
    1       -1.977714   1.000000
    2       10.879493   0.000000
    3       15.389652   0.000000
    4       18.778408   0.000000
    5       20.996942   0.000000
    6       23.982936   0.000000
    7       24.914553   0.000000
    8       26.060150   0.000000
 
  0.4000000E+00  0.1333333E+00  0.6666667E-01  0.1422222E-01
    1       -0.844462   1.000000
    2        8.401012   1.000000
    3       15.258321   0.000000
    4       17.871829   0.000000
    5       20.661387   0.000000
    6       23.242782   0.000000
    7       25.141317   0.000000
    8       27.436230   0.000000
 
  0.4666667E+00  0.1333333E+00  0.6666667E-01  0.1422222E-01
    1        0.527770   1.000000
    2        6.121263   1.000000
    3       15.335571   0.000000
    4       17.035443   0.000000
    5       20.608627   0.000000
    6       22.388823   0.000000
    7       25.278001   0.000000
    8       28.868139   0.000000
 
 -0.4666667E+00  0.1333333E+00  0.6666667E-01  0.1422222E-01
    1        2.105054   1.000000
    2        4.087607   1.000000
    3       15.563162   0.000000
    4       16.411390   0.000000
    5       20.735151   0.000000
    6       21.799677   0.000000
    7       25.359849   0.000000
    8       28.629165   0.000000
 
  0.2666667E+00  0.2000000E+00  0.6666667E-01  0.7111111E-02
    1       -2.652585   1.000000
    2       14.556534   0.000000
    3       15.000115   0.000000
    4       18.298905   0.000000
    5       19.538146   0.000000
    6       21.385979   0.000000
    7       27.124926   0.000000
    8       27.766106   0.000000
 
  0.3333333E+00  0.2000000E+00  0.6666667E-01  0.1422222E-01
    1       -1.850707   1.000000
    2       12.121176   0.000000
    3       14.397366   0.000000
    4       17.177320   0.000000
    5       19.749589   0.000000
    6       22.032039   0.000000
    7       26.423670   0.000000
    8       28.221608   0.000000
 
  0.4000000E+00  0.2000000E+00  0.6666667E-01  0.1422222E-01
    1       -0.801215   1.000000
    2        9.614918   1.000000
    3       14.172466   0.000000
    4       16.023739   0.000000
    5       19.596270   0.000000
    6       23.635096   0.000000
    7       25.532971   0.000000
    8       28.356672   0.000000
 
  0.4666667E+00  0.2000000E+00  0.6666667E-01  0.1422222E-01
    1        0.489984   1.000000
    2        7.279175   1.000000
    3       14.117934   0.000000
    4       15.067340   0.000000
    5       19.610170   0.000000
    6       24.190121   0.000000
    7       25.875874   0.000000
    8       28.564746   0.000000
 
 -0.4666667E+00  0.2000000E+00  0.6666667E-01  0.1422222E-01
    1        2.006774   1.000000
    2        5.159179   1.000000
    3       13.867196   0.000000
    4       14.724396   0.000000
    5       19.848418   0.000000
    6       23.534132   0.000000
    7       26.987003   0.000000
    8       29.362155   0.000000
 
 -0.4000000E+00  0.2000000E+00  0.6666667E-01  0.1422222E-01
    1        3.046851   1.000000
    2        3.967293   1.000000
    3       13.338020   0.000000
    4       15.096270   0.000000
    5       20.303017   0.000000
    6       22.987461   0.000000
    7       27.181185   0.000000
    8       30.490175   0.000000
 
 -0.3333333E+00  0.2000000E+00  0.6666667E-01  0.1422222E-01
    1        1.478418   1.000000
    2        5.837006   1.000000
    3       12.950265   0.000000
    4       15.767540   0.000000
    5       20.939802   0.000000
    6       22.674832   0.000000
    7       26.935515   0.000000
    8       29.329552   0.000000
 
 -0.2666667E+00  0.2000000E+00  0.6666667E-01  0.1422222E-01
    1        0.032887   1.000000
    2        8.030947   1.000000
    3       12.778366   0.000000
    4       16.657612   0.000000
    5       21.642458   0.000000
    6       22.699647   0.000000
    7       26.166513   0.000000
    8       27.826323   0.000000
 
 -0.2000000E+00  0.2000000E+00  0.6666667E-01  0.1422222E-01
    1       -1.178669   1.000000
    2       10.414826   0.000000
    3       12.846916   0.000000
    4       17.725230   0.000000
    5       22.150638   0.000000
    6       23.147558   0.000000
    7       24.742281   0.000000
    8       27.180551   0.000000
 
 -0.1333333E+00  0.2000000E+00  0.6666667E-01  0.7111111E-02
    1       -2.146055   1.000000
    2       12.714597   0.000000
    3       13.394167   0.000000
    4       18.877716   0.000000
    5       22.213234   0.000000
    6       22.919189   0.000000
    7       24.704109   0.000000
    8       26.596293   0.000000
 
  0.3333333E+00  0.2666667E+00  0.6666667E-01  0.7111111E-02
    1       -1.471360   1.000000
    2       13.315941   0.000000
    3       13.756363   0.000000
    4       15.440928   0.000000
    5       18.306166   0.000000
    6       19.855112   0.000000
    7       28.496518   0.000000
    8       30.264743   0.000000
 
  0.4000000E+00  0.2666667E+00  0.6666667E-01  0.1422222E-01
    1       -0.507005   1.000000
    2       11.015610   0.000000
    3       13.228580   0.000000
    4       14.202084   0.000000
    5       18.608536   0.000000
    6       21.019159   0.000000
    7       27.653193   0.000000
    8       30.702801   0.000000
 
  0.4666667E+00  0.2666667E+00  0.6666667E-01  0.1422222E-01
    1        0.700550   1.000000
    2        8.654394   1.000000
    3       12.679932   0.000000
    4       13.529775   0.000000
    5       18.655765   0.000000
    6       22.965749   0.000000
    7       26.761867   0.000000
    8       30.625908   0.000000
 
 -0.4666667E+00  0.2666667E+00  0.6666667E-01  0.1422222E-01
    1        2.141183   1.000000
    2        6.473908   1.000000
    3       11.833116   0.000000
    4       13.600135   0.000000
    5       18.866027   0.000000
    6       24.897861   0.000000
    7       26.207261   0.000000
    8       30.286079   0.000000
 
 -0.4000000E+00  0.2666667E+00  0.6666667E-01  0.1422222E-01
    1        3.710840   1.000000
    2        4.604089   1.000000
    3       11.124164   0.000000
    4       13.988042   0.000000
    5       19.290816   0.000000
    6       25.046200   0.000000
    7       27.553639   0.000000
    8       29.691858   0.000000
 
 -0.3333333E+00  0.2666667E+00  0.6666667E-01  0.1422222E-01
    1        2.667176   1.000000
    2        5.791783   1.000000
    3       10.635145   0.000000
    4       14.617402   0.000000
    5       19.931405   0.000000
    6       24.661587   0.000000
    7       28.282299   0.000000
    8       29.166187   0.000000
 
 -0.2666667E+00  0.2666667E+00  0.6666667E-01  0.1422222E-01
    1        1.154330   1.000000
    2        7.875333   1.000000
    3       10.397373   0.000000
    4       15.469014   0.000000
    5       20.771376   0.000000
    6       24.423827   0.000000
    7       26.451023   0.000000
    8       29.120234   0.000000
 
 -0.2000000E+00  0.2666667E+00  0.6666667E-01  0.7111111E-02
    1       -0.132724   1.000000
    2        9.870235   0.931367
    3       10.694826   0.000000
    4       16.522563   0.000000
    5       21.758162   0.000000
    6       24.075969   0.000000
    7       24.776753   0.000000
    8       28.383852   0.000000
 
  0.4000000E+00  0.3333333E+00  0.6666667E-01  0.7111111E-02
    1        0.036911   1.000000
    2       12.023644   0.000000
    3       12.378628   0.000000
    4       13.160030   0.000000
    5       17.362122   0.000000
    6       18.887683   0.000000
    7       29.919870   0.000000
    8       32.527431   0.000000
 
  0.4666667E+00  0.3333333E+00  0.6666667E-01  0.1422222E-01
    1        1.158690   1.000000
    2       10.150134   0.000000
    3       10.978200   0.000000
    4       12.708860   0.000000
    5       17.816879   0.000000
    6       20.298159   0.000000
    7       29.118364   0.000000
    8       32.760180   0.000000
 
 -0.4666667E+00  0.3333333E+00  0.6666667E-01  0.1422222E-01
    1        2.516204   1.000000
    2        7.988510   1.000000
    3        9.904435   0.698024
    4       12.775904   0.000000
    5       18.034112   0.000000
    6       22.455206   0.000000
    7       28.318585   0.000000
    8       32.184972   0.000000
 