<?xml version="1.0" encoding="ISO-8859-1"?>
<modeling>
 <generator>
  <i name="program" type="string">vasp </i>
  <i name="version" type="string">6.2.0  </i>
  <i name="subversion" type="string">18Jan21 (build Aug 12 2022 13:00:08) complex                          parallel </i>
  <i name="platform" type="string">LinuxIFC </i>
  <i name="date" type="string">2024 11 05 </i>
  <i name="time" type="string">05:20:43 </i>
 </generator>
 <incar>
  <i type="int" name="ISTART">     0</i>
  <i type="string" name="PREC">Accurate      (Accurate strictly avoids</i>
  <i type="logical" name="ADDGRID"> T  </i>
  <i type="int" name="ISPIN">     1</i>
  <i type="int" name="NELM">    90</i>
  <i type="int" name="NELMIN">     6</i>
  <i type="int" name="IBRION">     2</i>
  <i name="EDIFF">      0.00000100</i>
  <i name="EDIFFG">     -0.00200000</i>
  <i type="int" name="NSW">   100</i>
  <i type="int" name="ISIF">     2</i>
  <i type="int" name="ISYM">     2</i>
  <i name="ENCUT">    700.00000000</i>
  <i type="logical" name="LREAL"> F  </i>
  <i type="int" name="ISMEAR">     0</i>
  <i name="SIGMA">      0.05000000</i>
  <i type="logical" name="LWAVE"> F  </i>
  <i type="logical" name="LCHARG"> F  </i>
  <i type="logical" name="LASPH"> T  </i>
 </incar>
 <primitive_cell>
  <structure name="primitive_cell" >
   <crystal>
    <varray name="basis" >
     <v>       2.38260593       0.00000000       1.37559702 </v>
     <v>       0.79420197       2.24634217       1.37559702 </v>
     <v>       0.00000000       0.00000000       2.75119607 </v>
    </varray>
    <i name="volume">     14.72480903 </i>
    <varray name="rec_basis" >
     <v>       0.41970852      -0.14838938       0.00000000 </v>
     <v>       0.00000000       0.44516815       0.00000000 </v>
     <v>      -0.20985410      -0.14838928       0.36347827 </v>
    </varray>
   </crystal>
   <varray name="positions" >
    <v>       0.00000000       0.00000000       0.00000000 </v>
   </varray>
  </structure>
  <varray name="primitive_index" >
   <v type="int" >        1 </v>
  </varray>
 </primitive_cell>
 <kpoints>
  <generation param="Monkhorst-Pack">
   <v type="int" name="divisions">      15       15       15 </v>
   <v name="usershift">      0.00000000       0.00000000       0.00000000 </v>
   <v name="genvec1">      0.06666667      -0.00000000       0.00000000 </v>
   <v name="genvec2">      0.00000000       0.06666667       0.00000000 </v>
   <v name="genvec3">     -0.00000000      -0.00000000       0.06666667 </v>
   <v name="shift">      0.00000000       0.00000000       0.00000000 </v>
  </generation>
  <varray name="kpointlist" >
   <v>       0.00000000       0.00000000       0.00000000 </v>
   <v>       0.06666667       0.00000000       0.00000000 </v>
   <v>       0.13333333       0.00000000       0.00000000 </v>
   <v>       0.20000000       0.00000000       0.00000000 </v>
   <v>       0.26666667       0.00000000       0.00000000 </v>
   <v>       0.33333333       0.00000000       0.00000000 </v>
   <v>       0.40000000       0.00000000       0.00000000 </v>
   <v>       0.46666667       0.00000000       0.00000000 </v>
   <v>       0.06666667       0.06666667       0.00000000 </v>
   <v>       0.13333333       0.06666667       0.00000000 </v>
   <v>       0.20000000       0.06666667       0.00000000 </v>
   <v>       0.26666667       0.06666667       0.00000000 </v>
   <v>       0.33333333       0.06666667       0.00000000 </v>
   <v>       0.40000000       0.06666667       0.00000000 </v>
   <v>       0.46666667       0.06666667       0.00000000 </v>
   <v>      -0.46666667       0.06666667       0.00000000 </v>
   <v>      -0.40000000       0.06666667       0.00000000 </v>
   <v>      -0.33333333       0.06666667       0.00000000 </v>
   <v>      -0.26666667       0.06666667       0.00000000 </v>
   <v>      -0.20000000       0.06666667       0.00000000 </v>
   <v>      -0.13333333       0.06666667       0.00000000 </v>
   <v>      -0.06666667       0.06666667       0.00000000 </v>
   <v>       0.13333333       0.13333333       0.00000000 </v>
   <v>       0.20000000       0.13333333       0.00000000 </v>
   <v>       0.26666667       0.13333333       0.00000000 </v>
   <v>       0.33333333       0.13333333       0.00000000 </v>
   <v>       0.40000000       0.13333333       0.00000000 </v>
   <v>       0.46666667       0.13333333       0.00000000 </v>
   <v>      -0.46666667       0.13333333       0.00000000 </v>
   <v>      -0.40000000       0.13333333       0.00000000 </v>
   <v>      -0.33333333       0.13333333       0.00000000 </v>
   <v>      -0.26666667       0.13333333       0.00000000 </v>
   <v>      -0.20000000       0.13333333       0.00000000 </v>
   <v>      -0.13333333       0.13333333       0.00000000 </v>
   <v>       0.20000000       0.20000000       0.00000000 </v>
   <v>       0.26666667       0.20000000       0.00000000 </v>
   <v>       0.33333333       0.20000000       0.00000000 </v>
   <v>       0.40000000       0.20000000       0.00000000 </v>
   <v>       0.46666667       0.20000000       0.00000000 </v>
   <v>      -0.46666667       0.20000000       0.00000000 </v>
   <v>      -0.40000000       0.20000000       0.00000000 </v>
   <v>      -0.33333333       0.20000000       0.00000000 </v>
   <v>      -0.26666667       0.20000000       0.00000000 </v>
   <v>      -0.20000000       0.20000000       0.00000000 </v>
   <v>       0.26666667       0.26666667       0.00000000 </v>
   <v>       0.33333333       0.26666667       0.00000000 </v>
   <v>       0.40000000       0.26666667       0.00000000 </v>
   <v>       0.46666667       0.26666667       0.00000000 </v>
   <v>      -0.46666667       0.26666667       0.00000000 </v>
   <v>      -0.40000000       0.26666667       0.00000000 </v>
   <v>      -0.33333333       0.26666667       0.00000000 </v>
   <v>      -0.26666667       0.26666667       0.00000000 </v>
   <v>       0.33333333       0.33333333       0.00000000 </v>
   <v>       0.40000000       0.33333333       0.00000000 </v>
   <v>       0.46666667       0.33333333       0.00000000 </v>
   <v>      -0.46666667       0.33333333       0.00000000 </v>
   <v>      -0.40000000       0.33333333       0.00000000 </v>
   <v>      -0.33333333       0.33333333       0.00000000 </v>
   <v>       0.40000000       0.40000000       0.00000000 </v>
   <v>       0.46666667       0.40000000       0.00000000 </v>
   <v>      -0.46666667       0.40000000       0.00000000 </v>
   <v>      -0.40000000       0.40000000       0.00000000 </v>
   <v>       0.46666667       0.46666667       0.00000000 </v>
   <v>      -0.46666667       0.46666667       0.00000000 </v>
   <v>       0.20000000       0.13333333       0.06666667 </v>
   <v>       0.26666667       0.13333333       0.06666667 </v>
   <v>       0.33333333       0.13333333       0.06666667 </v>
   <v>       0.40000000       0.13333333       0.06666667 </v>
   <v>       0.46666667       0.13333333       0.06666667 </v>
   <v>      -0.46666667       0.13333333       0.06666667 </v>
   <v>       0.26666667       0.20000000       0.06666667 </v>
   <v>       0.33333333       0.20000000       0.06666667 </v>
   <v>       0.40000000       0.20000000       0.06666667 </v>
   <v>       0.46666667       0.20000000       0.06666667 </v>
   <v>      -0.46666667       0.20000000       0.06666667 </v>
   <v>      -0.40000000       0.20000000       0.06666667 </v>
   <v>      -0.33333333       0.20000000       0.06666667 </v>
   <v>      -0.26666667       0.20000000       0.06666667 </v>
   <v>      -0.20000000       0.20000000       0.06666667 </v>
   <v>      -0.13333333       0.20000000       0.06666667 </v>
   <v>       0.33333333       0.26666667       0.06666667 </v>
   <v>       0.40000000       0.26666667       0.06666667 </v>
   <v>       0.46666667       0.26666667       0.06666667 </v>
   <v>      -0.46666667       0.26666667       0.06666667 </v>
   <v>      -0.40000000       0.26666667       0.06666667 </v>
   <v>      -0.33333333       0.26666667       0.06666667 </v>
   <v>      -0.26666667       0.26666667       0.06666667 </v>
   <v>      -0.20000000       0.26666667       0.06666667 </v>
   <v>       0.40000000       0.33333333       0.06666667 </v>
   <v>       0.46666667       0.33333333       0.06666667 </v>
   <v>      -0.46666667       0.33333333       0.06666667 </v>
   <v>      -0.40000000       0.33333333       0.06666667 </v>
   <v>      -0.33333333       0.33333333       0.06666667 </v>
   <v>      -0.26666667       0.33333333       0.06666667 </v>
   <v>       0.46666667       0.40000000       0.06666667 </v>
   <v>      -0.46666667       0.40000000       0.06666667 </v>
   <v>      -0.40000000       0.40000000       0.06666667 </v>
   <v>      -0.33333333       0.40000000       0.06666667 </v>
   <v>      -0.46666667       0.46666667       0.06666667 </v>
   <v>      -0.40000000       0.46666667       0.06666667 </v>
   <v>       0.40000000       0.26666667       0.13333333 </v>
   <v>       0.46666667       0.26666667       0.13333333 </v>
   <v>      -0.46666667       0.26666667       0.13333333 </v>
   <v>      -0.40000000       0.26666667       0.13333333 </v>
   <v>       0.46666667       0.33333333       0.13333333 </v>
   <v>      -0.46666667       0.33333333       0.13333333 </v>
   <v>      -0.40000000       0.33333333       0.13333333 </v>
   <v>      -0.33333333       0.33333333       0.13333333 </v>
   <v>      -0.26666667       0.33333333       0.13333333 </v>
   <v>      -0.20000000       0.33333333       0.13333333 </v>
   <v>      -0.46666667       0.40000000       0.13333333 </v>
   <v>      -0.40000000       0.40000000       0.13333333 </v>
   <v>      -0.33333333       0.40000000       0.13333333 </v>
   <v>      -0.26666667       0.40000000       0.13333333 </v>
   <v>      -0.40000000       0.46666667       0.13333333 </v>
   <v>      -0.33333333       0.46666667       0.13333333 </v>
   <v>      -0.40000000       0.40000000       0.20000000 </v>
   <v>      -0.33333333       0.40000000       0.20000000 </v>
   <v>      -0.33333333       0.46666667       0.20000000 </v>
   <v>      -0.26666667       0.46666667       0.20000000 </v>
  </varray>
  <varray name="weights" >
   <v>       0.00029630 </v>
   <v>       0.00237037 </v>
   <v>       0.00237037 </v>
   <v>       0.00237037 </v>
   <v>       0.00237037 </v>
   <v>       0.00237037 </v>
   <v>       0.00237037 </v>
   <v>       0.00237037 </v>
   <v>       0.00177778 </v>
   <v>       0.00711111 </v>
   <v>       0.00711111 </v>
   <v>       0.00711111 </v>
   <v>       0.00711111 </v>
   <v>       0.00711111 </v>
   <v>       0.00711111 </v>
   <v>       0.00711111 </v>
   <v>       0.00711111 </v>
   <v>       0.00711111 </v>
   <v>       0.00711111 </v>
   <v>       0.00711111 </v>
   <v>       0.00711111 </v>
   <v>       0.00355556 </v>
   <v>       0.00177778 </v>
   <v>       0.00711111 </v>
   <v>       0.00711111 </v>
   <v>       0.00711111 </v>
   <v>       0.00711111 </v>
   <v>       0.00711111 </v>
   <v>       0.00711111 </v>
   <v>       0.00711111 </v>
   <v>       0.00711111 </v>
   <v>       0.00711111 </v>
   <v>       0.00711111 </v>
   <v>       0.00355556 </v>
   <v>       0.00177778 </v>
   <v>       0.00711111 </v>
   <v>       0.00711111 </v>
   <v>       0.00711111 </v>
   <v>       0.00711111 </v>
   <v>       0.00711111 </v>
   <v>       0.00711111 </v>
   <v>       0.00711111 </v>
   <v>       0.00711111 </v>
   <v>       0.00355556 </v>
   <v>       0.00177778 </v>
   <v>       0.00711111 </v>
   <v>       0.00711111 </v>
   <v>       0.00711111 </v>
   <v>       0.00711111 </v>
   <v>       0.00711111 </v>
   <v>       0.00711111 </v>
   <v>       0.00355556 </v>
   <v>       0.00177778 </v>
   <v>       0.00711111 </v>
   <v>       0.00711111 </v>
   <v>       0.00711111 </v>
   <v>       0.00711111 </v>
   <v>       0.00355556 </v>
   <v>       0.00177778 </v>
   <v>       0.00711111 </v>
   <v>       0.00711111 </v>
   <v>       0.00355556 </v>
   <v>       0.00177778 </v>
   <v>       0.00355556 </v>
   <v>       0.00711111 </v>
   <v>       0.01422222 </v>
   <v>       0.01422222 </v>
   <v>       0.01422222 </v>
   <v>       0.01422222 </v>
   <v>       0.01422222 </v>
   <v>       0.00711111 </v>
   <v>       0.01422222 </v>
   <v>       0.01422222 </v>
   <v>       0.01422222 </v>
   <v>       0.01422222 </v>
   <v>       0.01422222 </v>
   <v>       0.01422222 </v>
   <v>       0.01422222 </v>
   <v>       0.01422222 </v>
   <v>       0.00711111 </v>
   <v>       0.00711111 </v>
   <v>       0.01422222 </v>
   <v>       0.01422222 </v>
   <v>       0.01422222 </v>
   <v>       0.01422222 </v>
   <v>       0.01422222 </v>
   <v>       0.01422222 </v>
   <v>       0.00711111 </v>
   <v>       0.00711111 </v>
   <v>       0.01422222 </v>
   <v>       0.01422222 </v>
   <v>       0.01422222 </v>
   <v>       0.01422222 </v>
   <v>       0.00711111 </v>
   <v>       0.00711111 </v>
   <v>       0.01422222 </v>
   <v>       0.01422222 </v>
   <v>       0.00711111 </v>
   <v>       0.00711111 </v>
   <v>       0.00711111 </v>
   <v>       0.00711111 </v>
   <v>       0.01422222 </v>
   <v>       0.01422222 </v>
   <v>       0.01422222 </v>
   <v>       0.00711111 </v>
   <v>       0.01422222 </v>
   <v>       0.01422222 </v>
   <v>       0.01422222 </v>
   <v>       0.01422222 </v>
   <v>       0.00711111 </v>
   <v>       0.00711111 </v>
   <v>       0.01422222 </v>
   <v>       0.01422222 </v>
   <v>       0.00711111 </v>
   <v>       0.00711111 </v>
   <v>       0.00711111 </v>
   <v>       0.00711111 </v>
   <v>       0.01422222 </v>
   <v>       0.00711111 </v>
   <v>       0.00711111 </v>
  </varray>
 </kpoints>
 <parameters>
  <separator name="general" >
   <i type="string" name="SYSTEM">unknown system</i>
   <i type="logical" name="LCOMPAT"> F  </i>
  </separator>
  <separator name="electronic" >
   <i type="string" name="PREC">accura</i>
   <i name="ENMAX">    700.00000000</i>
   <i name="ENAUG">    322.06900000</i>
   <i name="EDIFF">      0.00000100</i>
   <i type="int" name="IALGO">    38</i>
   <i type="int" name="IWAVPR">    11</i>
   <i type="int" name="NBANDS">     8</i>
   <i type="int" name="NBANDSLOW">    -1</i>
   <i type="int" name="NBANDSHIGH">    -1</i>
   <i name="NELECT">      4.00000000</i>
   <i type="int" name="TURBO">     0</i>
   <i type="int" name="IRESTART">     0</i>
   <i type="int" name="NREBOOT">     0</i>
   <i type="int" name="NMIN">     0</i>
   <i name="EREF">      0.00000000</i>
   <separator name="electronic smearing" >
    <i type="int" name="ISMEAR">     0</i>
    <i name="SIGMA">      0.05000000</i>
    <i name="KSPACING">      0.50000000</i>
    <i type="logical" name="KGAMMA"> T  </i>
    <i type="logical" name="KBLOWUP"> T  </i>
   </separator>
   <separator name="electronic projectors" >
    <i type="logical" name="LREAL"> F  </i>
    <v name="ROPT">      0.00000000</v>
    <i type="int" name="LMAXPAW">  -100</i>
    <i type="int" name="LMAXMIX">     2</i>
    <i type="logical" name="NLSPLINE"> F  </i>
   </separator>
   <separator name="electronic startup" >
    <i type="int" name="ISTART">     0</i>
    <i type="int" name="ICHARG">     2</i>
    <i type="int" name="INIWAV">     1</i>
   </separator>
   <separator name="electronic spin" >
    <i type="int" name="ISPIN">     1</i>
    <i type="logical" name="LNONCOLLINEAR"> F  </i>
    <v name="MAGMOM">      1.00000000</v>
    <i name="NUPDOWN">     -1.00000000</i>
    <i type="logical" name="LSORBIT"> F  </i>
    <v name="SAXIS">      0.00000000      0.00000000      1.00000000</v>
    <i type="logical" name="LSPIRAL"> F  </i>
    <v name="QSPIRAL">      0.00000000      0.00000000      0.00000000</v>
    <i type="logical" name="LZEROZ"> F  </i>
   </separator>
   <separator name="electronic exchange-correlation" >
    <i type="logical" name="LASPH"> T  </i>
    <i type="logical" name="LMETAGGA"> F  </i>
   </separator>
   <separator name="electronic convergence" >
    <i type="int" name="NELM">    90</i>
    <i type="int" name="NELMDL">    -5</i>
    <i type="int" name="NELMIN">     6</i>
    <i name="ENINI">    700.00000000</i>
    <separator name="electronic convergence detail" >
     <i type="logical" name="LDIAG"> T  </i>
     <i type="logical" name="LSUBROT"> F  </i>
     <i name="WEIMIN">      0.00100000</i>
     <i name="EBREAK">      0.00000003</i>
     <i name="DEPER">      0.30000000</i>
     <i type="int" name="NRMM">     4</i>
     <i name="TIME">      0.40000000</i>
    </separator>
   </separator>
   <separator name="electronic mixer" >
    <i name="AMIX">      0.40000000</i>
    <i name="BMIX">      1.00000000</i>
    <i name="AMIN">      0.10000000</i>
    <i name="AMIX_MAG">      1.60000000</i>
    <i name="BMIX_MAG">      1.00000000</i>
    <separator name="electronic mixer details" >
     <i type="int" name="IMIX">     4</i>
     <i type="logical" name="MIXFIRST"> F  </i>
     <i type="int" name="MAXMIX">   -45</i>
     <i name="WC">    100.00000000</i>
     <i type="int" name="INIMIX">     1</i>
     <i type="int" name="MIXPRE">     1</i>
     <i type="int" name="MREMOVE">     5</i>
    </separator>
   </separator>
   <separator name="electronic dipolcorrection" >
    <i type="logical" name="LDIPOL"> F  </i>
    <i type="logical" name="LMONO"> F  </i>
    <i type="int" name="IDIPOL">     0</i>
    <i name="EPSILON">      1.00000000</i>
    <v name="DIPOL">   -100.00000000   -100.00000000   -100.00000000</v>
    <i name="EFIELD">      0.00000000</i>
   </separator>
  </separator>
  <separator name="grids" >
   <i type="int" name="NGX">    24</i>
   <i type="int" name="NGY">    24</i>
   <i type="int" name="NGZ">    24</i>
   <i type="int" name="NGXF">    48</i>
   <i type="int" name="NGYF">    48</i>
   <i type="int" name="NGZF">    48</i>
   <i type="logical" name="ADDGRID"> T  </i>
  </separator>
  <separator name="ionic" >
   <i type="int" name="NSW">   100</i>
   <i type="int" name="IBRION">     2</i>
   <i type="int" name="MDALGO">     0</i>
   <i type="int" name="ISIF">     2</i>
   <i name="PSTRESS">      0.00000000</i>
   <i name="EDIFFG">     -0.00200000</i>
   <i type="int" name="NFREE">     1</i>
   <i name="POTIM">      0.50000000</i>
   <i name="SMASS">     -3.00000000</i>
   <i name="SCALEE">      1.00000000</i>
  </separator>
  <separator name="ionic md" >
   <i name="TEBEG">      0.00010000</i>
   <i name="TEEND">      0.00010000</i>
   <i type="int" name="NBLOCK">     1</i>
   <i type="int" name="KBLOCK">   100</i>
   <i type="int" name="NPACO">   256</i>
   <i name="APACO">     16.00000000</i>
  </separator>
  <separator name="symmetry" >
   <i type="int" name="ISYM">     2</i>
   <i name="SYMPREC">      0.00001000</i>
  </separator>
  <separator name="dos" >
   <i type="int" name="LORBIT">     0</i>
   <v name="RWIGS">     -1.00000000</v>
   <i type="int" name="NEDOS">   301</i>
   <i name="EMIN">     10.00000000</i>
   <i name="EMAX">    -10.00000000</i>
   <i name="EFERMI">      0.00000000</i>
  </separator>
  <separator name="writing" >
   <i type="int" name="NWRITE">     2</i>
   <i type="logical" name="LWAVE"> F  </i>
   <i type="logical" name="LDOWNSAMPLE"> F  </i>
   <i type="logical" name="LCHARG"> F  </i>
   <i type="logical" name="LPARD"> F  </i>
   <i type="logical" name="LVTOT"> F  </i>
   <i type="logical" name="LVHAR"> F  </i>
   <i type="logical" name="LELF"> F  </i>
   <i type="logical" name="LOPTICS"> F  </i>
   <v name="STM">      0.00000000      0.00000000      0.00000000      0.00000000      0.00000000      0.00000000      0.00000000</v>
  </separator>
  <separator name="performance" >
   <i type="int" name="NPAR">     4</i>
   <i type="int" name="NSIM">     4</i>
   <i type="int" name="NBLK">    -1</i>
   <i type="logical" name="LPLANE"> T  </i>
   <i type="logical" name="LSCALAPACK"> T  </i>
   <i type="logical" name="LSCAAWARE"> F  </i>
   <i type="logical" name="LSCALU"> F  </i>
   <i type="logical" name="LASYNC"> F  </i>
   <i type="logical" name="LORBITALREAL"> F  </i>
  </separator>
  <separator name="miscellaneous" >
   <i type="int" name="IDIOT">     3</i>
   <i type="int" name="PHON_NSTRUCT">    -1</i>
   <i type="logical" name="LMUSIC"> F  </i>
   <v name="POMASS">     28.08500000</v>
   <v name="DARWINR">      0.00000000</v>
   <v name="DARWINV">      1.00000000</v>
   <i type="logical" name="LCORR"> T  </i>
  </separator>
  <i type="logical" name="GGA_COMPAT"> T  </i>
  <i type="logical" name="LBERRY"> F  </i>
  <i type="int" name="ICORELEVEL">     0</i>
  <i type="logical" name="LDAU"> F  </i>
  <i type="int" name="I_CONSTRAINED_M">     0</i>
  <separator name="electronic exchange-correlation" >
   <i type="string" name="GGA">--</i>
   <i type="int" name="VOSKOWN">     0</i>
   <i type="logical" name="LHFCALC"> F  </i>
   <i type="string" name="PRECFOCK"></i>
   <i type="logical" name="LSYMGRAD"> F  </i>
   <i type="logical" name="LHFONE"> F  </i>
   <i type="logical" name="LRHFCALC"> F  </i>
   <i type="logical" name="LTHOMAS"> F  </i>
   <i type="logical" name="LMODELHF"> F  </i>
   <i type="logical" name="LFOCKACE"> F  </i>
   <i name="ENCUT4O">     -1.00000000</i>
   <i type="int" name="EXXOEP">     0</i>
   <i type="int" name="FOURORBIT">     0</i>
   <i name="AEXX">      0.00000000</i>
   <i name="HFALPHA">      0.00000000</i>
   <i name="MCALPHA">      0.00000000</i>
   <i name="ALDAX">      1.00000000</i>
   <i name="AGGAX">      1.00000000</i>
   <i name="ALDAC">      1.00000000</i>
   <i name="AGGAC">      1.00000000</i>
   <i type="int" name="NKREDX">     1</i>
   <i type="int" name="NKREDY">     1</i>
   <i type="int" name="NKREDZ">     1</i>
   <i type="logical" name="SHIFTRED"> F  </i>
   <i type="logical" name="ODDONLY"> F  </i>
   <i type="logical" name="EVENONLY"> F  </i>
   <i type="int" name="LMAXFOCK">     0</i>
   <i type="int" name="NMAXFOCKAE">     0</i>
   <i type="logical" name="LFOCKAEDFT"> F  </i>
   <i name="HFSCREEN">      0.00000000</i>
   <i name="HFSCREENC">      0.00000000</i>
   <i type="int" name="NBANDSGWLOW">     0</i>
  </separator>
  <separator name="vdW DFT" >
   <i type="logical" name="LUSE_VDW"> F  </i>
   <i name="Zab_VDW">     -0.84910000</i>
   <i name="PARAM1">      0.12340000</i>
   <i name="PARAM2">      1.00000000</i>
   <i name="PARAM3">      0.00000000</i>
  </separator>
  <separator name="model GW" >
   <i type="int" name="MODEL_GW">     0</i>
   <i name="MODEL_EPS0">      8.83488542</i>
   <i name="MODEL_ALPHA">      1.00000000</i>
  </separator>
  <separator name="linear response parameters" >
   <i type="logical" name="LEPSILON"> F  </i>
   <i type="logical" name="LRPA"> F  </i>
   <i type="logical" name="LNABLA"> F  </i>
   <i type="logical" name="LVEL"> F  </i>
   <i type="int" name="KINTER">     0</i>
   <i name="CSHIFT">      0.10000000</i>
   <i name="OMEGAMAX">     -1.00000000</i>
   <i name="DEG_THRESHOLD">      0.00200000</i>
   <i name="RTIME">     -0.10000000</i>
   <i name="WPLASMAI">      0.00000000</i>
   <v name="DFIELD">      0.00000000      0.00000000      0.00000000</v>
   <v name="WPLASMA">      0.00000000      0.00000000      0.00000000      0.00000000      0.00000000      0.00000000      0.00000000      0.00000000      0.00000000</v>
  </separator>
  <separator name="orbital magnetization" >
   <i type="logical" name="NUCIND"> F  </i>
   <v name="MAGPOS">      0.00000000      0.00000000      0.00000000</v>
   <i type="logical" name="LNICSALL"> T  </i>
   <i type="logical" name="ORBITALMAG"> F  </i>
   <i type="logical" name="LMAGBLOCH"> F  </i>
   <i type="logical" name="LCHIMAG"> F  </i>
   <i type="logical" name="LGAUGE"> T  </i>
   <i type="int" name="MAGATOM">     0</i>
   <v name="MAGDIPOL">      0.00000000      0.00000000      0.00000000</v>
   <v name="AVECCONST">      0.00000000      0.00000000      0.00000000</v>
  </separator>
  <separator name="response functions" >
   <i type="logical" name="LFINITE_TEMPERATURE"> F  </i>
   <i type="logical" name="LADDER"> F  </i>
   <i type="logical" name="LRPAFORCE"> F  </i>
   <i type="logical" name="LFXC"> F  </i>
   <i type="logical" name="LHARTREE"> T  </i>
   <i type="int" name="IBSE">     0</i>
   <v type="int" name="KPOINT">    -1     0     0     0</v>
   <i type="logical" name="LTCTC"> F  </i>
   <i type="logical" name="LTCTE"> F  </i>
   <i type="logical" name="LTETE"> F  </i>
   <i type="logical" name="LTRIPLET"> F  </i>
   <i type="logical" name="LFXCEPS"> F  </i>
   <i type="logical" name="LFXHEG"> F  </i>
   <i type="int" name="NATURALO">     2</i>
   <i type="logical" name="LHOLEGF"> F  </i>
   <i type="logical" name="L2ORDER"> F  </i>
   <i type="logical" name="LDMP1"> F  </i>
   <i type="logical" name="LMP2LT"> F  </i>
   <i type="logical" name="LSMP2LT"> F  </i>
   <i type="logical" name="LGWLF"> F  </i>
   <i name="ENCUTGW">     -2.00000000</i>
   <i name="ENCUTGWSOFT">     -2.00000000</i>
   <i name="ENCUTLF">     -1.00000000</i>
   <i type="logical" name="LESF_SPLINES"> F  </i>
   <i type="int" name="LMAXMP2">    -1</i>
   <i name="SCISSOR">      0.00000000</i>
   <i type="int" name="NOMEGA">     0</i>
   <i type="int" name="NOMEGAR">     0</i>
   <i type="int" name="NBANDSGW">    -1</i>
   <i type="int" name="NBANDSO">    -1</i>
   <i type="int" name="NBANDSV">    -1</i>
   <i type="int" name="NELM">    90</i>
   <i type="int" name="NELMHF">     1</i>
   <i type="int" name="DIM">     3</i>
   <i type="int" name="IESPILON">     4</i>
   <i type="int" name="ANTIRES">     0</i>
   <i name="OMEGAMAX">    -30.00000000</i>
   <i name="OMEGAMIN">    -30.00000000</i>
   <i name="OMEGATL">   -200.00000000</i>
   <i type="int" name="OMEGAGRID">     0</i>
   <i name="CSHIFT">     -0.10000000</i>
   <i type="logical" name="LSELFENERGY"> F  </i>
   <i type="logical" name="LSPECTRAL"> F  </i>
   <i type="logical" name="LSPECTRALGW"> F  </i>
   <i type="logical" name="LSINGLES"> F  </i>
   <i type="logical" name="LFERMIGW"> F  </i>
   <i type="logical" name="ODDONLYGW"> F  </i>
   <i type="logical" name="EVENONLYGW"> F  </i>
   <i type="int" name="NKREDLFX">     1</i>
   <i type="int" name="NKREDLFY">     1</i>
   <i type="int" name="NKREDLFZ">     1</i>
   <i type="int" name="MAXMEM">  2800</i>
   <i type="int" name="TELESCOPE">     0</i>
   <i type="int" name="NTAUPAR">    -1</i>
   <i type="int" name="NOMEGAPAR">    -1</i>
   <i name="DAMP_NEWTON">      0.80000001</i>
   <i name="LAMBDA">      1.00000000</i>
  </separator>
  <separator name="External order field" >
   <i name="OFIELD_KAPPA">      0.00000000</i>
   <v name="OFIELD_K">      0.00000000      0.00000000      0.00000000</v>
   <i name="OFIELD_Q6_NEAR">      0.00000000</i>
   <i name="OFIELD_Q6_FAR">      0.00000000</i>
   <i name="OFIELD_A">      0.00000000</i>
  </separator>
 </parameters>
 <atominfo>
  <atoms>       1 </atoms>
  <types>       1 </types>
  <array name="atoms" >
   <dimension dim="1">ion</dimension>
   <field type="string">element</field>
   <field type="int">atomtype</field>
   <set>
    <rc><c>Si</c><c>   1</c></rc>
   </set>
  </array>
  <array name="atomtypes" >
   <dimension dim="1">type</dimension>
   <field type="int">atomspertype</field>
   <field type="string">element</field>
   <field>mass</field>
   <field>valence</field>
   <field type="string">pseudopotential</field>
   <set>
    <rc><c>   1</c><c>Si</c><c>     28.08500000</c><c>      4.00000000</c><c>  PAW_PBE Si 05Jan2001                  </c></rc>
   </set>
  </array>
 </atominfo>
 <structure name="initialpos" >
  <crystal>
   <varray name="basis" >
    <v>       2.38260593       0.00000000       1.37559702 </v>
    <v>       0.79420197       2.24634217       1.37559702 </v>
    <v>       0.00000000       0.00000000       2.75119607 </v>
   </varray>
   <i name="volume">     14.72480903 </i>
   <varray name="rec_basis" >
    <v>       0.41970852      -0.14838938       0.00000000 </v>
    <v>       0.00000000       0.44516815       0.00000000 </v>
    <v>      -0.20985410      -0.14838928       0.36347827 </v>
   </varray>
  </crystal>
  <varray name="positions" >
   <v>       0.00000000       0.00000000       0.00000000 </v>
  </varray>
 </structure>
 <calculation>
  <scstep>
   <time name="dav">    0.98    0.98</time>
   <time name="total">    1.20    1.21</time>
   <energy>
    <i name="alphaZ">      2.28615059 </i>
    <i name="ewald">   -135.74873191 </i>
    <i name="hartreedc">     -0.63680250 </i>
    <i name="XCdc">     -8.85228290 </i>
    <i name="pawpsdc">     88.12379961 </i>
    <i name="pawaedc">    -70.53051779 </i>
    <i name="eentropy">     -0.00091236 </i>
    <i name="bandstr">     20.69339830 </i>
    <i name="atom">    103.06662367 </i>
    <i name="e_fr_energy">     -1.59927529 </i>
    <i name="e_wo_entrp">     -1.59836293 </i>
    <i name="e_0_energy">     -1.59881911 </i>
   </energy>
  </scstep>
  <scstep>
   <time name="dav">    1.35    1.36</time>
   <time name="total">    1.35    1.36</time>
   <energy>
    <i name="e_fr_energy">     -4.88222560 </i>
    <i name="e_wo_entrp">     -4.88128866 </i>
    <i name="e_0_energy">     -4.88175713 </i>
   </energy>
  </scstep>
  <scstep>
   <time name="dav">    1.07    1.09</time>
   <time name="total">    1.08    1.09</time>
   <energy>
    <i name="e_fr_energy">     -4.90249394 </i>
    <i name="e_wo_entrp">     -4.90163366 </i>
    <i name="e_0_energy">     -4.90206380 </i>
   </energy>
  </scstep>
  <scstep>
   <time name="dav">    1.50    1.51</time>
   <time name="total">    1.50    1.52</time>
   <energy>
    <i name="e_fr_energy">     -4.90251459 </i>
    <i name="e_wo_entrp">     -4.90165441 </i>
    <i name="e_0_energy">     -4.90208450 </i>
   </energy>
  </scstep>
  <scstep>
   <time name="dav">    1.18    1.19</time>
   <time name="total">    1.27    1.28</time>
   <energy>
    <i name="e_fr_energy">     -4.90251459 </i>
    <i name="e_wo_entrp">     -4.90165441 </i>
    <i name="e_0_energy">     -4.90208450 </i>
   </energy>
  </scstep>
  <scstep>
   <time name="dav">    1.10    1.10</time>
   <time name="total">    1.39    1.41</time>
   <energy>
    <i name="e_fr_energy">     -4.88994603 </i>
    <i name="e_wo_entrp">     -4.88910522 </i>
    <i name="e_0_energy">     -4.88952562 </i>
   </energy>
  </scstep>
  <scstep>
   <time name="dav">    1.08    1.08</time>
   <time name="total">    1.37    1.38</time>
   <energy>
    <i name="e_fr_energy">     -4.88281609 </i>
    <i name="e_wo_entrp">     -4.88198569 </i>
    <i name="e_0_energy">     -4.88240089 </i>
   </energy>
  </scstep>
  <scstep>
   <time name="dav">    1.40    1.40</time>
   <time name="total">    1.69    1.71</time>
   <energy>
    <i name="e_fr_energy">     -4.88278372 </i>
    <i name="e_wo_entrp">     -4.88195069 </i>
    <i name="e_0_energy">     -4.88236721 </i>
   </energy>
  </scstep>
  <scstep>
   <time name="dav">    1.15    1.15</time>
   <time name="total">    1.36    1.37</time>
   <energy>
    <i name="alphaZ">      2.28615059 </i>
    <i name="ewald">   -135.74873191 </i>
    <i name="hartreedc">     -0.47561271 </i>
    <i name="XCdc">     -8.80409706 </i>
    <i name="pawpsdc">    285.65300726 </i>
    <i name="pawaedc">   -268.06385805 </i>
    <i name="eentropy">     -0.00083337 </i>
    <i name="bandstr">     17.20456747 </i>
    <i name="atom">    103.06662367 </i>
    <i name="e_fr_energy">     -4.88278411 </i>
    <i name="e_wo_entrp">     -4.88195075 </i>
    <i name="e_0_energy">     -4.88236743 </i>
   </energy>
  </scstep>
  <structure>
   <crystal>
    <varray name="basis" >
     <v>       2.38260593       0.00000000       1.37559702 </v>
     <v>       0.79420197       2.24634217       1.37559702 </v>
     <v>       0.00000000       0.00000000       2.75119607 </v>
    </varray>
    <i name="volume">     14.72480903 </i>
    <varray name="rec_basis" >
     <v>       0.41970852      -0.14838938       0.00000000 </v>
     <v>       0.00000000       0.44516815       0.00000000 </v>
     <v>      -0.20985410      -0.14838928       0.36347827 </v>
    </varray>
   </crystal>
   <varray name="positions" >
    <v>       0.00000000       0.00000000       0.00000000 </v>
   </varray>
  </structure>
  <varray name="forces" >
   <v>      -0.00000000       0.00000000      -0.00000000 </v>
  </varray>
  <varray name="stress" >
   <v>     -15.20390334       0.00000000       0.00000648 </v>
   <v>      -0.00000000     -15.20390018       0.00000458 </v>
   <v>       0.00000648       0.00000458     -15.20390031 </v>
  </varray>
  <energy>
   <i name="e_fr_energy">     -4.88278411 </i>
   <i name="e_wo_entrp">     -4.88195075 </i>
   <i name="e_0_energy">     -4.88236743 </i>
  </energy>
  <time name="totalsc">   13.91   14.14</time>
  <eigenvalues>
   <array>
    <dimension dim="1">band</dimension>
    <dimension dim="2">kpoint</dimension>
    <dimension dim="3">spin</dimension>
    <field>eigene</field>
    <field>occ</field>
    <set>
     <set comment="spin 1">
      <set comment="kpoint 1">
       <r>   -4.3518    1.0000 </r>
       <r>   20.8697    0.0000 </r>
       <r>   20.8698    0.0000 </r>
       <r>   20.8698    0.0000 </r>
       <r>   21.8022    0.0000 </r>
       <r>   21.8022    0.0000 </r>
       <r>   21.8022    0.0000 </r>
       <r>   27.0994    0.0000 </r>
      </set>
      <set comment="kpoint 2">
       <r>   -4.2238    1.0000 </r>
       <r>   18.8199    0.0000 </r>
       <r>   20.2557    0.0000 </r>
       <r>   20.2557    0.0000 </r>
       <r>   22.5713    0.0000 </r>
       <r>   22.5713    0.0000 </r>
       <r>   22.7675    0.0000 </r>
       <r>   27.9332    0.0000 </r>
      </set>
      <set comment="kpoint 3">
       <r>   -3.8406    1.0000 </r>
       <r>   16.0386    0.0000 </r>
       <r>   19.5133    0.0000 </r>
       <r>   19.5133    0.0000 </r>
       <r>   23.0446    0.0000 </r>
       <r>   23.6347    0.0000 </r>
       <r>   23.6348    0.0000 </r>
       <r>   26.9229    0.0000 </r>
      </set>
      <set comment="kpoint 4">
       <r>   -3.2036    1.0000 </r>
       <r>   13.2481    0.0000 </r>
       <r>   18.9436    0.0000 </r>
       <r>   18.9436    0.0000 </r>
       <r>   22.9724    0.0000 </r>
       <r>   23.8655    0.0000 </r>
       <r>   23.8655    0.0000 </r>
       <r>   26.8919    0.0000 </r>
      </set>
      <set comment="kpoint 5">
       <r>   -2.3155    1.0000 </r>
       <r>   10.5805    0.0000 </r>
       <r>   18.5652    0.0000 </r>
       <r>   18.5652    0.0000 </r>
       <r>   22.8716    0.0000 </r>
       <r>   23.0057    0.0000 </r>
       <r>   23.0058    0.0000 </r>
       <r>   28.2729    0.0000 </r>
      </set>
      <set comment="kpoint 6">
       <r>   -1.1805    1.0000 </r>
       <r>    8.0884    1.0000 </r>
       <r>   18.3678    0.0000 </r>
       <r>   18.3678    0.0000 </r>
       <r>   22.0252    0.0000 </r>
       <r>   22.0252    0.0000 </r>
       <r>   22.8510    0.0000 </r>
       <r>   27.1303    0.0000 </r>
      </set>
      <set comment="kpoint 7">
       <r>    0.1937    1.0000 </r>
       <r>    5.8012    1.0000 </r>
       <r>   18.3161    0.0000 </r>
       <r>   18.3161    0.0000 </r>
       <r>   21.2433    0.0000 </r>
       <r>   21.2433    0.0000 </r>
       <r>   22.9242    0.0000 </r>
       <r>   26.2323    0.0000 </r>
      </set>
      <set comment="kpoint 8">
       <r>    1.7721    1.0000 </r>
       <r>    3.7642    1.0000 </r>
       <r>   18.3360    0.0000 </r>
       <r>   18.3360    0.0000 </r>
       <r>   20.7976    0.0000 </r>
       <r>   20.7976    0.0000 </r>
       <r>   23.0218    0.0000 </r>
       <r>   25.7097    0.0000 </r>
      </set>
      <set comment="kpoint 9">
       <r>   -4.1812    1.0000 </r>
       <r>   19.2822    0.0000 </r>
       <r>   19.2822    0.0000 </r>
       <r>   20.4671    0.0000 </r>
       <r>   20.8998    0.0000 </r>
       <r>   23.6022    0.0000 </r>
       <r>   23.6022    0.0000 </r>
       <r>   26.8307    0.0000 </r>
      </set>
      <set comment="kpoint 10">
       <r>   -3.8831    1.0000 </r>
       <r>   17.0306    0.0000 </r>
       <r>   18.4558    0.0000 </r>
       <r>   19.9704    0.0000 </r>
       <r>   21.3630    0.0000 </r>
       <r>   24.3101    0.0000 </r>
       <r>   24.7292    0.0000 </r>
       <r>   25.3867    0.0000 </r>
      </set>
      <set comment="kpoint 11">
       <r>   -3.3307    1.0000 </r>
       <r>   14.2572    0.0000 </r>
       <r>   17.8280    0.0000 </r>
       <r>   19.3453    0.0000 </r>
       <r>   22.0448    0.0000 </r>
       <r>   24.1254    0.0000 </r>
       <r>   24.9033    0.0000 </r>
       <r>   25.3365    0.0000 </r>
      </set>
      <set comment="kpoint 12">
       <r>   -2.5264    1.0000 </r>
       <r>   11.5510    0.0000 </r>
       <r>   17.4104    0.0000 </r>
       <r>   18.8312    0.0000 </r>
       <r>   21.5305    0.0000 </r>
       <r>   23.9339    0.0000 </r>
       <r>   24.7110    0.0000 </r>
       <r>   25.9170    0.0000 </r>
      </set>
      <set comment="kpoint 13">
       <r>   -1.4736    1.0000 </r>
       <r>    9.0013    1.0000 </r>
       <r>   17.2046    0.0000 </r>
       <r>   18.3902    0.0000 </r>
       <r>   20.6936    0.0000 </r>
       <r>   23.6985    0.0000 </r>
       <r>   23.8987    0.0000 </r>
       <r>   27.4922    0.0000 </r>
      </set>
      <set comment="kpoint 14">
       <r>   -0.1785    1.0000 </r>
       <r>    6.6455    1.0000 </r>
       <r>   17.2068    0.0000 </r>
       <r>   17.9223    0.0000 </r>
       <r>   20.1855    0.0000 </r>
       <r>   22.7594    0.0000 </r>
       <r>   23.9066    0.0000 </r>
       <r>   27.4341    0.0000 </r>
      </set>
      <set comment="kpoint 15">
       <r>    1.3422    1.0000 </r>
       <r>    4.5150    1.0000 </r>
       <r>   17.4028    0.0000 </r>
       <r>   17.4068    0.0000 </r>
       <r>   20.1352    0.0000 </r>
       <r>   22.0096    0.0000 </r>
       <r>   23.9203    0.0000 </r>
       <r>   26.9120    0.0000 </r>
      </set>
      <set comment="kpoint 16">
       <r>    2.3785    1.0000 </r>
       <r>    3.3259    1.0000 </r>
       <r>   16.9332    0.0000 </r>
       <r>   17.7830    0.0000 </r>
       <r>   20.4678    0.0000 </r>
       <r>   21.5026    0.0000 </r>
       <r>   23.8584    0.0000 </r>
       <r>   26.8248    0.0000 </r>
      </set>
      <set comment="kpoint 17">
       <r>    0.8130    1.0000 </r>
       <r>    5.1968    1.0000 </r>
       <r>   16.6048    0.0000 </r>
       <r>   18.2911    0.0000 </r>
       <r>   21.0961    0.0000 </r>
       <r>   21.2908    0.0000 </r>
       <r>   23.7208    0.0000 </r>
       <r>   27.2051    0.0000 </r>
      </set>
      <set comment="kpoint 18">
       <r>   -0.6366    1.0000 </r>
       <r>    7.4073    1.0000 </r>
       <r>   16.4622    0.0000 </r>
       <r>   18.8541    0.0000 </r>
       <r>   21.4440    0.0000 </r>
       <r>   21.9657    0.0000 </r>
       <r>   23.5998    0.0000 </r>
       <r>   27.9154    0.0000 </r>
      </set>
      <set comment="kpoint 19">
       <r>   -1.8519    1.0000 </r>
       <r>    9.8305    0.9955 </r>
       <r>   16.5246    0.0000 </r>
       <r>   19.3978    0.0000 </r>
       <r>   21.9997    0.0000 </r>
       <r>   23.0233    0.0000 </r>
       <r>   23.5565    0.0000 </r>
       <r>   27.5476    0.0000 </r>
      </set>
      <set comment="kpoint 20">
       <r>   -2.8223    1.0000 </r>
       <r>   12.4370    0.0000 </r>
       <r>   16.7999    0.0000 </r>
       <r>   19.9343    0.0000 </r>
       <r>   22.7795    0.0000 </r>
       <r>   23.5709    0.0000 </r>
       <r>   24.1457    0.0000 </r>
       <r>   25.9041    0.0000 </r>
      </set>
      <set comment="kpoint 21">
       <r>   -3.5430    1.0000 </r>
       <r>   15.1793    0.0000 </r>
       <r>   17.2897    0.0000 </r>
       <r>   20.5164    0.0000 </r>
       <r>   22.8695    0.0000 </r>
       <r>   23.5252    0.0000 </r>
       <r>   24.7377    0.0000 </r>
       <r>   25.4943    0.0000 </r>
      </set>
      <set comment="kpoint 22">
       <r>   -4.0108    1.0000 </r>
       <r>   17.8554    0.0000 </r>
       <r>   18.0708    0.0000 </r>
       <r>   20.9434    0.0000 </r>
       <r>   22.1319    0.0000 </r>
       <r>   23.1673    0.0000 </r>
       <r>   24.0590    0.0000 </r>
       <r>   26.5939    0.0000 </r>
      </set>
      <set comment="kpoint 23">
       <r>   -3.6704    1.0000 </r>
       <r>   17.5570    0.0000 </r>
       <r>   17.5570    0.0000 </r>
       <r>   19.2751    0.0000 </r>
       <r>   19.3967    0.0000 </r>
       <r>   23.6081    0.0000 </r>
       <r>   25.9352    0.0000 </r>
       <r>   25.9352    0.0000 </r>
      </set>
      <set comment="kpoint 24">
       <r>   -3.2033    1.0000 </r>
       <r>   15.4055    0.0000 </r>
       <r>   16.8595    0.0000 </r>
       <r>   18.6229    0.0000 </r>
       <r>   19.7583    0.0000 </r>
       <r>   22.3121    0.0000 </r>
       <r>   26.6445    0.0000 </r>
       <r>   26.8805    0.0000 </r>
      </set>
      <set comment="kpoint 25">
       <r>   -2.4837    1.0000 </r>
       <r>   12.7236    0.0000 </r>
       <r>   16.3756    0.0000 </r>
       <r>   17.8968    0.0000 </r>
       <r>   19.7096    0.0000 </r>
       <r>   22.6166    0.0000 </r>
       <r>   26.6359    0.0000 </r>
       <r>   26.8215    0.0000 </r>
      </set>
      <set comment="kpoint 26">
       <r>   -1.5147    1.0000 </r>
       <r>   10.1368    0.0000 </r>
       <r>   16.1090    0.0000 </r>
       <r>   17.0863    0.0000 </r>
       <r>   19.1299    0.0000 </r>
       <r>   24.0515    0.0000 </r>
       <r>   25.7002    0.0000 </r>
       <r>   26.9855    0.0000 </r>
      </set>
      <set comment="kpoint 27">
       <r>   -0.3012    1.0000 </r>
       <r>    7.7234    1.0000 </r>
       <r>   16.0599    0.0000 </r>
       <r>   16.2043    0.0000 </r>
       <r>   18.8745    0.0000 </r>
       <r>   24.7320    0.0000 </r>
       <r>   25.2699    0.0000 </r>
       <r>   27.6880    0.0000 </r>
      </set>
      <set comment="kpoint 28">
       <r>    1.1463    1.0000 </r>
       <r>    5.5185    1.0000 </r>
       <r>   15.3855    0.0000 </r>
       <r>   16.2260    0.0000 </r>
       <r>   18.9662    0.0000 </r>
       <r>   23.9021    0.0000 </r>
       <r>   25.6321    0.0000 </r>
       <r>   29.2016    0.0000 </r>
      </set>
      <set comment="kpoint 29">
       <r>    2.7132    1.0000 </r>
       <r>    3.6472    1.0000 </r>
       <r>   14.7230    0.0000 </r>
       <r>   16.6021    0.0000 </r>
       <r>   19.3461    0.0000 </r>
       <r>   23.2679    0.0000 </r>
       <r>   25.5467    0.0000 </r>
       <r>   29.3611    0.0000 </r>
      </set>
      <set comment="kpoint 30">
       <r>    1.6748    1.0000 </r>
       <r>    4.8372    1.0000 </r>
       <r>   14.2580    0.0000 </r>
       <r>   17.1779    0.0000 </r>
       <r>   19.9808    0.0000 </r>
       <r>   22.8574    0.0000 </r>
       <r>   25.3263    0.0000 </r>
       <r>   29.6513    0.0000 </r>
      </set>
      <set comment="kpoint 31">
       <r>    0.1559    1.0000 </r>
       <r>    6.9618    1.0000 </r>
       <r>   14.0086    0.0000 </r>
       <r>   17.9339    0.0000 </r>
       <r>   20.8478    0.0000 </r>
       <r>   22.6918    0.0000 </r>
       <r>   25.1062    0.0000 </r>
       <r>   29.1600    0.0000 </r>
      </set>
      <set comment="kpoint 32">
       <r>   -1.1374    1.0000 </r>
       <r>    9.3056    1.0000 </r>
       <r>   13.9846    0.0000 </r>
       <r>   18.8309    0.0000 </r>
       <r>   21.9200    0.0000 </r>
       <r>   22.7917    0.0000 </r>
       <r>   24.9251    0.0000 </r>
       <r>   27.0314    0.0000 </r>
      </set>
      <set comment="kpoint 33">
       <r>   -2.1885    1.0000 </r>
       <r>   11.8265    0.0000 </r>
       <r>   14.1975    0.0000 </r>
       <r>   19.7874    0.0000 </r>
       <r>   23.1423    0.0000 </r>
       <r>   23.1440    0.0000 </r>
       <r>   24.7161    0.0000 </r>
       <r>   25.1864    0.0000 </r>
      </set>
      <set comment="kpoint 34">
       <r>   -2.9915    1.0000 </r>
       <r>   14.2731    0.0000 </r>
       <r>   14.8516    0.0000 </r>
       <r>   20.5923    0.0000 </r>
       <r>   23.1167    0.0000 </r>
       <r>   24.2783    0.0000 </r>
       <r>   24.3316    0.0000 </r>
       <r>   24.4912    0.0000 </r>
      </set>
      <set comment="kpoint 35">
       <r>   -2.8217    1.0000 </r>
       <r>   16.0900    0.0000 </r>
       <r>   16.0900    0.0000 </r>
       <r>   17.6695    0.0000 </r>
       <r>   17.7192    0.0000 </r>
       <r>   20.6390    0.0000 </r>
       <r>   28.3174    0.0000 </r>
       <r>   28.3174    0.0000 </r>
      </set>
      <set comment="kpoint 36">
       <r>   -2.1876    1.0000 </r>
       <r>   14.0338    0.0000 </r>
       <r>   15.5344    0.0000 </r>
       <r>   16.5789    0.0000 </r>
       <r>   17.9587    0.0000 </r>
       <r>   20.1732    0.0000 </r>
       <r>   28.6555    0.0000 </r>
       <r>   29.0469    0.0000 </r>
      </set>
      <set comment="kpoint 37">
       <r>   -1.3036    1.0000 </r>
       <r>   11.4725    0.0000 </r>
       <r>   15.1976    0.0000 </r>
       <r>   15.3893    0.0000 </r>
       <r>   17.8608    0.0000 </r>
       <r>   21.4002    0.0000 </r>
       <r>   27.8776    0.0000 </r>
       <r>   29.2049    0.0000 </r>
      </set>
      <set comment="kpoint 38">
       <r>   -0.1739    1.0000 </r>
       <r>    9.0229    1.0000 </r>
       <r>   14.2494    0.0000 </r>
       <r>   15.0810    0.0000 </r>
       <r>   17.7341    0.0000 </r>
       <r>   23.2689    0.0000 </r>
       <r>   26.9313    0.0000 </r>
       <r>   29.1278    0.0000 </r>
      </set>
      <set comment="kpoint 39">
       <r>    1.1940    1.0000 </r>
       <r>    6.7584    1.0000 </r>
       <r>   13.2629    0.0000 </r>
       <r>   15.1842    0.0000 </r>
       <r>   17.8356    0.0000 </r>
       <r>   25.2455    0.0000 </r>
       <r>   26.0679    0.0000 </r>
       <r>   29.0138    0.0000 </r>
      </set>
      <set comment="kpoint 40">
       <r>    2.7683    1.0000 </r>
       <r>    4.7316    1.0000 </r>
       <r>   12.4754    0.0000 </r>
       <r>   15.5049    0.0000 </r>
       <r>   18.1845    0.0000 </r>
       <r>   25.3694    0.0000 </r>
       <r>   26.7387    0.0000 </r>
       <r>   29.3357    0.0000 </r>
      </set>
      <set comment="kpoint 41">
       <r>    2.7680    1.0000 </r>
       <r>    4.7298    1.0000 </r>
       <r>   11.9075    0.0000 </r>
       <r>   16.0389    0.0000 </r>
       <r>   18.7758    0.0000 </r>
       <r>   24.8711    0.0000 </r>
       <r>   27.0463    0.0000 </r>
       <r>   30.5085    0.0000 </r>
      </set>
      <set comment="kpoint 42">
       <r>    1.1932    1.0000 </r>
       <r>    6.7508    1.0000 </r>
       <r>   11.5719    0.0000 </r>
       <r>   16.7776    0.0000 </r>
       <r>   19.5989    0.0000 </r>
       <r>   24.5914    0.0000 </r>
       <r>   26.8160    0.0000 </r>
       <r>   28.9831    0.0000 </r>
      </set>
      <set comment="kpoint 43">
       <r>   -0.1750    1.0000 </r>
       <r>    8.9923    1.0000 </r>
       <r>   11.4878    0.0000 </r>
       <r>   17.7026    0.0000 </r>
       <r>   20.6362    0.0000 </r>
       <r>   24.5431    0.0000 </r>
       <r>   26.4156    0.0000 </r>
       <r>   26.7509    0.0000 </r>
      </set>
      <set comment="kpoint 44">
       <r>   -1.3047    1.0000 </r>
       <r>   11.1401    0.0000 </r>
       <r>   11.9230    0.0000 </r>
       <r>   18.7665    0.0000 </r>
       <r>   21.8509    0.0000 </r>
       <r>   24.7342    0.0000 </r>
       <r>   24.7416    0.0000 </r>
       <r>   25.7514    0.0000 </r>
      </set>
      <set comment="kpoint 45">
       <r>   -1.6393    1.0000 </r>
       <r>   14.9059    0.0000 </r>
       <r>   14.9059    0.0000 </r>
       <r>   15.0225    0.0000 </r>
       <r>   16.4174    0.0000 </r>
       <r>   18.7643    0.0000 </r>
       <r>   30.6022    0.0000 </r>
       <r>   30.6024    0.0000 </r>
      </set>
      <set comment="kpoint 46">
       <r>   -0.8412    1.0000 </r>
       <r>   12.8954    0.0000 </r>
       <r>   13.7073    0.0000 </r>
       <r>   14.4964    0.0000 </r>
       <r>   16.7062    0.0000 </r>
       <r>   18.9302    0.0000 </r>
       <r>   30.1351    0.0000 </r>
       <r>   31.2712    0.0000 </r>
      </set>
      <set comment="kpoint 47">
       <r>    0.2031    1.0000 </r>
       <r>   10.5050    0.0000 </r>
       <r>   12.3807    0.0000 </r>
       <r>   14.3081    0.0000 </r>
       <r>   16.7863    0.0000 </r>
       <r>   20.5213    0.0000 </r>
       <r>   29.2696    0.0000 </r>
       <r>   31.2880    0.0000 </r>
      </set>
      <set comment="kpoint 48">
       <r>    1.4876    1.0000 </r>
       <r>    8.2130    1.0000 </r>
       <r>   11.2615    0.0000 </r>
       <r>   14.3413    0.0000 </r>
       <r>   16.8828    0.0000 </r>
       <r>   22.6244    0.0000 </r>
       <r>   28.4102    0.0000 </r>
       <r>   30.9319    0.0000 </r>
      </set>
      <set comment="kpoint 49">
       <r>    2.9966    1.0000 </r>
       <r>    6.1138    1.0000 </r>
       <r>   10.3662    0.0000 </r>
       <r>   14.5950    0.0000 </r>
       <r>   17.1834    0.0000 </r>
       <r>   24.9048    0.0000 </r>
       <r>   27.6733    0.0000 </r>
       <r>   30.3967    0.0000 </r>
      </set>
      <set comment="kpoint 50">
       <r>    4.0417    1.0000 </r>
       <r>    4.9145    1.0000 </r>
       <r>    9.7070    1.0000 </r>
       <r>   15.0670    0.0000 </r>
       <r>   17.7158    0.0000 </r>
       <r>   27.1087    0.0000 </r>
       <r>   27.1230    0.0000 </r>
       <r>   29.8174    0.0000 </r>
      </set>
      <set comment="kpoint 51">
       <r>    2.4692    1.0000 </r>
       <r>    6.7572    1.0000 </r>
       <r>    9.3067    1.0000 </r>
       <r>   15.7524    0.0000 </r>
       <r>   18.4797    0.0000 </r>
       <r>   26.7322    0.0000 </r>
       <r>   28.4173    0.0000 </r>
       <r>   29.0566    0.0000 </r>
      </set>
      <set comment="kpoint 52">
       <r>    1.0304    1.0000 </r>
       <r>    8.5949    1.0000 </r>
       <r>    9.4596    1.0000 </r>
       <r>   16.6404    0.0000 </r>
       <r>   19.4629    0.0000 </r>
       <r>   26.3575    0.0000 </r>
       <r>   26.9721    0.0000 </r>
       <r>   27.7223    0.0000 </r>
      </set>
      <set comment="kpoint 53">
       <r>   -0.1296    1.0000 </r>
       <r>   11.9899    0.0000 </r>
       <r>   14.0136    0.0000 </r>
       <r>   14.0136    0.0000 </r>
       <r>   15.4220    0.0000 </r>
       <r>   17.6763    0.0000 </r>
       <r>   32.0592    0.0000 </r>
       <r>   32.6822    0.0000 </r>
      </set>
      <set comment="kpoint 54">
       <r>    0.8280    1.0000 </r>
       <r>   10.5526    0.0000 </r>
       <r>   12.2494    0.0000 </r>
       <r>   13.7522    0.0000 </r>
       <r>   15.8689    0.0000 </r>
       <r>   18.1272    0.0000 </r>
       <r>   31.6074    0.0000 </r>
       <r>   33.2081    0.0000 </r>
      </set>
      <set comment="kpoint 55">
       <r>    2.0259    1.0000 </r>
       <r>    9.2518    1.0000 </r>
       <r>   10.0606    0.0000 </r>
       <r>   13.7129    0.0000 </r>
       <r>   16.1126    0.0000 </r>
       <r>   19.9337    0.0000 </r>
       <r>   30.8251    0.0000 </r>
       <r>   32.9946    0.0000 </r>
      </set>
      <set comment="kpoint 56">
       <r>    3.4522    1.0000 </r>
       <r>    7.6312    1.0000 </r>
       <r>    8.5493    1.0000 </r>
       <r>   13.8957    0.0000 </r>
       <r>   16.3858    0.0000 </r>
       <r>   22.2201    0.0000 </r>
       <r>   30.0805    0.0000 </r>
       <r>   32.3354    0.0000 </r>
      </set>
      <set comment="kpoint 57">
       <r>    5.0165    1.0000 </r>
       <r>    5.8153    1.0000 </r>
       <r>    7.7543    1.0000 </r>
       <r>   14.2992    0.0000 </r>
       <r>   16.8594    0.0000 </r>
       <r>   24.6938    0.0000 </r>
       <r>   29.4365    0.0000 </r>
       <r>   31.3869    0.0000 </r>
      </set>
      <set comment="kpoint 58">
       <r>    3.9696    1.0000 </r>
       <r>    6.6749    1.0000 </r>
       <r>    7.5744    1.0000 </r>
       <r>   14.9204    0.0000 </r>
       <r>   17.5588    0.0000 </r>
       <r>   27.1703    0.0000 </r>
       <r>   28.6646    0.0000 </r>
       <r>   29.7284    0.0000 </r>
      </set>
      <set comment="kpoint 59">
       <r>    1.6974    1.0000 </r>
       <r>    9.0495    1.0000 </r>
       <r>   13.4172    0.0000 </r>
       <r>   13.4172    0.0000 </r>
       <r>   14.7521    0.0000 </r>
       <r>   17.0089    0.0000 </r>
       <r>   33.2782    0.0000 </r>
       <r>   34.4711    0.0000 </r>
      </set>
      <set comment="kpoint 60">
       <r>    2.8044    1.0000 </r>
       <r>    7.7421    1.0000 </r>
       <r>   11.7618    0.0000 </r>
       <r>   13.3047    0.0000 </r>
       <r>   15.3713    0.0000 </r>
       <r>   17.6554    0.0000 </r>
       <r>   33.0366    0.0000 </r>
       <r>   34.7436    0.0000 </r>
      </set>
      <set comment="kpoint 61">
       <r>    4.1287    1.0000 </r>
       <r>    6.6724    1.0000 </r>
       <r>    9.6448    1.0000 </r>
       <r>   13.4149    0.0000 </r>
       <r>   15.7793    0.0000 </r>
       <r>   19.6380    0.0000 </r>
       <r>   32.3552    0.0000 </r>
       <r>   34.1393    0.0000 </r>
      </set>
      <set comment="kpoint 62">
       <r>    5.3919    1.0000 </r>
       <r>    6.0755    1.0000 </r>
       <r>    7.7169    1.0000 </r>
       <r>   13.7470    0.0000 </r>
       <r>   16.2209    0.0000 </r>
       <r>   22.0831    0.0000 </r>
       <r>   31.3820    0.0000 </r>
       <r>   32.7931    0.0000 </r>
      </set>
      <set comment="kpoint 63">
       <r>    3.8061    1.0000 </r>
       <r>    6.3670    1.0000 </r>
       <r>   13.1186    0.0000 </r>
       <r>   13.1186    0.0000 </r>
       <r>   14.4156    0.0000 </r>
       <r>   16.6818    0.0000 </r>
       <r>   34.1519    0.0000 </r>
       <r>   35.6837    0.0000 </r>
      </set>
      <set comment="kpoint 64">
       <r>    4.7500    1.0000 </r>
       <r>    5.5102    1.0000 </r>
       <r>   11.6028    0.0000 </r>
       <r>   13.1554    0.0000 </r>
       <r>   15.2056    0.0000 </r>
       <r>   17.4987    0.0000 </r>
       <r>   33.8282    0.0000 </r>
       <r>   35.4034    0.0000 </r>
      </set>
      <set comment="kpoint 65">
       <r>   -3.5005    1.0000 </r>
       <r>   16.0858    0.0000 </r>
       <r>   16.4527    0.0000 </r>
       <r>   20.2401    0.0000 </r>
       <r>   20.9939    0.0000 </r>
       <r>   23.9358    0.0000 </r>
       <r>   25.2121    0.0000 </r>
       <r>   25.5636    0.0000 </r>
      </set>
      <set comment="kpoint 66">
       <r>   -2.8644    1.0000 </r>
       <r>   13.5161    0.0000 </r>
       <r>   15.7426    0.0000 </r>
       <r>   19.6244    0.0000 </r>
       <r>   21.4188    0.0000 </r>
       <r>   23.4571    0.0000 </r>
       <r>   25.4311    0.0000 </r>
       <r>   25.6628    0.0000 </r>
      </set>
      <set comment="kpoint 67">
       <r>   -1.9777    1.0000 </r>
       <r>   10.8795    0.0000 </r>
       <r>   15.3897    0.0000 </r>
       <r>   18.7784    0.0000 </r>
       <r>   20.9969    0.0000 </r>
       <r>   23.9829    0.0000 </r>
       <r>   24.9146    0.0000 </r>
       <r>   26.0601    0.0000 </r>
      </set>
      <set comment="kpoint 68">
       <r>   -0.8445    1.0000 </r>
       <r>    8.4010    1.0000 </r>
       <r>   15.2583    0.0000 </r>
       <r>   17.8718    0.0000 </r>
       <r>   20.6614    0.0000 </r>
       <r>   23.2428    0.0000 </r>
       <r>   25.1413    0.0000 </r>
       <r>   27.4362    0.0000 </r>
      </set>
      <set comment="kpoint 69">
       <r>    0.5278    1.0000 </r>
       <r>    6.1213    1.0000 </r>
       <r>   15.3356    0.0000 </r>
       <r>   17.0354    0.0000 </r>
       <r>   20.6086    0.0000 </r>
       <r>   22.3888    0.0000 </r>
       <r>   25.2780    0.0000 </r>
       <r>   28.8681    0.0000 </r>
      </set>
      <set comment="kpoint 70">
       <r>    2.1051    1.0000 </r>
       <r>    4.0876    1.0000 </r>
       <r>   15.5632    0.0000 </r>
       <r>   16.4114    0.0000 </r>
       <r>   20.7352    0.0000 </r>
       <r>   21.7997    0.0000 </r>
       <r>   25.3598    0.0000 </r>
       <r>   28.6292    0.0000 </r>
      </set>
      <set comment="kpoint 71">
       <r>   -2.6526    1.0000 </r>
       <r>   14.5565    0.0000 </r>
       <r>   15.0001    0.0000 </r>
       <r>   18.2989    0.0000 </r>
       <r>   19.5381    0.0000 </r>
       <r>   21.3860    0.0000 </r>
       <r>   27.1249    0.0000 </r>
       <r>   27.7661    0.0000 </r>
      </set>
      <set comment="kpoint 72">
       <r>   -1.8507    1.0000 </r>
       <r>   12.1212    0.0000 </r>
       <r>   14.3974    0.0000 </r>
       <r>   17.1773    0.0000 </r>
       <r>   19.7496    0.0000 </r>
       <r>   22.0320    0.0000 </r>
       <r>   26.4237    0.0000 </r>
       <r>   28.2216    0.0000 </r>
      </set>
      <set comment="kpoint 73">
       <r>   -0.8012    1.0000 </r>
       <r>    9.6149    1.0000 </r>
       <r>   14.1725    0.0000 </r>
       <r>   16.0237    0.0000 </r>
       <r>   19.5963    0.0000 </r>
       <r>   23.6351    0.0000 </r>
       <r>   25.5330    0.0000 </r>
       <r>   28.3567    0.0000 </r>
      </set>
      <set comment="kpoint 74">
       <r>    0.4900    1.0000 </r>
       <r>    7.2792    1.0000 </r>
       <r>   14.1179    0.0000 </r>
       <r>   15.0673    0.0000 </r>
       <r>   19.6102    0.0000 </r>
       <r>   24.1901    0.0000 </r>
       <r>   25.8759    0.0000 </r>
       <r>   28.5647    0.0000 </r>
      </set>
      <set comment="kpoint 75">
       <r>    2.0068    1.0000 </r>
       <r>    5.1592    1.0000 </r>
       <r>   13.8672    0.0000 </r>
       <r>   14.7244    0.0000 </r>
       <r>   19.8484    0.0000 </r>
       <r>   23.5341    0.0000 </r>
       <r>   26.9870    0.0000 </r>
       <r>   29.3622    0.0000 </r>
      </set>
      <set comment="kpoint 76">
       <r>    3.0469    1.0000 </r>
       <r>    3.9673    1.0000 </r>
       <r>   13.3380    0.0000 </r>
       <r>   15.0963    0.0000 </r>
       <r>   20.3030    0.0000 </r>
       <r>   22.9875    0.0000 </r>
       <r>   27.1812    0.0000 </r>
       <r>   30.4902    0.0000 </r>
      </set>
      <set comment="kpoint 77">
       <r>    1.4784    1.0000 </r>
       <r>    5.8370    1.0000 </r>
       <r>   12.9503    0.0000 </r>
       <r>   15.7675    0.0000 </r>
       <r>   20.9398    0.0000 </r>
       <r>   22.6748    0.0000 </r>
       <r>   26.9355    0.0000 </r>
       <r>   29.3296    0.0000 </r>
      </set>
      <set comment="kpoint 78">
       <r>    0.0329    1.0000 </r>
       <r>    8.0309    1.0000 </r>
       <r>   12.7784    0.0000 </r>
       <r>   16.6576    0.0000 </r>
       <r>   21.6425    0.0000 </r>
       <r>   22.6996    0.0000 </r>
       <r>   26.1665    0.0000 </r>
       <r>   27.8263    0.0000 </r>
      </set>
      <set comment="kpoint 79">
       <r>   -1.1787    1.0000 </r>
       <r>   10.4148    0.0000 </r>
       <r>   12.8469    0.0000 </r>
       <r>   17.7252    0.0000 </r>
       <r>   22.1506    0.0000 </r>
       <r>   23.1476    0.0000 </r>
       <r>   24.7423    0.0000 </r>
       <r>   27.1806    0.0000 </r>
      </set>
      <set comment="kpoint 80">
       <r>   -2.1461    1.0000 </r>
       <r>   12.7146    0.0000 </r>
       <r>   13.3942    0.0000 </r>
       <r>   18.8777    0.0000 </r>
       <r>   22.2132    0.0000 </r>
       <r>   22.9192    0.0000 </r>
       <r>   24.7041    0.0000 </r>
       <r>   26.5963    0.0000 </r>
      </set>
      <set comment="kpoint 81">
       <r>   -1.4714    1.0000 </r>
       <r>   13.3159    0.0000 </r>
       <r>   13.7564    0.0000 </r>
       <r>   15.4409    0.0000 </r>
       <r>   18.3062    0.0000 </r>
       <r>   19.8551    0.0000 </r>
       <r>   28.4965    0.0000 </r>
       <r>   30.2647    0.0000 </r>
      </set>
      <set comment="kpoint 82">
       <r>   -0.5070    1.0000 </r>
       <r>   11.0156    0.0000 </r>
       <r>   13.2286    0.0000 </r>
       <r>   14.2021    0.0000 </r>
       <r>   18.6085    0.0000 </r>
       <r>   21.0192    0.0000 </r>
       <r>   27.6532    0.0000 </r>
       <r>   30.7028    0.0000 </r>
      </set>
      <set comment="kpoint 83">
       <r>    0.7005    1.0000 </r>
       <r>    8.6544    1.0000 </r>
       <r>   12.6799    0.0000 </r>
       <r>   13.5298    0.0000 </r>
       <r>   18.6558    0.0000 </r>
       <r>   22.9657    0.0000 </r>
       <r>   26.7619    0.0000 </r>
       <r>   30.6259    0.0000 </r>
      </set>
      <set comment="kpoint 84">
       <r>    2.1412    1.0000 </r>
       <r>    6.4739    1.0000 </r>
       <r>   11.8331    0.0000 </r>
       <r>   13.6001    0.0000 </r>
       <r>   18.8660    0.0000 </r>
       <r>   24.8979    0.0000 </r>
       <r>   26.2073    0.0000 </r>
       <r>   30.2861    0.0000 </r>
      </set>
      <set comment="kpoint 85">
       <r>    3.7108    1.0000 </r>
       <r>    4.6041    1.0000 </r>
       <r>   11.1242    0.0000 </r>
       <r>   13.9880    0.0000 </r>
       <r>   19.2908    0.0000 </r>
       <r>   25.0462    0.0000 </r>
       <r>   27.5536    0.0000 </r>
       <r>   29.6919    0.0000 </r>
      </set>
      <set comment="kpoint 86">
       <r>    2.6672    1.0000 </r>
       <r>    5.7918    1.0000 </r>
       <r>   10.6351    0.0000 </r>
       <r>   14.6174    0.0000 </r>
       <r>   19.9314    0.0000 </r>
       <r>   24.6616    0.0000 </r>
       <r>   28.2823    0.0000 </r>
       <r>   29.1662    0.0000 </r>
      </set>
      <set comment="kpoint 87">
       <r>    1.1543    1.0000 </r>
       <r>    7.8753    1.0000 </r>
       <r>   10.3974    0.0000 </r>
       <r>   15.4690    0.0000 </r>
       <r>   20.7714    0.0000 </r>
       <r>   24.4238    0.0000 </r>
       <r>   26.4510    0.0000 </r>
       <r>   29.1202    0.0000 </r>
      </set>
      <set comment="kpoint 88">
       <r>   -0.1327    1.0000 </r>
       <r>    9.8702    0.9314 </r>
       <r>   10.6948    0.0000 </r>
       <r>   16.5226    0.0000 </r>
       <r>   21.7582    0.0000 </r>
       <r>   24.0760    0.0000 </r>
       <r>   24.7768    0.0000 </r>
       <r>   28.3839    0.0000 </r>
      </set>
      <set comment="kpoint 89">
       <r>    0.0369    1.0000 </r>
       <r>   12.0236    0.0000 </r>
       <r>   12.3786    0.0000 </r>
       <r>   13.1600    0.0000 </r>
       <r>   17.3621    0.0000 </r>
       <r>   18.8877    0.0000 </r>
       <r>   29.9199    0.0000 </r>
       <r>   32.5274    0.0000 </r>
      </set>
      <set comment="kpoint 90">
       <r>    1.1587    1.0000 </r>
       <r>   10.1501    0.0000 </r>
       <r>   10.9782    0.0000 </r>
       <r>   12.7089    0.0000 </r>
       <r>   17.8169    0.0000 </r>
       <r>   20.2982    0.0000 </r>
       <r>   29.1184    0.0000 </r>
       <r>   32.7602    0.0000 </r>
      </set>
      <set comment="kpoint 91">
       <r>    2.5162    1.0000 </r>
       <r>    7.9885    1.0000 </r>
       <r>    9.9044    0.6980 </r>
       <r>   12.7759    0.0000 </r>
       <r>   18.0341    0.0000 </r>
       <r>   22.4552    0.0000 </r>
       <r>   28.3186    0.0000 </r>
       <r>   32.1850    0.0000 </r>
      </set>
      <set comment="kpoint 92">
       <r>    4.0796    1.0000 </r>
       <r>    5.9939    1.0000 </r>
       <r>    9.0792    1.0000 </r>
       <r>   13.1049    0.0000 </r>
       <r>   18.4126    0.0000 </r>
       <r>   24.7943    0.0000 </r>
       <r>   27.6804    0.0000 </r>
       <r>   30.9106    0.0000 </r>
      </set>
      <set comment="kpoint 93">
       <r>    4.0802    1.0000 </r>
       <r>    5.9699    1.0000 </r>
       <r>    8.5156    1.0000 </r>
       <r>   13.6706    0.0000 </r>
       <r>   19.0013    0.0000 </r>
       <r>   26.6172    0.0000 </r>
       <r>   27.6939    0.0000 </r>
       <r>   28.9922    0.0000 </r>
      </set>
      <set comment="kpoint 94">
       <r>    2.5126    1.0000 </r>
       <r>    7.6357    1.0000 </r>
       <r>    8.5107    1.0000 </r>
       <r>   14.4628    0.0000 </r>
       <r>   19.7982    0.0000 </r>
       <r>   26.5204    0.0000 </r>
       <r>   26.6672    0.0000 </r>
       <r>   29.6806    0.0000 </r>
      </set>
      <set comment="kpoint 95">
       <r>    1.8619    1.0000 </r>
       <r>    9.1912    1.0000 </r>
       <r>   11.7511    0.0000 </r>
       <r>   12.4240    0.0000 </r>
       <r>   16.7265    0.0000 </r>
       <r>   18.2680    0.0000 </r>
       <r>   31.4595    0.0000 </r>
       <r>   34.4344    0.0000 </r>
      </set>
      <set comment="kpoint 96">
       <r>    3.1302    1.0000 </r>
       <r>    8.0289    1.0000 </r>
       <r>    9.8290    0.9960 </r>
       <r>   12.2074    0.0000 </r>
       <r>   17.3423    0.0000 </r>
       <r>   19.8615    0.0000 </r>
       <r>   30.7643    0.0000 </r>
       <r>   33.6499    0.0000 </r>
      </set>
      <set comment="kpoint 97">
       <r>    4.6072    1.0000 </r>
       <r>    7.0241    1.0000 </r>
       <r>    7.8948    1.0000 </r>
       <r>   12.4534    0.0000 </r>
       <r>   17.7222    0.0000 </r>
       <r>   22.1889    0.0000 </r>
       <r>   30.0744    0.0000 </r>
       <r>   31.7902    0.0000 </r>
      </set>
      <set comment="kpoint 98">
       <r>    5.6514    1.0000 </r>
       <r>    6.0336    1.0000 </r>
       <r>    7.0241    1.0000 </r>
       <r>   12.9462    0.0000 </r>
       <r>   18.2602    0.0000 </r>
       <r>   24.7082    0.0000 </r>
       <r>   29.4632    0.0000 </r>
       <r>   29.5086    0.0000 </r>
      </set>
      <set comment="kpoint 99">
       <r>    3.9678    1.0000 </r>
       <r>    6.5231    1.0000 </r>
       <r>   11.4367    0.0000 </r>
       <r>   12.1004    0.0000 </r>
       <r>   16.4073    0.0000 </r>
       <r>   17.9601    0.0000 </r>
       <r>   32.9573    0.0000 </r>
       <r>   34.4565    0.0000 </r>
      </set>
      <set comment="kpoint 100">
       <r>    5.0710    1.0000 </r>
       <r>    5.8210    1.0000 </r>
       <r>    9.6520    1.0000 </r>
       <r>   12.0470    0.0000 </r>
       <r>   17.1839    0.0000 </r>
       <r>   19.7150    0.0000 </r>
       <r>   32.2417    0.0000 </r>
       <r>   32.6885    0.0000 </r>
      </set>
      <set comment="kpoint 101">
       <r>   -0.9683    1.0000 </r>
       <r>   11.4543    0.0000 </r>
       <r>   12.1720    0.0000 </r>
       <r>   15.9046    0.0000 </r>
       <r>   21.0545    0.0000 </r>
       <r>   21.9269    0.0000 </r>
       <r>   25.5305    0.0000 </r>
       <r>   29.4146    0.0000 </r>
      </set>
      <set comment="kpoint 102">
       <r>    0.1596    1.0000 </r>
       <r>    9.3034    1.0000 </r>
       <r>   11.7538    0.0000 </r>
       <r>   14.7044    0.0000 </r>
       <r>   21.3029    0.0000 </r>
       <r>   23.2152    0.0000 </r>
       <r>   24.8171    0.0000 </r>
       <r>   29.9619    0.0000 </r>
      </set>
      <set comment="kpoint 103">
       <r>    1.5254    1.0000 </r>
       <r>    7.0682    1.0000 </r>
       <r>   11.8173    0.0000 </r>
       <r>   13.7108    0.0000 </r>
       <r>   21.3765    0.0000 </r>
       <r>   23.2865    0.0000 </r>
       <r>   25.9881    0.0000 </r>
       <r>   30.0323    0.0000 </r>
      </set>
      <set comment="kpoint 104">
       <r>    3.0983    1.0000 </r>
       <r>    5.0505    1.0000 </r>
       <r>   12.0522    0.0000 </r>
       <r>   13.0129    0.0000 </r>
       <r>   21.5248    0.0000 </r>
       <r>   22.8131    0.0000 </r>
       <r>   27.9742    0.0000 </r>
       <r>   29.5245    0.0000 </r>
      </set>
      <set comment="kpoint 105">
       <r>    0.5354    1.0000 </r>
       <r>   10.5041    0.0000 </r>
       <r>   11.1659    0.0000 </r>
       <r>   12.8638    0.0000 </r>
       <r>   20.1454    0.0000 </r>
       <r>   21.1578    0.0000 </r>
       <r>   26.7879    0.0000 </r>
       <r>   32.0681    0.0000 </r>
      </set>
      <set comment="kpoint 106">
       <r>    1.8177    1.0000 </r>
       <r>    8.4975    1.0000 </r>
       <r>   10.8276    0.0000 </r>
       <r>   11.8259    0.0000 </r>
       <r>   20.6035    0.0000 </r>
       <r>   22.8341    0.0000 </r>
       <r>   25.9625    0.0000 </r>
       <r>   32.0954    0.0000 </r>
      </set>
      <set comment="kpoint 107">
       <r>    3.3245    1.0000 </r>
       <r>    6.4249    1.0000 </r>
       <r>   10.5167    0.0000 </r>
       <r>   11.4827    0.0000 </r>
       <r>   20.8956    0.0000 </r>
       <r>   24.4095    0.0000 </r>
       <r>   25.9041    0.0000 </r>
       <r>   30.6166    0.0000 </r>
      </set>
      <set comment="kpoint 108">
       <r>    4.3710    1.0000 </r>
       <r>    5.2304    1.0000 </r>
       <r>    9.9674    0.1034 </r>
       <r>   11.8690    0.0000 </r>
       <r>   21.3516    0.0000 </r>
       <r>   24.2511    0.0000 </r>
       <r>   27.5580    0.0000 </r>
       <r>   28.7802    0.0000 </r>
      </set>
      <set comment="kpoint 109">
       <r>    2.7987    1.0000 </r>
       <r>    7.0737    1.0000 </r>
       <r>    9.5915    1.0000 </r>
       <r>   12.5773    0.0000 </r>
       <r>   21.9574    0.0000 </r>
       <r>   23.9079    0.0000 </r>
       <r>   26.0545    0.0000 </r>
       <r>   30.2020    0.0000 </r>
      </set>
      <set comment="kpoint 110">
       <r>    1.3628    1.0000 </r>
       <r>    8.9142    1.0000 </r>
       <r>    9.7401    1.0000 </r>
       <r>   13.5314    0.0000 </r>
       <r>   22.5688    0.0000 </r>
       <r>   23.2245    0.0000 </r>
       <r>   24.5923    0.0000 </r>
       <r>   31.3819    0.0000 </r>
      </set>
      <set comment="kpoint 111">
       <r>    2.3542    1.0000 </r>
       <r>    9.5358    1.0000 </r>
       <r>    9.8688    0.9366 </r>
       <r>   10.9138    0.0000 </r>
       <r>   19.5284    0.0000 </r>
       <r>   20.6224    0.0000 </r>
       <r>   28.3455    0.0000 </r>
       <r>   33.2676    0.0000 </r>
      </set>
      <set comment="kpoint 112">
       <r>    3.7777    1.0000 </r>
       <r>    7.9363    1.0000 </r>
       <r>    8.7788    1.0000 </r>
       <r>   10.6668    0.0000 </r>
       <r>   20.1656    0.0000 </r>
       <r>   22.4967    0.0000 </r>
       <r>   27.5875    0.0000 </r>
       <r>   31.3210    0.0000 </r>
      </set>
      <set comment="kpoint 113">
       <r>    5.3426    1.0000 </r>
       <r>    6.1266    1.0000 </r>
       <r>    8.0397    1.0000 </r>
       <r>   11.0331    0.0000 </r>
       <r>   20.6258    0.0000 </r>
       <r>   24.7925    0.0000 </r>
       <r>   26.9957    0.0000 </r>
       <r>   29.0407    0.0000 </r>
      </set>
      <set comment="kpoint 114">
       <r>    4.2953    1.0000 </r>
       <r>    6.9955    1.0000 </r>
       <r>    7.8651    1.0000 </r>
       <r>   11.6816    0.0000 </r>
       <r>   21.2432    0.0000 </r>
       <r>   25.9769    0.0000 </r>
       <r>   26.1277    0.0000 </r>
       <r>   28.3620    0.0000 </r>
      </set>
      <set comment="kpoint 115">
       <r>    4.4512    1.0000 </r>
       <r>    6.9800    1.0000 </r>
       <r>    9.5507    1.0000 </r>
       <r>   10.4785    0.0000 </r>
       <r>   19.2175    0.0000 </r>
       <r>   20.3482    0.0000 </r>
       <r>   30.1074    0.0000 </r>
       <r>   31.9065    0.0000 </r>
      </set>
      <set comment="kpoint 116">
       <r>    5.7129    1.0000 </r>
       <r>    6.3933    1.0000 </r>
       <r>    7.9712    1.0000 </r>
       <r>   10.4746    0.0000 </r>
       <r>   20.0175    0.0000 </r>
       <r>   22.3751    0.0000 </r>
       <r>   29.2173    0.0000 </r>
       <r>   29.7171    0.0000 </r>
      </set>
      <set comment="kpoint 117">
       <r>    3.1696    1.0000 </r>
       <r>    8.2756    1.0000 </r>
       <r>    9.0160    1.0000 </r>
       <r>   10.7030    0.0000 </r>
       <r>   22.6335    0.0000 </r>
       <r>   22.9564    0.0000 </r>
       <r>   25.2978    0.0000 </r>
       <r>   30.8275    0.0000 </r>
      </set>
      <set comment="kpoint 118">
       <r>    4.7289    1.0000 </r>
       <r>    6.5956    1.0000 </r>
       <r>    8.9543    1.0000 </r>
       <r>    9.9717    0.0833 </r>
       <r>   22.9367    0.0000 </r>
       <r>   24.0536    0.0000 </r>
       <r>   25.7481    0.0000 </r>
       <r>   28.6087    0.0000 </r>
      </set>
      <set comment="kpoint 119">
       <r>    5.2475    1.0000 </r>
       <r>    7.6346    1.0000 </r>
       <r>    7.9560    1.0000 </r>
       <r>    9.1151    1.0000 </r>
       <r>   22.3336    0.0000 </r>
       <r>   22.9185    0.0000 </r>
       <r>   26.8353    0.0000 </r>
       <r>   29.0092    0.0000 </r>
      </set>
      <set comment="kpoint 120">
       <r>    6.2921    1.0000 </r>
       <r>    6.6751    1.0000 </r>
       <r>    7.4907    1.0000 </r>
       <r>    9.1882    1.0000 </r>
       <r>   23.0099    0.0000 </r>
       <r>   24.8253    0.0000 </r>
       <r>   25.6958    0.0000 </r>
       <r>   27.4454    0.0000 </r>
      </set>
     </set>
    </set>
   </array>
  </eigenvalues>
  <separator name="orbital magnetization" >
   <v name="MAGDIPOLOUT">      0.00000000      0.00000000      0.00000000</v>
  </separator>
  <dos>
   <i name="efermi">      9.92277496 </i>
   <total>
    <array>
     <dimension dim="1">gridpoints</dimension>
     <dimension dim="2">spin</dimension>
     <field>energy</field>
     <field>total</field>
     <field>integrated</field>
     <set>
      <set comment="spin 1">
       <r>    -6.3535     0.0000     0.0000 </r>
       <r>    -6.2067     0.0000     0.0000 </r>
       <r>    -6.0599     0.0000     0.0000 </r>
       <r>    -5.9131     0.0000     0.0000 </r>
       <r>    -5.7663     0.0000     0.0000 </r>
       <r>    -5.6195     0.0000     0.0000 </r>
       <r>    -5.4727     0.0000     0.0000 </r>
       <r>    -5.3259     0.0000     0.0000 </r>
       <r>    -5.1792     0.0000     0.0000 </r>
       <r>    -5.0324     0.0000     0.0000 </r>
       <r>    -4.8856     0.0000     0.0000 </r>
       <r>    -4.7388     0.0000     0.0000 </r>
       <r>    -4.5920     0.0000     0.0000 </r>
       <r>    -4.4452     0.0000     0.0000 </r>
       <r>    -4.2984     0.0043     0.0006 </r>
       <r>    -4.1516     0.0507     0.0081 </r>
       <r>    -4.0048     0.0331     0.0129 </r>
       <r>    -3.8580     0.1047     0.0283 </r>
       <r>    -3.7112     0.0484     0.0354 </r>
       <r>    -3.5644     0.0510     0.0429 </r>
       <r>    -3.4176     0.1637     0.0669 </r>
       <r>    -3.2708     0.0964     0.0811 </r>
       <r>    -3.1240     0.1283     0.0999 </r>
       <r>    -2.9772     0.0336     0.1048 </r>
       <r>    -2.8304     0.2271     0.1382 </r>
       <r>    -2.6836     0.1226     0.1562 </r>
       <r>    -2.5368     0.1220     0.1741 </r>
       <r>    -2.3900     0.1504     0.1962 </r>
       <r>    -2.2432     0.0432     0.2025 </r>
       <r>    -2.0964     0.2709     0.2423 </r>
       <r>    -1.9496     0.1618     0.2660 </r>
       <r>    -1.8028     0.3062     0.3110 </r>
       <r>    -1.6560     0.0328     0.3158 </r>
       <r>    -1.5092     0.0998     0.3305 </r>
       <r>    -1.3624     0.2143     0.3619 </r>
       <r>    -1.2156     0.1726     0.3872 </r>
       <r>    -1.0688     0.2862     0.4293 </r>
       <r>    -0.9220     0.0940     0.4431 </r>
       <r>    -0.7752     0.4371     0.5072 </r>
       <r>    -0.6285     0.1100     0.5234 </r>
       <r>    -0.4817     0.1875     0.5509 </r>
       <r>    -0.3349     0.0624     0.5601 </r>
       <r>    -0.1881     0.1931     0.5884 </r>
       <r>    -0.0413     0.3032     0.6329 </r>
       <r>     0.1055     0.3003     0.6770 </r>
       <r>     0.2523     0.3954     0.7350 </r>
       <r>     0.3991     0.0117     0.7367 </r>
       <r>     0.5459     0.3764     0.7920 </r>
       <r>     0.6927     0.1869     0.8194 </r>
       <r>     0.8395     0.2495     0.8561 </r>
       <r>     0.9863     0.0632     0.8653 </r>
       <r>     1.1331     0.1846     0.8924 </r>
       <r>     1.2799     0.5400     0.9717 </r>
       <r>     1.4267     0.2049     1.0018 </r>
       <r>     1.5735     0.4521     1.0682 </r>
       <r>     1.7203     0.1262     1.0867 </r>
       <r>     1.8671     0.2773     1.1274 </r>
       <r>     2.0139     0.2075     1.1579 </r>
       <r>     2.1607     0.4618     1.2256 </r>
       <r>     2.3075     0.0787     1.2372 </r>
       <r>     2.4543     0.2260     1.2704 </r>
       <r>     2.6011     0.3480     1.3215 </r>
       <r>     2.7479     0.3436     1.3719 </r>
       <r>     2.8947     0.4266     1.4345 </r>
       <r>     3.0415     0.1848     1.4616 </r>
       <r>     3.1883     0.5515     1.5426 </r>
       <r>     3.3351     0.2179     1.5746 </r>
       <r>     3.4819     0.1899     1.6025 </r>
       <r>     3.6287     0.0505     1.6099 </r>
       <r>     3.7755     0.3699     1.6642 </r>
       <r>     3.9223     0.1736     1.6897 </r>
       <r>     4.0690     0.5898     1.7763 </r>
       <r>     4.2158     0.4913     1.8484 </r>
       <r>     4.3626     0.1730     1.8738 </r>
       <r>     4.5094     0.2528     1.9109 </r>
       <r>     4.6562     0.4234     1.9730 </r>
       <r>     4.8030     0.4637     2.0411 </r>
       <r>     4.9498     0.1761     2.0670 </r>
       <r>     5.0966     0.3650     2.1205 </r>
       <r>     5.2434     0.4838     2.1916 </r>
       <r>     5.3902     0.3321     2.2403 </r>
       <r>     5.5370     0.1478     2.2620 </r>
       <r>     5.6838     0.1396     2.2825 </r>
       <r>     5.8306     0.4936     2.3549 </r>
       <r>     5.9774     0.3948     2.4129 </r>
       <r>     6.1242     0.6020     2.5013 </r>
       <r>     6.2710     0.2613     2.5396 </r>
       <r>     6.4178     0.2581     2.5775 </r>
       <r>     6.5646     0.4430     2.6426 </r>
       <r>     6.7114     0.5002     2.7160 </r>
       <r>     6.8582     0.2974     2.7597 </r>
       <r>     7.0050     0.3167     2.8061 </r>
       <r>     7.1518     0.6481     2.9013 </r>
       <r>     7.2986     0.1418     2.9221 </r>
       <r>     7.4454     0.1493     2.9440 </r>
       <r>     7.5922     0.1689     2.9688 </r>
       <r>     7.7390     0.4483     3.0346 </r>
       <r>     7.8858     0.4465     3.1002 </r>
       <r>     8.0326     1.0428     3.2533 </r>
       <r>     8.1794     0.3684     3.3073 </r>
       <r>     8.3262     0.1730     3.3327 </r>
       <r>     8.4730     0.2784     3.3736 </r>
       <r>     8.6197     0.5666     3.4568 </r>
       <r>     8.7665     0.2469     3.4930 </r>
       <r>     8.9133     0.1969     3.5219 </r>
       <r>     9.0601     0.6506     3.6174 </r>
       <r>     9.2069     0.4125     3.6780 </r>
       <r>     9.3537     0.5023     3.7517 </r>
       <r>     9.5005     0.0989     3.7662 </r>
       <r>     9.6473     0.6163     3.8567 </r>
       <r>     9.7941     0.3771     3.9120 </r>
       <r>     9.9409     0.6830     4.0123 </r>
       <r>    10.0877     0.4308     4.0755 </r>
       <r>    10.2345     0.2949     4.1188 </r>
       <r>    10.3813     0.1633     4.1428 </r>
       <r>    10.5281     0.7950     4.2595 </r>
       <r>    10.6749     0.5697     4.3431 </r>
       <r>    10.8217     0.3444     4.3937 </r>
       <r>    10.9685     0.4833     4.4646 </r>
       <r>    11.1153     0.5825     4.5501 </r>
       <r>    11.2621     0.2935     4.5932 </r>
       <r>    11.4089     0.0870     4.6060 </r>
       <r>    11.5557     0.6242     4.6976 </r>
       <r>    11.7025     0.2575     4.7354 </r>
       <r>    11.8493     0.9532     4.8754 </r>
       <r>    11.9961     0.5031     4.9492 </r>
       <r>    12.1429     0.6126     5.0391 </r>
       <r>    12.2897     0.4125     5.0997 </r>
       <r>    12.4365     0.3806     5.1556 </r>
       <r>    12.5833     0.4213     5.2174 </r>
       <r>    12.7301     0.5584     5.2994 </r>
       <r>    12.8769     0.7457     5.4088 </r>
       <r>    13.0237     0.5436     5.4886 </r>
       <r>    13.1704     0.4114     5.5490 </r>
       <r>    13.3172     0.5350     5.6276 </r>
       <r>    13.4640     0.4780     5.6977 </r>
       <r>    13.6108     0.6024     5.7862 </r>
       <r>    13.7576     0.7470     5.8958 </r>
       <r>    13.9044     0.3710     5.9503 </r>
       <r>    14.0512     0.5447     6.0302 </r>
       <r>    14.1980     0.5463     6.1104 </r>
       <r>    14.3448     0.7566     6.2215 </r>
       <r>    14.4916     0.3976     6.2799 </r>
       <r>    14.6384     0.4022     6.3389 </r>
       <r>    14.7852     0.5485     6.4194 </r>
       <r>    14.9320     0.1354     6.4393 </r>
       <r>    15.0788     0.4347     6.5031 </r>
       <r>    15.2256     0.6128     6.5931 </r>
       <r>    15.3724     0.5768     6.6777 </r>
       <r>    15.5192     0.8279     6.7993 </r>
       <r>    15.6660     0.2912     6.8420 </r>
       <r>    15.8128     0.5386     6.9211 </r>
       <r>    15.9596     0.2351     6.9556 </r>
       <r>    16.1064     0.5932     7.0427 </r>
       <r>    16.2532     0.3675     7.0966 </r>
       <r>    16.4000     0.3057     7.1415 </r>
       <r>    16.5468     0.6064     7.2305 </r>
       <r>    16.6936     0.5895     7.3170 </r>
       <r>    16.8404     0.5208     7.3935 </r>
       <r>    16.9872     0.3687     7.4476 </r>
       <r>    17.1340     0.4260     7.5102 </r>
       <r>    17.2808     0.6796     7.6099 </r>
       <r>    17.4276     0.5503     7.6907 </r>
       <r>    17.5744     0.1992     7.7199 </r>
       <r>    17.7212     0.5252     7.7971 </r>
       <r>    17.8679     0.9980     7.9435 </r>
       <r>    18.0147     0.7095     8.0477 </r>
       <r>    18.1615     0.3017     8.0920 </r>
       <r>    18.3083     0.4819     8.1627 </r>
       <r>    18.4551     0.6203     8.2538 </r>
       <r>    18.6019     0.3249     8.3015 </r>
       <r>    18.7487     0.4577     8.3687 </r>
       <r>    18.8955     0.9548     8.5088 </r>
       <r>    19.0423     0.5578     8.5907 </r>
       <r>    19.1891     0.1385     8.6110 </r>
       <r>    19.3359     0.4035     8.6703 </r>
       <r>    19.4827     0.3194     8.7172 </r>
       <r>    19.6295     0.7695     8.8301 </r>
       <r>    19.7763     0.7246     8.9365 </r>
       <r>    19.9231     0.8416     9.0600 </r>
       <r>    20.0699     0.5237     9.1369 </r>
       <r>    20.2167     0.5737     9.2211 </r>
       <r>    20.3635     0.6085     9.3105 </r>
       <r>    20.5103     0.2347     9.3449 </r>
       <r>    20.6571     0.9626     9.4862 </r>
       <r>    20.8039     0.6993     9.5888 </r>
       <r>    20.9507     0.5520     9.6699 </r>
       <r>    21.0975     0.6945     9.7718 </r>
       <r>    21.2443     0.2544     9.8092 </r>
       <r>    21.3911     0.8633     9.9359 </r>
       <r>    21.5379     0.7194    10.0415 </r>
       <r>    21.6847     0.2982    10.0853 </r>
       <r>    21.8315     0.2984    10.1291 </r>
       <r>    21.9783     0.5230    10.2059 </r>
       <r>    22.1251     0.6982    10.3084 </r>
       <r>    22.2719     0.5667    10.3915 </r>
       <r>    22.4186     0.4632    10.4595 </r>
       <r>    22.5654     0.4882    10.5312 </r>
       <r>    22.7122     0.7418    10.6401 </r>
       <r>    22.8590     0.8844    10.7699 </r>
       <r>    23.0058     1.1515    10.9390 </r>
       <r>    23.1526     0.5980    11.0267 </r>
       <r>    23.2994     0.9431    11.1652 </r>
       <r>    23.4462     0.1960    11.1940 </r>
       <r>    23.5930     0.6489    11.2892 </r>
       <r>    23.7398     0.5343    11.3677 </r>
       <r>    23.8866     0.3459    11.4184 </r>
       <r>    24.0334     0.9171    11.5531 </r>
       <r>    24.1802     0.5957    11.6405 </r>
       <r>    24.3270     0.4613    11.7082 </r>
       <r>    24.4738     0.4453    11.7736 </r>
       <r>    24.6206     0.3301    11.8220 </r>
       <r>    24.7674     1.2844    12.0106 </r>
       <r>    24.9142     1.2313    12.1913 </r>
       <r>    25.0610     0.4475    12.2570 </r>
       <r>    25.2078     0.4751    12.3268 </r>
       <r>    25.3546     0.8206    12.4472 </r>
       <r>    25.5014     0.6226    12.5386 </r>
       <r>    25.6482     0.6078    12.6279 </r>
       <r>    25.7950     0.5899    12.7145 </r>
       <r>    25.9418     0.6477    12.8095 </r>
       <r>    26.0886     0.8872    12.9398 </r>
       <r>    26.2354     0.5405    13.0191 </r>
       <r>    26.3822     0.1431    13.0401 </r>
       <r>    26.5290     0.5117    13.1152 </r>
       <r>    26.6758     0.5971    13.2029 </r>
       <r>    26.8226     0.8250    13.3240 </r>
       <r>    26.9693     0.8938    13.4552 </r>
       <r>    27.1161     0.7826    13.5701 </r>
       <r>    27.2629     0.6871    13.6710 </r>
       <r>    27.4097     0.0929    13.6846 </r>
       <r>    27.5565     0.6897    13.7859 </r>
       <r>    27.7033     0.9891    13.9311 </r>
       <r>    27.8501     0.4894    14.0029 </r>
       <r>    27.9969     0.3919    14.0604 </r>
       <r>    28.1437     0.0553    14.0685 </r>
       <r>    28.2905     0.3896    14.1257 </r>
       <r>    28.4373     0.8927    14.2568 </r>
       <r>    28.5841     0.3581    14.3094 </r>
       <r>    28.7309     0.5329    14.3876 </r>
       <r>    28.8777     0.2987    14.4314 </r>
       <r>    29.0245     0.5525    14.5125 </r>
       <r>    29.1713     1.0561    14.6676 </r>
       <r>    29.3181     0.6279    14.7598 </r>
       <r>    29.4649     0.6908    14.8612 </r>
       <r>    29.6117     0.3625    14.9144 </r>
       <r>    29.7585     0.4929    14.9867 </r>
       <r>    29.9053     0.1637    15.0107 </r>
       <r>    30.0521     0.4628    15.0787 </r>
       <r>    30.1989     0.5536    15.1600 </r>
       <r>    30.3457     0.3912    15.2174 </r>
       <r>    30.4925     0.2328    15.2516 </r>
       <r>    30.6393     0.4745    15.3212 </r>
       <r>    30.7861     0.4772    15.3913 </r>
       <r>    30.9329     0.4147    15.4521 </r>
       <r>    31.0797     0.0989    15.4667 </r>
       <r>    31.2265     0.0146    15.4688 </r>
       <r>    31.3733     0.4516    15.5351 </r>
       <r>    31.5201     0.2569    15.5728 </r>
       <r>    31.6668     0.0960    15.5869 </r>
       <r>    31.8136     0.1495    15.6089 </r>
       <r>    31.9604     0.1396    15.6293 </r>
       <r>    32.1072     0.2369    15.6641 </r>
       <r>    32.2540     0.3357    15.7134 </r>
       <r>    32.4008     0.2200    15.7457 </r>
       <r>    32.5476     0.0820    15.7577 </r>
       <r>    32.6944     0.1040    15.7730 </r>
       <r>    32.8412     0.2806    15.8142 </r>
       <r>    32.9880     0.1341    15.8339 </r>
       <r>    33.1348     0.1645    15.8580 </r>
       <r>    33.2816     0.1699    15.8830 </r>
       <r>    33.4284     0.0465    15.8898 </r>
       <r>    33.5752     0.0034    15.8903 </r>
       <r>    33.7220     0.1865    15.9176 </r>
       <r>    33.8688     0.0463    15.9244 </r>
       <r>    34.0156     0.0061    15.9253 </r>
       <r>    34.1624     0.0870    15.9381 </r>
       <r>    34.3092     0.0341    15.9431 </r>
       <r>    34.4560     0.1266    15.9617 </r>
       <r>    34.6028     0.0913    15.9751 </r>
       <r>    34.7496     0.0549    15.9832 </r>
       <r>    34.8964     0.0420    15.9893 </r>
       <r>    35.0432     0.0000    15.9893 </r>
       <r>    35.1900     0.0000    15.9893 </r>
       <r>    35.3368     0.0014    15.9895 </r>
       <r>    35.4836     0.0464    15.9964 </r>
       <r>    35.6304     0.0022    15.9967 </r>
       <r>    35.7772     0.0225    16.0000 </r>
       <r>    35.9240     0.0001    16.0000 </r>
       <r>    36.0708     0.0000    16.0000 </r>
       <r>    36.2175     0.0000    16.0000 </r>
       <r>    36.3643     0.0000    16.0000 </r>
       <r>    36.5111     0.0000    16.0000 </r>
       <r>    36.6579     0.0000    16.0000 </r>
       <r>    36.8047     0.0000    16.0000 </r>
       <r>    36.9515     0.0000    16.0000 </r>
       <r>    37.0983     0.0000    16.0000 </r>
       <r>    37.2451     0.0000    16.0000 </r>
       <r>    37.3919     0.0000    16.0000 </r>
       <r>    37.5387     0.0000    16.0000 </r>
       <r>    37.6855     0.0000    16.0000 </r>
      </set>
     </set>
    </array>
   </total>
  </dos>
 </calculation>
 <structure name="finalpos" >
  <crystal>
   <varray name="basis" >
    <v>       2.38260593       0.00000000       1.37559702 </v>
    <v>       0.79420197       2.24634217       1.37559702 </v>
    <v>       0.00000000       0.00000000       2.75119607 </v>
   </varray>
   <i name="volume">     14.72480903 </i>
   <varray name="rec_basis" >
    <v>       0.41970852      -0.14838938       0.00000000 </v>
    <v>       0.00000000       0.44516815       0.00000000 </v>
    <v>      -0.20985410      -0.14838928       0.36347827 </v>
   </varray>
  </crystal>
  <varray name="positions" >
   <v>       0.00000000       0.00000000       0.00000000 </v>
  </varray>
 </structure>
</modeling>
