unknown system                          
           1
     2.382606    0.000000    1.375597
     0.794202    2.246342    1.375597
     0.000000    0.000000    2.751196
   Si
     1
Direct configuration=     1
   0.00000000  0.00000000  0.00000000
