unknown system                          
   1.00000000000000     
     2.825061   -0.000000    0.000000
     0.000000    2.825061    0.000000
    -0.000000   -0.000000    2.825061
   Fe
     2
Direct
  0.000000  0.000000 -0.000000
  0.500000  0.500000  0.500000
 
   36   36   36
 0.19094932567E+03 0.18630534872E+03 0.17301103189E+03 0.15283111269E+03 0.12828742343E+03
 0.10216390614E+03 0.77046451267E+02 0.54960934526E+02 0.37178261451E+02 0.24160904602E+02
 0.15644925996E+02 0.10794780870E+02 0.84598629982E+01 0.73633814014E+01 0.66193824100E+01
 0.61016079352E+01 0.57838161448E+01 0.56186303888E+01 0.55675007737E+01 0.56186303888E+01
 0.57838161448E+01 0.61016079352E+01 0.66193824100E+01 0.73633814014E+01 0.84598629982E+01
 0.10794780870E+02 0.15644925996E+02 0.24160904602E+02 0.37178261451E+02 0.54960934526E+02
 0.77046451267E+02 0.10216390614E+03 0.12828742343E+03 0.15283111269E+03 0.17301103189E+03
 0.18630534872E+03 0.18630534872E+03 0.18179146457E+03 0.16886488238E+03 0.14922791505E+03
 0.12532095102E+03 0.99846615104E+02 0.75328108365E+02 0.53753100335E+02 0.36382633984E+02
 0.23678048883E+02 0.15384938381E+02 0.10679407821E+02 0.84216955303E+01 0.73486260166E+01
 0.66100194167E+01 0.60986531356E+01 0.57842856882E+01 0.56217044640E+01 0.55708411368E+01
 0.56217044640E+01 0.57842856882E+01 0.60986531356E+01 0.66100194167E+01 0.73486260166E+01
 0.84216955303E+01 0.10679407821E+02 0.15384938381E+02 0.23678048883E+02 0.36382633984E+02
 0.53753100335E+02 0.75328108365E+02 0.99846615104E+02 0.12532095102E+03 0.14922791505E+03
 0.16886488238E+03 0.18179146457E+03 0.17301103189E+03 0.16886488238E+03 0.15697757750E+03
 0.13887858726E+03 0.11677884119E+03 0.93154576931E+02 0.70353997698E+02 0.50257695447E+02
 0.34080828348E+02 0.22286854191E+02 0.14643279813E+02 0.10354429705E+02 0.83152098968E+01
 0.73038048088E+01 0.65823555386E+01 0.60894602055E+01 0.57855873088E+01 0.56301361883E+01
 0.55804870486E+01 0.56301361883E+01 0.57855873088E+01 0.60894602055E+01 0.65823555386E+01
 0.73038048088E+01 0.83152098968E+01 0.10354429705E+02 0.14643279813E+02 0.22286854191E+02
 0.34080828348E+02 0.50257695447E+02 0.70353997698E+02 0.93154576931E+02 0.11677884119E+03
 0.13887858726E+03 0.15697757750E+03 0.16886488238E+03 0.15283111269E+03 0.14922791505E+03
 0.13887858726E+03 0.12306590718E+03 0.10367190407E+03 0.82843174948E+02 0.62664319393E+02
 0.44846248921E+02 0.30530318018E+02 0.20162029957E+02 0.13530197718E+02 0.98816451795E+01
 0.81589000989E+01 0.72278958568E+01 0.65367821627E+01 0.60738452102E+01 0.57874186672E+01
 0.56429548228E+01 0.55955595257E+01 0.56429548228E+01 0.57874186672E+01 0.60738452102E+01
 0.65367821627E+01 0.72278958568E+01 0.81589000989E+01 0.98816451795E+01 0.13530197718E+02
 0.20162029957E+02 0.30530318018E+02 0.44846248921E+02 0.62664319393E+02 0.82843174948E+02
 0.10367190407E+03 0.12306590718E+03 0.13887858726E+03 0.14922791505E+03 0.12828742343E+03
 0.12532095102E+03 0.11677884119E+03 0.10367190407E+03 0.87509474720E+02 0.70062913392E+02
 0.53102035469E+02 0.38125578885E+02 0.26150926389E+02 0.17584745764E+02 0.12219126536E+02
 0.93479558256E+01 0.79718519400E+01 0.71183126189E+01 0.64761689892E+01 0.60508866730E+01
 0.57897097422E+01 0.56574944138E+01 0.56148170205E+01 0.56574944138E+01 0.57897097422E+01
 0.60508866730E+01 0.64761689892E+01 0.71183126189E+01 0.79718519400E+01 0.93479558256E+01
 0.12219126536E+02 0.17584745764E+02 0.26150926389E+02 0.38125578885E+02 0.53102035469E+02
 0.70062913392E+02 0.87509474720E+02 0.10367190407E+03 0.11677884119E+03 0.12532095102E+03
 0.10216390614E+03 0.99846615104E+02 0.93154576931E+02 0.82843174948E+02 0.70062913392E+02
 0.56213086204E+02 0.42729529818E+02 0.30867832311E+02 0.21485588035E+02 0.14910014897E+02
 0.10913514329E+02 0.88386882353E+01 0.77591825975E+01 0.69775050017E+01 0.64031282619E+01
 0.60213079369E+01 0.57916273417E+01 0.56721110315E+01 0.56361279654E+01 0.56721110315E+01
 0.57916273417E+01 0.60213079369E+01 0.64031282619E+01 0.69775050017E+01 0.77591825975E+01
 0.88386882353E+01 0.10913514329E+02 0.14910014897E+02 0.21485588035E+02 0.30867832311E+02
 0.42729529818E+02 0.56213086204E+02 0.70062913392E+02 0.82843174948E+02 0.93154576931E+02
 0.99846615104E+02 0.77046451267E+02 0.75328108365E+02 0.70353997698E+02 0.62664319393E+02
 0.53102035469E+02 0.42729529818E+02 0.32666241959E+02 0.23906493955E+02 0.17108540159E+02
 0.12492378719E+02 0.97956056313E+01 0.83949962855E+01 0.75127803517E+01 0.68161125532E+01
 0.63200035870E+01 0.59877707065E+01 0.57907683142E+01 0.56856245212E+01 0.56556201338E+01
 0.56856245212E+01 0.57907683142E+01 0.59877707065E+01 0.63200035870E+01 0.68161125532E+01
 0.75127803517E+01 0.83949962855E+01 0.97956056313E+01 0.12492378719E+02 0.17108540159E+02
 0.23906493955E+02 0.32666241959E+02 0.42729529818E+02 0.53102035469E+02 0.62664319393E+02
 0.70353997698E+02 0.75328108365E+02 0.54960934526E+02 0.53753100335E+02 0.50257695447E+02
 0.44846248921E+02 0.38125578885E+02 0.30867832311E+02 0.23906493955E+02 0.17962008521E+02
 0.13499527591E+02 0.10593604431E+02 0.89536387901E+01 0.79910604480E+01 0.72347331738E+01
 0.66483809375E+01 0.62293518743E+01 0.59535263770E+01 0.57851387184E+01 0.56978146990E+01
 0.56700583522E+01 0.56978146990E+01 0.57851387184E+01 0.59535263770E+01 0.62293518743E+01
 0.66483809375E+01 0.72347331738E+01 0.79910604480E+01 0.89536387901E+01 0.10593604431E+02
 0.13499527591E+02 0.17962008521E+02 0.23906493955E+02 0.30867832311E+02 0.38125578885E+02
 0.44846248921E+02 0.50257695447E+02 0.53753100335E+02 0.37178261451E+02 0.36382633984E+02
 0.34080828348E+02 0.30530318018E+02 0.26150926389E+02 0.21485588035E+02 0.17108540159E+02
 0.13499527591E+02 0.10908459942E+02 0.92966085854E+01 0.83281942835E+01 0.75782912301E+01
 0.69538349675E+01 0.64797492752E+01 0.61410050788E+01 0.59161795994E+01 0.57770429222E+01
 0.57034676686E+01 0.56800994870E+01 0.57034676686E+01 0.57770429222E+01 0.59161795994E+01
 0.61410050788E+01 0.64797492752E+01 0.69538349675E+01 0.75782912301E+01 0.83281942835E+01
 0.92966085854E+01 0.10908459942E+02 0.13499527591E+02 0.17108540159E+02 0.21485588035E+02
 0.26150926389E+02 0.30530318018E+02 0.34080828348E+02 0.36382633984E+02 0.24160904602E+02
 0.23678048883E+02 0.22286854191E+02 0.20162029957E+02 0.17584745764E+02 0.14910014897E+02
 0.12492378719E+02 0.10593604431E+02 0.92966085854E+01 0.84512215014E+01 0.77720912211E+01
 0.71729925667E+01 0.66895273313E+01 0.63206477790E+01 0.60571828624E+01 0.58777839798E+01
 0.57654015655E+01 0.57033988975E+01 0.56842625779E+01 0.57033988975E+01 0.57654015655E+01
 0.58777839798E+01 0.60571828624E+01 0.63206477790E+01 0.66895273313E+01 0.71729925667E+01
 0.77720912211E+01 0.84512215014E+01 0.92966085854E+01 0.10593604431E+02 0.12492378719E+02
 0.14910014897E+02 0.17584745764E+02 0.20162029957E+02 0.22286854191E+02 0.23678048883E+02
 0.15644925996E+02 0.15384938381E+02 0.14643279813E+02 0.13530197718E+02 0.12219126536E+02
 0.10913514329E+02 0.97956056313E+01 0.89536387901E+01 0.83281942835E+01 0.77720912211E+01
 0.72528897732E+01 0.68099090784E+01 0.64517891426E+01 0.61791297866E+01 0.59794539520E+01
 0.58401974492E+01 0.57484759572E+01 0.56970310821E+01 0.56800994870E+01 0.56970310821E+01
 0.57484759572E+01 0.58401974492E+01 0.59794539520E+01 0.61791297866E+01 0.64517891426E+01
 0.68099090784E+01 0.72528897732E+01 0.77720912211E+01 0.83281942835E+01 0.89536387901E+01
 0.97956056313E+01 0.10913514329E+02 0.12219126536E+02 0.13530197718E+02 0.14643279813E+02
 0.15384938381E+02 0.10794780870E+02 0.10679407821E+02 0.10354429705E+02 0.98816451795E+01
 0.93479558256E+01 0.88386882353E+01 0.83949962855E+01 0.79910604480E+01 0.75782912301E+01
 0.71729925667E+01 0.68099090784E+01 0.65000141655E+01 0.62505213571E+01 0.60558693474E+01
 0.59085000601E+01 0.58005669261E+01 0.57271742280E+01 0.56840900210E+01 0.56700583522E+01
 0.56840900210E+01 0.57271742280E+01 0.58005669261E+01 0.59085000601E+01 0.60558693474E+01
 0.62505213571E+01 0.65000141655E+01 0.68099090784E+01 0.71729925667E+01 0.75782912301E+01
 0.79910604480E+01 0.83949962855E+01 0.88386882353E+01 0.93479558256E+01 0.98816451795E+01
 0.10354429705E+02 0.10679407821E+02 0.84598629982E+01 0.84216955303E+01 0.83152098968E+01
 0.81589000989E+01 0.79718519400E+01 0.77591825975E+01 0.75127803517E+01 0.72347331738E+01
 0.69538349675E+01 0.66895273313E+01 0.64517891426E+01 0.62505213571E+01 0.60843578283E+01
 0.59497643051E+01 0.58432375505E+01 0.57619785001E+01 0.57033976700E+01 0.56677598752E+01
 0.56556201338E+01 0.56677598752E+01 0.57033976700E+01 0.57619785001E+01 0.58432375505E+01
 0.59497643051E+01 0.60843578283E+01 0.62505213571E+01 0.64517891426E+01 0.66895273313E+01
 0.69538349675E+01 0.72347331738E+01 0.75127803517E+01 0.77591825975E+01 0.79718519400E+01
 0.81589000989E+01 0.83152098968E+01 0.84216955303E+01 0.73633814014E+01 0.73486260166E+01
 0.73038048088E+01 0.72278958568E+01 0.71183126189E+01 0.69775050017E+01 0.68161125532E+01
 0.66483809375E+01 0.64797492752E+01 0.63206477790E+01 0.61791297866E+01 0.60558693474E+01
 0.59497643051E+01 0.58598411513E+01 0.57849966557E+01 0.57232002743E+01 0.56761742467E+01
 0.56462763104E+01 0.56361279654E+01 0.56462763104E+01 0.56761742467E+01 0.57232002743E+01
 0.57849966557E+01 0.58598411513E+01 0.59497643051E+01 0.60558693474E+01 0.61791297866E+01
 0.63206477790E+01 0.64797492752E+01 0.66483809375E+01 0.68161125532E+01 0.69775050017E+01
 0.71183126189E+01 0.72278958568E+01 0.73038048088E+01 0.73486260166E+01 0.66193824100E+01
 0.66100194167E+01 0.65823555386E+01 0.65367821627E+01 0.64761689892E+01 0.64031282619E+01
 0.63200035870E+01 0.62293518743E+01 0.61410050788E+01 0.60571828624E+01 0.59794539520E+01
 0.59085000601E+01 0.58432375505E+01 0.57849966557E+01 0.57314127017E+01 0.56844594983E+01
 0.56470915410E+01 0.56232139945E+01 0.56148170205E+01 0.56232139945E+01 0.56470915410E+01
 0.56844594983E+01 0.57314127017E+01 0.57849966557E+01 0.58432375505E+01 0.59085000601E+01
 0.59794539520E+01 0.60571828624E+01 0.61410050788E+01 0.62293518743E+01 0.63200035870E+01
 0.64031282619E+01 0.64761689892E+01 0.65367821627E+01 0.65823555386E+01 0.66100194167E+01
 0.61016079352E+01 0.60986531356E+01 0.60894602055E+01 0.60738452102E+01 0.60508866730E+01
 0.60213079369E+01 0.59877707065E+01 0.59535263770E+01 0.59161795994E+01 0.58777839798E+01
 0.58401974492E+01 0.58005669261E+01 0.57619785001E+01 0.57232002743E+01 0.56844594983E+01
 0.56488374472E+01 0.56203808151E+01 0.56018897031E+01 0.55955595257E+01 0.56018897031E+01
 0.56203808151E+01 0.56488374472E+01 0.56844594983E+01 0.57232002743E+01 0.57619785001E+01
 0.58005669261E+01 0.58401974492E+01 0.58777839798E+01 0.59161795994E+01 0.59535263770E+01
 0.59877707065E+01 0.60213079369E+01 0.60508866730E+01 0.60738452102E+01 0.60894602055E+01
 0.60986531356E+01 0.57838161448E+01 0.57842856882E+01 0.57855873088E+01 0.57874186672E+01
 0.57897097422E+01 0.57916273417E+01 0.57907683142E+01 0.57851387184E+01 0.57770429222E+01
 0.57654015655E+01 0.57484759572E+01 0.57271742280E+01 0.57033976700E+01 0.56761742467E+01
 0.56470915410E+01 0.56203808151E+01 0.55990012936E+01 0.55852817444E+01 0.55804870486E+01
 0.55852817444E+01 0.55990012936E+01 0.56203808151E+01 0.56470915410E+01 0.56761742467E+01
 0.57033976700E+01 0.57271742280E+01 0.57484759572E+01 0.57654015655E+01 0.57770429222E+01
 0.57851387184E+01 0.57907683142E+01 0.57916273417E+01 0.57897097422E+01 0.57874186672E+01
 0.57855873088E+01 0.57842856882E+01 0.56186303888E+01 0.56217044640E+01 0.56301361883E+01
 0.56429548228E+01 0.56574944138E+01 0.56721110315E+01 0.56856245212E+01 0.56978146990E+01
 0.57034676686E+01 0.57033988975E+01 0.56970310821E+01 0.56840900210E+01 0.56677598752E+01
 0.56462763104E+01 0.56232139945E+01 0.56018897031E+01 0.55852817444E+01 0.55744629960E+01
 0.55708411368E+01 0.55744629960E+01 0.55852817444E+01 0.56018897031E+01 0.56232139945E+01
 0.56462763104E+01 0.56677598752E+01 0.56840900210E+01 0.56970310821E+01 0.57033988975E+01
 0.57034676686E+01 0.56978146990E+01 0.56856245212E+01 0.56721110315E+01 0.56574944138E+01
 0.56429548228E+01 0.56301361883E+01 0.56217044640E+01 0.55675007737E+01 0.55708411368E+01
 0.55804870486E+01 0.55955595257E+01 0.56148170205E+01 0.56361279654E+01 0.56556201338E+01
 0.56700583522E+01 0.56800994870E+01 0.56842625779E+01 0.56800994870E+01 0.56700583522E+01
 0.56556201338E+01 0.56361279654E+01 0.56148170205E+01 0.55955595257E+01 0.55804870486E+01
 0.55708411368E+01 0.55675007737E+01 0.55708411368E+01 0.55804870486E+01 0.55955595257E+01
 0.56148170205E+01 0.56361279654E+01 0.56556201338E+01 0.56700583522E+01 0.56800994870E+01
 0.56842625779E+01 0.56800994870E+01 0.56700583522E+01 0.56556201338E+01 0.56361279654E+01
 0.56148170205E+01 0.55955595257E+01 0.55804870486E+01 0.55708411368E+01 0.56186303888E+01
 0.56217044640E+01 0.56301361883E+01 0.56429548228E+01 0.56574944138E+01 0.56721110315E+01
 0.56856245212E+01 0.56978146990E+01 0.57034676686E+01 0.57033988975E+01 0.56970310821E+01
 0.56840900210E+01 0.56677598752E+01 0.56462763104E+01 0.56232139945E+01 0.56018897031E+01
 0.55852817444E+01 0.55744629960E+01 0.55708411368E+01 0.55744629960E+01 0.55852817444E+01
 0.56018897031E+01 0.56232139945E+01 0.56462763104E+01 0.56677598752E+01 0.56840900210E+01
 0.56970310821E+01 0.57033988975E+01 0.57034676686E+01 0.56978146990E+01 0.56856245212E+01
 0.56721110315E+01 0.56574944138E+01 0.56429548228E+01 0.56301361883E+01 0.56217044640E+01
 0.57838161448E+01 0.57842856882E+01 0.57855873088E+01 0.57874186672E+01 0.57897097422E+01
 0.57916273417E+01 0.57907683142E+01 0.57851387184E+01 0.57770429222E+01 0.57654015655E+01
 0.57484759572E+01 0.57271742280E+01 0.57033976700E+01 0.56761742467E+01 0.56470915410E+01
 0.56203808151E+01 0.55990012936E+01 0.55852817444E+01 0.55804870486E+01 0.55852817444E+01
 0.55990012936E+01 0.56203808151E+01 0.56470915410E+01 0.56761742467E+01 0.57033976700E+01
 0.57271742280E+01 0.57484759572E+01 0.57654015655E+01 0.57770429222E+01 0.57851387184E+01
 0.57907683142E+01 0.57916273417E+01 0.57897097422E+01 0.57874186672E+01 0.57855873088E+01
 0.57842856882E+01 0.61016079352E+01 0.60986531356E+01 0.60894602055E+01 0.60738452102E+01
 0.60508866730E+01 0.60213079369E+01 0.59877707065E+01 0.59535263770E+01 0.59161795994E+01
 0.58777839798E+01 0.58401974492E+01 0.58005669261E+01 0.57619785001E+01 0.57232002743E+01
 0.56844594983E+01 0.56488374472E+01 0.56203808151E+01 0.56018897031E+01 0.55955595257E+01
 0.56018897031E+01 0.56203808151E+01 0.56488374472E+01 0.56844594983E+01 0.57232002743E+01
 0.57619785001E+01 0.58005669261E+01 0.58401974492E+01 0.58777839798E+01 0.59161795994E+01
 0.59535263770E+01 0.59877707065E+01 0.60213079369E+01 0.60508866730E+01 0.60738452102E+01
 0.60894602055E+01 0.60986531356E+01 0.66193824100E+01 0.66100194167E+01 0.65823555386E+01
 0.65367821627E+01 0.64761689892E+01 0.64031282619E+01 0.63200035870E+01 0.62293518743E+01
 0.61410050788E+01 0.60571828624E+01 0.59794539520E+01 0.59085000601E+01 0.58432375505E+01
 0.57849966557E+01 0.57314127017E+01 0.56844594983E+01 0.56470915410E+01 0.56232139945E+01
 0.56148170205E+01 0.56232139945E+01 0.56470915410E+01 0.56844594983E+01 0.57314127017E+01
 0.57849966557E+01 0.58432375505E+01 0.59085000601E+01 0.59794539520E+01 0.60571828624E+01
 0.61410050788E+01 0.62293518743E+01 0.63200035870E+01 0.64031282619E+01 0.64761689892E+01
 0.65367821627E+01 0.65823555386E+01 0.66100194167E+01 0.73633814014E+01 0.73486260166E+01
 0.73038048088E+01 0.72278958568E+01 0.71183126189E+01 0.69775050017E+01 0.68161125532E+01
 0.66483809375E+01 0.64797492752E+01 0.63206477790E+01 0.61791297866E+01 0.60558693474E+01
 0.59497643051E+01 0.58598411513E+01 0.57849966557E+01 0.57232002743E+01 0.56761742467E+01
 0.56462763104E+01 0.56361279654E+01 0.56462763104E+01 0.56761742467E+01 0.57232002743E+01
 0.57849966557E+01 0.58598411513E+01 0.59497643051E+01 0.60558693474E+01 0.61791297866E+01
 0.63206477790E+01 0.64797492752E+01 0.66483809375E+01 0.68161125532E+01 0.69775050017E+01
 0.71183126189E+01 0.72278958568E+01 0.73038048088E+01 0.73486260166E+01 0.84598629982E+01
 0.84216955303E+01 0.83152098968E+01 0.81589000989E+01 0.79718519400E+01 0.77591825975E+01
 0.75127803517E+01 0.72347331738E+01 0.69538349675E+01 0.66895273313E+01 0.64517891426E+01
 0.62505213571E+01 0.60843578283E+01 0.59497643051E+01 0.58432375505E+01 0.57619785001E+01
 0.57033976700E+01 0.56677598752E+01 0.56556201338E+01 0.56677598752E+01 0.57033976700E+01
 0.57619785001E+01 0.58432375505E+01 0.59497643051E+01 0.60843578283E+01 0.62505213571E+01
 0.64517891426E+01 0.66895273313E+01 0.69538349675E+01 0.72347331738E+01 0.75127803517E+01
 0.77591825975E+01 0.79718519400E+01 0.81589000989E+01 0.83152098968E+01 0.84216955303E+01
 0.10794780870E+02 0.10679407821E+02 0.10354429705E+02 0.98816451795E+01 0.93479558256E+01
 0.88386882353E+01 0.83949962855E+01 0.79910604480E+01 0.75782912301E+01 0.71729925667E+01
 0.68099090784E+01 0.65000141655E+01 0.62505213571E+01 0.60558693474E+01 0.59085000601E+01
 0.58005669261E+01 0.57271742280E+01 0.56840900210E+01 0.56700583522E+01 0.56840900210E+01
 0.57271742280E+01 0.58005669261E+01 0.59085000601E+01 0.60558693474E+01 0.62505213571E+01
 0.65000141655E+01 0.68099090784E+01 0.71729925667E+01 0.75782912301E+01 0.79910604480E+01
 0.83949962855E+01 0.88386882353E+01 0.93479558256E+01 0.98816451795E+01 0.10354429705E+02
 0.10679407821E+02 0.15644925996E+02 0.15384938381E+02 0.14643279813E+02 0.13530197718E+02
 0.12219126536E+02 0.10913514329E+02 0.97956056313E+01 0.89536387901E+01 0.83281942835E+01
 0.77720912211E+01 0.72528897732E+01 0.68099090784E+01 0.64517891426E+01 0.61791297866E+01
 0.59794539520E+01 0.58401974492E+01 0.57484759572E+01 0.56970310821E+01 0.56800994870E+01
 0.56970310821E+01 0.57484759572E+01 0.58401974492E+01 0.59794539520E+01 0.61791297866E+01
 0.64517891426E+01 0.68099090784E+01 0.72528897732E+01 0.77720912211E+01 0.83281942835E+01
 0.89536387901E+01 0.97956056313E+01 0.10913514329E+02 0.12219126536E+02 0.13530197718E+02
 0.14643279813E+02 0.15384938381E+02 0.24160904602E+02 0.23678048883E+02 0.22286854191E+02
 0.20162029957E+02 0.17584745764E+02 0.14910014897E+02 0.12492378719E+02 0.10593604431E+02
 0.92966085854E+01 0.84512215014E+01 0.77720912211E+01 0.71729925667E+01 0.66895273313E+01
 0.63206477790E+01 0.60571828624E+01 0.58777839798E+01 0.57654015655E+01 0.57033988975E+01
 0.56842625779E+01 0.57033988975E+01 0.57654015655E+01 0.58777839798E+01 0.60571828624E+01
 0.63206477790E+01 0.66895273313E+01 0.71729925667E+01 0.77720912211E+01 0.84512215014E+01
 0.92966085854E+01 0.10593604431E+02 0.12492378719E+02 0.14910014897E+02 0.17584745764E+02
 0.20162029957E+02 0.22286854191E+02 0.23678048883E+02 0.37178261451E+02 0.36382633984E+02
 0.34080828348E+02 0.30530318018E+02 0.26150926389E+02 0.21485588035E+02 0.17108540159E+02
 0.13499527591E+02 0.10908459942E+02 0.92966085854E+01 0.83281942835E+01 0.75782912301E+01
 0.69538349675E+01 0.64797492752E+01 0.61410050788E+01 0.59161795994E+01 0.57770429222E+01
 0.57034676686E+01 0.56800994870E+01 0.57034676686E+01 0.57770429222E+01 0.59161795994E+01
 0.61410050788E+01 0.64797492752E+01 0.69538349675E+01 0.75782912301E+01 0.83281942835E+01
 0.92966085854E+01 0.10908459942E+02 0.13499527591E+02 0.17108540159E+02 0.21485588035E+02
 0.26150926389E+02 0.30530318018E+02 0.34080828348E+02 0.36382633984E+02 0.54960934526E+02
 0.53753100335E+02 0.50257695447E+02 0.44846248921E+02 0.38125578885E+02 0.30867832311E+02
 0.23906493955E+02 0.17962008521E+02 0.13499527591E+02 0.10593604431E+02 0.89536387901E+01
 0.79910604480E+01 0.72347331738E+01 0.66483809375E+01 0.62293518743E+01 0.59535263770E+01
 0.57851387184E+01 0.56978146990E+01 0.56700583522E+01 0.56978146990E+01 0.57851387184E+01
 0.59535263770E+01 0.62293518743E+01 0.66483809375E+01 0.72347331738E+01 0.79910604480E+01
 0.89536387901E+01 0.10593604431E+02 0.13499527591E+02 0.17962008521E+02 0.23906493955E+02
 0.30867832311E+02 0.38125578885E+02 0.44846248921E+02 0.50257695447E+02 0.53753100335E+02
 0.77046451267E+02 0.75328108365E+02 0.70353997698E+02 0.62664319393E+02 0.53102035469E+02
 0.42729529818E+02 0.32666241959E+02 0.23906493955E+02 0.17108540159E+02 0.12492378719E+02
 0.97956056313E+01 0.83949962855E+01 0.75127803517E+01 0.68161125532E+01 0.63200035870E+01
 0.59877707065E+01 0.57907683142E+01 0.56856245212E+01 0.56556201338E+01 0.56856245212E+01
 0.57907683142E+01 0.59877707065E+01 0.63200035870E+01 0.68161125532E+01 0.75127803517E+01
 0.83949962855E+01 0.97956056313E+01 0.12492378719E+02 0.17108540159E+02 0.23906493955E+02
 0.32666241959E+02 0.42729529818E+02 0.53102035469E+02 0.62664319393E+02 0.70353997698E+02
 0.75328108365E+02 0.10216390614E+03 0.99846615104E+02 0.93154576931E+02 0.82843174948E+02
 0.70062913392E+02 0.56213086204E+02 0.42729529818E+02 0.30867832311E+02 0.21485588035E+02
 0.14910014897E+02 0.10913514329E+02 0.88386882353E+01 0.77591825975E+01 0.69775050017E+01
 0.64031282619E+01 0.60213079369E+01 0.57916273417E+01 0.56721110315E+01 0.56361279654E+01
 0.56721110315E+01 0.57916273417E+01 0.60213079369E+01 0.64031282619E+01 0.69775050017E+01
 0.77591825975E+01 0.88386882353E+01 0.10913514329E+02 0.14910014897E+02 0.21485588035E+02
 0.30867832311E+02 0.42729529818E+02 0.56213086204E+02 0.70062913392E+02 0.82843174948E+02
 0.93154576931E+02 0.99846615104E+02 0.12828742343E+03 0.12532095102E+03 0.11677884119E+03
 0.10367190407E+03 0.87509474720E+02 0.70062913392E+02 0.53102035469E+02 0.38125578885E+02
 0.26150926389E+02 0.17584745764E+02 0.12219126536E+02 0.93479558256E+01 0.79718519400E+01
 0.71183126189E+01 0.64761689892E+01 0.60508866730E+01 0.57897097422E+01 0.56574944138E+01
 0.56148170205E+01 0.56574944138E+01 0.57897097422E+01 0.60508866730E+01 0.64761689892E+01
 0.71183126189E+01 0.79718519400E+01 0.93479558256E+01 0.12219126536E+02 0.17584745764E+02
 0.26150926389E+02 0.38125578885E+02 0.53102035469E+02 0.70062913392E+02 0.87509474720E+02
 0.10367190407E+03 0.11677884119E+03 0.12532095102E+03 0.15283111269E+03 0.14922791505E+03
 0.13887858726E+03 0.12306590718E+03 0.10367190407E+03 0.82843174948E+02 0.62664319393E+02
 0.44846248921E+02 0.30530318018E+02 0.20162029957E+02 0.13530197718E+02 0.98816451795E+01
 0.81589000989E+01 0.72278958568E+01 0.65367821627E+01 0.60738452102E+01 0.57874186672E+01
 0.56429548228E+01 0.55955595257E+01 0.56429548228E+01 0.57874186672E+01 0.60738452102E+01
 0.65367821627E+01 0.72278958568E+01 0.81589000989E+01 0.98816451795E+01 0.13530197718E+02
 0.20162029957E+02 0.30530318018E+02 0.44846248921E+02 0.62664319393E+02 0.82843174948E+02
 0.10367190407E+03 0.12306590718E+03 0.13887858726E+03 0.14922791505E+03 0.17301103189E+03
 0.16886488238E+03 0.15697757750E+03 0.13887858726E+03 0.11677884119E+03 0.93154576931E+02
 0.70353997698E+02 0.50257695447E+02 0.34080828348E+02 0.22286854191E+02 0.14643279813E+02
 0.10354429705E+02 0.83152098968E+01 0.73038048088E+01 0.65823555386E+01 0.60894602055E+01
 0.57855873088E+01 0.56301361883E+01 0.55804870486E+01 0.56301361883E+01 0.57855873088E+01
 0.60894602055E+01 0.65823555386E+01 0.73038048088E+01 0.83152098968E+01 0.10354429705E+02
 0.14643279813E+02 0.22286854191E+02 0.34080828348E+02 0.50257695447E+02 0.70353997698E+02
 0.93154576931E+02 0.11677884119E+03 0.13887858726E+03 0.15697757750E+03 0.16886488238E+03
 0.18630534872E+03 0.18179146457E+03 0.16886488238E+03 0.14922791505E+03 0.12532095102E+03
 0.99846615104E+02 0.75328108365E+02 0.53753100335E+02 0.36382633984E+02 0.23678048883E+02
 0.15384938381E+02 0.10679407821E+02 0.84216955303E+01 0.73486260166E+01 0.66100194167E+01
 0.60986531356E+01 0.57842856882E+01 0.56217044640E+01 0.55708411368E+01 0.56217044640E+01
 0.57842856882E+01 0.60986531356E+01 0.66100194167E+01 0.73486260166E+01 0.84216955303E+01
 0.10679407821E+02 0.15384938381E+02 0.23678048883E+02 0.36382633984E+02 0.53753100335E+02
 0.75328108365E+02 0.99846615104E+02 0.12532095102E+03 0.14922791505E+03 0.16886488238E+03
 0.18179146457E+03 0.18630534872E+03 0.18179146457E+03 0.16886488238E+03 0.14922791505E+03
 0.12532095102E+03 0.99846615104E+02 0.75328108365E+02 0.53753100335E+02 0.36382633984E+02
 0.23678048883E+02 0.15384938381E+02 0.10679407821E+02 0.84216955303E+01 0.73486260166E+01
 0.66100194167E+01 0.60986531356E+01 0.57842856882E+01 0.56217044640E+01 0.55708411368E+01
 0.56217044640E+01 0.57842856882E+01 0.60986531356E+01 0.66100194167E+01 0.73486260166E+01
 0.84216955303E+01 0.10679407821E+02 0.15384938381E+02 0.23678048883E+02 0.36382633984E+02
 0.53753100335E+02 0.75328108365E+02 0.99846615104E+02 0.12532095102E+03 0.14922791505E+03
 0.16886488238E+03 0.18179146457E+03 0.18179146457E+03 0.17740305488E+03 0.16483133068E+03
 0.14571895181E+03 0.12242820608E+03 0.97583362791E+02 0.73647233777E+02 0.52570727448E+02
 0.35604177888E+02 0.23206535613E+02 0.15132421192E+02 0.10568542209E+02 0.83854887335E+01
 0.73344186557E+01 0.66012854046E+01 0.60961513861E+01 0.57851239392E+01 0.56250413114E+01
 0.55744629960E+01 0.56250413114E+01 0.57851239392E+01 0.60961513861E+01 0.66012854046E+01
 0.73344186557E+01 0.83854887335E+01 0.10568542209E+02 0.15132421192E+02 0.23206535613E+02
 0.35604177888E+02 0.52570727448E+02 0.73647233777E+02 0.97583362791E+02 0.12242820608E+03
 0.14571895181E+03 0.16483133068E+03 0.17740305488E+03 0.16886488238E+03 0.16483133068E+03
 0.15326280581E+03 0.13563685594E+03 0.11409560277E+03 0.91046239182E+02 0.68782003395E+02
 0.49149812794E+02 0.33352779523E+02 0.21848951111E+02 0.14412732997E+02 0.10256441264E+02
 0.82846820706E+01 0.72911149611E+01 0.65751722349E+01 0.60882847654E+01 0.57877492051E+01
 0.56345826461E+01 0.55852817444E+01 0.56345826461E+01 0.57877492051E+01 0.60882847654E+01
 0.65751722349E+01 0.72911149611E+01 0.82846820706E+01 0.10256441264E+02 0.14412732997E+02
 0.21848951111E+02 0.33352779523E+02 0.49149812794E+02 0.68782003395E+02 0.91046239182E+02
 0.11409560277E+03 0.13563685594E+03 0.15326280581E+03 0.16483133068E+03 0.14922791505E+03
 0.14571895181E+03 0.13563685594E+03 0.12022345232E+03 0.10130485976E+03 0.80971314220E+02
 0.61260939812E+02 0.43856398536E+02 0.29882899108E+02 0.19778031871E+02 0.13334351322E+02
 0.98032619471E+01 0.81358403561E+01 0.72173024891E+01 0.65322684060E+01 0.60745676681E+01
 0.57914277581E+01 0.56487432312E+01 0.56018897031E+01 0.56487432312E+01 0.57914277581E+01
 0.60745676681E+01 0.65322684060E+01 0.72173024891E+01 0.81358403561E+01 0.98032619471E+01
 0.13334351322E+02 0.19778031871E+02 0.29882899108E+02 0.43856398536E+02 0.61260939812E+02
 0.80971314220E+02 0.10130485976E+03 0.12022345232E+03 0.13563685594E+03 0.14571895181E+03
 0.12532095102E+03 0.12242820608E+03 0.11409560277E+03 0.10130485976E+03 0.85523614481E+02
 0.68481472587E+02 0.51911306416E+02 0.37287771136E+02 0.25608086534E+02 0.17271151527E+02
 0.12067079296E+02 0.92927317133E+01 0.79560935824E+01 0.71102613376E+01 0.64748090344E+01
 0.60539456310E+01 0.57961087473E+01 0.56651335667E+01 0.56232139945E+01 0.56651335667E+01
 0.57961087473E+01 0.60539456310E+01 0.64748090344E+01 0.71102613376E+01 0.79560935824E+01
 0.92927317133E+01 0.12067079296E+02 0.17271151527E+02 0.25608086534E+02 0.37287771136E+02
 0.51911306416E+02 0.68481472587E+02 0.85523614481E+02 0.10130485976E+03 0.11409560277E+03
 0.12242820608E+03 0.99846615104E+02 0.97583362791E+02 0.91046239182E+02 0.80971314220E+02
 0.68481472587E+02 0.54946585673E+02 0.41776109747E+02 0.30202314592E+02 0.21062577754E+02
 0.14676261692E+02 0.10808790281E+02 0.88056740741E+01 0.77485687757E+01 0.69730072982E+01
 0.64051382156E+01 0.60271103452E+01 0.58001831776E+01 0.56816603179E+01 0.56462763104E+01
 0.56816603179E+01 0.58001831776E+01 0.60271103452E+01 0.64051382156E+01 0.69730072982E+01
 0.77485687757E+01 0.88056740741E+01 0.10808790281E+02 0.14676261692E+02 0.21062577754E+02
 0.30202314592E+02 0.41776109747E+02 0.54946585673E+02 0.68481472587E+02 0.80971314220E+02
 0.91046239182E+02 0.97583362791E+02 0.75328108365E+02 0.73647233777E+02 0.68782003395E+02
 0.61260939812E+02 0.51911306416E+02 0.41776109747E+02 0.31954131740E+02 0.23416903424E+02
 0.16809325395E+02 0.12337930549E+02 0.97349718954E+01 0.83779516934E+01 0.75058206900E+01
 0.68159353282E+01 0.63250518548E+01 0.59966156484E+01 0.58016020435E+01 0.56976087199E+01
 0.56677598752E+01 0.56976087199E+01 0.58016020435E+01 0.59966156484E+01 0.63250518548E+01
 0.68159353282E+01 0.75058206900E+01 0.83779516934E+01 0.97349718954E+01 0.12337930549E+02
 0.16809325395E+02 0.23416903424E+02 0.31954131740E+02 0.41776109747E+02 0.51911306416E+02
 0.61260939812E+02 0.68782003395E+02 0.73647233777E+02 0.53753100335E+02 0.52570727448E+02
 0.49149812794E+02 0.43856398536E+02 0.37287771136E+02 0.30202314592E+02 0.23416903424E+02
 0.17637581832E+02 0.13313777260E+02 0.10507790244E+02 0.89258786548E+01 0.79818843773E+01
 0.72321091568E+01 0.66524952770E+01 0.62379930993E+01 0.59651820851E+01 0.57982242773E+01
 0.57117315372E+01 0.56840900210E+01 0.57117315372E+01 0.57982242773E+01 0.59651820851E+01
 0.62379930993E+01 0.66524952770E+01 0.72321091568E+01 0.79818843773E+01 0.89258786548E+01
 0.10507790244E+02 0.13313777260E+02 0.17637581832E+02 0.23416903424E+02 0.30202314592E+02
 0.37287771136E+02 0.43856398536E+02 0.49149812794E+02 0.52570727448E+02 0.36382633984E+02
 0.35604177888E+02 0.33352779523E+02 0.29882899108E+02 0.25608086534E+02 0.21062577754E+02
 0.16809325395E+02 0.13313777260E+02 0.10812568193E+02 0.92604375688E+01 0.83165503748E+01
 0.75738522192E+01 0.69566468667E+01 0.64878474512E+01 0.61530574041E+01 0.59306758881E+01
 0.57931293314E+01 0.57201273934E+01 0.56970310821E+01 0.57201273934E+01 0.57931293314E+01
 0.59306758881E+01 0.61530574041E+01 0.64878474512E+01 0.69566468667E+01 0.75738522192E+01
 0.83165503748E+01 0.92604375688E+01 0.10812568193E+02 0.13313777260E+02 0.16809325395E+02
 0.21062577754E+02 0.25608086534E+02 0.29882899108E+02 0.33352779523E+02 0.35604177888E+02
 0.23678048883E+02 0.23206535613E+02 0.21848951111E+02 0.19778031871E+02 0.17271151527E+02
 0.14676261692E+02 0.12337930549E+02 0.10507790244E+02 0.92604375688E+01 0.84383835298E+01