   2   2   1   0
  0.1173411E+02  0.2863036E-09  0.2863036E-09  0.2863036E-09  0.5000000E-15
  1.000000000000000E-004
  CAR 
 unknown system                          
     47.45400930     -4.94134065  301      5.91350069      1.00000000
     -4.941  0.0000E+00  0.0000E+00  0.0000E+00  0.0000E+00
     -4.767  0.0000E+00  0.0000E+00  0.0000E+00  0.0000E+00
     -4.592  0.0000E+00  0.0000E+00  0.0000E+00  0.0000E+00
     -4.417  0.0000E+00  0.0000E+00  0.0000E+00  0.0000E+00
     -4.243 -0.4684E-34  0.0000E+00 -0.8180E-35  0.0000E+00
     -4.068 -0.4727E-28 -0.1291E-32 -0.8256E-29 -0.2254E-33
     -3.893 -0.1024E-22 -0.9147E-27 -0.1789E-23 -0.1597E-27
     -3.719 -0.4622E-18 -0.1390E-21 -0.8072E-19 -0.2428E-22
     -3.544 -0.4486E-14 -0.4372E-17 -0.7836E-15 -0.7636E-18
     -3.369 -0.9130E-11 -0.2975E-13 -0.1595E-11 -0.5197E-14
     -3.195 -0.3777E-08 -0.4210E-10 -0.6613E-09 -0.7359E-11
     -3.020 -0.2956E-06 -0.1199E-07 -0.5229E-07 -0.2101E-08
     -2.846 -0.3177E-05 -0.6242E-06 -0.6072E-06 -0.1111E-06
     -2.671  0.1184E-04 -0.3465E-05  0.1460E-05 -0.7162E-06
     -2.496  0.5252E-04  0.2302E-04  0.1063E-04  0.3304E-05
     -2.322  0.1590E-03  0.5665E-04  0.3840E-04  0.1320E-04
     -2.147  0.4088E-03  0.2265E-03  0.1098E-03  0.5275E-04
     -1.972  0.5545E-03  0.4102E-03  0.2066E-03  0.1244E-03
     -1.798  0.8329E-03  0.6486E-03  0.3521E-03  0.2377E-03
     -1.623  0.5407E-03  0.7643E-03  0.4465E-03  0.3711E-03
     -1.448  0.4782E-03  0.5333E-03  0.5300E-03  0.4643E-03
     -1.274  0.3497E-03  0.4289E-03  0.5911E-03  0.5392E-03
     -1.099  0.9266E-03  0.3539E-03  0.7530E-03  0.6010E-03
     -0.924  0.1783E-02  0.9839E-03  0.1064E-02  0.7728E-03
     -0.750  0.1748E-02  0.1747E-02  0.1370E-02  0.1078E-02
     -0.575  0.1209E-02  0.1694E-02  0.1581E-02  0.1374E-02
     -0.400  0.1545E-03  0.1207E-02  0.1608E-02  0.1585E-02
     -0.226  0.7435E-03  0.1700E-04  0.1738E-02  0.1588E-02
     -0.051  0.1432E-02  0.5726E-03  0.1988E-02  0.1688E-02
      0.124  0.2548E-02  0.1108E-02  0.2433E-02  0.1881E-02
      0.298  0.2278E-02  0.2198E-02  0.2831E-02  0.2265E-02
      0.473  0.2260E-02  0.2055E-02  0.3225E-02  0.2624E-02
      0.647  0.2458E-02  0.1944E-02  0.3655E-02  0.2963E-02
      0.822  0.3651E-02  0.1740E-02  0.4292E-02  0.3267E-02
      0.997  0.5391E-02  0.1360E-02  0.5234E-02  0.3505E-02
      1.171  0.7259E-02  0.2271E-02  0.6502E-02  0.3902E-02
      1.346  0.1358E-01  0.3325E-02  0.8874E-02  0.4482E-02
      1.521  0.1529E-01  0.2406E-02  0.1154E-01  0.4903E-02
      1.695  0.1541E-01  0.3916E-03  0.1424E-01  0.4971E-02
      1.870  0.2152E-01  0.2027E-02  0.1799E-01  0.5325E-02
      2.045  0.1095E-01  0.6075E-02  0.1991E-01  0.6386E-02
      2.219  0.7666E-02  0.7195E-02  0.2125E-01  0.7643E-02
      2.394  0.1206E-01  0.7203E-02  0.2335E-01  0.8901E-02
      2.569  0.2061E-01  0.7513E-02  0.2695E-01  0.1021E-01
      2.743  0.2946E-01  0.3697E-02  0.3210E-01  0.1086E-01
      2.918  0.2476E-01  0.7118E-02  0.3642E-01  0.1210E-01
      3.093  0.1771E-01  0.1410E-01  0.3951E-01  0.1457E-01
      3.267  0.2399E-01  0.1340E-01  0.4370E-01  0.1691E-01
      3.442  0.3047E-01  0.9045E-02  0.4903E-01  0.1848E-01
      3.617  0.2403E-01  0.1107E-01  0.5322E-01  0.2042E-01
      3.791  0.1014E-01  0.5528E-02  0.5499E-01  0.2138E-01
      3.966  0.4903E-02  0.6933E-02  0.5585E-01  0.2259E-01
      4.141  0.1082E-01  0.2031E-01  0.5774E-01  0.2614E-01
      4.315  0.1365E-01  0.2656E-01  0.6012E-01  0.3078E-01
      4.490  0.1390E-01  0.2475E-01  0.6255E-01  0.3510E-01
      4.664  0.2591E-01  0.2197E-01  0.6708E-01  0.3894E-01
      4.839  0.4092E-01  0.2160E-01  0.7422E-01  0.4271E-01
      5.014  0.4952E-01  0.2477E-01  0.8287E-01  0.4704E-01
      5.188  0.3760E-01  0.2347E-01  0.8944E-01  0.5114E-01
      5.363  0.2408E-01  0.1812E-01  0.9364E-01  0.5430E-01
      5.538  0.1732E-01  0.1171E-01  0.9667E-01  0.5634E-01
      5.712  0.8106E-02  0.4520E-02  0.9808E-01  0.5713E-01
      5.887  0.1581E-01  0.7665E-02  0.1008E+00  0.5847E-01
      6.062  0.1482E-01  0.5234E-02  0.1034E+00  0.5939E-01
      6.236  0.8902E-02  0.2861E-02  0.1050E+00  0.5989E-01
      6.411  0.5685E-02  0.6910E-02  0.1060E+00  0.6109E-01
      6.586  0.5691E-02  0.1153E-01  0.1070E+00  0.6311E-01
      6.760  0.3858E-02  0.1306E-01  0.1076E+00  0.6539E-01
      6.935  0.1972E-02  0.1531E-01  0.1080E+00  0.6806E-01
      7.110  0.2506E-02  0.2017E-01  0.1084E+00  0.7158E-01
      7.284  0.3445E-02  0.2645E-01  0.1090E+00  0.7620E-01
      7.459  0.5590E-03  0.2653E-01  0.1091E+00  0.8084E-01
      7.634  0.2973E-04  0.2570E-01  0.1091E+00  0.8533E-01
      7.808  0.3055E-02  0.4335E-01  0.1097E+00  0.9290E-01
      7.983  0.4048E-02  0.4208E-01  0.1104E+00  0.1002E+00
      8.157  0.3190E-02  0.1907E-01  0.1109E+00  0.1036E+00
      8.332  0.4370E-02  0.7873E-02  0.1117E+00  0.1050E+00
      8.507  0.2279E-02  0.8764E-02  0.1121E+00  0.1065E+00
      8.681  0.2158E-02  0.7267E-02  0.1125E+00  0.1078E+00
      8.856  0.2649E-02  0.2930E-02  0.1129E+00  0.1083E+00
      9.031  0.2431E-03  0.3268E-02  0.1130E+00  0.1088E+00
      9.205  0.2200E-02  0.2299E-02  0.1134E+00  0.1092E+00
      9.380  0.7777E-02  0.3796E-02  0.1147E+00  0.1099E+00
      9.555  0.4678E-02  0.3891E-02  0.1155E+00  0.1106E+00
      9.729 -0.1682E-03  0.3535E-02  0.1155E+00  0.1112E+00
      9.904  0.2853E-04  0.3538E-02  0.1155E+00  0.1118E+00
     10.079  0.8325E-03  0.3266E-02  0.1157E+00  0.1124E+00
     10.253  0.3733E-03  0.3219E-02  0.1157E+00  0.1129E+00
     10.428  0.1144E-02  0.1569E-02  0.1159E+00  0.1132E+00
     10.603  0.1387E-02  0.2957E-02  0.1162E+00  0.1137E+00
     10.777  0.7187E-03  0.7305E-02  0.1163E+00  0.1150E+00
     10.952  0.2821E-02  0.3026E-02  0.1168E+00  0.1155E+00
     11.127  0.4296E-02  0.3296E-03  0.1175E+00  0.1156E+00
     11.301  0.2330E-02  0.6691E-03  0.1179E+00  0.1157E+00
     11.476  0.7296E-03 -0.4798E-04  0.1181E+00  0.1157E+00
     11.651  0.2894E-02  0.7805E-03  0.1186E+00  0.1158E+00
     11.825  0.1843E-02  0.2091E-02  0.1189E+00  0.1162E+00
     12.000 -0.1477E-04  0.2414E-02  0.1189E+00  0.1166E+00
     12.174  0.4698E-03  0.4960E-02  0.1190E+00  0.1175E+00
     12.349  0.8002E-03  0.2603E-02  0.1191E+00  0.1180E+00
     12.524  0.6444E-04  0.1158E-02  0.1191E+00  0.1182E+00
     12.698 -0.1002E-03  0.2909E-02  0.1191E+00  0.1187E+00
     12.873  0.6081E-03  0.1359E-02  0.1192E+00  0.1189E+00
     13.048  0.1929E-02  0.2027E-04  0.1195E+00  0.1189E+00
     13.222  0.1038E-02  0.7581E-03  0.1197E+00  0.1190E+00
     13.397  0.2032E-02  0.5320E-03  0.1201E+00  0.1191E+00
     13.572  0.5052E-02 -0.5530E-04  0.1210E+00  0.1191E+00
     13.746  0.3074E-02 -0.1218E-04  0.1215E+00  0.1191E+00
     13.921  0.2447E-02  0.9929E-03  0.1219E+00  0.1193E+00
     14.096  0.3650E-02  0.1828E-02  0.1226E+00  0.1196E+00
     14.270  0.2672E-02  0.7687E-03  0.1230E+00  0.1197E+00
     14.445  0.4763E-02 -0.1386E-03  0.1239E+00  0.1197E+00
     14.620  0.3344E-02  0.2731E-02  0.1245E+00  0.1202E+00
     14.794  0.5557E-02  0.7714E-02  0.1254E+00  0.1215E+00
     14.969  0.9723E-02  0.4811E-02  0.1271E+00  0.1224E+00
     15.144  0.3991E-02  0.2227E-02  0.1278E+00  0.1228E+00
     15.318  0.1478E-02  0.1400E-02  0.1281E+00  0.1230E+00
     15.493  0.1273E-02  0.4880E-02  0.1283E+00  0.1239E+00
     15.667  0.8914E-03  0.5835E-02  0.1285E+00  0.1249E+00
     15.842  0.1405E-02  0.7327E-02  0.1287E+00  0.1262E+00
     16.017  0.3677E-02  0.8367E-02  0.1293E+00  0.1276E+00
     16.191  0.1892E-02  0.3318E-02  0.1297E+00  0.1282E+00
     16.366  0.3282E-02  0.1709E-02  0.1302E+00  0.1285E+00
     16.541  0.5430E-02  0.9832E-03  0.1312E+00  0.1287E+00
     16.715  0.4738E-02  0.2836E-02  0.1320E+00  0.1292E+00
     16.890  0.6572E-02  0.3395E-02  0.1332E+00  0.1298E+00
     17.065  0.8103E-02  0.1695E-02  0.1346E+00  0.1301E+00
     17.239  0.3880E-02  0.3865E-02  0.1353E+00  0.1307E+00
     17.414  0.1753E-02  0.5486E-02  0.1356E+00  0.1317E+00
     17.589  0.9964E-03  0.4274E-02  0.1357E+00  0.1324E+00
     17.763  0.3226E-02  0.7656E-02  0.1363E+00  0.1338E+00
     17.938  0.4727E-02  0.7780E-02  0.1371E+00  0.1351E+00
     18.113  0.2455E-02  0.2894E-02  0.1376E+00  0.1356E+00
     18.287  0.1901E-02  0.4301E-03  0.1379E+00  0.1357E+00
     18.462  0.2422E-02  0.1639E-02  0.1383E+00  0.1360E+00
     18.637  0.4138E-02  0.6306E-02  0.1390E+00  0.1371E+00
     18.811  0.5486E-02  0.3617E-02  0.1400E+00  0.1377E+00
     18.986  0.4298E-02  0.2366E-02  0.1407E+00  0.1382E+00
     19.161  0.3979E-02  0.3813E-02  0.1414E+00  0.1388E+00
     19.335  0.4782E-02  0.3701E-02  0.1423E+00  0.1395E+00
     19.510  0.2366E-02  0.4371E-02  0.1427E+00  0.1402E+00
     19.684  0.8009E-03  0.2867E-02  0.1428E+00  0.1407E+00
     19.859  0.3364E-02  0.2926E-02  0.1434E+00  0.1412E+00
     20.034  0.5004E-02  0.5566E-02  0.1443E+00  0.1422E+00
     20.208  0.4559E-02  0.3134E-02  0.1451E+00  0.1428E+00
     20.383  0.3347E-02  0.1310E-02  0.1457E+00  0.1430E+00
     20.558  0.4103E-02  0.3687E-02  0.1464E+00  0.1436E+00
     20.732  0.4610E-02  0.6379E-02  0.1472E+00  0.1447E+00
     20.907  0.5092E-02  0.4442E-02  0.1481E+00  0.1455E+00
     21.082  0.1671E-02  0.4126E-02  0.1484E+00  0.1462E+00
     21.256  0.1893E-03  0.4135E-02  0.1484E+00  0.1470E+00
     21.431 -0.2748E-03  0.5300E-02  0.1484E+00  0.1479E+00
     21.606  0.2537E-03  0.2361E-02  0.1484E+00  0.1483E+00
     21.780  0.6530E-02  0.5339E-03  0.1495E+00  0.1484E+00
     21.955  0.8229E-02 -0.1998E-03  0.1510E+00  0.1484E+00
     22.130  0.4927E-02  0.1144E-02  0.1518E+00  0.1486E+00
     22.304  0.3301E-02  0.5246E-02  0.1524E+00  0.1495E+00
     22.479  0.2200E-02  0.5739E-02  0.1528E+00  0.1505E+00
     22.654  0.1268E-02  0.5709E-02  0.1530E+00  0.1515E+00
     22.828  0.3189E-02  0.3790E-02  0.1536E+00  0.1521E+00
     23.003  0.7480E-02  0.3274E-02  0.1549E+00  0.1527E+00
     23.177  0.8189E-02  0.1094E-02  0.1563E+00  0.1529E+00
     23.352  0.5653E-02  0.1856E-02  0.1573E+00  0.1532E+00
     23.527  0.5451E-02  0.9137E-02  0.1583E+00  0.1548E+00
     23.701  0.2733E-02  0.1003E-01  0.1587E+00  0.1566E+00
     23.876  0.1193E-02  0.3888E-02  0.1589E+00  0.1573E+00
     24.051  0.1505E-02  0.4850E-02  0.1592E+00  0.1581E+00
     24.225  0.4879E-02  0.4980E-02  0.1601E+00  0.1590E+00
     24.400  0.7650E-02  0.1589E-02  0.1614E+00  0.1592E+00
     24.575  0.7305E-02  0.1682E-02  0.1627E+00  0.1595E+00
     24.749  0.3336E-02  0.5151E-02  0.1633E+00  0.1604E+00
     24.924  0.3980E-02  0.9597E-02  0.1639E+00  0.1621E+00
     25.099  0.5637E-02  0.5352E-02  0.1649E+00  0.1631E+00
     25.273  0.5017E-02  0.4326E-02  0.1658E+00  0.1638E+00
     25.448  0.2370E-02  0.5052E-02  0.1662E+00  0.1647E+00
     25.623  0.4880E-02  0.2569E-02  0.1671E+00  0.1651E+00
     25.797  0.8727E-02  0.3249E-02  0.1686E+00  0.1657E+00
     25.972  0.7063E-02  0.6311E-02  0.1698E+00  0.1668E+00
     26.147  0.5064E-02  0.7817E-02  0.1707E+00  0.1682E+00
     26.321  0.4602E-02  0.6405E-02  0.1715E+00  0.1693E+00
     26.496  0.3362E-02  0.6811E-02  0.1721E+00  0.1705E+00
     26.671  0.2520E-02  0.2946E-02  0.1725E+00  0.1710E+00
     26.845  0.4415E-02  0.4521E-02  0.1733E+00  0.1718E+00
     27.020  0.4195E-02  0.5111E-02  0.1741E+00  0.1727E+00
     27.194  0.4101E-02  0.3926E-02  0.1748E+00  0.1734E+00
     27.369  0.7928E-02  0.2816E-02  0.1762E+00  0.1739E+00
     27.544  0.1010E-01  0.3094E-02  0.1779E+00  0.1744E+00
     27.718  0.5245E-02  0.7627E-02  0.1788E+00  0.1757E+00
     27.893  0.1978E-02  0.1001E-01  0.1792E+00  0.1775E+00
     28.068  0.1607E-02  0.4528E-02  0.1795E+00  0.1783E+00
     28.242  0.1572E-02  0.3120E-02  0.1797E+00  0.1788E+00
     28.417  0.1341E-02  0.4957E-02  0.1800E+00  0.1797E+00
     28.592  0.1522E-02  0.1027E-02  0.1802E+00  0.1799E+00
     28.766  0.2797E-02 -0.2467E-03  0.1807E+00  0.1798E+00
     28.941  0.3838E-02  0.1344E-02  0.1814E+00  0.1800E+00
     29.116  0.3007E-02  0.3402E-02  0.1819E+00  0.1806E+00
     29.290  0.3381E-02  0.4030E-02  0.1825E+00  0.1813E+00
     29.465  0.1500E-02  0.3558E-02  0.1828E+00  0.1820E+00
     29.640  0.3101E-02  0.2546E-02  0.1833E+00  0.1824E+00
     29.814  0.3172E-02  0.2647E-02  0.1839E+00  0.1829E+00
     29.989  0.4072E-02  0.3505E-02  0.1846E+00  0.1835E+00
     30.164  0.3437E-02  0.2649E-02  0.1852E+00  0.1839E+00
     30.338  0.1972E-02  0.2573E-02  0.1855E+00  0.1844E+00
     30.513  0.1508E-02  0.3206E-02  0.1858E+00  0.1850E+00
     30.687  0.8142E-02  0.2218E-02  0.1872E+00  0.1853E+00
     30.862  0.9790E-02  0.2764E-02  0.1889E+00  0.1858E+00
     31.037  0.6674E-02  0.8318E-02  0.1901E+00  0.1873E+00
     31.211  0.6060E-02  0.9677E-02  0.1911E+00  0.1890E+00
     31.386  0.5732E-02  0.8426E-02  0.1921E+00  0.1904E+00
     31.561  0.6904E-02  0.1097E-01  0.1933E+00  0.1924E+00
     31.735  0.3622E-02  0.4814E-02  0.1940E+00  0.1932E+00
     31.910  0.1715E-02  0.2408E-02  0.1943E+00  0.1936E+00
     32.085  0.1833E-02  0.3653E-02  0.1946E+00  0.1943E+00
     32.259  0.1981E-02  0.2188E-02  0.1949E+00  0.1946E+00
     32.434  0.1644E-02  0.5086E-03  0.1952E+00  0.1947E+00
     32.609  0.2820E-02  0.7244E-03  0.1957E+00  0.1949E+00
     32.783  0.2213E-02  0.1997E-02  0.1961E+00  0.1952E+00
     32.958  0.7281E-03  0.3025E-02  0.1962E+00  0.1957E+00
     33.133  0.2993E-02  0.2453E-02  0.1968E+00  0.1962E+00
     33.307  0.2848E-02  0.2283E-02  0.1973E+00  0.1966E+00
     33.482  0.3774E-03  0.3321E-02  0.1973E+00  0.1971E+00
     33.657 -0.1066E-03  0.1109E-02  0.1973E+00  0.1973E+00
     33.831 -0.1012E-04 -0.1305E-03  0.1973E+00  0.1973E+00
     34.006 -0.7572E-06 -0.2779E-04  0.1973E+00  0.1973E+00
     34.181 -0.3118E-04 -0.1044E-04  0.1973E+00  0.1973E+00
     34.355 -0.1585E-03 -0.1341E-03  0.1973E+00  0.1973E+00
     34.530  0.1413E-02  0.4703E-03  0.1975E+00  0.1974E+00
     34.704  0.3535E-02  0.3365E-02  0.1981E+00  0.1979E+00
     34.879  0.7792E-03  0.1850E-02  0.1983E+00  0.1983E+00
     35.054 -0.1875E-03 -0.1848E-03  0.1982E+00  0.1982E+00
     35.228 -0.6780E-04 -0.5195E-04  0.1982E+00  0.1982E+00
     35.403  0.1205E-02  0.1887E-02  0.1984E+00  0.1986E+00
     35.578  0.2428E-02  0.2179E-02  0.1989E+00  0.1989E+00
     35.752  0.5933E-03  0.9932E-04  0.1990E+00  0.1990E+00
     35.927 -0.1005E-03 -0.7281E-04  0.1989E+00  0.1989E+00
     36.102 -0.1321E-04 -0.3467E-05  0.1989E+00  0.1989E+00
     36.276 -0.2209E-06 -0.2675E-07  0.1989E+00  0.1989E+00
     36.451 -0.1351E-06 -0.5564E-07  0.1989E+00  0.1989E+00
     36.626 -0.7966E-05 -0.4471E-05  0.1989E+00  0.1989E+00
     36.800 -0.5422E-04 -0.4934E-04  0.1989E+00  0.1989E+00
     36.975  0.3807E-03  0.2222E-03  0.1990E+00  0.1990E+00
     37.150  0.1192E-02  0.1163E-02  0.1992E+00  0.1992E+00
     37.324  0.3395E-03  0.5203E-03  0.1993E+00  0.1993E+00
     37.499 -0.5382E-04 -0.5064E-04  0.1993E+00  0.1993E+00
     37.674 -0.6968E-05 -0.1188E-04  0.1993E+00  0.1993E+00
     37.848 -0.2540E-06 -0.1301E-05  0.1993E+00  0.1993E+00
     38.023 -0.9658E-05 -0.3220E-04  0.1993E+00  0.1993E+00
     38.197 -0.7999E-04 -0.2900E-04  0.1992E+00  0.1992E+00
     38.372  0.4747E-03  0.1158E-02  0.1993E+00  0.1994E+00
     38.547  0.1785E-02  0.1535E-02  0.1996E+00  0.1997E+00
     38.721  0.6080E-03  0.1101E-03  0.1997E+00  0.1997E+00
     38.896 -0.8123E-04 -0.5432E-04  0.1997E+00  0.1997E+00
     39.071 -0.1289E-04 -0.2938E-05  0.1997E+00  0.1997E+00
     39.245 -0.2277E-06 -0.5603E-07  0.1997E+00  0.1997E+00
     39.420 -0.1768E-06 -0.2754E-05  0.1997E+00  0.1997E+00
     39.595 -0.8484E-05 -0.3484E-04  0.1997E+00  0.1997E+00
     39.769 -0.3868E-04  0.1343E-03  0.1997E+00  0.1997E+00
     39.944  0.3766E-03  0.8539E-03  0.1998E+00  0.1999E+00
     40.119  0.8770E-03  0.4368E-03  0.1999E+00  0.2000E+00
     40.293  0.1768E-03 -0.3473E-04  0.2000E+00  0.2000E+00
     40.468 -0.3758E-04 -0.1042E-04  0.2000E+00  0.2000E+00
     40.643 -0.3552E-05 -0.2469E-06  0.2000E+00  0.2000E+00
     40.817 -0.4546E-07 -0.1045E-08  0.2000E+00  0.2000E+00
     40.992 -0.1100E-09 -0.8851E-12  0.2000E+00  0.2000E+00
     41.167 -0.5409E-13 -0.1555E-15  0.2000E+00  0.2000E+00
     41.341 -0.5662E-17  0.0000E+00  0.2000E+00  0.2000E+00
     41.516  0.0000E+00  0.0000E+00  0.2000E+00  0.2000E+00
     41.691  0.0000E+00  0.0000E+00  0.2000E+00  0.2000E+00
     41.865  0.0000E+00  0.0000E+00  0.2000E+00  0.2000E+00
     42.040  0.0000E+00  0.0000E+00  0.2000E+00  0.2000E+00
     42.214  0.0000E+00  0.0000E+00  0.2000E+00  0.2000E+00
     42.389  0.0000E+00  0.0000E+00  0.2000E+00  0.2000E+00
     42.564  0.0000E+00  0.0000E+00  0.2000E+00  0.2000E+00
     42.738  0.0000E+00  0.0000E+00  0.2000E+00  0.2000E+00
     42.913  0.0000E+00  0.0000E+00  0.2000E+00  0.2000E+00
     43.088  0.0000E+00 -0.2413E-35  0.2000E+00  0.2000E+00
     43.262  0.0000E+00 -0.3563E-29  0.2000E+00  0.2000E+00
     43.437 -0.4734E-32 -0.1130E-23  0.2000E+00  0.2000E+00
     43.612 -0.3142E-26 -0.7675E-19  0.2000E+00  0.2000E+00
     43.786 -0.4472E-21 -0.1069E-14  0.2000E+00  0.2000E+00
     43.961 -0.1316E-16 -0.3210E-11  0.2000E+00  0.2000E+00
     44.136 -0.8376E-13 -0.1978E-08  0.2000E+00  0.2000E+00
     44.310 -0.1108E-09 -0.2365E-06  0.2000E+00  0.2000E+00
     44.485 -0.2942E-07 -0.4457E-05  0.2000E+00  0.2000E+00
     44.660 -0.1416E-05  0.8613E-05  0.2000E+00  0.2000E+00
     44.834 -0.6443E-05  0.1270E-03  0.2000E+00  0.2000E+00
     45.009  0.6284E-04  0.9773E-04  0.2000E+00  0.2000E+00
     45.184  0.1462E-03 -0.2156E-05  0.2000E+00  0.2000E+00
     45.358  0.2942E-04 -0.2740E-05  0.2000E+00  0.2000E+00
     45.533 -0.6260E-05 -0.9062E-07  0.2000E+00  0.2000E+00
     45.707 -0.5909E-06 -0.5132E-09  0.2000E+00  0.2000E+00
     45.882 -0.7554E-08 -0.5748E-12  0.2000E+00  0.2000E+00
     46.057 -0.1826E-10 -0.1330E-15  0.2000E+00  0.2000E+00
     46.231 -0.8973E-14  0.0000E+00  0.2000E+00  0.2000E+00
     46.406 -0.9436E-18  0.0000E+00  0.2000E+00  0.2000E+00
     46.581  0.0000E+00  0.0000E+00  0.2000E+00  0.2000E+00
     46.755  0.0000E+00  0.0000E+00  0.2000E+00  0.2000E+00
     46.930  0.0000E+00  0.0000E+00  0.2000E+00  0.2000E+00
     47.105  0.0000E+00  0.0000E+00  0.2000E+00  0.2000E+00
     47.279  0.0000E+00  0.0000E+00  0.2000E+00  0.2000E+00
     47.454  0.0000E+00  0.0000E+00  0.2000E+00  0.2000E+00
     47.45400930     -4.94134065  301      5.91350069      1.00000000
     -4.941  0.0000E+00  0.0000E+00  0.0000E+00  0.0000E+00  0.0000E+00  0.0000E+00  0.0000E+00  0.0000E+00  0.0000E+00  0.0000E+00  0.0000E+00  0.0000E+00  0.0000E+00  0.0000E+00  0.0000E+00  0.0000E+00  0.0000E+00  0.0000E+00
     -4.767  0.0000E+00  0.0000E+00  0.0000E+00  0.0000E+00  0.0000E+00  0.0000E+00  0.0000E+00  0.0000E+00  0.0000E+00  0.0000E+00  0.0000E+00  0.0000E+00  0.0000E+00  0.0000E+00  0.0000E+00  0.0000E+00  0.0000E+00  0.0000E+00
     -4.592  0.0000E+00  0.0000E+00  0.0000E+00  0.0000E+00  0.0000E+00  0.0000E+00  0.0000E+00  0.0000E+00  0.0000E+00  0.0000E+00  0.0000E+00  0.0000E+00  0.0000E+00  0.0000E+00  0.0000E+00  0.0000E+00  0.0000E+00  0.0000E+00
     -4.417  0.0000E+00  0.0000E+00  0.0000E+00  0.0000E+00  0.0000E+00  0.0000E+00  0.0000E+00  0.0000E+00  0.0000E+00  0.0000E+00  0.0000E+00  0.0000E+00  0.0000E+00  0.0000E+00  0.0000E+00  0.0000E+00  0.0000E+00  0.0000E+00
     -4.243 -0.1729E-32  0.0000E+00 -0.1079E-62  0.0000E+00 -0.1079E-62  0.0000E+00 -0.1079E-62  0.0000E+00 -0.1035E-45  0.0000E+00 -0.1035E-45  0.0000E+00 -0.2351E-48  0.0000E+00 -0.1035E-45  0.0000E+00 -0.2351E-48  0.0000E+00
     -4.068 -0.1745E-26 -0.4763E-31 -0.1089E-56 -0.2658E-61 -0.1089E-56 -0.2658E-61 -0.1089E-56 -0.2658E-61 -0.1044E-39 -0.2981E-44 -0.1044E-39 -0.2981E-44 -0.2373E-42 -0.6597E-44 -0.1044E-39 -0.2981E-44 -0.2373E-42 -0.6597E-44
     -3.893 -0.3780E-21 -0.3375E-25 -0.8791E-33  0.0000E+00 -0.8791E-33  0.0000E+00 -0.8791E-33  0.0000E+00 -0.2263E-34 -0.2113E-38 -0.2263E-34 -0.2113E-38 -0.3596E-34 -0.4675E-38 -0.2263E-34 -0.2113E-38 -0.3596E-34 -0.4675E-38
     -3.719 -0.1706E-16 -0.5131E-20 -0.7106E-27 -0.1996E-31 -0.7106E-27 -0.1996E-31 -0.7106E-27 -0.1996E-31 -0.1021E-29 -0.3212E-33 -0.1021E-29 -0.3212E-33 -0.2903E-28 -0.1276E-32 -0.1021E-29 -0.3212E-33 -0.2903E-28 -0.1276E-32
     -3.544 -0.1656E-12 -0.1613E-15 -0.1232E-21 -0.1151E-25 -0.1232E-21 -0.1151E-25 -0.1232E-21 -0.1151E-25 -0.9912E-26 -0.1010E-28 -0.9912E-26 -0.1010E-28 -0.5034E-23 -0.3481E-27 -0.9912E-26 -0.1010E-28 -0.5034E-23 -0.3481E-27
     -3.369 -0.3370E-09 -0.1098E-11 -0.4424E-17 -0.1423E-20 -0.4424E-17 -0.1423E-20 -0.4424E-17 -0.1423E-20 -0.2017E-22 -0.6872E-25 -0.2017E-22 -0.6872E-25 -0.1807E-18 -0.4043E-22 -0.2017E-22 -0.6872E-25 -0.1807E-18 -0.4043E-22
     -3.195 -0.1394E-06 -0.1554E-08 -0.3444E-13 -0.3634E-16 -0.3444E-13 -0.3634E-16 -0.3444E-13 -0.3634E-16 -0.8612E-20 -0.9727E-22 -0.8612E-20 -0.9727E-22 -0.1407E-14 -0.1029E-17 -0.8612E-20 -0.9727E-22 -0.1407E-14 -0.1029E-17
     -3.020 -0.1091E-04 -0.4424E-06 -0.5580E-10 -0.2005E-12 -0.5580E-10 -0.2005E-12 -0.5580E-10 -0.2005E-12 -0.7685E-17 -0.2930E-19 -0.7685E-17 -0.2930E-19 -0.2279E-11 -0.5676E-14 -0.7685E-17 -0.2930E-19 -0.2279E-11 -0.5676E-14
     -2.846 -0.1172E-03 -0.2303E-04 -0.1827E-07 -0.2295E-09 -0.1827E-07 -0.2295E-09 -0.1827E-07 -0.2295E-09 -0.4012E-13 -0.3247E-16 -0.4012E-13 -0.3247E-16 -0.7461E-09 -0.6497E-11 -0.4012E-13 -0.3247E-16 -0.7461E-09 -0.6497E-11
     -2.671  0.4403E-03 -0.1277E-03 -0.1109E-05 -0.5247E-07 -0.1109E-05 -0.5247E-07 -0.1109E-05 -0.5247E-07 -0.4746E-10 -0.1295E-12 -0.4746E-10 -0.1295E-12 -0.4527E-07 -0.1485E-08 -0.4746E-10 -0.1295E-12 -0.4527E-07 -0.1485E-08
     -2.496  0.1963E-02  0.8560E-03 -0.8028E-05 -0.2138E-05 -0.8028E-05 -0.2138E-05 -0.8028E-05 -0.2138E-05 -0.1123E-07 -0.1115E-09 -0.1123E-07 -0.1115E-09 -0.3250E-06 -0.6048E-07 -0.1123E-07 -0.1115E-09 -0.3250E-06 -0.6048E-07
     -2.322  0.5731E-02  0.2111E-02  0.4557E-04 -0.6890E-05  0.4557E-04 -0.6890E-05  0.4557E-04 -0.6890E-05 -0.4754E-06 -0.1895E-07 -0.4754E-06 -0.1895E-07  0.1984E-05 -0.1896E-06 -0.4754E-06 -0.1895E-07  0.1984E-05 -0.1896E-06
     -2.147  0.1465E-01  0.8131E-02  0.1464E-03  0.7495E-04  0.1464E-03  0.7495E-04  0.1464E-03  0.7495E-04 -0.1649E-05 -0.5489E-06 -0.1649E-05 -0.5489E-06  0.6411E-05  0.2277E-05 -0.1649E-05 -0.5489E-06  0.6411E-05  0.2277E-05
     -1.972  0.1934E-01  0.1466E-01  0.3611E-03  0.1566E-03  0.3611E-03  0.1566E-03  0.3611E-03  0.1566E-03  0.1838E-04 -0.3551E-06  0.1838E-04 -0.3551E-06  0.1018E-04  0.4538E-05  0.1838E-04 -0.3551E-06  0.1018E-04  0.4538E-05
     -1.798  0.2878E-01  0.2251E-01  0.6252E-03  0.4584E-03  0.6252E-03  0.4584E-03  0.6252E-03  0.4584E-03  0.3905E-04  0.1758E-04  0.3905E-04  0.1758E-04  0.1524E-04  0.8108E-05  0.3905E-04  0.1758E-04  0.1524E-04  0.8108E-05
     -1.623  0.1824E-01  0.2636E-01  0.5348E-03  0.5910E-03  0.5348E-03  0.5910E-03  0.5348E-03  0.5910E-03  0.5813E-04  0.2671E-04  0.5813E-04  0.2671E-04 -0.2264E-05  0.8659E-05  0.5813E-04  0.2671E-04 -0.2264E-05  0.8659E-05
     -1.448  0.1592E-01  0.1790E-01  0.5375E-03  0.5635E-03  0.5375E-03  0.5635E-03  0.5375E-03  0.5635E-03  0.5338E-04  0.4525E-04  0.5338E-04  0.4525E-04  0.9308E-05 -0.3103E-05  0.5338E-04  0.4525E-04  0.9308E-05 -0.3103E-05
     -1.274  0.1135E-01  0.1424E-01  0.4846E-03  0.4987E-03  0.4846E-03  0.4987E-03  0.4846E-03  0.4987E-03 -0.1642E-04  0.2961E-04 -0.1642E-04  0.2961E-04  0.9805E-04  0.1276E-04 -0.1642E-04  0.2961E-04  0.9805E-04  0.1276E-04
     -1.099  0.2892E-01  0.1146E-01  0.1511E-02  0.5041E-03  0.1511E-02  0.5041E-03  0.1511E-02  0.5041E-03  0.1484E-03 -0.1187E-04  0.1484E-03 -0.1187E-04  0.2644E-03  0.7050E-04  0.1484E-03 -0.1187E-04  0.2644E-03  0.7050E-04
     -0.924  0.5499E-01  0.3078E-01  0.3040E-02  0.1655E-02  0.3040E-02  0.1655E-02  0.3040E-02  0.1655E-02  0.4208E-03  0.1102E-03  0.4208E-03  0.1102E-03  0.4827E-03  0.1745E-03  0.4208E-03  0.1102E-03  0.4827E-03  0.1745E-03
     -0.750  0.5238E-01  0.5417E-01  0.3332E-02  0.3061E-02  0.3332E-02  0.3061E-02  0.3332E-02  0.3061E-02  0.6897E-03  0.2651E-03  0.6897E-03  0.2651E-03  0.3740E-03  0.2933E-03  0.6897E-03  0.2651E-03  0.3740E-03  0.2933E-03
     -0.575  0.3596E-01  0.5102E-01  0.2380E-02  0.3350E-02  0.2380E-02  0.3350E-02  0.2380E-02  0.3350E-02  0.5168E-03  0.4469E-03  0.5168E-03  0.4469E-03  0.2207E-03  0.2187E-03  0.5168E-03  0.4469E-03  0.2207E-03  0.2187E-03
     -0.400  0.4166E-02  0.3610E-01  0.3227E-03  0.2454E-02  0.3227E-03  0.2454E-02  0.3227E-03  0.2454E-02  0.1784E-03  0.3467E-03  0.1784E-03  0.3467E-03  0.9081E-04  0.1385E-03  0.1784E-03  0.3467E-03  0.9081E-04  0.1385E-03
     -0.226  0.1984E-01  0.4772E-03  0.1569E-02  0.3793E-04  0.1569E-02  0.3793E-04  0.1569E-02  0.3793E-04  0.9201E-03  0.1165E-04  0.9201E-03  0.1165E-04  0.4448E-03  0.4806E-05  0.9201E-03  0.1165E-04  0.4448E-03  0.4806E-05
     -0.051  0.3729E-01  0.1579E-01  0.3463E-02  0.1341E-02  0.3463E-02  0.1341E-02  0.3463E-02  0.1341E-02  0.1665E-02  0.4149E-03  0.1665E-02  0.4149E-03  0.7746E-03  0.1848E-03  0.1665E-02  0.4149E-03  0.7746E-03  0.1848E-03
      0.124  0.6448E-01  0.3007E-01  0.6625E-02  0.2788E-02  0.6625E-02  0.2788E-02  0.6625E-02  0.2788E-02  0.2489E-02  0.7923E-03  0.2489E-02  0.7923E-03  0.2338E-02  0.3195E-03  0.2489E-02  0.7923E-03  0.2338E-02  0.3195E-03
      0.298  0.5469E-01  0.5807E-01  0.6331E-02  0.6024E-02  0.6331E-02  0.6024E-02  0.6331E-02  0.6024E-02  0.1674E-02  0.1471E-02  0.1674E-02  0.1471E-02  0.3865E-02  0.7935E-03  0.1674E-02  0.1471E-02  0.3865E-02  0.7935E-03
      0.473  0.5086E-01  0.5256E-01  0.6265E-02  0.5978E-02  0.6265E-02  0.5978E-02  0.6265E-02  0.5978E-02  0.2873E-02  0.9942E-03  0.2873E-02  0.9942E-03  0.4192E-02  0.1652E-02  0.2873E-02  0.9942E-03  0.4192E-02  0.1652E-02
      0.647  0.5026E-01  0.4775E-01  0.5988E-02  0.5979E-02  0.5988E-02  0.5979E-02  0.5988E-02  0.5979E-02  0.6028E-02  0.9595E-03  0.6028E-02  0.9595E-03  0.4935E-02  0.2098E-02  0.6028E-02  0.9595E-03  0.4935E-02  0.2098E-02
      0.822  0.6686E-01  0.4179E-01  0.8300E-02  0.5514E-02  0.8300E-02  0.5514E-02  0.8300E-02  0.5514E-02  0.1316E-01  0.1210E-02  0.1316E-01  0.1210E-02  0.7129E-02  0.1655E-02  0.1316E-01  0.1210E-02  0.7129E-02  0.1655E-02
      0.997  0.7859E-01  0.3093E-01  0.8758E-02  0.4217E-02  0.8758E-02  0.4217E-02  0.8758E-02  0.4217E-02  0.2630E-01  0.1931E-02  0.2630E-01  0.1931E-02  0.1906E-01  0.1097E-02  0.2630E-01  0.1931E-02  0.1906E-01  0.1097E-02
      1.171  0.5610E-01  0.4902E-01  0.5153E-02  0.6690E-02  0.5153E-02  0.6690E-02  0.5153E-02  0.6690E-02  0.4148E-01  0.4316E-02  0.4148E-01  0.4316E-02  0.5861E-01  0.2450E-02  0.4148E-01  0.4316E-02  0.5861E-01  0.2450E-02
      1.346  0.9660E-01  0.6829E-01  0.1455E-01  0.1028E-01  0.1455E-01  0.1028E-01  0.1455E-01  0.1028E-01  0.6250E-01  0.7101E-02  0.6250E-01  0.7101E-02  0.1275E+00  0.3638E-02  0.6250E-01  0.7101E-02  0.1275E+00  0.3638E-02
      1.521  0.1130E+00  0.4922E-01  0.2153E-01  0.7568E-02  0.2153E-01  0.7568E-02  0.2153E-01  0.7568E-02  0.5986E-01  0.5239E-02  0.5986E-01  0.5239E-02  0.1470E+00  0.2402E-02  0.5986E-01  0.5239E-02  0.1470E+00  0.2402E-02
      1.695  0.6309E-01  0.6053E-02  0.1711E-01  0.5789E-03  0.1711E-01  0.5789E-03  0.1711E-01  0.5789E-03  0.5021E-01  0.1824E-02  0.5021E-01  0.1824E-02  0.2017E+00  0.1321E-02  0.5021E-01  0.1824E-02  0.2017E+00  0.1321E-02
      1.870  0.6650E-01  0.3238E-01  0.2332E-01  0.6063E-02  0.2332E-01  0.6063E-02  0.2332E-01  0.6063E-02  0.9826E-01  0.5270E-02  0.9826E-01  0.5270E-02  0.2571E+00  0.6602E-02  0.9826E-01  0.5270E-02  0.2571E+00  0.6602E-02
      2.045  0.4048E-01  0.9600E-01  0.1245E-01  0.1985E-01  0.1245E-01  0.1985E-01  0.1245E-01  0.1985E-01  0.6717E-01  0.1671E-01  0.6717E-01  0.1671E-01  0.1019E+00  0.1620E-01  0.6717E-01  0.1671E-01  0.1019E+00  0.1620E-01
      2.219  0.8956E-02  0.9977E-01  0.6346E-02  0.1845E-01  0.6346E-02  0.1845E-01  0.6346E-02  0.1845E-01  0.3816E-01  0.2732E-01  0.3816E-01  0.2732E-01  0.1006E+00  0.2578E-01  0.3816E-01  0.2732E-01  0.1006E+00  0.2578E-01
      2.394  0.7292E-02  0.7891E-01  0.1128E-01  0.1190E-01  0.1128E-01  0.1190E-01  0.1128E-01  0.1190E-01  0.7583E-01  0.4041E-01  0.7583E-01  0.4041E-01  0.1379E+00  0.3160E-01  0.7583E-01  0.4041E-01  0.1379E+00  0.3160E-01
      2.569  0.2107E-02  0.7540E-01  0.1691E-01  0.1108E-01  0.1691E-01  0.1108E-01  0.1691E-01  0.1108E-01  0.2476E+00  0.4782E-01  0.2476E+00  0.4782E-01  0.8132E-01  0.3159E-01  0.2476E+00  0.4782E-01  0.8132E-01  0.3159E-01
      2.743  0.7506E-02  0.3571E-01  0.2325E-01  0.6744E-02  0.2325E-01  0.6744E-02  0.2325E-01  0.6744E-02  0.3252E+00  0.2405E-01  0.3252E+00  0.2405E-01  0.1571E+00  0.1338E-01  0.3252E+00  0.2405E-01  0.1571E+00  0.1338E-01
      2.918  0.8203E-02  0.5010E-01  0.1721E-01  0.1356E-01  0.1721E-01  0.1356E-01  0.1721E-01  0.1356E-01  0.2568E+00  0.3586E-01  0.2568E+00  0.3586E-01  0.1599E+00  0.5011E-01  0.2568E+00  0.3586E-01  0.1599E+00  0.5011E-01
      3.093  0.6911E-02  0.7243E-01  0.1694E-01  0.2440E-01  0.1694E-01  0.2440E-01  0.1694E-01  0.2440E-01  0.2103E+00  0.6313E-01  0.2103E+00  0.6313E-01  0.6797E-01  0.1303E+00  0.2103E+00  0.6313E-01  0.6797E-01  0.1303E+00
      3.267  0.1817E-01  0.5275E-01  0.3195E-01  0.2179E-01  0.3195E-01  0.2179E-01  0.3195E-01  0.2179E-01  0.2633E+00  0.5036E-01  0.2633E+00  0.5036E-01  0.1023E+00  0.1489E+00  0.2633E+00  0.5036E-01  0.1023E+00  0.1489E+00
      3.442  0.2189E-01  0.2139E-01  0.3441E-01  0.1202E-01  0.3441E-01  0.1202E-01  0.3441E-01  0.1202E-01  0.3297E+00  0.3189E-01  0.3297E+00  0.3189E-01  0.1510E+00  0.1168E+00  0.3297E+00  0.3189E-01  0.1510E+00  0.1168E+00
      3.617  0.1499E-01  0.2256E-01  0.2959E-01  0.1378E-01  0.2959E-01  0.1378E-01  0.2959E-01  0.1378E-01  0.2594E+00  0.5581E-01  0.2594E+00  0.5581E-01  0.1179E+00  0.1240E+00  0.2594E+00  0.5581E-01  0.1179E+00  0.1240E+00
      3.791  0.4101E-02  0.1193E-01  0.9998E-02  0.8218E-02  0.9998E-02  0.8218E-02  0.9998E-02  0.8218E-02  0.1199E+00  0.3703E-01  0.1199E+00  0.3703E-01  0.4132E-01  0.4670E-01  0.1199E+00  0.3703E-01  0.4132E-01  0.4670E-01