 vasp.6.2.0 18Jan21 (build Aug 12 2022 13:00:08) complex                        
  
 executed on             LinuxIFC date 2024.11.04  05:08:43
 running on    4 total cores
 distrk:  each k-point on    4 cores,    1 groups
 distr:  one band on NCORE=   1 cores,    4 groups


--------------------------------------------------------------------------------------------------------


 INCAR:
   ISTART = 0            (Read existing wavefunction, if there)
   ISPIN = 2            (Non-Spin polarised DFT)
   MAGMOM = 5 5          (Set this parameters manually)
   GGA_COMPAT = .FALSE.   (Apply spherical cutoff on gradient field)
   VOSKOWN = 1        (Enhances the magnetic moments and the magnetic energies)
   LMAXMIX = 4        (For d elements increase LMAXMIX to 4, f: LMAXMIX \= 6)
   LREAL = .FALSE.       (Projection operators: automatic)
   ENCUT = 350          (Cut-off energy for plane wave basis set, in eV)
   LORBIT = 11           (Write orbital decomposed charge densities and magnetic moments)
   ADDGRID = .TRUE.        (Increase grid, helps GGA convergence)
   LASPH = .TRUE.        (Give more accurate total energies and band structure calculations)
   PREC = Accurate      (Accurate strictly avoids any aliasing or wrap around errors)
   KSPACING = 0.29
   ISMEAR = 1            (Gaussian smearing, metals:1)
   SIGMA = 0.2          (Smearing value in eV, metals:0.2)
   NELM = 90           (Max electronic SCF steps)
   NELMIN = 6            (Min electronic SCF steps)
   EDIFF = 1E-06        (SCF energy convergence, in eV)
   NSW = 100          (Max ionic steps)
   IBRION = 2            (Algorithm: 0-MD, 1-Quasi-New, 2-CG)
   ISIF = 3            (Stress/relaxation: 2-Ions, 3-Shape/Ions/V, 4-Shape/Ions)
   EDIFFG = -2E-03        (Ionic convergence, eV/AA)
   ISYM = 2              (Symmetry: 0\=none, 2\=GGA, 3\=hybrids)

 POTCAR:    PAW_PBE Fe 06Sep2000                  
 POTCAR:    PAW_PBE Fe 06Sep2000                  
   VRHFIN =Fe:  d7 s1                                                                               
   LEXCH  = PE                                                                                      
   EATOM  =   594.3153 eV,   43.6809 Ry                                                             
                                                                                                    
   TITEL  = PAW_PBE Fe 06Sep2000                                                                    
   LULTRA =        F    use ultrasoft PP ?                                                          
   IUNSCR =        1    unscreen: 0-lin 1-nonlin 2-no                                               
   RPACOR =    2.000    partial core radius                                                         
   POMASS =   55.847; ZVAL   =    8.000    mass and valenz                                          
   RCORE  =    2.300    outmost cutoff radius                                                       
   RWIGS  =    2.460; RWIGS  =    1.302    wigner-seitz radius (au A)                               
   ENMAX  =  267.882; ENMIN  =  200.911 eV                                                          
   RCLOC  =    1.701    cutoff for local pot                                                        
   LCOR   =        T    correct aug charges                                                         
   LPAW   =        T    paw PP                                                                      
   EAUG   =  511.368                                                                                
   DEXC   =    0.000                                                                                
   RMAX   =    2.356    core radius for proj-oper                                                   
   RAUG   =    1.300    factor for augmentation sphere                                              
   RDEP   =    2.442    radius for radial grids                                                     
   RDEPT  =    1.890    core radius for aug-charge                                                  
                                                                                                    
   Atomic configuration                                                                             
    9 entries                                                                                       
     n  l   j            E        occ.                                                              
     1  0  0.50     -6993.8440   2.0000                                                             
     2  0  0.50      -814.6047   2.0000                                                             
     2  1  1.50      -693.3689   6.0000                                                             
     3  0  0.50       -89.4732   2.0000                                                             
     3  1  1.50       -55.6373   6.0000                                                             
     3  2  2.50        -3.8151   7.0000                                                             
     4  0  0.50        -4.2551   1.0000                                                             
     4  1  1.50        -3.4015   0.0000                                                             
     4  3  2.50        -1.3606   0.0000                                                             
   Description                                                                                      
     l       E           TYP  RCUT    TYP  RCUT                                                     
     2     -3.8151135     23  2.300                                                                 
     2     -5.1756961     23  2.300                                                                 
     0     -4.2550963     23  2.300                                                                 
     0      7.2035603     23  2.300                                                                 
     1     -2.7211652     23  2.300                                                                 
     1     18.4316424     23  2.300                                                                 
  local pseudopotential read in
  partial core-charges read in
  partial kinetic energy density read in
  atomic valenz-charges read in
  non local Contribution for L=           2  read in
    real space projection operators read in
  non local Contribution for L=           2  read in
    real space projection operators read in
  non local Contribution for L=           0  read in
    real space projection operators read in
  non local Contribution for L=           0  read in
    real space projection operators read in
  non local Contribution for L=           1  read in
    real space projection operators read in
  non local Contribution for L=           1  read in
    real space projection operators read in
    PAW grid and wavefunctions read in
 
   number of l-projection  operators is LMAX  =           6
   number of lm-projection operators is LMMAX =          18
 
  PAW_PBE Fe 06Sep2000                  :
 energy of atom  1       EATOM= -594.3153
 kinetic energy error for atom=    0.0205 (will be added to EATOM!!)
 
 
 POSCAR: Fe2
  positions in direct lattice
  No initial velocities read in
 exchange correlation table for  LEXCH =        8
   RHO(1)=    0.500       N(1)  =     2000
   RHO(2)=  100.500       N(2)  =     4000
 


--------------------------------------------------------------------------------------------------------


 ion  position               nearest neighbor table
   1  0.000  0.000  0.000-   2 2.48   2 2.48   2 2.48   2 2.48   2 2.48   2 2.48   2 2.48   2 2.48

   2  0.500  0.500  0.500-   1 2.48   1 2.48   1 2.48   1 2.48   1 2.48   1 2.48   1 2.48   1 2.48

 
  LATTYP: Found a simple cubic cell.
 ALAT       =     2.8630354989
  
  Lattice vectors:
  
 A1 = (   2.8630354989,   0.0000000000,   0.0000000000)
 A2 = (   0.0000000000,   2.8630354989,   0.0000000000)
 A3 = (   0.0000000000,   0.0000000000,   2.8630354989)


Analysis of symmetry for initial positions (statically):
=====================================================================
 Subroutine PRICEL returns following result:
 
  LATTYP: Found a body centered cubic cell.
 ALAT       =     2.8630354989
  
  Lattice vectors:
  
 A1 = (   1.4315177495,   1.4315177495,  -1.4315177495)
 A2 = (  -1.4315177495,   1.4315177495,   1.4315177495)
 A3 = (   1.4315177495,  -1.4315177495,   1.4315177495)
 
   2 primitive cells build up your supercell.
 

 Routine SETGRP: Setting up the symmetry group for a 
 simple cubic supercell.


 Subroutine GETGRP returns: Found 48 space group operations
 (whereof 48 operations were pure point group operations)
 out of a pool of 48 trial point group operations.


The static configuration has the point symmetry O_h .


Analysis of symmetry for dynamics (positions and initial velocities):
=====================================================================
 Subroutine PRICEL returns following result:
 
  LATTYP: Found a body centered cubic cell.
 ALAT       =     2.8630354989
  
  Lattice vectors:
  
 A1 = (   1.4315177495,   1.4315177495,  -1.4315177495)
 A2 = (  -1.4315177495,   1.4315177495,   1.4315177495)
 A3 = (   1.4315177495,  -1.4315177495,   1.4315177495)
 
   2 primitive cells build up your supercell.
 

 Routine SETGRP: Setting up the symmetry group for a 
 simple cubic supercell.


 Subroutine GETGRP returns: Found 48 space group operations
 (whereof 48 operations were pure point group operations)
 out of a pool of 48 trial point group operations.


The dynamic configuration has the point symmetry O_h .


Analysis of structural, dynamic, and magnetic symmetry:
=====================================================================
 Subroutine PRICEL returns following result:
 
  LATTYP: Found a body centered cubic cell.
 ALAT       =     2.8630354989
  
  Lattice vectors:
  
 A1 = (   1.4315177495,   1.4315177495,  -1.4315177495)
 A2 = (  -1.4315177495,   1.4315177495,   1.4315177495)
 A3 = (   1.4315177495,  -1.4315177495,   1.4315177495)
 
   2 primitive cells build up your supercell.
 

 Routine SETGRP: Setting up the symmetry group for a 
 simple cubic supercell.


 Subroutine GETGRP returns: Found 48 space group operations
 (whereof 48 operations were pure point group operations)
 out of a pool of 48 trial point group operations.


The overall configuration has the point symmetry O_h .


 Subroutine INISYM returns: Found 48 space group operations
 (whereof 48 operations are pure point group operations),
 and found     2 'primitive' translations


----------------------------------------------------------------------------------------

                                     Primitive cell                                     

  volume of cell :      11.7341

  direct lattice vectors                    reciprocal lattice vectors
     1.431517749  1.431517749 -1.431517749     0.349279637  0.349279637  0.000000000
    -1.431517749  1.431517749  1.431517749     0.000000000  0.349279637  0.349279637
     1.431517749 -1.431517749  1.431517749     0.349279637 -0.000000000  0.349279637

  length of vectors
     2.479461474  2.479461474  2.479461474     0.493956000  0.493956000  0.493956000

  position of ions in fractional coordinates (direct lattice)
     0.000000000  0.000000000  0.000000000

  ion indices of the primitive-cell ions
   primitive index   ion index
                 1           1

----------------------------------------------------------------------------------------

 
 -----------------------------------------------------------------------------
|                                                                             |
|           W    W    AA    RRRRR   N    N  II  N    N   GGGG   !!!           |
|           W    W   A  A   R    R  NN   N  II  NN   N  G    G  !!!           |
|           W    W  A    A  R    R  N N  N  II  N N  N  G       !!!           |
|           W WW W  AAAAAA  RRRRR   N  N N  II  N  N N  G  GGG   !            |
|           WW  WW  A    A  R   R   N   NN  II  N   NN  G    G                |
|           W    W  A    A  R    R  N    N  II  N    N   GGGG   !!!           |
|                                                                             |
|     The requested file  could not be found or opened for reading            |
|     k-point information. Automatic k-point generation is used as a          |
|     fallback, which may lead to unwanted results.                           |
|                                                                             |
 -----------------------------------------------------------------------------

 

Automatic generation of k-mesh.
 Grid dimensions derived from KSPACING:
 generate k-points for:    8    8    8

 Generating k-lattice:

  Cartesian coordinates                     Fractional coordinates (reciprocal lattice)
     0.043659955 -0.000000000  0.000000000     0.125000000  0.000000000  0.000000000
     0.000000000  0.043659955  0.000000000     0.000000000  0.125000000  0.000000000
    -0.000000000 -0.000000000  0.043659955    -0.000000000  0.000000000  0.125000000

  Length of vectors
     0.043659955  0.043659955  0.043659955

  Shift w.r.t. Gamma in fractional coordinates (k-lattice)
     0.000000000  0.000000000  0.000000000

 
 Subroutine IBZKPT returns following result:
 ===========================================
 
 Found     35 irreducible k-points:
 
 Following reciprocal coordinates:
            Coordinates               Weight
  0.000000  0.000000  0.000000      1.000000
  0.125000  0.000000  0.000000      6.000000
  0.250000  0.000000  0.000000      6.000000
  0.375000  0.000000  0.000000      6.000000
  0.500000  0.000000  0.000000      3.000000
  0.125000  0.125000  0.000000     12.000000
  0.250000  0.125000  0.000000     24.000000
  0.375000  0.125000  0.000000     24.000000
  0.500000  0.125000  0.000000     12.000000
  0.250000  0.250000  0.000000     12.000000
  0.375000  0.250000  0.000000     24.000000
  0.500000  0.250000  0.000000     12.000000
  0.375000  0.375000  0.000000     12.000000
  0.500000  0.375000  0.000000     12.000000
  0.500000  0.500000  0.000000      3.000000
  0.125000  0.125000  0.125000      8.000000
  0.250000  0.125000  0.125000     24.000000
  0.375000  0.125000  0.125000     24.000000
  0.500000  0.125000  0.125000     12.000000
  0.250000  0.250000  0.125000     24.000000
  0.375000  0.250000  0.125000     48.000000
  0.500000  0.250000  0.125000     24.000000
  0.375000  0.375000  0.125000     24.000000
  0.500000  0.375000  0.125000     24.000000
  0.500000  0.500000  0.125000      6.000000
  0.250000  0.250000  0.250000      8.000000
  0.375000  0.250000  0.250000     24.000000
  0.500000  0.250000  0.250000     12.000000
  0.375000  0.375000  0.250000     24.000000
  0.500000  0.375000  0.250000     24.000000
  0.500000  0.500000  0.250000      6.000000
  0.375000  0.375000  0.375000      8.000000
  0.500000  0.375000  0.375000     12.000000
  0.500000  0.500000  0.375000      6.000000
  0.500000  0.500000  0.500000      1.000000
 
 Following cartesian coordinates:
            Coordinates               Weight
  0.000000  0.000000  0.000000      1.000000
  0.043660 -0.000000  0.000000      6.000000
  0.087320 -0.000000  0.000000      6.000000
  0.130980 -0.000000  0.000000      6.000000
  0.174640 -0.000000  0.000000      3.000000
  0.043660  0.043660  0.000000     12.000000
  0.087320  0.043660  0.000000     24.000000
  0.130980  0.043660  0.000000     24.000000
  0.174640  0.043660  0.000000     12.000000
  0.087320  0.087320  0.000000     12.000000
  0.130980  0.087320  0.000000     24.000000
  0.174640  0.087320  0.000000     12.000000
  0.130980  0.130980  0.000000     12.000000
  0.174640  0.130980  0.000000     12.000000
  0.174640  0.174640  0.000000      3.000000
  0.043660  0.043660  0.043660      8.000000
  0.087320  0.043660  0.043660     24.000000
  0.130980  0.043660  0.043660     24.000000
  0.174640  0.043660  0.043660     12.000000
  0.087320  0.087320  0.043660     24.000000
  0.130980  0.087320  0.043660     48.000000
  0.174640  0.087320  0.043660     24.000000
  0.130980  0.130980  0.043660     24.000000
  0.174640  0.130980  0.043660     24.000000
  0.174640  0.174640  0.043660      6.000000
  0.087320  0.087320  0.087320      8.000000
  0.130980  0.087320  0.087320     24.000000
  0.174640  0.087320  0.087320     12.000000
  0.130980  0.130980  0.087320     24.000000
  0.174640  0.130980  0.087320     24.000000
  0.174640  0.174640  0.087320      6.000000
  0.130980  0.130980  0.130980      8.000000
  0.174640  0.130980  0.130980     12.000000
  0.174640  0.174640  0.130980      6.000000
  0.174640  0.174640  0.174640      1.000000
 


--------------------------------------------------------------------------------------------------------




 Dimension of arrays:
   k-points           NKPTS =     35   k-points in BZ     NKDIM =     35   number of bands    NBANDS=     20
   number of dos      NEDOS =    301   number of ions     NIONS =      2
   non local maximal  LDIM  =      6   non local SUM 2l+1 LMDIM =     18
   total plane-waves  NPLWV =   5832
   max r-space proj   IRMAX =      1   max aug-charges    IRDMAX=  71010
   dimension x,y,z NGX =    18 NGY =   18 NGZ =   18
   dimension x,y,z NGXF=    36 NGYF=   36 NGZF=   36
   support grid    NGXF=    72 NGYF=   72 NGZF=   72
   ions per type =               2
   NGX,Y,Z   is equivalent  to a cutoff of  10.45, 10.45, 10.45 a.u.
   NGXF,Y,Z  is equivalent  to a cutoff of  20.90, 20.90, 20.90 a.u.

 SYSTEM =  unknown system                          
 POSCAR =  Fe2                                     

 Startparameter for this run:
   NWRITE =      2    write-flag & timer
   PREC   = accura    normal or accurate (medium, high low for compatibility)
   ISTART =      0    job   : 0-new  1-cont  2-samecut
   ICHARG =      2    charge: 1-file 2-atom 10-const
   ISPIN  =      2    spin polarized calculation?
   LNONCOLLINEAR =      F non collinear calculations
   LSORBIT =      F    spin-orbit coupling
   INIWAV =      1    electr: 0-lowe 1-rand  2-diag
   LASPH  =      T    aspherical Exc in radial PAW
   METAGGA=      F    non-selfconsistent MetaGGA calc.

 Electronic Relaxation 1
   ENCUT  =  350.0 eV  25.72 Ry    5.07 a.u.   4.37  4.37  4.37*2*pi/ulx,y,z
   ENINI  =  350.0     initial cutoff
   ENAUG  =  511.4 eV  augmentation charge cutoff
   NELM   =     90;   NELMIN=  6; NELMDL= -5     # of ELM steps 
   EDIFF  = 0.1E-05   stopping-criterion for ELM
   LREAL  =      F    real-space projection
   NLSPLINE    = F    spline interpolate recip. space projectors
   LCOMPAT=      F    compatible to vasp.4.4
   GGA_COMPAT  = F    GGA compatible to vasp.4.4-vasp.4.6
   LMAXPAW     = -100 max onsite density
   LMAXMIX     =    4 max onsite mixed and CHGCAR
   VOSKOWN=      1    Vosko Wilk Nusair interpolation
   ROPT   =    0.00000
 Ionic relaxation
   EDIFFG = -.2E-02   stopping-criterion for IOM
   NSW    =    100    number of steps for IOM
   NBLOCK =      1;   KBLOCK =    100    inner block; outer block 
   IBRION =      2    ionic relax: 0-MD 1-quasi-New 2-CG
   NFREE  =      1    steps in history (QN), initial steepest desc. (CG)
   ISIF   =      3    stress and relaxation
   IWAVPR =     11    prediction:  0-non 1-charg 2-wave 3-comb
   ISYM   =      2    0-nonsym 1-usesym 2-fastsym
   LCORR  =      T    Harris-Foulkes like correction to forces

   POTIM  = 0.5000    time-step for ionic-motion
   TEIN   =    0.0    initial temperature
   TEBEG  =    0.0;   TEEND  =   0.0 temperature during run
   SMASS  =  -3.00    Nose mass-parameter (am)
   estimated Nose-frequenzy (Omega)   =  0.10E-29 period in steps = 0.13E+47 mass=  -0.187E-27a.u.
   SCALEE = 1.0000    scale energy and forces
   NPACO  =    256;   APACO  = 16.0  distance and # of slots for P.C.
   PSTRESS=    0.0 pullay stress

  Mass of Ions in am
   POMASS =  55.85
  Ionic Valenz
   ZVAL   =   8.00
  Atomic Wigner-Seitz radii
   RWIGS  =  -1.00
  virtual crystal weights 
   VCA    =   1.00
   NELECT =      16.0000    total number of electrons
   NUPDOWN=      -1.0000    fix difference up-down

 DOS related values:
   EMIN   =  10.00;   EMAX   =-10.00  energy-range for DOS
   EFERMI =   0.00
   ISMEAR =     1;   SIGMA  =   0.20  broadening in eV -4-tet -1-fermi 0-gaus

 Electronic relaxation 2 (details)
   IALGO  =     38    algorithm
   LDIAG  =      T    sub-space diagonalisation (order eigenvalues)
   LSUBROT=      F    optimize rotation matrix (better conditioning)
   TURBO    =      0    0=normal 1=particle mesh
   IRESTART =      0    0=no restart 2=restart with 2 vectors
   NREBOOT  =      0    no. of reboots
   NMIN     =      0    reboot dimension
   EREF     =   0.00    reference energy to select bands
   IMIX   =      4    mixing-type and parameters
     AMIX     =   0.40;   BMIX     =  1.00
     AMIX_MAG =   1.60;   BMIX_MAG =  1.00
     AMIN     =   0.10
     WC   =   100.;   INIMIX=   1;  MIXPRE=   1;  MAXMIX= -45

 Intra band minimization:
   WEIMIN = 0.0010     energy-eigenvalue tresh-hold
   EBREAK =  0.12E-07  absolut break condition
   DEPER  =   0.30     relativ break condition  

   TIME   =   0.40     timestep for ELM

  volume/ion in A,a.u.               =      11.73        79.19
  Fermi-wavevector in a.u.,A,eV,Ry     =   1.440859  2.722828 28.246703  2.076074
  Thomas-Fermi vector in A             =   2.559556
 
 Write flags
   LWAVE        =      T    write WAVECAR
   LDOWNSAMPLE  =      F    k-point downsampling of WAVECAR
   LCHARG       =      T    write CHGCAR
   LVTOT        =      F    write LOCPOT, total local potential
   LVHAR        =      F    write LOCPOT, Hartree potential only
   LELF         =      F    write electronic localiz. function (ELF)
   LORBIT       =     11    0 simple, 1 ext, 2 COOP (PROOUT), +10 PAW based schemes


 Dipole corrections
   LMONO  =      F    monopole corrections only (constant potential shift)
   LDIPOL =      F    correct potential (dipole corrections)
   IDIPOL =      0    1-x, 2-y, 3-z, 4-all directions 
   EPSILON=  1.0000000 bulk dielectric constant

 Exchange correlation treatment:
   GGA     =    --    GGA type
   LEXCH   =     8    internal setting for exchange type
   VOSKOWN=      1    Vosko Wilk Nusair interpolation
   LHFCALC =     F    Hartree Fock is set to
   LHFONE  =     F    Hartree Fock one center treatment
   AEXX    =    0.0000 exact exchange contribution

 Linear response parameters
   LEPSILON=     F    determine dielectric tensor
   LRPA    =     F    only Hartree local field effects (RPA)
   LNABLA  =     F    use nabla operator in PAW spheres
   LVEL    =     F    velocity operator in full k-point grid
   LINTERFAST=   F  fast interpolation
   KINTER  =     0    interpolate to denser k-point grid
   CSHIFT  =0.1000    complex shift for real part using Kramers Kronig
   OMEGAMAX=  -1.0    maximum frequency
   DEG_THRESHOLD= 0.2000000E-02 threshold for treating states as degnerate
   RTIME   =   -0.100 relaxation time in fs
  (WPLASMAI=    0.000 imaginary part of plasma frequency in eV, 0.658/RTIME)
   DFIELD  = 0.0000000 0.0000000 0.0000000 field for delta impulse in time
 
 Orbital magnetization related:
   ORBITALMAG=     F  switch on orbital magnetization
   LCHIMAG   =     F  perturbation theory with respect to B field
   DQ        =  0.001000  dq finite difference perturbation B field
   LLRAUG    =     F  two centre corrections for induced B field



--------------------------------------------------------------------------------------------------------


 conjugate gradient relaxation of ions
 charge density and potential will be updated during run
 spin polarized calculation
 Variant of blocked Davidson
 Davidson routine will perform the subspace rotation
 perform sub-space diagonalisation
    after iterative eigenvector-optimisation
 modified Broyden-mixing scheme, WC =      100.0
 initial mixing is a Kerker type mixing with AMIX =  0.4000 and BMIX =      1.0000
 Hartree-type preconditioning will be used
 using additional bands           12
 reciprocal scheme for non local part
 use partial core corrections
 calculate Harris-corrections to forces 
   (improved forces if not selfconsistent)
 use gradient corrections 
 use of overlap-Matrix (Vanderbilt PP)
 Methfessel and Paxton  Order N= 1 SIGMA  =   0.20


--------------------------------------------------------------------------------------------------------


  energy-cutoff  :      350.00
  volume of cell :       23.47
      direct lattice vectors                 reciprocal lattice vectors
     2.863035499  0.000000000  0.000000000     0.349279637 -0.000000000  0.000000000
     0.000000000  2.863035499  0.000000000     0.000000000  0.349279637  0.000000000
     0.000000000  0.000000000  2.863035499    -0.000000000 -0.000000000  0.349279637

  length of vectors
     2.863035499  2.863035499  2.863035499     0.349279637  0.349279637  0.349279637


 
 k-points in units of 2pi/SCALE and weight: read from INCAR                         
   0.00000000  0.00000000  0.00000000       0.002
   0.04365995 -0.00000000  0.00000000       0.012
   0.08731991 -0.00000000  0.00000000       0.012
   0.13097986 -0.00000000  0.00000000       0.012
   0.17463982 -0.00000000  0.00000000       0.006
   0.04365995  0.04365995  0.00000000       0.023
   0.08731991  0.04365995  0.00000000       0.047
   0.13097986  0.04365995  0.00000000       0.047
   0.17463982  0.04365995  0.00000000       0.023
   0.08731991  0.08731991  0.00000000       0.023
   0.13097986  0.08731991  0.00000000       0.047
   0.17463982  0.08731991  0.00000000       0.023
   0.13097986  0.13097986  0.00000000       0.023
   0.17463982  0.13097986  0.00000000       0.023
   0.17463982  0.17463982  0.00000000       0.006
   0.04365995  0.04365995  0.04365995       0.016
   0.08731991  0.04365995  0.04365995       0.047
   0.13097986  0.04365995  0.04365995       0.047
   0.17463982  0.04365995  0.04365995       0.023
   0.08731991  0.08731991  0.04365995       0.047
   0.13097986  0.08731991  0.04365995       0.094
   0.17463982  0.08731991  0.04365995       0.047
   0.13097986  0.13097986  0.04365995       0.047
   0.17463982  0.13097986  0.04365995       0.047
   0.17463982  0.17463982  0.04365995       0.012
   0.08731991  0.08731991  0.08731991       0.016
   0.13097986  0.08731991  0.08731991       0.047
   0.17463982  0.08731991  0.08731991       0.023
   0.13097986  0.13097986  0.08731991       0.047
   0.17463982  0.13097986  0.08731991       0.047
   0.17463982  0.17463982  0.08731991       0.012
   0.13097986  0.13097986  0.13097986       0.016
   0.17463982  0.13097986  0.13097986       0.023
   0.17463982  0.17463982  0.13097986       0.012
   0.17463982  0.17463982  0.17463982       0.002
 
 k-points in reciprocal lattice and weights: read from INCAR                         
   0.00000000  0.00000000  0.00000000       0.002
   0.12500000  0.00000000  0.00000000       0.012
   0.25000000  0.00000000  0.00000000       0.012
   0.37500000  0.00000000  0.00000000       0.012
   0.50000000  0.00000000  0.00000000       0.006
   0.12500000  0.12500000  0.00000000       0.023
   0.25000000  0.12500000  0.00000000       0.047
   0.37500000  0.12500000  0.00000000       0.047
   0.50000000  0.12500000  0.00000000       0.023
   0.25000000  0.25000000  0.00000000       0.023
   0.37500000  0.25000000  0.00000000       0.047
   0.50000000  0.25000000  0.00000000       0.023
   0.37500000  0.37500000  0.00000000       0.023
   0.50000000  0.37500000  0.00000000       0.023
   0.50000000  0.50000000  0.00000000       0.006
   0.12500000  0.12500000  0.12500000       0.016
   0.25000000  0.12500000  0.12500000       0.047
   0.37500000  0.12500000  0.12500000       0.047
   0.50000000  0.12500000  0.12500000       0.023
   0.25000000  0.25000000  0.12500000       0.047
   0.37500000  0.25000000  0.12500000       0.094
   0.50000000  0.25000000  0.12500000       0.047
   0.37500000  0.37500000  0.12500000       0.047
   0.50000000  0.37500000  0.12500000       0.047
   0.50000000  0.50000000  0.12500000       0.012
   0.25000000  0.25000000  0.25000000       0.016
   0.37500000  0.25000000  0.25000000       0.047
   0.50000000  0.25000000  0.25000000       0.023
   0.37500000  0.37500000  0.25000000       0.047
   0.50000000  0.37500000  0.25000000       0.047
   0.50000000  0.50000000  0.25000000       0.012
   0.37500000  0.37500000  0.37500000       0.016
   0.50000000  0.37500000  0.37500000       0.023
   0.50000000  0.50000000  0.37500000       0.012
   0.50000000  0.50000000  0.50000000       0.002
 
 position of ions in fractional coordinates (direct lattice) 
   0.00000000  0.00000000  0.00000000
   0.50000000  0.50000000  0.50000000
 
 position of ions in cartesian coordinates  (Angst):
   0.00000000  0.00000000  0.00000000
   1.43151775  1.43151775  1.43151775
 


--------------------------------------------------------------------------------------------------------


 k-point   1 :   0.0000 0.0000 0.0000  plane waves:     365
 k-point   2 :   0.1250 0.0000 0.0000  plane waves:     357
 k-point   3 :   0.2500 0.0000 0.0000  plane waves:     361
 k-point   4 :   0.3750 0.0000 0.0000  plane waves:     352
 k-point   5 :   0.5000 0.0000 0.0000  plane waves:     336
 k-point   6 :   0.1250 0.1250 0.0000  plane waves:     356
 k-point   7 :   0.2500 0.1250 0.0000  plane waves:     348
 k-point   8 :   0.3750 0.1250 0.0000  plane waves:     345
 k-point   9 :   0.5000 0.1250 0.0000  plane waves:     350
 k-point  10 :   0.2500 0.2500 0.0000  plane waves:     338
 k-point  11 :   0.3750 0.2500 0.0000  plane waves:     347
 k-point  12 :   0.5000 0.2500 0.0000  plane waves:     350
 k-point  13 :   0.3750 0.3750 0.0000  plane waves:     354
 k-point  14 :   0.5000 0.3750 0.0000  plane waves:     356
 k-point  15 :   0.5000 0.5000 0.0000  plane waves:     356
 k-point  16 :   0.1250 0.1250 0.1250  plane waves:     353
 k-point  17 :   0.2500 0.1250 0.1250  plane waves:     351
 k-point  18 :   0.3750 0.1250 0.1250  plane waves:     354
 k-point  19 :   0.5000 0.1250 0.1250  plane waves:     352
 k-point  20 :   0.2500 0.2500 0.1250  plane waves:     349
 k-point  21 :   0.3750 0.2500 0.1250  plane waves:     351
 k-point  22 :   0.5000 0.2500 0.1250  plane waves:     348
 k-point  23 :   0.3750 0.3750 0.1250  plane waves:     347
 k-point  24 :   0.5000 0.3750 0.1250  plane waves:     346
 k-point  25 :   0.5000 0.5000 0.1250  plane waves:     348
 k-point  26 :   0.2500 0.2500 0.2500  plane waves:     350
 k-point  27 :   0.3750 0.2500 0.2500  plane waves:     349
 k-point  28 :   0.5000 0.2500 0.2500  plane waves:     350
 k-point  29 :   0.3750 0.3750 0.2500  plane waves:     346
 k-point  30 :   0.5000 0.3750 0.2500  plane waves:     342
 k-point  31 :   0.5000 0.5000 0.2500  plane waves:     352
 k-point  32 :   0.3750 0.3750 0.3750  plane waves:     344
 k-point  33 :   0.5000 0.3750 0.3750  plane waves:     338
 k-point  34 :   0.5000 0.5000 0.3750  plane waves:     340
 k-point  35 :   0.5000 0.5000 0.5000  plane waves:     360

 maximum and minimum number of plane-waves per node :       365      336

 maximum number of plane-waves:       365
 maximum index in each direction: 
   IXMAX=    4   IYMAX=    4   IZMAX=    4
   IXMIN=   -4   IYMIN=   -4   IZMIN=   -4


 serial   3D FFT for wavefunctions
 parallel 3D FFT for charge:
    minimum data exchange during FFTs selected (reduces bandwidth)


 total amount of memory used by VASP MPI-rank0    37318. kBytes
=======================================================================

   base      :      30000. kBytes
   nonl-proj :       1866. kBytes
   fftplans  :       1775. kBytes
   grid      :       1353. kBytes
   one-center:         62. kBytes
   wavefun   :       2262. kBytes
 
     INWAV:  cpu time    0.0000: real time    0.0005
 Broyden mixing: mesh for mixing (old mesh)
   NGX =  9   NGY =  9   NGZ =  9
  (NGX  = 36   NGY  = 36   NGZ  = 36)
  gives a total of    729 points

 initial charge density was supplied:
 charge density of overlapping atoms calculated
 number of electron      16.0000000 magnetization      10.0000000
 keeping initial charge density in first step


--------------------------------------------------------------------------------------------------------


 Maximum index for augmentation-charges        17277 (set IRDMAX)


--------------------------------------------------------------------------------------------------------


 First call to EWALD:  gamma=   0.619
 Maximum number of real-space cells 3x 3x 3
 Maximum number of reciprocal cells 3x 3x 3

    FEWALD:  cpu time    0.0030: real time    0.0034


--------------------------------------- Iteration      1(   1)  ---------------------------------------


    POTLOK:  cpu time    0.0350: real time    0.0381
    SETDIJ:  cpu time    1.5608: real time    1.5612
     EDDAV:  cpu time    1.1048: real time    1.1060
       DOS:  cpu time    0.0030: real time    0.0037
    --------------------------------------------
      LOOP:  cpu time    2.7036: real time    2.7093

 eigenvalue-minimisations  :  3064
 total energy-change (2. order) : 0.6504662E+02  (-0.6065842E+03)
 number of electron      16.0000000 magnetization      10.0000000
 augmentation part       16.0000000 magnetization      10.0000000

 Free energy of the ion-electron system (eV)
  ---------------------------------------------------
  alpha Z        PSCENC =       117.79976220
  Ewald energy   TEWEN  =     -1171.43779597
  -Hartree energ DENC   =      -228.04061711
  -exchange      EXHF   =         0.00000000
  -V(xc)+E(xc)   XCENC  =        14.27160946
  PAW double counting   =      1103.49540010    -1119.11610375
  entropy T*S    EENTRO =        -0.00225979
  eigenvalues    EBANDS =       159.48697023
  atomic energy  EATOM  =      1188.58965621
  Solvation  Ediel_sol  =         0.00000000
  ---------------------------------------------------
  free energy    TOTEN  =        65.04662158 eV

  energy without entropy =       65.04888137  energy(sigma->0) =       65.04737484


--------------------------------------------------------------------------------------------------------




--------------------------------------- Iteration      1(   2)  ---------------------------------------


     EDDAV:  cpu time    1.3848: real time    1.4162
       DOS:  cpu time    0.0040: real time    0.0036
    --------------------------------------------
      LOOP:  cpu time    1.3888: real time    1.4199

 eigenvalue-minimisations  :  2864
 total energy-change (2. order) :-0.7828028E+02  (-0.6976016E+02)
 number of electron      16.0000000 magnetization      10.0000000
 augmentation part       16.0000000 magnetization      10.0000000

 Free energy of the ion-electron system (eV)
  ---------------------------------------------------
  alpha Z        PSCENC =       117.79976220
  Ewald energy   TEWEN  =     -1171.43779597
  -Hartree energ DENC   =      -228.04061711
  -exchange      EXHF   =         0.00000000
  -V(xc)+E(xc)   XCENC  =        14.27160946
  PAW double counting   =      1103.49540010    -1119.11610375
  entropy T*S    EENTRO =         0.00151631
  eigenvalues    EBANDS =        81.20291751
  atomic energy  EATOM  =      1188.58965621
  Solvation  Ediel_sol  =         0.00000000
  ---------------------------------------------------
  free energy    TOTEN  =       -13.23365504 eV

  energy without entropy =      -13.23517135  energy(sigma->0) =      -13.23416047


--------------------------------------------------------------------------------------------------------




--------------------------------------- Iteration      1(   3)  ---------------------------------------


     EDDAV:  cpu time    1.1218: real time    1.1398
       DOS:  cpu time    0.0030: real time    0.0035
    --------------------------------------------
      LOOP:  cpu time    1.1258: real time    1.1433

 eigenvalue-minimisations  :  3172
 total energy-change (2. order) :-0.2835352E+01  (-0.2780103E+01)
 number of electron      16.0000000 magnetization      10.0000000
 augmentation part       16.0000000 magnetization      10.0000000

 Free energy of the ion-electron system (eV)
  ---------------------------------------------------
  alpha Z        PSCENC =       117.79976220
  Ewald energy   TEWEN  =     -1171.43779597
  -Hartree energ DENC   =      -228.04061711
  -exchange      EXHF   =         0.00000000
  -V(xc)+E(xc)   XCENC  =        14.27160946
  PAW double counting   =      1103.49540010    -1119.11610375
  entropy T*S    EENTRO =         0.00253986
  eigenvalues    EBANDS =        78.36654225
  atomic energy  EATOM  =      1188.58965621
  Solvation  Ediel_sol  =         0.00000000
  ---------------------------------------------------
  free energy    TOTEN  =       -16.06900675 eV

  energy without entropy =      -16.07154661  energy(sigma->0) =      -16.06985337


--------------------------------------------------------------------------------------------------------




--------------------------------------- Iteration      1(   4)  ---------------------------------------


     EDDAV:  cpu time    1.0818: real time    1.0982
       DOS:  cpu time    0.0030: real time    0.0037
    --------------------------------------------
      LOOP:  cpu time    1.0848: real time    1.1018

 eigenvalue-minimisations  :  3012
 total energy-change (2. order) :-0.2128593E-01  (-0.2128118E-01)
 number of electron      16.0000000 magnetization      10.0000000
 augmentation part       16.0000000 magnetization      10.0000000

 Free energy of the ion-electron system (eV)
  ---------------------------------------------------
  alpha Z        PSCENC =       117.79976220
  Ewald energy   TEWEN  =     -1171.43779597
  -Hartree energ DENC   =      -228.04061711
  -exchange      EXHF   =         0.00000000
  -V(xc)+E(xc)   XCENC  =        14.27160946
  PAW double counting   =      1103.49540010    -1119.11610375
  entropy T*S    EENTRO =         0.00256108
  eigenvalues    EBANDS =        78.34523509
  atomic energy  EATOM  =      1188.58965621
  Solvation  Ediel_sol  =         0.00000000
  ---------------------------------------------------
  free energy    TOTEN  =       -16.09029269 eV

  energy without entropy =      -16.09285377  energy(sigma->0) =      -16.09114638


--------------------------------------------------------------------------------------------------------




--------------------------------------- Iteration      1(   5)  ---------------------------------------


     EDDAV:  cpu time    1.1178: real time    1.1355
       DOS:  cpu time    0.0040: real time    0.0036
    CHARGE:  cpu time    0.0960: real time    0.0966
    MIXING:  cpu time    0.0020: real time    0.0011
    --------------------------------------------
      LOOP:  cpu time    1.2188: real time    1.2369

 eigenvalue-minimisations  :  3156
 total energy-change (2. order) :-0.2599577E-03  (-0.2599557E-03)
 number of electron      16.0000001 magnetization       4.4016575
 augmentation part        7.3845619 magnetization       2.7317267

 Broyden mixing:
  rms(total) = 0.19515E+01    rms(broyden)= 0.19514E+01
  rms(prec ) = 0.35235E+01
  weight for this iteration     100.00

 Free energy of the ion-electron system (eV)
  ---------------------------------------------------
  alpha Z        PSCENC =       117.79976220
  Ewald energy   TEWEN  =     -1171.43779597
  -Hartree energ DENC   =      -228.04061711
  -exchange      EXHF   =         0.00000000
  -V(xc)+E(xc)   XCENC  =        14.27160946
  PAW double counting   =      1103.49540010    -1119.11610375
  entropy T*S    EENTRO =         0.00256111
  eigenvalues    EBANDS =        78.34497511
  atomic energy  EATOM  =      1188.58965621
  Solvation  Ediel_sol  =         0.00000000
  ---------------------------------------------------
  free energy    TOTEN  =       -16.09055264 eV

  energy without entropy =      -16.09311375  energy(sigma->0) =      -16.09140635


--------------------------------------------------------------------------------------------------------




--------------------------------------- Iteration      1(   6)  ---------------------------------------


    POTLOK:  cpu time    0.0370: real time    0.0510
    SETDIJ:  cpu time    1.5418: real time    1.5436
     EDDAV:  cpu time    1.0958: real time    1.0969
       DOS:  cpu time    0.0040: real time    0.0038
    CHARGE:  cpu time    0.0890: real time    0.0890
    MIXING:  cpu time    0.0010: real time    0.0012
    --------------------------------------------
      LOOP:  cpu time    2.7686: real time    2.7855

 eigenvalue-minimisations  :  3076
 total energy-change (2. order) :-0.4756355E+00  (-0.5117987E+00)
 number of electron      16.0000001 magnetization       4.6517639
 augmentation part        8.4896753 magnetization       3.8260489

 Broyden mixing:
  rms(total) = 0.61357E+00    rms(broyden)= 0.61281E+00
  rms(prec ) = 0.68841E+00
  weight for this iteration     100.00

 eigenvalues of (default mixing * dielectric matrix)
  average eigenvalue GAMMA=   0.8817
  0.8817

 Free energy of the ion-electron system (eV)
  ---------------------------------------------------
  alpha Z        PSCENC =       117.79976220
  Ewald energy   TEWEN  =     -1171.43779597
  -Hartree energ DENC   =      -197.06936910
  -exchange      EXHF   =         0.00000000
  -V(xc)+E(xc)   XCENC  =         8.26967756
  PAW double counting   =      1215.78187657    -1228.04603538
  entropy T*S    EENTRO =         0.00279713
  eigenvalues    EBANDS =        49.54324259
  atomic energy  EATOM  =      1188.58965621
  Solvation  Ediel_sol  =         0.00000000
  ---------------------------------------------------
  free energy    TOTEN  =       -16.56618818 eV

  energy without entropy =      -16.56898531  energy(sigma->0) =      -16.56712056


--------------------------------------------------------------------------------------------------------




--------------------------------------- Iteration      1(   7)  ---------------------------------------


    POTLOK:  cpu time    0.0350: real time    0.0961
    SETDIJ:  cpu time    1.5458: real time    1.5459
     EDDAV:  cpu time    1.1558: real time    1.1578
       DOS:  cpu time    0.0040: real time    0.0037
    CHARGE:  cpu time    0.0890: real time    0.0891
    MIXING:  cpu time    0.0000: real time    0.0011
    --------------------------------------------
      LOOP:  cpu time    2.8306: real time    2.8938

 eigenvalue-minimisations  :  3292
 total energy-change (2. order) : 0.6019289E-01  (-0.3619958E-01)
 number of electron      16.0000001 magnetization       4.5151767
 augmentation part        8.2578558 magnetization       3.7472071

 Broyden mixing:
  rms(total) = 0.43643E+00    rms(broyden)= 0.43633E+00
  rms(prec ) = 0.51776E+00
  weight for this iteration     100.00

 eigenvalues of (default mixing * dielectric matrix)
  average eigenvalue GAMMA=   0.7737
  1.0286  0.5188

 Free energy of the ion-electron system (eV)
  ---------------------------------------------------
  alpha Z        PSCENC =       117.79976220
  Ewald energy   TEWEN  =     -1171.43779597
  -Hartree energ DENC   =      -199.58508337
  -exchange      EXHF   =         0.00000000
  -V(xc)+E(xc)   XCENC  =         8.91258966
  PAW double counting   =      1293.25274454    -1308.56943442
  entropy T*S    EENTRO =         0.00001320
  eigenvalues    EBANDS =        54.53155266
  atomic energy  EATOM  =      1188.58965621
  Solvation  Ediel_sol  =         0.00000000
  ---------------------------------------------------
  free energy    TOTEN  =       -16.50599529 eV

  energy without entropy =      -16.50600849  energy(sigma->0) =      -16.50599969


--------------------------------------------------------------------------------------------------------




--------------------------------------- Iteration      1(   8)  ---------------------------------------


    POTLOK:  cpu time    0.0360: real time    0.0509
    SETDIJ:  cpu time    1.5398: real time    1.5408
     EDDAV:  cpu time    1.2678: real time    1.2694
       DOS:  cpu time    0.0040: real time    0.0038
    CHARGE:  cpu time    0.0900: real time    0.0900
    MIXING:  cpu time    0.0000: real time    0.0011
    --------------------------------------------
      LOOP:  cpu time    2.9376: real time    2.9560

 eigenvalue-minimisations  :  3636
 total energy-change (2. order) : 0.1696769E-01  (-0.9793670E-03)
 number of electron      16.0000001 magnetization       4.4459651
 augmentation part        8.2845721 magnetization       3.6794982

 Broyden mixing:
  rms(total) = 0.16307E+00    rms(broyden)= 0.16305E+00
  rms(prec ) = 0.23138E+00
  weight for this iteration     100.00

 eigenvalues of (default mixing * dielectric matrix)
  average eigenvalue GAMMA=   1.1192
  1.9027  0.8805  0.5742

 Free energy of the ion-electron system (eV)
  ---------------------------------------------------
  alpha Z        PSCENC =       117.79976220
  Ewald energy   TEWEN  =     -1171.43779597
  -Hartree energ DENC   =      -197.84685258
  -exchange      EXHF   =         0.00000000
  -V(xc)+E(xc)   XCENC  =         8.68103408
  PAW double counting   =      1332.19015288    -1348.35191509
  entropy T*S    EENTRO =        -0.00097458
  eigenvalues    EBANDS =        53.88790525
  atomic energy  EATOM  =      1188.58965621
  Solvation  Ediel_sol  =         0.00000000
  ---------------------------------------------------
  free energy    TOTEN  =       -16.48902760 eV

  energy without entropy =      -16.48805301  energy(sigma->0) =      -16.48870274


--------------------------------------------------------------------------------------------------------




--------------------------------------- Iteration      1(   9)  ---------------------------------------


    POTLOK:  cpu time    0.0380: real time    0.0515
    SETDIJ:  cpu time    1.5408: real time    1.5407
     EDDAV:  cpu time    1.3958: real time    1.3974
       DOS:  cpu time    0.0030: real time    0.0039
    CHARGE:  cpu time    0.0890: real time    0.0891
    MIXING:  cpu time    0.0020: real time    0.0012
    --------------------------------------------
      LOOP:  cpu time    3.0675: real time    3.0838

 eigenvalue-minimisations  :  4132
 total energy-change (2. order) : 0.1113227E-01  (-0.2686646E-03)
 number of electron      16.0000001 magnetization       4.4947056
 augmentation part        8.3246412 magnetization       3.7262584

 Broyden mixing:
  rms(total) = 0.43142E-01    rms(broyden)= 0.43126E-01
  rms(prec ) = 0.50666E-01
  weight for this iteration     100.00

 eigenvalues of (default mixing * dielectric matrix)
  average eigenvalue GAMMA=   1.1975
  2.3665  1.0593  0.6822  0.6822

 Free energy of the ion-electron system (eV)
  ---------------------------------------------------
  alpha Z        PSCENC =       117.79976220
  Ewald energy   TEWEN  =     -1171.43779597
  -Hartree energ DENC   =      -195.39515022
  -exchange      EXHF   =         0.00000000
  -V(xc)+E(xc)   XCENC  =         8.54519125
  PAW double counting   =      1393.94170752    -1411.50085278
  entropy T*S    EENTRO =        -0.00240978
  eigenvalues    EBANDS =        52.98199624
  atomic energy  EATOM  =      1188.58965621
  Solvation  Ediel_sol  =         0.00000000
  ---------------------------------------------------
  free energy    TOTEN  =       -16.47789533 eV

  energy without entropy =      -16.47548555  energy(sigma->0) =      -16.47709207


--------------------------------------------------------------------------------------------------------




--------------------------------------- Iteration      1(  10)  ---------------------------------------


    POTLOK:  cpu time    0.0340: real time    0.0509
    SETDIJ:  cpu time    1.5418: real time    1.5413
     EDDAV:  cpu time    1.1638: real time    1.1653
       DOS:  cpu time    0.0030: real time    0.0038
    CHARGE:  cpu time    0.0890: real time    0.0892
    MIXING:  cpu time    0.0010: real time    0.0012
    --------------------------------------------
      LOOP:  cpu time    2.8336: real time    2.8515

 eigenvalue-minimisations  :  3316
 total energy-change (2. order) : 0.3457583E-03  (-0.1680361E-03)
 number of electron      16.0000001 magnetization       4.5048735
 augmentation part        8.3110268 magnetization       3.7296666

 Broyden mixing:
  rms(total) = 0.62775E-02    rms(broyden)= 0.62739E-02
  rms(prec ) = 0.85442E-02
  weight for this iteration     100.00

 eigenvalues of (default mixing * dielectric matrix)
  average eigenvalue GAMMA=   1.1213
  2.4154  1.1050  0.6314  0.7273  0.7273

 Free energy of the ion-electron system (eV)
  ---------------------------------------------------
  alpha Z        PSCENC =       117.79976220
  Ewald energy   TEWEN  =     -1171.43779597
  -Hartree energ DENC   =      -195.28838942
  -exchange      EXHF   =         0.00000000
  -V(xc)+E(xc)   XCENC  =         8.58439623
  PAW double counting   =      1411.01106330    -1429.03613454
  entropy T*S    EENTRO =        -0.00145116
  eigenvalues    EBANDS =        53.30134358
  atomic energy  EATOM  =      1188.58965621
  Solvation  Ediel_sol  =         0.00000000
  ---------------------------------------------------
  free energy    TOTEN  =       -16.47754957 eV

  energy without entropy =      -16.47609841  energy(sigma->0) =      -16.47706585


--------------------------------------------------------------------------------------------------------




--------------------------------------- Iteration      1(  11)  ---------------------------------------


    POTLOK:  cpu time    0.0350: real time    0.0522
    SETDIJ:  cpu time    1.5418: real time    1.5415
     EDDAV:  cpu time    1.1738: real time    1.1751
       DOS:  cpu time    0.0030: real time    0.0041
    CHARGE:  cpu time    0.0890: real time    0.0890
    MIXING:  cpu time    0.0010: real time    0.0012
    --------------------------------------------
      LOOP:  cpu time    2.8426: real time    2.8631

 eigenvalue-minimisations  :  3320
 total energy-change (2. order) :-0.1712012E-04  (-0.5758567E-05)
 number of electron      16.0000001 magnetization       4.5035421
 augmentation part        8.3124818 magnetization       3.7283066

 Broyden mixing:
  rms(total) = 0.43047E-02    rms(broyden)= 0.43041E-02
  rms(prec ) = 0.47605E-02
  weight for this iteration     100.00

 eigenvalues of (default mixing * dielectric matrix)
  average eigenvalue GAMMA=   1.1265
  2.4090  1.3141  1.0244  0.6918  0.6918  0.6276

 Free energy of the ion-electron system (eV)
  ---------------------------------------------------
  alpha Z        PSCENC =       117.79976220
  Ewald energy   TEWEN  =     -1171.43779597
  -Hartree energ DENC   =      -195.24977484
  -exchange      EXHF   =         0.00000000
  -V(xc)+E(xc)   XCENC  =         8.59608663
  PAW double counting   =      1412.85667667    -1430.89962810
  entropy T*S    EENTRO =        -0.00145101
  eigenvalues    EBANDS =        53.26890152
  atomic energy  EATOM  =      1188.58965621
  Solvation  Ediel_sol  =         0.00000000
  ---------------------------------------------------
  free energy    TOTEN  =       -16.47756669 eV

  energy without entropy =      -16.47611568  energy(sigma->0) =      -16.47708302


--------------------------------------------------------------------------------------------------------




--------------------------------------- Iteration      1(  12)  ---------------------------------------


    POTLOK:  cpu time    0.0350: real time    0.0511
    SETDIJ:  cpu time    1.5488: real time    1.5483
     EDDAV:  cpu time    1.2008: real time    1.2034
       DOS:  cpu time    0.0040: real time    0.0037
    CHARGE:  cpu time    0.0890: real time    0.0891
    MIXING:  cpu time    0.0010: real time    0.0013
    --------------------------------------------
      LOOP:  cpu time    2.8786: real time    2.8967

 eigenvalue-minimisations  :  3404
 total energy-change (2. order) : 0.3897994E-05  (-0.4496277E-06)
 number of electron      16.0000001 magnetization       4.5025067
 augmentation part        8.3129907 magnetization       3.7273953

 Broyden mixing:
  rms(total) = 0.15858E-02    rms(broyden)= 0.15855E-02
  rms(prec ) = 0.19540E-02
  weight for this iteration     100.00

 eigenvalues of (default mixing * dielectric matrix)
  average eigenvalue GAMMA=   1.2514
  2.4241  2.4241  1.0896  0.8386  0.6702  0.6702  0.6432

 Free energy of the ion-electron system (eV)
  ---------------------------------------------------
  alpha Z        PSCENC =       117.79976220
  Ewald energy   TEWEN  =     -1171.43779597
  -Hartree energ DENC   =      -195.25819593
  -exchange      EXHF   =         0.00000000
  -V(xc)+E(xc)   XCENC  =         8.59573366
  PAW double counting   =      1413.24101953    -1431.26138649
  entropy T*S    EENTRO =        -0.00140441
  eigenvalues    EBANDS =        53.25504840
  atomic energy  EATOM  =      1188.58965621
  Solvation  Ediel_sol  =         0.00000000
  ---------------------------------------------------
  free energy    TOTEN  =       -16.47756279 eV

  energy without entropy =      -16.47615838  energy(sigma->0) =      -16.47709466


--------------------------------------------------------------------------------------------------------




--------------------------------------- Iteration      1(  13)  ---------------------------------------


    POTLOK:  cpu time    0.0350: real time    0.0517
    SETDIJ:  cpu time    1.5408: real time    1.5414
     EDDAV:  cpu time    1.0388: real time    1.0403
       DOS:  cpu time    0.0040: real time    0.0039
    --------------------------------------------
      LOOP:  cpu time    2.6186: real time    2.6373

 eigenvalue-minimisations  :  2828
 total energy-change (2. order) :-0.4702206E-06  (-0.1797392E-06)
 number of electron      16.0000001 magnetization       4.5025067
 augmentation part        8.3129907 magnetization       3.7273953

 Free energy of the ion-electron system (eV)
  ---------------------------------------------------
  alpha Z        PSCENC =       117.79976220
  Ewald energy   TEWEN  =     -1171.43779597
  -Hartree energ DENC   =      -195.26682450
  -exchange      EXHF   =         0.00000000
  -V(xc)+E(xc)   XCENC  =         8.59623699
  PAW double counting   =      1413.69957324    -1431.70787850
  entropy T*S    EENTRO =        -0.00141338
  eigenvalues    EBANDS =        53.25112045
  atomic energy  EATOM  =      1188.58965621
  Solvation  Ediel_sol  =         0.00000000
  ---------------------------------------------------
  free energy    TOTEN  =       -16.47756326 eV

  energy without entropy =      -16.47614988  energy(sigma->0) =      -16.47709214


--------------------------------------------------------------------------------------------------------




 average (electrostatic) potential at core
  the test charge radii are     1.0103
  (the norm of the test charge is              1.0000)
       1 -43.5913       2 -43.5913
 
 
 
 E-fermi :   5.4935     XC(G=0): -12.9340     alpha+bet :-13.2097

 Fermi energy:         5.4935268194

 spin component 1

 k-point     1 :       0.0000    0.0000    0.0000
  band No.  band energies     occupation 
      1      -2.7351      1.00000
      2       0.8494      1.00000
      3       0.8494      1.00000
      4       3.2465      1.00000
      5       3.2465      1.00000
      6       3.2465      1.00000
      7       4.4161      1.00000
      8       4.4161      1.00000
      9       5.5481      0.27822
     10       5.5481      0.27822
     11       5.5481      0.27822
     12      15.2133      0.00000
     13      15.2133      0.00000
     14      15.2133      0.00000
     15      20.8355      0.00000
     16      20.8355      0.00000
     17      25.5431      0.00000
     18      30.2181      0.00000
     19      30.2181      0.00000
     20      30.2181      0.00000

 k-point     2 :       0.1250    0.0000    0.0000
  band No.  band energies     occupation 
      1      -2.4210      1.00000
      2       0.9807      1.00000
      3       0.9811      1.00000
      4       3.2462      1.00000
      5       3.2462      1.00000
      6       3.3307      1.00000
      7       4.2807      1.00000
      8       4.4692      1.00000
      9       5.3027      1.01971
     10       5.3027      1.01971
     11       5.4575      0.64970
     12      13.2972      0.00000
     13      15.7927      0.00000
     14      15.7927      0.00000
     15      20.9330      0.00000
     16      22.0885      0.00000
     17      26.6937      0.00000
     18      28.4848      0.00000
     19      29.7987      0.00000
     20      29.7987      0.00000

 k-point     3 :       0.2500    0.0000    0.0000
  band No.  band energies     occupation 
      1      -1.5245      1.00000
      2       1.2818      1.00000
      3       1.3586      1.00000
      4       3.2736      1.00000
      5       3.2736      1.00000
      6       3.5720      1.00000
      7       3.8923      1.00000
      8       4.6214      1.00000
      9       4.7378      1.00000
     10       4.7378      1.00000
     11       5.2001      1.02909
     12      10.1950     -0.00000
     13      17.3471      0.00000
     14      17.3471      0.00000
     15      21.2431      0.00000
     16      23.0878      0.00000
     17      26.0796      0.00000
     18      27.8575      0.00000
     19      27.8575      0.00000
     20      29.6395      0.00000

 k-point     4 :       0.3750    0.0000    0.0000
  band No.  band energies     occupation 
      1      -0.2267      1.00000
      2       1.4544      1.00000
      3       1.9314      1.00000
      4       3.3070      1.00000
      5       3.3946      1.00000
      6       3.3946      1.00000
      7       3.9373      1.00000
      8       4.1389      1.00000
      9       4.1389      1.00000
     10       4.8186      1.00001
     11       4.9115      1.00015
     12       7.4545     -0.00000
     13      19.5557      0.00000
     14      19.5557      0.00000
     15      21.8222      0.00000
     16      23.8151      0.00000
     17      24.1488      0.00000
     18      25.0382      0.00000
     19      25.0382      0.00000
     20      26.9549      0.00000

 k-point     5 :       0.5000    0.0000    0.0000
  band No.  band energies     occupation 
      1       0.9889      1.00000
      2       0.9889      1.00000
      3       2.6166      1.00000
      4       2.6166      1.00000
      5       3.6746      1.00000
      6       3.6746      1.00000
      7       3.6746      1.00000
      8       3.6746      1.00000
      9       4.3747      1.00000
     10       4.3747      1.00000
     11       5.6616      0.00035
     12       5.6616      0.00035
     13      22.1800      0.00000
     14      22.1800      0.00000
     15      22.1800      0.00000
     16      22.1800      0.00000
     17      22.7576      0.00000
     18      22.7576      0.00000
     19      25.0077      0.00000
     20      25.0077      0.00000

 k-point     6 :       0.1250    0.1250    0.0000
  band No.  band energies     occupation 
      1      -2.1156      1.00000
      2       1.0917      1.00000
      3       1.1239      1.00000
      4       3.0870      1.00000
      5       3.2201      1.00000
      6       3.5704      1.00000
      7       4.2856      1.00000
      8       4.4304      1.00000
      9       4.8915      1.00009
     10       5.0616      1.00462
     11       5.5855      0.15279
     12      13.3889      0.00000
     13      14.2156      0.00000
     14      16.3202      0.00000
     15      21.5568      0.00000
     16      23.2609      0.00000
     17      26.7436      0.00000
     18      27.5299      0.00000
     19      29.0974      0.00000
     20      29.7703      0.00000

 k-point     7 :       0.2500    0.1250    0.0000
  band No.  band energies     occupation 
      1      -1.2521      1.00000
      2       1.3661      1.00000
      3       1.4930      1.00000
      4       2.9910      1.00000
      5       3.1736      1.00000
      6       3.9232      1.00000
      7       4.0566      1.00000
      8       4.2723      1.00000
      9       4.5418      1.00000
     10       4.5640      1.00000
     11       5.4912      0.51003
     12      10.5348     -0.00000
     13      15.2238      0.00000
     14      17.7703      0.00000
     15      21.9777      0.00000
     16      23.9845      0.00000
     17      24.8329      0.00000
     18      27.3604      0.00000
     19      28.1725      0.00000
     20      30.7373      0.00000

 k-point     8 :       0.3750    0.1250    0.0000
  band No.  band energies     occupation 
      1      -0.0334      1.00000
      2       1.5136      1.00000
      3       2.0031      1.00000
      4       3.0313      1.00000
      5       3.0343      1.00000
      6       3.6885      1.00000
      7       3.8365      1.00000
      8       4.0952      1.00000
      9       4.3403      1.00000
     10       4.8694      1.00005
     11       5.1941      1.02777
     12       7.7262     -0.00000
     13      16.9988      0.00000
     14      19.8864      0.00000
     15      21.4063      0.00000
     16      22.6128      0.00000
     17      25.2898      0.00000
     18      25.3025      0.00000
     19      25.9975      0.00000
     20      29.6714      0.00000

 k-point     9 :       0.5000    0.1250    0.0000
  band No.  band energies     occupation 
      1       1.0661      1.00000
      2       1.0661      1.00000
      3       2.5776      1.00000
      4       2.5776      1.00000
      5       3.2617      1.00000
      6       3.2617      1.00000
      7       3.8909      1.00000
      8       3.8909      1.00000
      9       4.7840      1.00000
     10       4.7840      1.00000
     11       5.7520     -0.03481
     12       5.7520     -0.03481
     13      19.0786      0.00000
     14      19.0786      0.00000
     15      22.4525      0.00000
     16      22.4525      0.00000
     17      23.6704      0.00000
     18      23.6704      0.00000
     19      27.5541      0.00000
     20      27.5541      0.00000

 k-point    10 :       0.2500    0.2500    0.0000
  band No.  band energies     occupation 
      1      -0.5209      1.00000
      2       1.4381      1.00000
      3       1.9448      1.00000
      4       2.7161      1.00000
      5       3.1259      1.00000
      6       3.6199      1.00000
      7       4.2038      1.00000
      8       4.2602      1.00000
      9       4.4133      1.00000
     10       4.4812      1.00000
     11       5.6757     -0.01323
     12      10.5083     -0.00000
     13      13.1185      0.00000
     14      18.9851      0.00000
     15      20.9664      0.00000
     16      22.3434      0.00000
     17      26.4259      0.00000
     18      28.0085      0.00000
     19      29.0565      0.00000
     20      29.0907      0.00000

 k-point    11 :       0.3750    0.2500    0.0000
  band No.  band energies     occupation 
      1       0.3697      1.00000
      2       1.3632      1.00000
      3       2.5097      1.00000
      4       2.6105      1.00000
      5       3.0717      1.00000
      6       3.2185      1.00000
      7       4.0925      1.00000
      8       4.2638      1.00000
      9       4.7415      1.00000
     10       4.8954      1.00010
     11       5.5989      0.11546
     12       8.2074     -0.00000
     13      14.0381      0.00000
     14      18.2335      0.00000
     15      20.8581      0.00000
     16      22.8369      0.00000
     17      24.9873      0.00000
     18      26.0082      0.00000
     19      30.0728      0.00000
     20      30.4856      0.00000

 k-point    12 :       0.5000    0.2500    0.0000
  band No.  band energies     occupation 
      1       1.0259      1.00000
      2       1.0259      1.00000
      3       2.7242      1.00000
      4       2.7242      1.00000
      5       3.0005      1.00000
      6       3.0005      1.00000
      7       4.2150      1.00000
      8       4.2150      1.00000
      9       5.3133      1.01155
     10       5.3133      1.01155
     11       5.9670     -0.00205
     12       5.9670     -0.00205
     13      15.9071      0.00000
     14      15.9071      0.00000
     15      23.2402      0.00000
     16      23.2402      0.00000
     17      23.6967      0.00000
     18      23.6967      0.00000
     19      31.5763      0.00000
     20      31.5763      0.00000

 k-point    13 :       0.3750    0.3750    0.0000
  band No.  band energies     occupation 
      1       0.6510      1.00000
      2       1.0785      1.00000
      3       2.3623      1.00000
      4       2.5975      1.00000
      5       3.2805      1.00000
      6       4.1182      1.00000
      7       4.2251      1.00000
      8       4.5553      1.00000
      9       4.5573      1.00000
     10       5.3665      0.93520
     11       5.7667     -0.03295
     12       7.8186     -0.00000
     13      12.6671      0.00000
     14      15.5345      0.00000
     15      22.4065      0.00000
     16      23.1212      0.00000
     17      24.3528      0.00000
     18      26.2698      0.00000
     19      28.6596      0.00000
     20      31.8802      0.00000

 k-point    14 :       0.5000    0.3750    0.0000
  band No.  band energies     occupation 
      1       0.8375      1.00000
      2       0.8375      1.00000
      3       2.3520      1.00000
      4       2.3520      1.00000
      5       3.9565      1.00000
      6       3.9565      1.00000
      7       4.4182      1.00000
      8       4.4182      1.00000
      9       5.6768     -0.01417
     10       5.6768     -0.01417
     11       6.1016     -0.00007
     12       6.1016     -0.00007
     13      13.5196      0.00000
     14      13.5196      0.00000
     15      23.6379      0.00000
     16      23.6379      0.00000
     17      24.4005      0.00000
     18      24.4005      0.00000
     19      29.7830      0.00000
     20      29.7830      0.00000

 k-point    15 :       0.5000    0.5000    0.0000
  band No.  band energies     occupation 
      1       0.7503      1.00000
      2       0.7503      1.00000
      3       2.2204      1.00000
      4       2.2204      1.00000
      5       4.4721      1.00000
      6       4.4721      1.00000
      7       4.5932      1.00000
      8       4.5932      1.00000
      9       5.8047     -0.02511
     10       5.8047     -0.02511
     11       6.0416     -0.00037
     12       6.0416     -0.00037
     13      12.5674      0.00000
     14      12.5674      0.00000
     15      23.6040      0.00000
     16      23.6040      0.00000
     17      25.2164      0.00000
     18      25.2164      0.00000
     19      28.5208      0.00000
     20      28.5208      0.00000

 k-point    16 :       0.1250    0.1250    0.1250
  band No.  band energies     occupation 
      1      -1.8169      1.00000
      2       1.2323      1.00000
      3       1.2323      1.00000
      4       3.0510      1.00000
      5       3.0510      1.00000
      6       3.8214      1.00000
      7       4.3530      1.00000
      8       4.3530      1.00000
      9       4.3748      1.00000
     10       5.3413      0.97941
     11       5.3413      0.97941
     12      13.8941      0.00000
     13      13.8941      0.00000
     14      14.9938      0.00000
     15      23.4474      0.00000
     16      23.4474      0.00000
     17      26.5332      0.00000
     18      26.5332      0.00000
     19      28.1959      0.00000
     20      30.2006      0.00000

 k-point    17 :       0.2500    0.1250    0.1250
  band No.  band energies     occupation 
      1      -0.9792      1.00000
      2       1.5374      1.00000
      3       1.5450      1.00000
      4       2.9137      1.00000
      5       2.9531      1.00000
      6       3.7448      1.00000
      7       4.1504      1.00000
      8       4.2464      1.00000
      9       4.5241      1.00000
     10       4.8017      1.00001
     11       5.3880      0.88494
     12      10.9120     -0.00000
     13      15.2004      0.00000
     14      15.9108      0.00000
     15      23.7129      0.00000
     16      24.0331      0.00000
     17      24.8383      0.00000
     18      25.4101      0.00000
     19      29.0037      0.00000
     20      30.5924      0.00000

 k-point    18 :       0.3750    0.1250    0.1250
  band No.  band energies     occupation 
      1       0.1764      1.00000
      2       1.6645      1.00000
      3       1.9764      1.00000
      4       2.7759      1.00000
      5       2.9803      1.00000
      6       3.3364      1.00000
      7       3.9462      1.00000
      8       4.2755      1.00000
      9       4.6169      1.00000
     10       4.9456      1.00037
     11       5.1876      1.02632
     12       8.0810     -0.00000
     13      16.9641      0.00000
     14      17.5557      0.00000
     15      21.2072      0.00000
     16      22.1403      0.00000
     17      25.0831      0.00000
     18      26.5518      0.00000
     19      28.6459      0.00000
     20      28.8141      0.00000

 k-point    19 :       0.5000    0.1250    0.1250
  band No.  band energies     occupation 
      1       1.1927      1.00000
      2       1.1927      1.00000
      3       2.4379      1.00000
      4       2.4379      1.00000
      5       3.1792      1.00000
      6       3.1792      1.00000
      7       3.9594      1.00000
      8       3.9594      1.00000
      9       4.8764      1.00006
     10       4.8764      1.00006
     11       6.0352     -0.00043
     12       6.0352     -0.00043
     13      18.9794      0.00000
     14      18.9794      0.00000
     15      19.6450      0.00000
     16      19.6450      0.00000
     17      26.6477      0.00000
     18      26.6477      0.00000
     19      27.7681      0.00000
     20      27.7681      0.00000

 k-point    20 :       0.2500    0.2500    0.1250
  band No.  band energies     occupation 
      1      -0.2493      1.00000
      2       1.6251      1.00000
      3       1.9836      1.00000
      4       2.6590      1.00000
      5       2.8570      1.00000
      6       3.1506      1.00000
      7       4.2997      1.00000
      8       4.4697      1.00000
      9       4.5727      1.00000
     10       4.8025      1.00001
     11       5.4115      0.81693
     12      11.0508      0.00000
     13      13.2007      0.00000
     14      16.5866      0.00000
     15      21.1204      0.00000
     16      24.2051      0.00000
     17      25.0862      0.00000
     18      26.4008      0.00000
     19      28.2318      0.00000
     20      31.3590      0.00000

 k-point    21 :       0.3750    0.2500    0.1250
  band No.  band energies     occupation 
      1       0.6182      1.00000
      2       1.5625      1.00000
      3       2.3915      1.00000
      4       2.5298      1.00000
      5       2.9010      1.00000
      6       2.9559      1.00000
      7       4.2510      1.00000
      8       4.2947      1.00000
      9       4.6415      1.00000
     10       5.3188      1.00654
     11       5.4755      0.57598
     12       8.7485     -0.00000
     13      14.1849      0.00000
     14      18.0443      0.00000
     15      18.4053      0.00000
     16      22.2124      0.00000
     17      25.8574      0.00000
     18      26.2185      0.00000
     19      29.7384      0.00000
     20      30.4168      0.00000

 k-point    22 :       0.5000    0.2500    0.1250
  band No.  band energies     occupation 
      1       1.2290      1.00000
      2       1.2290      1.00000
      3       2.4842      1.00000
      4       2.4842      1.00000
      5       3.0329      1.00000
      6       3.0329      1.00000
      7       4.2378      1.00000
      8       4.2378      1.00000
      9       4.9875      1.00101
     10       4.9875      1.00101
     11       6.6483     -0.00000
     12       6.6483     -0.00000
     13      16.0731      0.00000
     14      16.0731      0.00000
     15      19.9469      0.00000
     16      19.9469      0.00000
     17      26.4527      0.00000
     18      26.4527      0.00000
     19      29.6037      0.00000
     20      29.6037      0.00000

 k-point    23 :       0.3750    0.3750    0.1250
  band No.  band energies     occupation 
      1       0.8950      1.00000
      2       1.2714      1.00000
      3       2.3234      1.00000
      4       2.4815      1.00000
      5       3.1913      1.00000
      6       3.6019      1.00000
      7       4.3349      1.00000
      8       4.4400      1.00000
      9       4.5610      1.00000
     10       5.3363      0.98646
     11       6.1823     -0.00001
     12       8.6341     -0.00000
     13      12.7247      0.00000
     14      15.6979      0.00000
     15      19.2612      0.00000
     16      22.5283      0.00000
     17      24.1090      0.00000
     18      25.6284      0.00000
     19      29.9263      0.00000
     20      30.8049      0.00000

 k-point    24 :       0.5000    0.3750    0.1250
  band No.  band energies     occupation 
      1       1.0477      1.00000
      2       1.0477      1.00000
      3       2.3023      1.00000
      4       2.3023      1.00000
      5       3.7667      1.00000
      6       3.7667      1.00000
      7       4.4376      1.00000
      8       4.4376      1.00000
      9       4.9678      1.00064
     10       4.9678      1.00064
     11       7.2571     -0.00000
     12       7.2571     -0.00000
     13      13.6337      0.00000
     14      13.6337      0.00000
     15      20.9351      0.00000
     16      20.9351      0.00000
     17      24.6393      0.00000
     18      24.6393      0.00000
     19      30.1850      0.00000
     20      30.1850      0.00000

 k-point    25 :       0.5000    0.5000    0.1250
  band No.  band energies     occupation 
      1       0.9590      1.00000
      2       0.9590      1.00000
      3       2.1943      1.00000
      4       2.1943      1.00000
      5       4.4988      1.00000
      6       4.4988      1.00000
      7       4.5767      1.00000
      8       4.5767      1.00000
      9       4.5981      1.00000
     10       4.5981      1.00000
     11       7.5541     -0.00000
     12       7.5541     -0.00000
     13      12.6198      0.00000
     14      12.6198      0.00000
     15      21.9156      0.00000
     16      21.9156      0.00000
     17      23.2548      0.00000
     18      23.2548      0.00000
     19      30.5659      0.00000
     20      30.5659      0.00000

 k-point    26 :       0.2500    0.2500    0.2500
  band No.  band energies     occupation 
      1       0.4651      1.00000
      2       2.0794      1.00000
      3       2.0794      1.00000
      4       2.5248      1.00000
      5       2.5248      1.00000
      6       2.5475      1.00000
      7       4.4313      1.00000
      8       4.4313      1.00000
      9       4.9103      1.00015
     10       4.9103      1.00015
     11       5.5132      0.41740
     12      12.3919      0.00000
     13      12.3919      0.00000
     14      14.6945      0.00000
     15      21.3063      0.00000
     16      21.3063      0.00000
     17      23.3308      0.00000
     18      28.9057      0.00000
     19      28.9057      0.00000
     20      29.3299      0.00000

 k-point    27 :       0.3750    0.2500    0.2500
  band No.  band energies     occupation 
      1       1.2123      1.00000
      2       1.9427      1.00000
      3       2.1852      1.00000
      4       2.3844      1.00000
      5       2.5797      1.00000
      6       2.7092      1.00000
      7       4.3780      1.00000
      8       4.5290      1.00000
      9       4.5945      1.00000
     10       4.9666      1.00062
     11       6.3795     -0.00000
     12       9.8348     -0.00000
     13      14.1803      0.00000
     14      15.4735      0.00000
     15      18.6480      0.00000
     16      19.4148      0.00000
     17      23.2565      0.00000
     18      26.8227      0.00000
     19      30.0361      0.00000
     20      32.1935      0.00000

 k-point    28 :       0.5000    0.2500    0.2500
  band No.  band energies     occupation 
      1       1.5945      1.00000
      2       1.5945      1.00000
      3       2.2776      1.00000
      4       2.2776      1.00000
      5       2.8913      1.00000
      6       2.8913      1.00000
      7       4.3740      1.00000
      8       4.3740      1.00000
      9       4.7909      1.00000
     10       4.7909      1.00000
     11       7.7110     -0.00000
     12       7.7110     -0.00000
     13      16.2748      0.00000
     14      16.2748      0.00000
     15      17.1290      0.00000
     16      17.1290      0.00000
     17      24.7390      0.00000
     18      24.7390      0.00000
     19      31.5768      0.00000
     20      31.5768      0.00000

 k-point    29 :       0.3750    0.3750    0.2500
  band No.  band energies     occupation 
      1       1.5407      1.00000
      2       1.7122      1.00000
      3       2.2443      1.00000
      4       2.3230      1.00000
      5       2.8284      1.00000
      6       2.9195      1.00000
      7       4.5005      1.00000
      8       4.5324      1.00000
      9       4.5717      1.00000
     10       4.8522      1.00003
     11       7.4187     -0.00000
     12      10.2687     -0.00000
     13      12.8666      0.00000
     14      16.1696      0.00000
     15      16.2371      0.00000
     16      19.7309      0.00000
     17      20.8291      0.00000
     18      24.2282      0.00000
     19      32.0958      0.00000
     20      34.5121      0.00000

 k-point    30 :       0.5000    0.3750    0.2500
  band No.  band energies     occupation 
      1       1.5664      1.00000
      2       1.5664      1.00000
      3       2.2278      1.00000
      4       2.2278      1.00000
      5       3.1907      1.00000
      6       3.1907      1.00000
      7       4.5134      1.00000
      8       4.5134      1.00000
      9       4.6899      1.00000
     10       4.6899      1.00000
     11       8.7927     -0.00000
     12       8.7927     -0.00000
     13      14.0410      0.00000
     14      14.0410      0.00000
     15      17.8692      0.00000
     16      17.8692      0.00000
     17      22.0039      0.00000
     18      22.0039      0.00000
     19      33.5900      0.00000
     20      33.5900      0.00000

 k-point    31 :       0.5000    0.5000    0.2500
  band No.  band energies     occupation 
      1       1.4968      1.00000
      2       1.4968      1.00000
      3       2.1509      1.00000
      4       2.1509      1.00000
      5       3.5398      1.00000
      6       3.5398      1.00000
      7       4.5596      1.00000
      8       4.5596      1.00000
      9       4.6100      1.00000
     10       4.6100      1.00000
     11       9.4401     -0.00000
     12       9.4401     -0.00000
     13      12.8341      0.00000
     14      12.8341      0.00000
     15      19.1796      0.00000
     16      19.1796      0.00000
     17      20.0876      0.00000
     18      20.0876      0.00000
     19      34.3840      0.00000
     20      34.3840      0.00000

 k-point    32 :       0.3750    0.3750    0.3750
  band No.  band energies     occupation 
      1       1.8833      1.00000
      2       2.2122      1.00000
      3       2.2122      1.00000
      4       2.3639      1.00000
      5       2.5686      1.00000
      6       2.5686      1.00000
      7       4.5784      1.00000
      8       4.5784      1.00000
      9       4.6448      1.00000
     10       4.6448      1.00000
     11       8.7707     -0.00000
     12      12.2625      0.00000
     13      12.2625      0.00000
     14      14.6662      0.00000
     15      17.0238      0.00000
     16      17.0238      0.00000
     17      18.2470      0.00000
     18      21.5411      0.00000
     19      36.0059      0.00000
     20      36.0059      0.00000

[...]

 k-point    29 :       0.3750    0.3750    0.2500
  band No.  band energies     occupation 
      1       2.7052      1.00000
      2       3.3580      1.00000
      3       4.1274      1.00000
      4       4.1791      1.00000
      5       4.4142      1.00000
      6       4.6243      1.00000
      7       7.4179     -0.00000
      8       7.5410     -0.00000
      9       7.7476     -0.00000
     10       7.7630     -0.00000
     11       9.6167     -0.00000
     12      11.9970      0.00000
     13      14.7116      0.00000
     14      17.6983      0.00000
     15      17.8259      0.00000
     16      21.0242      0.00000
     17      22.4326      0.00000
     18      25.6609      0.00000
     19      33.2470      0.00000
     20      35.4166      0.00000

 k-point    30 :       0.5000    0.3750    0.2500
  band No.  band energies     occupation 
      1       3.0652      1.00000
      2       3.0652      1.00000
      3       4.0772      1.00000
      4       4.0772      1.00000
      5       4.7218      1.00000
      6       4.7218      1.00000
      7       7.5047     -0.00000
      8       7.5047     -0.00000
      9       7.8084     -0.00000
     10       7.8084     -0.00000
     11      10.7240     -0.00000
     12      10.7240     -0.00000
     13      15.7825      0.00000
     14      15.7825      0.00000
     15      19.3050      0.00000
     16      19.3050      0.00000
     17      23.4434      0.00000
     18      23.4434      0.00000
     19      34.6588      0.00000
     20      34.6588      0.00000

 k-point    31 :       0.5000    0.5000    0.2500
  band No.  band energies     occupation 
      1       3.0367      1.00000
      2       3.0367      1.00000
      3       3.9924      1.00000
      4       3.9924      1.00000
      5       4.9975      1.00000
      6       4.9975      1.00000
      7       7.5969     -0.00000
      8       7.5969     -0.00000
      9       7.8247     -0.00000
     10       7.8247     -0.00000
     11      11.1476     -0.00000
     12      11.1476     -0.00000
     13      14.7563      0.00000
     14      14.7563      0.00000
     15      20.4537      0.00000
     16      20.4537      0.00000
     17      21.6316      0.00000
     18      21.6316      0.00000
     19      35.4094      0.00000
     20      35.4094      0.00000

 k-point    32 :       0.3750    0.3750    0.3750
  band No.  band energies     occupation 
      1       3.5144      1.00000
      2       3.6035      1.00000
      3       4.0055      1.00000
      4       4.0056      1.00000
      5       4.2419      1.00000
      6       4.2419      1.00000
      7       7.6876     -0.00000
      8       7.6877     -0.00000
      9       7.7335     -0.00000
     10       7.7337     -0.00000
     11      10.8060     -0.00000
     12      13.9136      0.00000
     13      13.9137      0.00000
     14      16.3502      0.00000
     15      18.4673      0.00000
     16      18.4673      0.00000
     17      19.8477      0.00000
     18      22.9831      0.00000
     19      37.0889      0.00000
     20      37.0889      0.00000

 k-point    33 :       0.5000    0.3750    0.3750
  band No.  band energies     occupation 
      1       3.6048      1.00000
      2       3.6048      1.00000
      3       4.0251      1.00000
      4       4.0251      1.00000
      5       4.2781      1.00000
      6       4.2781      1.00000
      7       7.7036     -0.00000
      8       7.7036     -0.00000
      9       7.8099     -0.00000
     10       7.8099     -0.00000
     11      12.1965      0.00000
     12      12.1965      0.00000
     13      16.0825      0.00000
     14      16.0825      0.00000
     15      17.2031      0.00000
     16      17.2031      0.00000
     17      20.7148      0.00000
     18      20.7148      0.00000
     19      38.3940      0.00000
     20      38.3940      0.00000

 k-point    34 :       0.5000    0.5000    0.3750
  band No.  band energies     occupation 
      1       3.7091      1.00000
      2       3.7091      1.00000
      3       3.9178      1.00000
      4       3.9178      1.00000
      5       4.3607      1.00000
      6       4.3607      1.00000
      7       7.7675     -0.00000
      8       7.7675     -0.00000
      9       7.8417     -0.00000
     10       7.8417     -0.00000
     11      13.1914      0.00000
     12      13.1914      0.00000
     13      15.0627      0.00000
     14      15.0627      0.00000
     15      17.8986      0.00000
     16      17.8986      0.00000
     17      18.8915      0.00000
     18      18.8915      0.00000
     19      39.8930      0.00000
     20      39.8930      0.00000

 k-point    35 :       0.5000    0.5000    0.5000
  band No.  band energies     occupation 
      1       4.0113      1.00000
      2       4.0113      1.00000
      3       4.0114      1.00000
      4       4.0114      1.00000
      5       4.0114      1.00000
      6       4.0114      1.00000
      7       7.8483     -0.00000
      8       7.8483     -0.00000
      9       7.8485     -0.00000
     10       7.8485     -0.00000
     11      15.4577      0.00000
     12      15.4577      0.00000
     13      15.4577      0.00000
     14      15.4577      0.00000
     15      15.4577      0.00000
     16      15.4577      0.00000
     17      17.5667      0.00000
     18      17.5667      0.00000
     19      44.8140      0.00000
     20      44.8140      0.00000


--------------------------------------------------------------------------------------------------------


 soft charge-density along one line, spin component           1
         0         1         2         3         4         5         6         7         8         9
 total charge-density along one line
 
 soft charge-density along one line, spin component           2
         0         1         2         3         4         5         6         7         8         9
 total charge-density along one line
 
 pseudopotential strength for first ion, spin component:           1
 -5.536   0.000  -0.000  -0.000  -0.000  -6.069   0.000  -0.000
  0.000  -5.536   0.000   0.000   0.000   0.000  -6.069   0.000
 -0.000   0.000  -5.748   0.000   0.000  -0.000   0.000  -6.274
 -0.000   0.000   0.000  -5.536  -0.000  -0.000   0.000   0.000
 -0.000   0.000   0.000  -0.000  -5.748  -0.000   0.000   0.000
 -6.069   0.000  -0.000  -0.000  -0.000  -6.559   0.000  -0.000
  0.000  -6.069   0.000   0.000   0.000   0.000  -6.559   0.000
 -0.000   0.000  -6.274   0.000   0.000  -0.000   0.000  -6.758
 -0.000   0.000   0.000  -6.069  -0.000  -0.000   0.000   0.000
 -0.000   0.000   0.000  -0.000  -6.274  -0.000   0.000   0.000
 -0.000   0.000   0.000  -0.000  -0.000  -0.000   0.000   0.000
 -0.000   0.000   0.000  -0.000  -0.000  -0.000   0.000   0.000
  0.000   0.000  -0.000   0.000  -0.000   0.000   0.000  -0.000
  0.000   0.000  -0.000  -0.000   0.000   0.000   0.000  -0.000
  0.000   0.000   0.000   0.000  -0.000   0.000   0.000   0.000
  0.000   0.000  -0.000   0.000  -0.000   0.000   0.000  -0.000
  0.000   0.000  -0.000  -0.000   0.000   0.000   0.000  -0.000
  0.000   0.000   0.000   0.000  -0.000   0.000   0.000   0.000
 pseudopotential strength for first ion, spin component:           2
 -4.129   0.000   0.000   0.000   0.000  -4.705   0.000   0.000
  0.000  -4.129  -0.000  -0.000  -0.000   0.000  -4.704  -0.000
  0.000  -0.000  -3.878  -0.000  -0.000   0.000  -0.000  -4.462
  0.000  -0.000  -0.000  -4.129   0.000   0.000  -0.000  -0.000
  0.000  -0.000  -0.000   0.000  -3.878   0.000  -0.000  -0.000
 -4.705   0.000   0.000   0.000   0.000  -5.237   0.000   0.000
  0.000  -4.704  -0.000  -0.000  -0.000   0.000  -5.237  -0.000
  0.000  -0.000  -4.462  -0.000  -0.000   0.000  -0.000  -5.003
  0.000  -0.000  -0.000  -4.704   0.000   0.000  -0.000  -0.000
  0.000  -0.000  -0.000   0.000  -4.462   0.000  -0.000  -0.000
  0.000  -0.000  -0.000  -0.000   0.000   0.000  -0.000  -0.000
  0.000  -0.000  -0.000  -0.000   0.000   0.000  -0.000  -0.000
  0.000   0.000  -0.000   0.000  -0.000   0.000   0.000  -0.000
  0.000   0.000   0.000   0.000   0.000   0.000   0.000   0.000
  0.000   0.000  -0.000   0.000  -0.000   0.000   0.000  -0.000
  0.000   0.000  -0.000   0.000  -0.000   0.000   0.000  -0.000
  0.000   0.000   0.000  -0.000   0.000   0.000   0.000   0.000
  0.000   0.000  -0.000   0.000  -0.000   0.000   0.000  -0.000
 total augmentation occupancy for first ion, spin component:           1
  2.246   0.000  -0.000   0.000  -0.000  -1.252  -0.000   0.000  -0.000   0.000   0.000   0.000   0.000   0.000   0.000   0.000
  0.000   2.246   0.000   0.000  -0.000  -0.000  -1.252   0.000  -0.000   0.000  -0.000   0.000   0.000   0.000   0.000   0.000
 -0.000   0.000   3.632   0.000   0.000   0.000   0.000  -2.373   0.000  -0.000  -0.000   0.000  -0.000  -0.000   0.000   0.000
  0.000   0.000   0.000   2.246   0.000  -0.000  -0.000  -0.000  -1.252  -0.000  -0.000  -0.000   0.000   0.000   0.000   0.000
 -0.000  -0.000   0.000   0.000   3.632   0.000   0.000   0.000  -0.000  -2.373  -0.000   0.000   0.000  -0.000  -0.000   0.000
 -1.252  -0.000   0.000  -0.000   0.000   1.656   0.000  -0.000   0.000  -0.000  -0.000  -0.000   0.000   0.000   0.000   0.000
 -0.000  -1.252   0.000  -0.000   0.000   0.000   1.656   0.000   0.000  -0.000   0.000   0.000  -0.000   0.000   0.000   0.000
  0.000  -0.000  -2.373  -0.000   0.000  -0.000   0.000   2.371   0.000   0.000   0.000  -0.000   0.000  -0.000  -0.000   0.000
 -0.000  -0.000   0.000  -1.252  -0.000   0.000   0.000   0.000   1.656   0.000  -0.000   0.000   0.000   0.000   0.000   0.000
  0.000   0.000  -0.000  -0.000  -2.373  -0.000  -0.000   0.000   0.000   2.371   0.000  -0.000   0.000  -0.000   0.000   0.000
  0.000  -0.000  -0.000  -0.000  -0.000  -0.000   0.000  -0.000   0.000   0.000   2.438  -0.285  -0.000   0.000  -0.000   0.000
  0.000  -0.000   0.000  -0.000  -0.000  -0.000   0.000  -0.000  -0.000  -0.000  -0.285   0.039   0.000  -0.000   0.000   0.000
  0.000   0.000  -0.000   0.000  -0.000   0.000  -0.000  -0.000   0.000   0.000   0.000   0.000   0.298   0.000   0.000  -0.026
  0.000   0.000   0.000   0.000  -0.000   0.000  -0.000   0.000   0.000  -0.000  -0.000  -0.000   0.000   0.298   0.000  -0.000
  0.000   0.000   0.000   0.000   0.000  -0.000   0.000   0.000   0.000   0.000  -0.000   0.000   0.000   0.000   0.298  -0.000
  0.000   0.000   0.000   0.000  -0.000   0.000   0.000   0.000   0.000   0.000   0.000   0.000  -0.026  -0.000  -0.000   0.003
  0.000  -0.000  -0.000   0.000  -0.000   0.000   0.000   0.000   0.000  -0.000   0.000   0.000  -0.000  -0.026  -0.000   0.000
  0.000   0.000  -0.000   0.000   0.000   0.000   0.000  -0.000   0.000   0.000   0.000  -0.000  -0.000  -0.000  -0.026   0.000
 total augmentation occupancy for first ion, spin component:           2
  1.845   0.000  -0.000   0.000  -0.000  -0.771  -0.000   0.000  -0.000   0.000   0.000   0.000   0.000   0.000   0.000   0.000
  0.000   1.845   0.000   0.000  -0.000  -0.000  -0.771  -0.000  -0.000   0.000   0.000  -0.000   0.000   0.000   0.000  -0.000
 -0.000   0.000   3.056   0.000  -0.000   0.000  -0.000  -1.353  -0.000   0.000   0.000   0.000  -0.000  -0.000  -0.000   0.000
  0.000   0.000   0.000   1.845   0.000  -0.000  -0.000  -0.000  -0.771  -0.000   0.000   0.000   0.000   0.000   0.000   0.000
 -0.000  -0.000  -0.000   0.000   3.056   0.000   0.000   0.000  -0.000  -1.353  -0.000   0.000   0.000   0.000   0.000  -0.000
 -0.771  -0.000   0.000  -0.000   0.000   0.085   0.000  -0.000   0.000  -0.000   0.000  -0.000   0.000   0.000  -0.000   0.000
 -0.000  -0.771  -0.000  -0.000   0.000   0.000   0.085  -0.000   0.000  -0.000   0.000  -0.000   0.000   0.000   0.000  -0.000
  0.000  -0.000  -1.353  -0.000  -0.000  -0.000  -0.000   0.358  -0.000   0.000  -0.000   0.000   0.000  -0.000  -0.000   0.000
 -0.000  -0.000  -0.000  -0.771  -0.000   0.000   0.000  -0.000   0.085   0.000   0.000   0.000   0.000   0.000   0.000   0.000
  0.000   0.000   0.000  -0.000  -1.353  -0.000  -0.000  -0.000   0.000   0.358   0.000  -0.000   0.000  -0.000   0.000  -0.000
  0.000   0.000   0.000   0.000   0.000   0.000   0.000  -0.000   0.000   0.000  -0.334   0.099   0.000  -0.000  -0.000   0.000
 -0.000  -0.000   0.000   0.000   0.000   0.000   0.000   0.000   0.000   0.000   0.099  -0.018  -0.000   0.000  -0.000   0.000
  0.000   0.000  -0.000   0.000   0.000   0.000   0.000  -0.000   0.000   0.000   0.000  -0.000  -0.041  -0.000  -0.000   0.006
  0.000   0.000   0.000   0.000   0.000   0.000   0.000   0.000   0.000  -0.000   0.000   0.000  -0.000  -0.041  -0.000   0.000
  0.000   0.000   0.000   0.000   0.000  -0.000   0.000   0.000   0.000   0.000   0.000   0.000  -0.000  -0.000  -0.041   0.000
  0.000   0.000  -0.000   0.000   0.000   0.000   0.000   0.000   0.000  -0.000   0.000   0.000   0.006   0.000   0.000  -0.001
  0.000  -0.000   0.000   0.000   0.000   0.000   0.000  -0.000   0.000  -0.000  -0.000   0.000   0.000   0.006   0.000  -0.000
  0.000   0.000  -0.000   0.000   0.000   0.000   0.000  -0.000   0.000   0.000   0.000   0.000   0.000   0.000   0.006  -0.000


------------------------ aborting loop because EDIFF is reached ----------------------------------------





 total charge

# of ion       s       p       d       tot
------------------------------------------
    1        0.489   0.549   6.243   7.280
    2        0.489   0.549   6.243   7.280
--------------------------------------------------
tot          0.978   1.098  12.485  14.561



 magnetization (x)

# of ion       s       p       d       tot
------------------------------------------
    1       -0.016  -0.064   2.211   2.131
    2       -0.016  -0.064   2.211   2.131
--------------------------------------------------
tot         -0.031  -0.129   4.423   4.263
 
    CHARGE:  cpu time    0.0900: real time    0.0907
    FORLOC:  cpu time    0.0000: real time    0.0008
    FORNL :  cpu time    0.2700: real time    0.2695
    STRESS:  cpu time    0.8969: real time    0.8970
    FORCOR:  cpu time    0.0330: real time    0.0339
    FORHAR:  cpu time    0.0020: real time    0.0028
    MIXING:  cpu time    0.0010: real time    0.0009
    OFIELD:  cpu time    0.0000: real time    0.0002

  FORCE on cell =-STRESS in cart. coord.  units (eV):
  Direction    XX          YY          ZZ          XY          YZ          ZX
  --------------------------------------------------------------------------------------
  Alpha Z   122.61424   122.61424   122.61424
  Ewald    -395.72800  -395.72800  -395.72800     0.00000     0.00000     0.00000
  Hartree    62.97851    62.97851    62.97851    -0.00000    -0.00000    -0.00000
  E(xc)     -79.43685   -79.43685   -79.43685     0.00000     0.00000     0.00000
  Local     118.35683   118.35683   118.35683     0.00000     0.00000     0.00000
  n-local   -54.95304   -51.65194   -49.06901     2.19400    -0.81600     0.59586
  augment    77.37302    77.37302    77.37302     0.00000     0.00000     0.00000
  Kinetic   147.93832   145.44298   143.81235     2.56865    -0.46456     0.17808
  Fock        0.00000     0.00000     0.00000     0.00000     0.00000     0.00000
  -------------------------------------------------------------------------------------
  Total      -0.00235    -0.00235    -0.00235    -0.00000    -0.00000     0.00000
  in kB      -0.16720    -0.16720    -0.16720    -0.00000    -0.00000     0.00000
  external pressure =       -0.17 kB  Pullay stress =        0.00 kB


 VOLUME and BASIS-vectors are now :
 -----------------------------------------------------------------------------
  energy-cutoff  :      350.00
  volume of cell :       22.55
      direct lattice vectors                 reciprocal lattice vectors
     2.825061471 -0.000000000  0.000000000     0.353974598 -0.000000000  0.000000000
     0.000000000  2.825061471  0.000000000     0.000000000  0.353974598  0.000000000
    -0.000000000 -0.000000000  2.825061471    -0.000000000 -0.000000000  0.353974598

  length of vectors
     2.825061471  2.825061471  2.825061471     0.353974598  0.353974598  0.353974598


 FORCES acting on ions
    electron-ion (+dipol)            ewald-force                    non-local-force                 convergence-correction
 -----------------------------------------------------------------------------------------------
   -.777E-14 -.163E-13 -.195E-13   0.415E-14 -.285E-14 -.270E-14   0.930E-26 -.244E-27 0.517E-25   0.239E-14 0.225E-13 0.340E-14
   0.139E-12 -.554E-12 0.344E-13   -.294E-14 0.370E-14 0.103E-14   0.990E-25 -.259E-27 0.517E-25   0.185E-13 0.175E-13 0.749E-14
 -----------------------------------------------------------------------------------------------
   0.132E-12 -.570E-12 0.149E-13   0.121E-14 0.851E-15 -.167E-14   0.108E-24 -.503E-27 0.103E-24   0.208E-13 0.400E-13 0.109E-13
 
 
 POSITION                                       TOTAL-FORCE (eV/Angst)
 -----------------------------------------------------------------------------------
      0.00000      0.00000     -0.00000         0.000000     -0.000000      0.000000
      1.41253      1.41253      1.41253        -0.000000      0.000000     -0.000000
 -----------------------------------------------------------------------------------
    total drift:                                0.000000     -0.000000      0.000000


--------------------------------------------------------------------------------------------------------



  FREE ENERGIE OF THE ION-ELECTRON SYSTEM (eV)
  ---------------------------------------------------
  free  energy   TOTEN  =       -16.49494189 eV

  energy  without entropy=      -16.48729536  energy(sigma->0) =      -16.49239305
 
 d Force = 0.0000000E+00[ 0.000E+00, 0.000E+00]  d Energy = 0.5432121E-05-0.543E-05
 d Force = 0.0000000E+00[ 0.000E+00, 0.000E+00]  d Ewald  = 0.2101831E+00-0.210E+00


--------------------------------------------------------------------------------------------------------


    POTLOK:  cpu time    1.5978: real time    1.6038


--------------------------------------------------------------------------------------------------------




--------------------------------------------------------------------------------------------------------


  
 reached required accuracy - stopping structural energy minimisation
 writing wavefunctions
     LOOP+:  cpu time   20.1379: real time   20.6470
    4ORBIT:  cpu time    0.0000: real time    0.0000



 total charge

# of ion       s       p       d       tot
------------------------------------------
    1        0.489   0.549   6.243   7.280
    2        0.489   0.549   6.243   7.280
--------------------------------------------------
tot          0.978   1.098  12.485  14.561



 magnetization (x)

# of ion       s       p       d       tot
------------------------------------------
    1       -0.016  -0.064   2.211   2.131
    2       -0.016  -0.064   2.211   2.131
--------------------------------------------------
tot         -0.031  -0.129   4.423   4.263
 

 total amount of memory used by VASP MPI-rank0    37318. kBytes
=======================================================================

   base      :      30000. kBytes
   nonl-proj :       1866. kBytes
   fftplans  :       1775. kBytes
   grid      :       1353. kBytes
   one-center:         62. kBytes
   wavefun   :       2262. kBytes
 
  
  
 General timing and accounting informations for this job:
 ========================================================
  
                  Total CPU time used (sec):      115.333
                            User time (sec):      113.957
                          System time (sec):        1.377
                         Elapsed time (sec):      122.284
  
                   Maximum memory used (kb):       66876.
                   Average memory used (kb):          N/A
  
                          Minor page faults:        10950
                          Major page faults:            1
                 Voluntary context switches:       127041
