   2   2   0   0
  0.2016476E+02  0.3849278E-09  0.3849279E-09  0.3849278E-09  0.5000000E-15
  1.000000000000000E-004
  CAR 
 unknown system                          
     16.46582201     -7.27112759  301      5.86579046      1.00000000
     -7.271  0.0000E+00  0.0000E+00
     -7.192  0.0000E+00  0.0000E+00
     -7.113  0.0000E+00  0.0000E+00
     -7.034  0.0000E+00  0.0000E+00
     -6.955  0.0000E+00  0.0000E+00
     -6.876  0.0000E+00  0.0000E+00
     -6.796  0.0000E+00  0.0000E+00
     -6.717  0.0000E+00  0.0000E+00
     -6.638  0.0000E+00  0.0000E+00
     -6.559  0.0000E+00  0.0000E+00
     -6.480  0.1663E-19  0.1316E-20
     -6.401  0.1361E-12  0.1077E-13
     -6.322  0.9407E-08  0.7443E-09
     -6.243  0.6540E-05  0.5182E-06
     -6.163  0.2181E-03  0.1778E-04
     -6.084  0.8646E-03  0.8619E-04
     -6.005  0.1323E-02  0.1909E-03
     -5.926  0.1889E-02  0.3403E-03
     -5.847  0.1401E-02  0.4512E-03
     -5.768  0.2880E-02  0.6791E-03
     -5.689  0.2501E-02  0.8769E-03
     -5.610  0.1829E-02  0.1022E-02
     -5.530  0.3223E-02  0.1277E-02
     -5.451  0.3813E-02  0.1578E-02
     -5.372  0.3159E-02  0.1828E-02
     -5.293  0.2221E-02  0.2004E-02
     -5.214  0.3812E-02  0.2306E-02
     -5.135  0.4783E-02  0.2684E-02
     -5.056  0.5062E-02  0.3085E-02
     -4.977  0.1985E-02  0.3242E-02
     -4.897  0.4238E-02  0.3577E-02
     -4.818  0.5267E-02  0.3994E-02
     -4.739  0.4422E-02  0.4343E-02
     -4.660  0.6124E-02  0.4828E-02
     -4.581  0.5533E-02  0.5266E-02
     -4.502  0.2883E-02  0.5494E-02
     -4.423  0.5354E-02  0.5918E-02
     -4.344  0.6385E-02  0.6423E-02
     -4.264  0.6760E-02  0.6958E-02
     -4.185  0.7753E-02  0.7571E-02
     -4.106  0.6293E-02  0.8069E-02
     -4.027  0.4530E-02  0.8427E-02
     -3.948  0.6056E-02  0.8907E-02
     -3.869  0.1046E-01  0.9735E-02
     -3.790  0.1200E-01  0.1068E-01
     -3.711  0.9538E-02  0.1144E-01
     -3.631  0.4307E-02  0.1178E-01
     -3.552  0.6945E-02  0.1233E-01
     -3.473  0.9263E-02  0.1306E-01
     -3.394  0.8614E-02  0.1374E-01
     -3.315  0.7566E-02  0.1434E-01
     -3.236  0.9270E-02  0.1508E-01
     -3.157  0.2858E-02  0.1530E-01
     -3.078  0.5571E-02  0.1574E-01
     -2.998  0.5880E-02  0.1621E-01
     -2.919  0.1067E-01  0.1705E-01
     -2.840  0.4801E-02  0.1743E-01
     -2.761  0.3282E-02  0.1769E-01
     -2.682  0.2866E-02  0.1792E-01
     -2.603  0.4092E-02  0.1824E-01
     -2.524  0.9174E-02  0.1897E-01
     -2.445  0.3746E-02  0.1926E-01
     -2.365  0.1222E-02  0.1936E-01
     -2.286  0.1892E-02  0.1951E-01
     -2.207  0.1981E-02  0.1967E-01
     -2.128  0.3363E-02  0.1993E-01
     -2.049  0.1525E-02  0.2005E-01
     -1.970  0.1049E-02  0.2014E-01
     -1.891  0.9934E-03  0.2022E-01
     -1.812  0.1180E-02  0.2031E-01
     -1.733  0.1327E-02  0.2041E-01
     -1.653  0.1948E-02  0.2057E-01
     -1.574  0.5100E-02  0.2097E-01
     -1.495  0.6045E-02  0.2145E-01
     -1.416  0.4543E-02  0.2181E-01
     -1.337  0.3017E-02  0.2205E-01
     -1.258  0.3205E-02  0.2230E-01
     -1.179  0.7203E-02  0.2287E-01
     -1.100  0.1917E-01  0.2439E-01
     -1.020  0.1651E-01  0.2569E-01
     -0.941  0.1120E-01  0.2658E-01
     -0.862  0.7992E-02  0.2721E-01
     -0.783  0.6841E-02  0.2775E-01
     -0.704  0.1081E-01  0.2861E-01
     -0.625  0.9185E-02  0.2934E-01
     -0.546  0.3891E-02  0.2965E-01
     -0.467  0.6473E-02  0.3016E-01
     -0.387  0.8353E-02  0.3082E-01
     -0.308  0.2878E-02  0.3105E-01
     -0.229  0.3414E-02  0.3132E-01
     -0.150  0.8931E-02  0.3202E-01
     -0.071  0.4341E-02  0.3237E-01
      0.008  0.3085E-02  0.3261E-01
      0.087  0.5678E-02  0.3306E-01
      0.166  0.3959E-02  0.3337E-01
      0.246  0.1517E-02  0.3349E-01
      0.325  0.3021E-02  0.3373E-01
      0.404  0.7221E-02  0.3430E-01
      0.483  0.4310E-02  0.3464E-01
      0.562  0.2304E-02  0.3483E-01
      0.641  0.6891E-03  0.3488E-01
      0.720  0.2949E-02  0.3511E-01
      0.799  0.5352E-02  0.3554E-01
      0.879  0.2559E-02  0.3574E-01
      0.958  0.1703E-03  0.3575E-01
      1.037  0.1995E-02  0.3591E-01
      1.116  0.6082E-02  0.3639E-01
      1.195  0.3015E-02  0.3663E-01
      1.274  0.9424E-03  0.3671E-01
      1.353  0.2152E-02  0.3688E-01
      1.432  0.5663E-02  0.3732E-01
      1.512  0.9259E-02  0.3806E-01
      1.591  0.7549E-02  0.3865E-01
      1.670  0.1437E-01  0.3979E-01
      1.749  0.1221E-01  0.4076E-01
      1.828  0.1228E-01  0.4173E-01
      1.907  0.1372E-01  0.4281E-01
      1.986  0.7958E-02  0.4344E-01
      2.065  0.6711E-02  0.4397E-01
      2.145  0.8428E-02  0.4464E-01
      2.224  0.1728E-01  0.4601E-01
      2.303  0.1241E-01  0.4699E-01
      2.382  0.7442E-02  0.4758E-01
      2.461  0.8050E-02  0.4822E-01
      2.540  0.9353E-02  0.4896E-01
      2.619  0.1399E-01  0.5006E-01
      2.698  0.1778E-01  0.5147E-01
      2.778  0.1333E-01  0.5253E-01
      2.857  0.1094E-01  0.5339E-01
      2.936  0.1609E-01  0.5466E-01
      3.015  0.1457E-01  0.5582E-01
      3.094  0.1463E-01  0.5697E-01
      3.173  0.1792E-01  0.5839E-01
      3.252  0.1077E-01  0.5924E-01
      3.331  0.9322E-02  0.5998E-01
      3.410  0.1555E-01  0.6121E-01
      3.490  0.2401E-01  0.6311E-01
      3.569  0.1305E-01  0.6414E-01
      3.648  0.1296E-01  0.6517E-01
      3.727  0.9195E-02  0.6590E-01
      3.806  0.1067E-01  0.6674E-01
      3.885  0.1386E-01  0.6784E-01
      3.964  0.1225E-01  0.6881E-01
      4.043  0.1465E-01  0.6997E-01
      4.123  0.1300E-01  0.7100E-01
      4.202  0.8854E-02  0.7170E-01
      4.281  0.1419E-01  0.7282E-01
      4.360  0.1352E-01  0.7389E-01
      4.439  0.5952E-02  0.7436E-01
      4.518  0.1402E-01  0.7547E-01
      4.597  0.1056E-01  0.7630E-01
      4.676  0.4341E-02  0.7665E-01
      4.756  0.5951E-02  0.7712E-01
      4.835  0.7373E-02  0.7770E-01
      4.914  0.3330E-02  0.7797E-01
      4.993  0.3023E-02  0.7820E-01
      5.072  0.6173E-02  0.7869E-01
      5.151  0.4494E-02  0.7905E-01
      5.230  0.3368E-02  0.7931E-01
      5.309  0.2292E-02  0.7950E-01
      5.389  0.2324E-02  0.7968E-01
      5.468  0.1576E-02  0.7980E-01
      5.547  0.8280E-03  0.7987E-01
      5.626  0.1380E-02  0.7998E-01
      5.705  0.2479E-03  0.8000E-01
      5.784  0.1252E-04  0.8000E-01
      5.863  0.1417E-07  0.8000E-01
      5.942  0.1421E-12  0.8000E-01
      6.022  0.6985E-15  0.8000E-01
      6.101  0.4935E-09  0.8000E-01
      6.180  0.2869E-05  0.8000E-01
      6.259  0.2100E-03  0.8002E-01
      6.338  0.6064E-03  0.8006E-01
      6.417  0.1351E-02  0.8017E-01
      6.496  0.2483E-02  0.8037E-01
      6.575  0.2661E-02  0.8058E-01
      6.655  0.1344E-02  0.8068E-01
      6.734  0.5526E-02  0.8112E-01
      6.813  0.4646E-02  0.8149E-01
      6.892  0.3251E-02  0.8175E-01
      6.971  0.7436E-02  0.8234E-01
      7.050  0.5835E-02  0.8280E-01
      7.129  0.8507E-02  0.8347E-01
      7.208  0.6406E-02  0.8398E-01
      7.288  0.4883E-02  0.8436E-01
      7.367  0.7451E-02  0.8495E-01
      7.446  0.8048E-02  0.8559E-01
      7.525  0.8673E-02  0.8628E-01
      7.604  0.1424E-01  0.8740E-01
      7.683  0.1162E-01  0.8832E-01
      7.762  0.1141E-01  0.8923E-01
      7.841  0.1480E-01  0.9040E-01
      7.921  0.1337E-01  0.9145E-01
      8.000  0.2379E-01  0.9334E-01
      8.079  0.1682E-01  0.9467E-01
      8.158  0.1194E-01  0.9561E-01
      8.237  0.1714E-01  0.9697E-01
      8.316  0.1661E-01  0.9828E-01
      8.395  0.7145E-02  0.9885E-01
      8.474  0.7009E-02  0.9940E-01
      8.554  0.1285E-01  0.1004E+00
      8.633  0.9483E-02  0.1012E+00
      8.712  0.9359E-02  0.1019E+00
      8.791  0.7277E-02  0.1025E+00
      8.870  0.1590E-01  0.1037E+00
      8.949  0.2705E-01  0.1059E+00
      9.028  0.2194E-01  0.1076E+00
      9.107  0.2039E-01  0.1092E+00
      9.186  0.2034E-01  0.1108E+00
      9.266  0.1598E-01  0.1121E+00
      9.345  0.1606E-01  0.1134E+00
      9.424  0.1604E-01  0.1146E+00
      9.503  0.2006E-01  0.1162E+00
      9.582  0.1480E-01  0.1174E+00
      9.661  0.1082E-01  0.1183E+00
      9.740  0.1187E-01  0.1192E+00
      9.819  0.1106E-01  0.1201E+00
      9.899  0.9764E-02  0.1208E+00
      9.978  0.1447E-01  0.1220E+00
     10.057  0.9053E-02  0.1227E+00
     10.136  0.1228E-01  0.1237E+00
     10.215  0.1686E-01  0.1250E+00
     10.294  0.1849E-01  0.1265E+00
     10.373  0.7759E-02  0.1271E+00
     10.452  0.6147E-02  0.1276E+00
     10.532  0.1161E-01  0.1285E+00
     10.611  0.2312E-01  0.1303E+00
     10.690  0.1227E-01  0.1313E+00
     10.769  0.1520E-01  0.1325E+00
     10.848  0.1877E-01  0.1340E+00
     10.927  0.1008E-01  0.1348E+00
     11.006  0.1139E-01  0.1357E+00
     11.085  0.1095E-01  0.1365E+00
     11.165  0.5653E-02  0.1370E+00
     11.244  0.7449E-02  0.1376E+00
     11.323  0.7559E-02  0.1382E+00
     11.402  0.7940E-02  0.1388E+00
     11.481  0.8239E-02  0.1395E+00
     11.560  0.6840E-02  0.1400E+00
     11.639  0.1447E-01  0.1412E+00
     11.718  0.1389E-01  0.1422E+00
     11.798  0.1409E-01  0.1434E+00
     11.877  0.1780E-01  0.1448E+00
     11.956  0.1347E-01  0.1458E+00
     12.035  0.1184E-01  0.1468E+00
     12.114  0.9869E-02  0.1476E+00
     12.193  0.7236E-02  0.1481E+00
     12.272  0.5320E-02  0.1485E+00
     12.351  0.3750E-02  0.1488E+00
     12.431  0.1053E-01  0.1497E+00
     12.510  0.4436E-02  0.1500E+00
     12.589  0.4594E-02  0.1504E+00
     12.668  0.7197E-02  0.1510E+00
     12.747  0.6251E-02  0.1515E+00
     12.826  0.5622E-02  0.1519E+00
     12.905  0.6081E-02  0.1524E+00
     12.984  0.8685E-02  0.1531E+00
     13.064  0.5880E-02  0.1535E+00
     13.143  0.1314E-01  0.1546E+00
     13.222  0.1180E-01  0.1555E+00
     13.301  0.2809E-02  0.1557E+00
     13.380  0.4866E-02  0.1561E+00
     13.459  0.3952E-02  0.1564E+00
     13.538  0.5295E-02  0.1568E+00
     13.617  0.4988E-02  0.1572E+00
     13.697  0.1438E-02  0.1574E+00
     13.776  0.1642E-02  0.1575E+00
     13.855  0.4566E-02  0.1578E+00
     13.934  0.1317E-02  0.1580E+00
     14.013  0.1654E-02  0.1581E+00
     14.092  0.3343E-02  0.1583E+00
     14.171  0.2536E-02  0.1585E+00
     14.250  0.2699E-02  0.1588E+00
     14.329  0.2797E-02  0.1590E+00
     14.409  0.6554E-02  0.1595E+00
     14.488  0.1775E-02  0.1596E+00
     14.567  0.1560E-04  0.1596E+00
     14.646  0.2291E-08  0.1596E+00
     14.725  0.3236E-14  0.1596E+00
     14.804  0.0000E+00  0.1596E+00
     14.883  0.2377E-14  0.1596E+00
     14.962  0.1762E-08  0.1596E+00
     15.042  0.1056E-04  0.1596E+00
     15.121  0.6891E-03  0.1597E+00
     15.200  0.1163E-02  0.1598E+00
     15.279  0.1147E-02  0.1599E+00
     15.358  0.7607E-03  0.1599E+00
     15.437  0.6542E-03  0.1600E+00
     15.516  0.6928E-04  0.1600E+00
     15.595  0.1124E-06  0.1600E+00
     15.675  0.1633E-11  0.1600E+00
     15.754  0.1996E-18  0.1600E+00
     15.833  0.0000E+00  0.1600E+00
     15.912  0.0000E+00  0.1600E+00
     15.991  0.0000E+00  0.1600E+00
     16.070  0.0000E+00  0.1600E+00
     16.149  0.0000E+00  0.1600E+00
     16.228  0.0000E+00  0.1600E+00
     16.308  0.0000E+00  0.1600E+00
     16.387  0.0000E+00  0.1600E+00
     16.466  0.0000E+00  0.1600E+00
