    2    2  100    1
  0.2016476E+02  0.3849278E-09  0.3849279E-09  0.3849278E-09  0.5000000E-15
  1.000000000000000E-004
  CAR 
 unknown system                          
      8    120      8
 
  0.0000000E+00  0.0000000E+00  0.0000000E+00  0.2962963E-03
    1       -6.192175   1.000000
    2        5.648645   1.000000
    3        5.648646   1.000000
    4        5.648649   1.000000
    5        8.208728   0.000000
    6        8.208735   0.000000
    7        8.208736   0.000000
    8        8.794807   0.000000
 
  0.6666667E-01 -0.3469447E-17  0.0000000E+00  0.2370370E-02
    1       -6.134804   1.000000
    2        5.054439   1.000000
    3        5.554954   1.000000
    4        5.554956   1.000000
    5        8.246147   0.000000
    6        8.346375   0.000000
    7        8.346381   0.000000
    8        9.255397   0.000000
 
  0.1333333E+00 -0.6938894E-17  0.0000000E+00  0.2370370E-02
    1       -5.963940   1.000000
    2        3.898813   1.000000
    3        5.331848   1.000000
    4        5.331850   1.000000
    5        8.068177   0.000000
    6        8.670864   0.000000
    7        8.670871   0.000000
    8       10.341328   0.000000
 
  0.2000000E+00  0.0000000E+00  0.0000000E+00  0.2370370E-02
    1       -5.683266   1.000000
    2        2.657002   1.000000
    3        5.076407   1.000000
    4        5.076410   1.000000
    5        7.807157   0.000000
    6        8.999968   0.000000
    7        8.999975   0.000000
    8       11.540171   0.000000
 
  0.2666667E+00 -0.1387779E-16  0.0000000E+00  0.2370370E-02
    1       -5.301838   1.000000
    2        1.458467   1.000000
    3        4.843522   1.000000
    4        4.843525   1.000000
    5        7.555334   0.000000
    6        9.170393   0.000000
    7        9.170401   0.000000
    8       12.686033   0.000000
 
  0.3333333E+00 -0.1387779E-16  0.0000000E+00  0.2370370E-02
    1       -4.839506   1.000000
    2        0.362785   1.000000
    3        4.658910   1.000000
    4        4.658913   1.000000
    5        7.350417   0.000000
    6        9.161912   0.000000
    7        9.161920   0.000000
    8       13.438155   0.000000
 
  0.4000000E+00 -0.2775558E-16  0.0000000E+00  0.2370370E-02
    1       -4.347248   1.000000
    2       -0.558211   1.000000
    3        4.533216   1.000000
    4        4.533219   1.000000
    5        7.205780   0.000000
    6        9.081186   0.000000
    7        9.081195   0.000000
    8       13.454705   0.000000
 
  0.4666667E+00 -0.2775558E-16  0.0000000E+00  0.2370370E-02
    1       -3.968372   1.000000
    2       -1.153567   1.000000
    3        4.469222   1.000000
    4        4.469226   1.000000
    5        7.132591   0.000000
    6        9.018718   0.000000
    7        9.018727   0.000000
    8       13.364355   0.000000
 
  0.6666667E-01  0.6666667E-01  0.0000000E+00  0.1777778E-02
    1       -6.115664   1.000000
    2        5.164188   1.000000
    3        5.360706   1.000000
    4        5.360708   1.000000
    5        8.029622   0.000000
    6        8.591108   0.000000
    7        8.591113   0.000000
    8        9.255506   0.000000
 
  0.1333333E+00  0.6666667E-01  0.0000000E+00  0.7111111E-02
    1       -5.982338   1.000000
    2        4.237156   1.000000
    3        5.085924   1.000000
    4        5.252706   1.000000
    5        8.027698   0.000000
    6        8.656015   0.000000
    7        8.987379   0.000000
    8       10.049166   0.000000
 
  0.2000000E+00  0.6666667E-01  0.0000000E+00  0.7111111E-02
    1       -5.737823   1.000000
    2        3.047016   1.000000
    3        4.813691   1.000000
    4        5.035663   1.000000
    5        8.106353   0.000000
    6        8.652468   0.000000
    7        9.373226   0.000000
    8       10.931174   0.000000
 
  0.2666667E+00  0.6666667E-01  0.0000000E+00  0.7111111E-02
    1       -5.388815   1.000000
    2        1.849698   1.000000
    3        4.587785   1.000000
    4        4.763866   1.000000
    5        7.964401   0.000000
    6        8.841693   0.000000
    7        9.587292   0.000000
    8       11.421915   0.000000
 
  0.3333333E+00  0.6666667E-01  0.0000000E+00  0.7111111E-02
    1       -4.950178   1.000000
    2        0.726771   1.000000
    3        4.427610   1.000000
    4        4.503552   1.000000
    5        7.773467   0.000000
    6        8.938030   0.000000
    7        9.577789   0.000000
    8       11.992416   0.000000
 
  0.4000000E+00  0.6666667E-01  0.0000000E+00  0.7111111E-02
    1       -4.458541   1.000000
    2       -0.255886   1.000000
    3        4.284511   1.000000
    4        4.340626   1.000000
    5        7.618412   0.000000
    6        8.928133   0.000000
    7        9.443812   0.000000
    8       12.791848   0.000000
 
  0.4666667E+00  0.6666667E-01  0.0000000E+00  0.7111111E-02
    1       -4.015617   1.000000
    2       -0.983110   1.000000
    3        4.121324   1.000000
    4        4.327007   1.000000
    5        7.523119   0.000000
    6        8.918460   0.000000
    7        9.294351   0.000000
    8       13.420071   0.000000
 
 -0.4666667E+00  0.6666667E-01  0.0000000E+00  0.7111111E-02
    1       -3.864108   1.000000
    2       -1.205639   1.000000
    3        4.023364   1.000000
    4        4.385760   1.000000
    5        7.498593   0.000000
    6        8.967710   0.000000
    7        9.192075   0.000000
    8       13.554515   0.000000
 
 -0.4000000E+00  0.6666667E-01  0.0000000E+00  0.7111111E-02
    1       -4.146652   1.000000
    2       -0.779961   1.000000
    3        3.995967   1.000000
    4        4.509884   1.000000
    5        7.544688   0.000000
    6        9.085710   0.000000
    7        9.149771   0.000000
    8       13.527596   0.000000
 
 -0.3333333E+00  0.6666667E-01  0.0000000E+00  0.7111111E-02
    1       -4.624950   1.000000
    2        0.052586   1.000000
    3        4.044952   1.000000
    4        4.692266   1.000000
    5        7.661268   0.000000
    6        9.145374   0.000000
    7        9.244723   0.000000
    8       13.129134   0.000000
 
 -0.2666667E+00  0.6666667E-01  0.0000000E+00  0.7111111E-02
    1       -5.105326   1.000000
    2        1.090398   1.000000
    3        4.171976   1.000000
    4        4.921546   1.000000
    5        7.839348   0.000000
    6        9.102372   0.000000
    7        9.357199   0.000000
    8       12.376942   0.000000
 
 -0.2000000E+00  0.6666667E-01  0.0000000E+00  0.7111111E-02
    1       -5.516559   1.000000
    2        2.241179   1.000000
    3        4.378542   1.000000
    4        5.176881   1.000000
    5        8.062980   0.000000
    6        8.922015   0.000000
    7        9.275610   0.000000
    8       11.635869   0.000000
 
 -0.1333333E+00  0.6666667E-01  0.0000000E+00  0.7111111E-02
    1       -5.831730   1.000000
    2        3.431085   1.000000
    3        4.666157   1.000000
    4        5.419467   1.000000
    5        8.303254   0.000000
    6        8.618081   0.000000
    7        8.927333   0.000000
    8       10.820116   0.000000
 
 -0.6666667E-01  0.6666667E-01  0.0000000E+00  0.3555556E-02
    1       -6.039499   1.000000
    2        4.490545   1.000000
    3        5.070858   1.000000
    4        5.575071   1.000000
    5        8.366742   0.000000
    6        8.469583   0.000000
    7        8.477355   0.000000
    8        9.883515   0.000000
 
  0.1333333E+00  0.1333333E+00  0.0000000E+00  0.1777778E-02
    1       -5.886761   1.000000
    2        4.156726   1.000000
    3        4.779642   1.000000
    4        4.779643   1.000000
    5        7.606105   0.000000
    6        9.450060   0.000000
    7        9.450063   0.000000
    8        9.925616   0.000000
 
  0.2000000E+00  0.1333333E+00  0.0000000E+00  0.7111111E-02
    1       -5.679012   1.000000
    2        3.279353   1.000000
    3        4.490718   1.000000
    4        4.561218   1.000000
    5        7.572718   0.000000
    6        9.465519   0.000000
    7        9.917826   0.000000
    8       10.264421   0.000000
 
  0.2666667E+00  0.1333333E+00  0.0000000E+00  0.7111111E-02
    1       -5.364219   1.000000
    2        2.185135   1.000000
    3        4.257820   1.000000
    4        4.274950   1.000000
    5        7.765090   0.000000
    6        9.378926   0.000000
    7       10.226870   0.000000
    8       10.315827   0.000000
 
  0.3333333E+00  0.1333333E+00  0.0000000E+00  0.7111111E-02
    1       -4.953482   1.000000
    2        1.091907   1.000000
    3        3.946824   1.000000
    4        4.099465   1.000000
    5        7.864650   0.000000
    6        9.394290   0.000000
    7       10.278124   0.000000
    8       10.529333   0.000000
 
  0.4000000E+00  0.1333333E+00  0.0000000E+00  0.7111111E-02
    1       -4.473170   1.000000
    2        0.088413   1.000000
    3        3.642561   1.000000
    4        4.023154   1.000000
    5        7.838952   0.000000
    6        9.336052   0.000000
    7       10.141557   0.000000
    8       11.230081   0.000000
 
  0.4666667E+00  0.1333333E+00  0.0000000E+00  0.7111111E-02
    1       -3.993985   1.000000
    2       -0.725471   1.000000
    3        3.391852   1.000000
    4        4.031192   1.000000
    5        7.808039   0.000000
    6        9.259801   0.000000
    7        9.943178   0.000000
    8       12.240006   0.000000
 
 -0.4666667E+00  0.1333333E+00  0.0000000E+00  0.7111111E-02
    1       -3.711132   1.000000
    2       -1.141977   1.000000
    3        3.211894   1.000000
    4        4.120468   1.000000
    5        7.835434   0.000000
    6        9.238600   0.000000
    7        9.765096   0.000000
    8       13.345107   0.000000
 
 -0.4000000E+00  0.1333333E+00  0.0000000E+00  0.7111111E-02
    1       -3.867470   1.000000
    2       -0.915152   1.000000
    3        3.113831   1.000000
    4        4.284188   1.000000
    5        7.933154   0.000000
    6        9.291776   0.000000
    7        9.636655   0.000000
    8       13.769986   0.000000
 
 -0.3333333E+00  0.1333333E+00  0.0000000E+00  0.7111111E-02
    1       -4.313235   1.000000
    2       -0.197384   1.000000
    3        3.107734   1.000000
    4        4.511168   1.000000
    5        8.093180   0.000000
    6        9.410943   0.000000
    7        9.543639   0.000000
    8       12.931245   0.000000
 
 -0.2666667E+00  0.1333333E+00  0.0000000E+00  0.7111111E-02
    1       -4.804462   1.000000
    2        0.752330   1.000000
    3        3.206222   1.000000
    4        4.782932   1.000000
    5        8.296283   0.000000
    6        9.420040   0.000000
    7        9.529412   0.000000
    8       12.028959   0.000000
 
 -0.2000000E+00  0.1333333E+00  0.0000000E+00  0.7111111E-02
    1       -5.241449   1.000000
    2        1.791427   1.000000
    3        3.438545   1.000000
    4        5.066918   1.000000
    5        8.511104   0.000000
    6        9.171098   0.000000
    7        9.452946   0.000000
    8       11.411356   0.000000
 
 -0.1333333E+00  0.1333333E+00  0.0000000E+00  0.3555556E-02
    1       -5.588719   1.000000
    2        2.754900   1.000000
    3        3.894340   1.000000
    4        5.308292   1.000000
    5        8.637472   0.000000
    6        8.836548   0.000000
    7        9.076549   0.000000
    8       11.159349   0.000000
 
  0.2000000E+00  0.2000000E+00  0.0000000E+00  0.1777778E-02
    1       -5.507888   1.000000
    2        3.008871   1.000000
    3        4.185053   1.000000
    4        4.185053   1.000000
    5        7.125078   0.000000
    6        9.513620   0.000000
    7       10.502284   0.000000
    8       10.502285   0.000000
 
  0.2666667E+00  0.2000000E+00  0.0000000E+00  0.7111111E-02
    1       -5.228183   1.000000
    2        2.240501   1.000000
    3        3.876005   1.000000
    4        3.937017   1.000000
    5        7.116290   0.000000
    6        9.159734   0.000000
    7       10.776843   0.000000
    8       10.965775   0.000000
 
  0.3333333E+00  0.2000000E+00  0.0000000E+00  0.7111111E-02
    1       -4.848174   1.000000
    2        1.308559   1.000000
    3        3.471727   1.000000
    4        3.766497   1.000000
    5        7.330179   0.000000
    6        9.176282   0.000000
    7       10.693438   0.000000
    8       11.147704   0.000000
 
  0.4000000E+00  0.2000000E+00  0.0000000E+00  0.7111111E-02
    1       -4.386696   1.000000
    2        0.371481   1.000000
    3        3.059204   1.000000
    4        3.682463   1.000000
    5        7.440152   0.000000
    6        9.731393   0.000000
    7       10.527296   0.000000
    8       11.065831   0.000000
 
  0.4666667E+00  0.2000000E+00  0.0000000E+00  0.7111111E-02
    1       -3.892723   1.000000
    2       -0.460881   1.000000
    3        2.703332   1.000000
    4        3.688036   1.000000
    5        7.475462   0.000000
    6       10.366888   0.000000
    7       10.691458   0.000000
    8       10.857732   0.000000
 
 -0.4666667E+00  0.2000000E+00  0.0000000E+00  0.7111111E-02
    1       -3.510950   1.000000
    2       -1.012741   1.000000
    3        2.432760   1.000000
    4        3.781996   1.000000
    5        7.552558   0.000000
    6       10.259883   0.000000
    7       10.635027   0.000000
    8       11.870216   0.000000
 
 -0.4000000E+00  0.2000000E+00  0.0000000E+00  0.7111111E-02
    1       -3.523518   1.000000
    2       -0.991688   1.000000
    3        2.263950   1.000000
    4        3.957481   1.000000
    5        7.713145   0.000000
    6       10.210500   0.000000
    7       10.442128   0.000000
    8       13.167242   0.000000
 
 -0.3333333E+00  0.2000000E+00  0.0000000E+00  0.7111111E-02
    1       -3.916235   1.000000
    2       -0.417927   1.000000
    3        2.216574   1.000000
    4        4.204034   1.000000
    5        7.954810   0.000000
    6       10.218514   0.000000
    7       10.266135   0.000000
    8       12.811105   0.000000
 
 -0.2666667E+00  0.2000000E+00  0.0000000E+00  0.7111111E-02
    1       -4.408915   1.000000
    2        0.391332   1.000000
    3        2.329643   1.000000
    4        4.500527   1.000000
    5        8.244744   0.000000
    6       10.024630   0.000000
    7       10.215470   0.000000
    8       11.818747   0.000000
 
 -0.2000000E+00  0.2000000E+00  0.0000000E+00  0.3555556E-02
    1       -4.866119   1.000000
    2        1.190803   1.000000
    3        2.700159   1.000000
    4        4.810021   1.000000
    5        8.507784   0.000000
    6        9.618520   0.000000
    7        9.935315   0.000000
    8       11.317588   0.000000
 
  0.2666667E+00  0.2666667E+00  0.0000000E+00  0.1777778E-02
    1       -4.983158   1.000000
    2        1.826863   1.000000
    3        3.670295   1.000000
    4        3.670296   1.000000
    5        6.704580   0.000000
    6        8.554617   0.000000
    7       11.647700   0.000000
    8       11.647700   0.000000
 
  0.3333333E+00  0.2666667E+00  0.0000000E+00  0.7111111E-02
    1       -4.635236   1.000000
    2        1.145488   1.000000
    3        3.321140   1.000000
    4        3.480234   1.000000
    5        6.747726   0.000000
    6        8.250603   0.000000
    7       11.928316   0.000000
    8       12.069268   0.000000
 
  0.4000000E+00  0.2666667E+00  0.0000000E+00  0.7111111E-02
    1       -4.197953   1.000000
    2        0.383276   1.000000
    3        2.810667   1.000000
    4        3.378224   1.000000
    5        6.960160   0.000000
    6        8.448327   0.000000
    7       11.865351   0.000000
    8       12.121092   0.000000
 
  0.4666667E+00  0.2666667E+00  0.0000000E+00  0.7111111E-02
    1       -3.704735   1.000000
    2       -0.360423   1.000000
    3        2.308472   1.000000
    4        3.368714   1.000000
    5        7.055707   0.000000
    6        9.215360   0.000000
    7       11.717724   0.000000
    8       11.949892   0.000000
 
 -0.4666667E+00  0.2666667E+00  0.0000000E+00  0.7111111E-02
    1       -3.257528   1.000000
    2       -0.950768   1.000000
    3        1.907301   1.000000
    4        3.451785   1.000000
    5        7.150383   0.000000
    6       10.304588   0.000000
    7       11.595132   0.000000
    8       11.711574   0.000000
 
 -0.4000000E+00  0.2666667E+00  0.0000000E+00  0.7111111E-02
    1       -3.131076   1.000000
    2       -1.098816   1.000000
    3        1.647591   1.000000
    4        3.621890   1.000000
    5        7.324506   0.000000
    6       11.291641   0.000000
    7       11.465465   0.000000
    8       11.792668   0.000000
 
 -0.3333333E+00  0.2666667E+00  0.0000000E+00  0.7111111E-02
    1       -3.455991   1.000000
    2       -0.691439   1.000000
    3        1.571268   1.000000
    4        3.869223   1.000000
    5        7.590775   0.000000
    6       11.181102   0.000000
    7       11.333099   0.000000
    8       12.719023   0.000000
 
 -0.2666667E+00  0.2666667E+00  0.0000000E+00  0.3555556E-02
    1       -3.940612   1.000000
    2       -0.098511   1.000000
    3        1.763415   1.000000
    4        4.173976   1.000000
    5        7.922698   0.000000
    6       10.702355   0.000000
    7       11.059288   0.000000
    8       11.901558   0.000000
 
  0.3333333E+00  0.3333333E+00  0.0000000E+00  0.1777778E-02
    1       -4.318817   1.000000
    2        0.647824   1.000000
    3        3.268108   1.000000
    4        3.268110   1.000000
    5        6.407272   0.000000
    6        7.678578   0.000000
    7       12.848334   0.000000
    8       12.848335   0.000000
 
  0.4000000E+00  0.3333333E+00  0.0000000E+00  0.7111111E-02
    1       -3.908234   1.000000
    2        0.030848   1.000000
    3        2.923157   1.000000
    4        3.143709   1.000000
    5        6.511249   0.000000
    6        7.500941   0.000000
    7       13.150258   0.000000
    8       13.207905   0.000000
 
  0.4666667E+00  0.3333333E+00  0.0000000E+00  0.7111111E-02
    1       -3.426270   1.000000
    2       -0.592922   1.000000
    3        2.364989   1.000000
    4        3.112475   1.000000
    5        6.697131   0.000000
    6        7.938769   0.000000
    7       13.106994   0.000000
    8       13.155767   0.000000
 
 -0.4666667E+00  0.3333333E+00  0.0000000E+00  0.7111111E-02
    1       -2.942397   1.000000
    2       -1.138289   1.000000
    3        1.824325   1.000000
    4        3.176045   1.000000
    5        6.803588   0.000000
    6        8.907991   0.000000
    7       12.926156   0.000000
    8       12.972622   0.000000
 
 -0.4000000E+00  0.3333333E+00  0.0000000E+00  0.7111111E-02
    1       -2.710385   1.000000
    2       -1.368987   1.000000
    3        1.440354   1.000000
    4        3.330342   1.000000
    5        6.973820   0.000000
    6       10.130176   0.000000
    7       12.611114   0.000000
    8       12.843313   0.000000
 
 -0.3333333E+00  0.3333333E+00  0.0000000E+00  0.3555556E-02
    1       -2.988652   1.000000
    2       -1.081131   1.000000
    3        1.318047   1.000000
    4        3.566826   1.000000
    5        7.241501   0.000000
    6       11.448387   0.000000
    7       12.068265   0.000000
    8       12.644169   0.000000
 
  0.4000000E+00  0.4000000E+00  0.0000000E+00  0.1777778E-02
    1       -3.523651   1.000000
    2       -0.502569   1.000000
    3        2.994706   1.000000
    4        2.994708   1.000000
    5        6.268087   0.000000
    6        7.002904   0.000000
    7       14.078573   0.000000
    8       14.078575   0.000000
 
  0.4666667E+00  0.4000000E+00  0.0000000E+00  0.7111111E-02
    1       -3.059047   1.000000
    2       -1.063729   1.000000
    3        2.684566   1.000000
    4        2.938716   1.000000
    5        6.424954   0.000000
    6        6.982107   0.000000
    7       14.371529   0.000000
    8       14.400146   0.000000
 
 -0.4666667E+00  0.4000000E+00  0.0000000E+00  0.7111111E-02
    1       -2.559413   1.000000
    2       -1.573391   1.000000
    3        2.145432   1.000000
    4        2.978192   1.000000
    5        6.560768   0.000000
    6        7.683570   0.000000
    7       14.203968   0.000000
    8       14.368012   0.000000
 
 -0.4000000E+00  0.4000000E+00  0.0000000E+00  0.3555556E-02
    1       -2.345467   1.000000
    2       -1.741660   1.000000
    3        1.660249   1.000000
    4        3.111114   1.000000
    5        6.715848   0.000000
    6        8.806478   0.000000
    7       13.665280   0.000000
    8       14.247204   0.000000
 
  0.4666667E+00  0.4666667E+00  0.0000000E+00  0.1777778E-02
    1       -2.610820   1.000000
    2       -1.596704   1.000000
    3        2.856732   1.000000
    4        2.856734   1.000000
    5        6.309630   0.000000
    6        6.549438   0.000000
    7       15.278707   0.000000
    8       15.278710   0.000000
 
 -0.4666667E+00  0.4666667E+00  0.0000000E+00  0.3555556E-02
    1       -2.133063   1.000000
    2       -2.073636   1.000000
    3        2.605190   1.000000
    4        2.870032   1.000000
    5        6.438176   0.000000
    6        6.765470   0.000000
    7       15.243171   0.000000
    8       15.386870   0.000000
 
  0.2000000E+00  0.1333333E+00  0.6666667E-01  0.7111111E-02
    1       -5.812035   1.000000
    2        3.583706   1.000000
    3        4.486120   1.000000
    4        5.174923   1.000000
    5        8.012767   0.000000
    6        8.917719   0.000000
    7        9.311663   0.000000
    8       10.539874   0.000000
 
  0.2666667E+00  0.1333333E+00  0.6666667E-01  0.1422222E-01
    1       -5.532318   1.000000
    2        2.570040   1.000000
    3        4.047564   1.000000
    4        4.995568   1.000000
    5        8.198360   0.000000
    6        8.908833   0.000000
    7        9.704147   0.000000
    8       10.772963   0.000000
 
  0.3333333E+00  0.1333333E+00  0.6666667E-01  0.1422222E-01
    1       -5.151901   1.000000
    2        1.459998   1.000000
    3        3.772591   1.000000
    4        4.741485   1.000000
    5        8.235004   0.000000
    6        8.960418   0.000000
    7        9.902643   0.000000
    8       11.010764   0.000000
 
  0.4000000E+00  0.1333333E+00  0.6666667E-01  0.1422222E-01
    1       -4.690351   1.000000
    2        0.406513   1.000000
    3        3.595948   1.000000
    4        4.493726   1.000000
    5        8.127861   0.000000
    6        8.968444   0.000000
    7        9.879106   0.000000
    8       11.630149   0.000000
 
  0.4666667E+00  0.1333333E+00  0.6666667E-01  0.1422222E-01
    1       -4.197654   1.000000
    2       -0.494657   1.000000
    3        3.494929   1.000000
    4        4.300181   1.000000
    5        8.020332   0.000000
    6        8.897363   0.000000
    7        9.781966   0.000000
    8       12.548164   0.000000
 
 -0.4666667E+00  0.1333333E+00  0.6666667E-01  0.1422222E-01
    1       -3.816253   1.000000
    2       -1.083668   1.000000
    3        3.451336   1.000000
    4        4.192802   1.000000
    5        7.960953   0.000000
    6        8.838130   0.000000
    7        9.710900   0.000000
    8       13.498848   0.000000
 
  0.2666667E+00  0.2000000E+00  0.6666667E-01  0.7111111E-02
    1       -5.435604   1.000000
    2        2.616837   1.000000
    3        3.889007   1.000000
    4        4.480404   1.000000
    5        7.550201   0.000000
    6        9.530889   0.000000
    7       10.194886   0.000000
    8       10.398584   0.000000
 
  0.3333333E+00  0.2000000E+00  0.6666667E-01  0.1422222E-01
    1       -5.088141   1.000000
    2        1.705777   1.000000
    3        3.449612   1.000000
    4        4.279411   1.000000
    5        7.784315   0.000000
    6        9.519545   0.000000
    7       10.047947   0.000000
    8       10.772111   0.000000
 
  0.4000000E+00  0.2000000E+00  0.6666667E-01  0.1422222E-01
    1       -4.651058   1.000000
    2        0.724275   1.000000
    3        3.152630   1.000000
    4        4.045577   1.000000
    5        7.938315   0.000000
    6        9.632934   0.000000
    7       10.135919   0.000000
    8       10.875569   0.000000
 
  0.4666667E+00  0.2000000E+00  0.6666667E-01  0.1422222E-01
    1       -4.159495   1.000000
    2       -0.186847   1.000000
    3        2.933267   1.000000
    4        3.876827   1.000000
    5        7.973545   0.000000
    6        9.451373   0.000000
    7       10.750296   0.000000
    8       11.000787   0.000000
 
 -0.4666667E+00  0.2000000E+00  0.6666667E-01  0.1422222E-01
    1       -3.712961   1.000000
    2       -0.881474   1.000000
    3        2.765759   1.000000
    4        3.819024   1.000000
    5        8.016337   0.000000
    6        9.261922   0.000000
    7       10.677224   0.000000
    8       12.075924   0.000000
 
 -0.4000000E+00  0.2000000E+00  0.6666667E-01  0.1422222E-01
    1       -3.561660   1.000000
    2       -1.093363   1.000000
    3        2.652525   1.000000
    4        3.879000   1.000000
    5        8.122918   0.000000
    6        9.129565   0.000000
    7       10.604856   0.000000
    8       13.306763   0.000000
 
 -0.3333333E+00  0.2000000E+00  0.6666667E-01  0.1422222E-01
    1       -3.852520   1.000000
    2       -0.672871   1.000000
    3        2.612283   1.000000
    4        4.041989   1.000000
    5        8.296888   0.000000
    6        9.066474   0.000000
    7       10.572859   0.000000
    8       12.421374   0.000000
 
 -0.2666667E+00  0.2000000E+00  0.6666667E-01  0.1422222E-01
    1       -4.333482   1.000000
    2        0.116736   1.000000
    3        2.670290   1.000000
    4        4.283683   1.000000
    5        8.513586   0.000000
    6        9.050030   0.000000
    7       10.546402   0.000000
    8       11.418909   0.000000
 
 -0.2000000E+00  0.2000000E+00  0.6666667E-01  0.1422222E-01
    1       -4.812103   1.000000
    2        1.040770   1.000000
    3        2.866342   1.000000
    4        4.567917   1.000000
    5        8.697086   0.000000
    6        8.978498   0.000000
    7       10.431791   0.000000
    8       10.749463   0.000000
 
 -0.1333333E+00  0.2000000E+00  0.6666667E-01  0.7111111E-02
    1       -5.220095   1.000000
    2        1.917797   1.000000
    3        3.295242   1.000000
    4        4.837458   1.000000
    5        8.528060   0.000000
    6        8.969465   0.000000
    7       10.133304   0.000000
    8       10.562899   0.000000
 
  0.3333333E+00  0.2666667E+00  0.6666667E-01  0.7111111E-02
    1       -4.914844   1.000000
    2        1.598097   1.000000
    3        3.377162   1.000000
    4        3.809346   1.000000
    5        7.139790   0.000000
    6        8.817550   0.000000
    7       10.945867   0.000000
    8       11.582254   0.000000
 
  0.4000000E+00  0.2666667E+00  0.6666667E-01  0.1422222E-01
    1       -4.506120   1.000000
    2        0.815711   1.000000
    3        2.927233   1.000000
    4        3.602905   1.000000
    5        7.404938   0.000000
    6        8.868989   0.000000
    7       10.793579   0.000000
    8       11.932749   0.000000
 
  0.4666667E+00  0.2666667E+00  0.6666667E-01  0.1422222E-01
    1       -4.026403   1.000000
    2        0.002810   1.000000
    3        2.535805   1.000000
    4        3.453665   1.000000
    5        7.550238   0.000000
    6        9.489127   0.000000
    7       10.561457   0.000000
    8       11.962171   0.000000
 
 -0.4666667E+00  0.2666667E+00  0.6666667E-01  0.1422222E-01
    1       -3.544084   1.000000
    2       -0.708093   1.000000
    3        2.212155   1.000000
    4        3.422385   1.000000
    5        7.629165   0.000000
    6       10.247927   0.000000
    7       10.589517   0.000000
    8       11.861485   0.000000
 
 -0.4000000E+00  0.2666667E+00  0.6666667E-01  0.1422222E-01
    1       -3.262056   1.000000
    2       -1.078622   1.000000
    3        1.979337   1.000000
    4        3.508195   1.000000
    5        7.763710   0.000000
    6       10.095111   0.000000
    7       11.709146   0.000000
    8       11.814030   0.000000
 
 -0.3333333E+00  0.2666667E+00  0.6666667E-01  0.1422222E-01
    1       -3.439126   1.000000
    2       -0.842608   1.000000
    3        1.865222   1.000000
    4        3.695036   1.000000
    5        7.982617   0.000000
    6        9.947347   0.000000
    7       11.624832   0.000000
    8       12.382660   0.000000
 
 -0.2666667E+00  0.2666667E+00  0.6666667E-01  0.1422222E-01
    1       -3.894980   1.000000
    2       -0.208262   1.000000
    3        1.913761   1.000000
    4        3.961361   1.000000
    5        8.275977   0.000000
    6        9.795537   0.000000
    7       11.235372   0.000000
    8       11.594937   0.000000
 
 -0.2000000E+00  0.2666667E+00  0.6666667E-01  0.7111111E-02
    1       -4.382668   1.000000
    2        0.488222   1.000000
    3        2.214912   1.000000
    4        4.272806   1.000000
    5        8.596198   0.000000
    6        9.429704   0.000000
    7       10.697514   0.000000
    8       11.158164   0.000000
 
  0.4000000E+00  0.3333333E+00  0.6666667E-01  0.7111111E-02
    1       -4.256896   1.000000
    2        0.536486   1.000000
    3        2.986987   1.000000
    4        3.270208   1.000000
    5        6.842413   0.000000
    6        7.987794   0.000000
    7       12.003075   0.000000
    8       12.816811   0.000000
 
  0.4666667E+00  0.3333333E+00  0.6666667E-01  0.1422222E-01
    1       -3.796624   1.000000
    2       -0.122403   1.000000
    3        2.511939   1.000000
    4        3.107300   1.000000
    5        7.123735   0.000000
    6        8.225130   0.000000
    7       11.812440   0.000000
    8       13.157460   0.000000
 
 -0.4666667E+00  0.3333333E+00  0.6666667E-01  0.1422222E-01
    1       -3.300242   1.000000
    2       -0.751764   1.000000
    3        2.017403   1.000000
    4        3.079098   1.000000
    5        7.251908   0.000000
    6        9.070229   0.000000
    7       11.569636   0.000000
    8       13.145344   0.000000
 