 vasp.6.2.0 18Jan21 (build Aug 12 2022 13:00:08) complex                        
  
 executed on             LinuxIFC date 2024.11.03  22:21:33
 running on    4 total cores
 distrk:  each k-point on    4 cores,    1 groups
 distr:  one band on NCORE=   1 cores,    4 groups


--------------------------------------------------------------------------------------------------------


 INCAR:
   ISTART = 0            (Read existing wavefunction, if there)
   ISPIN = 1            (Non-Spin polarised DFT)
   LREAL = .FALSE.       (Projection operators: automatic)
   LWAVE = .FALSE.        (Write WAVECAR or not)
   LCHARG = .FALSE.        (Write CHGCAR or not)
   ADDGRID = .TRUE.        (Increase grid, helps GGA convergence)
   LASPH = .TRUE.        (Give more accurate total energies and band structure calculations)
   PREC = Accurate      (Accurate strictly avoids any aliasing or wrap around errors)
   ENCUT = 250          (Cut-off energy for plane wave basis set, in eV)
   ISMEAR = 0            (Gaussian smearing, metals:1)
   SIGMA = 0.05         (Smearing value in eV, metals:0.2)
   NELM = 90           (Max electronic SCF steps)
   NELMIN = 6            (Min electronic SCF steps)
   EDIFF = 1E-06        (SCF energy convergence, in eV)
   NSW = 100          (Max ionic steps)
   IBRION = 2            (Algorithm: 0-MD, 1-Quasi-New, 2-CG)
   ISIF = 3            (Stress/relaxation: 2-Ions, 3-Shape/Ions/V, 4-Shape/Ions)
   EDIFFG = -2E-03        (Ionic convergence, eV/AA)
   ISYM = 2              (Symmetry: 0\=none, 2\=GGA, 3\=hybrids)

 POTCAR:    PAW_PBE Si 05Jan2001                  
 POTCAR:    PAW_PBE Si 05Jan2001                  
   VRHFIN =Si: s2p2                                                                                 
   LEXCH  = PE                                                                                      
   EATOM  =   103.0669 eV,    7.5752 Ry                                                             
                                                                                                    
   TITEL  = PAW_PBE Si 05Jan2001                                                                    
   LULTRA =        F    use ultrasoft PP ?                                                          
   IUNSCR =        1    unscreen: 0-lin 1-nonlin 2-no                                               
   RPACOR =    1.500    partial core radius                                                         
   POMASS =   28.085; ZVAL   =    4.000    mass and valenz                                          
   RCORE  =    1.900    outmost cutoff radius                                                       
   RWIGS  =    2.480; RWIGS  =    1.312    wigner-seitz radius (au A)                               
   ENMAX  =  245.345; ENMIN  =  184.009 eV                                                          
   ICORE  =        2    local potential                                                             
   LCOR   =        T    correct aug charges                                                         
   LPAW   =        T    paw PP                                                                      
   EAUG   =  322.069                                                                                
   DEXC   =    0.000                                                                                
   RMAX   =    1.950    core radius for proj-oper                                                   
   RAUG   =    1.300    factor for augmentation sphere                                              
   RDEP   =    1.993    radius for radial grids                                                     
   RDEPT  =    1.837    core radius for aug-charge                                                  
                                                                                                    
   Atomic configuration                                                                             
    6 entries                                                                                       
     n  l   j            E        occ.                                                              
     1  0  0.50     -1785.8828   2.0000                                                             
     2  0  0.50      -139.4969   2.0000                                                             
     2  1  1.50       -95.5546   6.0000                                                             
     3  0  0.50       -10.8127   2.0000                                                             
     3  1  0.50        -4.0811   2.0000                                                             
     3  2  1.50        -4.0817   0.0000                                                             
   Description                                                                                      
     l       E           TYP  RCUT    TYP  RCUT                                                     
     0    -10.8127223     23  1.900                                                                 
     0     -7.6451159     23  1.900                                                                 
     1     -4.0811372     23  1.900                                                                 
     1      2.4879257     23  1.900                                                                 
     2     -4.0817478      7  1.900                                                                 
  local pseudopotential read in
  partial core-charges read in
  partial kinetic energy density read in
  atomic valenz-charges read in
  non local Contribution for L=           0  read in
    real space projection operators read in
  non local Contribution for L=           0  read in
    real space projection operators read in
  non local Contribution for L=           1  read in
    real space projection operators read in
  non local Contribution for L=           1  read in
    real space projection operators read in
    PAW grid and wavefunctions read in
 
   number of l-projection  operators is LMAX  =           4
   number of lm-projection operators is LMMAX =           8
 
  PAW_PBE Si 05Jan2001                  :
 energy of atom  1       EATOM= -103.0669
 kinetic energy error for atom=    0.0052 (will be added to EATOM!!)
 
 
 POSCAR: Si2
  positions in direct lattice
  No initial velocities read in
 exchange correlation table for  LEXCH =        8
   RHO(1)=    0.500       N(1)  =     2000
   RHO(2)=  100.500       N(2)  =     4000
 


--------------------------------------------------------------------------------------------------------


 ion  position               nearest neighbor table
   1  0.875  0.875  0.875-   2 2.36   2 2.36   2 2.36   2 2.36
   2  0.125  0.125  0.125-   1 2.36   1 2.36   1 2.36   1 2.36
 
  LATTYP: Found a face centered cubic cell.
 ALAT       =     5.4437031493
  
  Lattice vectors:
  
 A1 = (   3.3335730000,   0.0000000000,   1.9246390000)
 A2 = (   1.1111910000,   3.1429240000,   1.9246390000)
 A3 = (   0.0000000000,   0.0000000000,   3.8492780000)


Analysis of symmetry for initial positions (statically):
=====================================================================
 Subroutine PRICEL returns:
 Original cell was already a primitive cell.
 

 Routine SETGRP: Setting up the symmetry group for a 
 face centered cubic supercell.


 Subroutine GETGRP returns: Found 48 space group operations
 (whereof 12 operations were pure point group operations)
 out of a pool of 48 trial point group operations.


The static configuration has the point symmetry D_3d.
 The point group associated with its full space group is O_h .


Analysis of symmetry for dynamics (positions and initial velocities):
=====================================================================
 Subroutine PRICEL returns:
 Original cell was already a primitive cell.
 

 Routine SETGRP: Setting up the symmetry group for a 
 face centered cubic supercell.


 Subroutine GETGRP returns: Found 48 space group operations
 (whereof 12 operations were pure point group operations)
 out of a pool of 48 trial point group operations.


The dynamic configuration has the point symmetry D_3d.
 The point group associated with its full space group is O_h .


 Subroutine INISYM returns: Found 48 space group operations
 (whereof 12 operations are pure point group operations),
 and found     1 'primitive' translations


----------------------------------------------------------------------------------------

                                     Primitive cell                                     

  volume of cell :      40.3295

  direct lattice vectors                    reciprocal lattice vectors
     3.333573000  0.000000000  1.924639000     0.299978432 -0.106058350  0.000000000
     1.111191000  3.142924000  1.924639000     0.000000000  0.318175050  0.000000000
     0.000000000  0.000000000  3.849278000    -0.149989216 -0.106058350  0.259788979

  length of vectors
     3.849278403  3.849279412  3.849278000     0.318175161  0.318175050  0.318175190

  position of ions in fractional coordinates (direct lattice)
     0.875000000  0.875000000  0.875000000
     0.125000000  0.125000000  0.125000000

  ion indices of the primitive-cell ions
   primitive index   ion index
                 1           1
                 2           2

----------------------------------------------------------------------------------------

 
 
 KPOINTS: Automatic                               

Automatic generation of k-mesh.
 Grid dimensions read from file:
 generate k-points for:   15   15   15

 Generating k-lattice:

  Cartesian coordinates                     Fractional coordinates (reciprocal lattice)
     0.019998562 -0.007070557  0.000000000     0.066666667  0.000000000  0.000000000
     0.000000000  0.021211670  0.000000000     0.000000000  0.066666667  0.000000000
    -0.009999281 -0.007070557  0.017319265     0.000000000  0.000000000  0.066666667

  Length of vectors
     0.021211677  0.021211670  0.021211679

  Shift w.r.t. Gamma in fractional coordinates (k-lattice)
     0.000000000  0.000000000  0.000000000

 
 Subroutine IBZKPT returns following result:
 ===========================================
 
 Found    120 irreducible k-points:
 
 Following reciprocal coordinates:
            Coordinates               Weight
  0.000000  0.000000  0.000000      1.000000
  0.066667 -0.000000  0.000000      8.000000
  0.133333 -0.000000  0.000000      8.000000
  0.200000  0.000000  0.000000      8.000000
  0.266667 -0.000000  0.000000      8.000000
  0.333333 -0.000000  0.000000      8.000000
  0.400000 -0.000000  0.000000      8.000000
  0.466667 -0.000000  0.000000      8.000000
  0.066667  0.066667  0.000000      6.000000
  0.133333  0.066667  0.000000     24.000000
  0.200000  0.066667  0.000000     24.000000
  0.266667  0.066667  0.000000     24.000000
  0.333333  0.066667  0.000000     24.000000
  0.400000  0.066667  0.000000     24.000000
  0.466667  0.066667  0.000000     24.000000
 -0.466667  0.066667  0.000000     24.000000
 -0.400000  0.066667  0.000000     24.000000
 -0.333333  0.066667  0.000000     24.000000
 -0.266667  0.066667  0.000000     24.000000
 -0.200000  0.066667  0.000000     24.000000
 -0.133333  0.066667  0.000000     24.000000
 -0.066667  0.066667  0.000000     12.000000
  0.133333  0.133333  0.000000      6.000000
  0.200000  0.133333  0.000000     24.000000
  0.266667  0.133333  0.000000     24.000000
  0.333333  0.133333  0.000000     24.000000
  0.400000  0.133333  0.000000     24.000000
  0.466667  0.133333  0.000000     24.000000
 -0.466667  0.133333  0.000000     24.000000
 -0.400000  0.133333  0.000000     24.000000
 -0.333333  0.133333  0.000000     24.000000
 -0.266667  0.133333  0.000000     24.000000
 -0.200000  0.133333  0.000000     24.000000
 -0.133333  0.133333  0.000000     12.000000
  0.200000  0.200000  0.000000      6.000000
  0.266667  0.200000  0.000000     24.000000
  0.333333  0.200000  0.000000     24.000000
  0.400000  0.200000  0.000000     24.000000
  0.466667  0.200000  0.000000     24.000000
 -0.466667  0.200000  0.000000     24.000000
 -0.400000  0.200000  0.000000     24.000000
 -0.333333  0.200000  0.000000     24.000000
 -0.266667  0.200000  0.000000     24.000000
 -0.200000  0.200000  0.000000     12.000000
  0.266667  0.266667  0.000000      6.000000
  0.333333  0.266667  0.000000     24.000000
  0.400000  0.266667  0.000000     24.000000
  0.466667  0.266667  0.000000     24.000000
 -0.466667  0.266667  0.000000     24.000000
 -0.400000  0.266667  0.000000     24.000000
 -0.333333  0.266667  0.000000     24.000000
 -0.266667  0.266667  0.000000     12.000000
  0.333333  0.333333  0.000000      6.000000
  0.400000  0.333333  0.000000     24.000000
  0.466667  0.333333  0.000000     24.000000
 -0.466667  0.333333  0.000000     24.000000
 -0.400000  0.333333  0.000000     24.000000
 -0.333333  0.333333  0.000000     12.000000
  0.400000  0.400000  0.000000      6.000000
  0.466667  0.400000  0.000000     24.000000
 -0.466667  0.400000  0.000000     24.000000
 -0.400000  0.400000  0.000000     12.000000
  0.466667  0.466667  0.000000      6.000000
 -0.466667  0.466667  0.000000     12.000000
  0.200000  0.133333  0.066667     24.000000
  0.266667  0.133333  0.066667     48.000000
  0.333333  0.133333  0.066667     48.000000
  0.400000  0.133333  0.066667     48.000000
  0.466667  0.133333  0.066667     48.000000
 -0.466667  0.133333  0.066667     48.000000
  0.266667  0.200000  0.066667     24.000000
  0.333333  0.200000  0.066667     48.000000
  0.400000  0.200000  0.066667     48.000000
  0.466667  0.200000  0.066667     48.000000
 -0.466667  0.200000  0.066667     48.000000
 -0.400000  0.200000  0.066667     48.000000
 -0.333333  0.200000  0.066667     48.000000
 -0.266667  0.200000  0.066667     48.000000
 -0.200000  0.200000  0.066667     48.000000
 -0.133333  0.200000  0.066667     24.000000
  0.333333  0.266667  0.066667     24.000000
  0.400000  0.266667  0.066667     48.000000
  0.466667  0.266667  0.066667     48.000000
 -0.466667  0.266667  0.066667     48.000000
 -0.400000  0.266667  0.066667     48.000000
 -0.333333  0.266667  0.066667     48.000000
 -0.266667  0.266667  0.066667     48.000000
 -0.200000  0.266667  0.066667     24.000000
  0.400000  0.333333  0.066667     24.000000
  0.466667  0.333333  0.066667     48.000000
 -0.466667  0.333333  0.066667     48.000000
 -0.400000  0.333333  0.066667     48.000000
 -0.333333  0.333333  0.066667     48.000000
 -0.266667  0.333333  0.066667     24.000000
  0.466667  0.400000  0.066667     24.000000
 -0.466667  0.400000  0.066667     48.000000
 -0.400000  0.400000  0.066667     48.000000
 -0.333333  0.400000  0.066667     24.000000
 -0.466667  0.466667  0.066667     24.000000
 -0.400000  0.466667  0.066667     24.000000
  0.400000  0.266667  0.133333     24.000000
  0.466667  0.266667  0.133333     48.000000
 -0.466667  0.266667  0.133333     48.000000
 -0.400000  0.266667  0.133333     48.000000
  0.466667  0.333333  0.133333     24.000000
 -0.466667  0.333333  0.133333     48.000000
 -0.400000  0.333333  0.133333     48.000000
 -0.333333  0.333333  0.133333     48.000000
 -0.266667  0.333333  0.133333     48.000000
 -0.200000  0.333333  0.133333     24.000000
 -0.466667  0.400000  0.133333     24.000000
 -0.400000  0.400000  0.133333     48.000000
 -0.333333  0.400000  0.133333     48.000000
 -0.266667  0.400000  0.133333     24.000000
 -0.400000  0.466667  0.133333     24.000000
 -0.333333  0.466667  0.133333     24.000000
 -0.400000  0.400000  0.200000     24.000000
 -0.333333  0.400000  0.200000     48.000000
 -0.333333  0.466667  0.200000     24.000000
 -0.266667  0.466667  0.200000     24.000000
 
 Following cartesian coordinates:
            Coordinates               Weight
  0.000000  0.000000  0.000000      1.000000
  0.019999 -0.007071  0.000000      8.000000
  0.039997 -0.014141  0.000000      8.000000
  0.059996 -0.021212  0.000000      8.000000
  0.079994 -0.028282  0.000000      8.000000
  0.099993 -0.035353  0.000000      8.000000
  0.119991 -0.042423  0.000000      8.000000
  0.139990 -0.049494  0.000000      8.000000
  0.019999  0.014141  0.000000      6.000000
  0.039997  0.007071  0.000000     24.000000
  0.059996  0.000000  0.000000     24.000000
  0.079994 -0.007071  0.000000     24.000000
  0.099993 -0.014141  0.000000     24.000000
  0.119991 -0.021212  0.000000     24.000000
  0.139990 -0.028282  0.000000     24.000000
 -0.139990  0.070706  0.000000     24.000000
 -0.119991  0.063635  0.000000     24.000000
 -0.099993  0.056564  0.000000     24.000000
 -0.079994  0.049494  0.000000     24.000000
 -0.059996  0.042423  0.000000     24.000000
 -0.039997  0.035353  0.000000     24.000000
 -0.019999  0.028282  0.000000     12.000000
  0.039997  0.028282  0.000000      6.000000
  0.059996  0.021212  0.000000     24.000000
  0.079994  0.014141  0.000000     24.000000
  0.099993  0.007071  0.000000     24.000000
  0.119991  0.000000  0.000000     24.000000
  0.139990 -0.007071  0.000000     24.000000
 -0.139990  0.091917  0.000000     24.000000
 -0.119991  0.084847  0.000000     24.000000
 -0.099993  0.077776  0.000000     24.000000
 -0.079994  0.070706  0.000000     24.000000
 -0.059996  0.063635  0.000000     24.000000
 -0.039997  0.056564  0.000000     12.000000
  0.059996  0.042423  0.000000      6.000000
  0.079994  0.035353  0.000000     24.000000
  0.099993  0.028282  0.000000     24.000000
  0.119991  0.021212  0.000000     24.000000
  0.139990  0.014141  0.000000     24.000000
 -0.139990  0.113129  0.000000     24.000000
 -0.119991  0.106058  0.000000     24.000000
 -0.099993  0.098988  0.000000     24.000000
 -0.079994  0.091917  0.000000     24.000000
 -0.059996  0.084847  0.000000     12.000000
  0.079994  0.056564  0.000000      6.000000
  0.099993  0.049494  0.000000     24.000000
  0.119991  0.042423  0.000000     24.000000
  0.139990  0.035353  0.000000     24.000000
 -0.139990  0.134341  0.000000     24.000000
 -0.119991  0.127270  0.000000     24.000000
 -0.099993  0.120199  0.000000     24.000000
 -0.079994  0.113129  0.000000     12.000000
  0.099993  0.070706  0.000000      6.000000
  0.119991  0.063635  0.000000     24.000000
  0.139990  0.056564  0.000000     24.000000
 -0.139990  0.155552  0.000000     24.000000
 -0.119991  0.148482  0.000000     24.000000
 -0.099993  0.141411  0.000000     12.000000
  0.119991  0.084847  0.000000      6.000000
  0.139990  0.077776  0.000000     24.000000
 -0.139990  0.176764  0.000000     24.000000
 -0.119991  0.169693  0.000000     12.000000
  0.139990  0.098988  0.000000      6.000000
 -0.139990  0.197976  0.000000     12.000000
  0.049996  0.014141  0.017319     24.000000
  0.069995  0.007071  0.017319     48.000000
  0.089994 -0.000000  0.017319     48.000000
  0.109992 -0.007071  0.017319     48.000000
  0.129991 -0.014141  0.017319     48.000000
 -0.149989  0.084847  0.017319     48.000000
  0.069995  0.028282  0.017319     24.000000
  0.089994  0.021212  0.017319     48.000000
  0.109992  0.014141  0.017319     48.000000
  0.129991  0.007071  0.017319     48.000000
 -0.149989  0.106058  0.017319     48.000000
 -0.129991  0.098988  0.017319     48.000000
 -0.109992  0.091917  0.017319     48.000000
 -0.089994  0.084847  0.017319     48.000000
 -0.069995  0.077776  0.017319     48.000000
 -0.049996  0.070706  0.017319     24.000000
  0.089994  0.042423  0.017319     24.000000
  0.109992  0.035353  0.017319     48.000000
  0.129991  0.028282  0.017319     48.000000
 -0.149989  0.127270  0.017319     48.000000
 -0.129991  0.120199  0.017319     48.000000
 -0.109992  0.113129  0.017319     48.000000
 -0.089994  0.106058  0.017319     48.000000
 -0.069995  0.098988  0.017319     24.000000
  0.109992  0.056564  0.017319     24.000000
  0.129991  0.049494  0.017319     48.000000
 -0.149989  0.148482  0.017319     48.000000
 -0.129991  0.141411  0.017319     48.000000
 -0.109992  0.134341  0.017319     48.000000
 -0.089994  0.127270  0.017319     24.000000
  0.129991  0.070706  0.017319     24.000000
 -0.149989  0.169693  0.017319     48.000000
 -0.129991  0.162623  0.017319     48.000000
 -0.109992  0.155552  0.017319     24.000000
 -0.149989  0.190905  0.017319     24.000000
 -0.129991  0.183834  0.017319     24.000000
  0.099993  0.028282  0.034639     24.000000
  0.119991  0.021212  0.034639     48.000000
 -0.159988  0.120199  0.034639     48.000000
 -0.139990  0.113129  0.034639     48.000000
  0.119991  0.042423  0.034639     24.000000
 -0.159988  0.141411  0.034639     48.000000
 -0.139990  0.134341  0.034639     48.000000
 -0.119991  0.127270  0.034639     48.000000
 -0.099993  0.120199  0.034639     48.000000
 -0.079994  0.113129  0.034639     24.000000
 -0.159988  0.162623  0.034639     24.000000
 -0.139990  0.155552  0.034639     48.000000
 -0.119991  0.148482  0.034639     48.000000
 -0.099993  0.141411  0.034639     24.000000
 -0.139990  0.176764  0.034639     24.000000
 -0.119991  0.169693  0.034639     24.000000
 -0.149989  0.148482  0.051958     24.000000
 -0.129991  0.141411  0.051958     48.000000
 -0.129991  0.162623  0.051958     24.000000
 -0.109992  0.155552  0.051958     24.000000
 


--------------------------------------------------------------------------------------------------------




 Dimension of arrays:
   k-points           NKPTS =    120   k-points in BZ     NKDIM =    120   number of bands    NBANDS=      8
   number of dos      NEDOS =    301   number of ions     NIONS =      2
   non local maximal  LDIM  =      4   non local SUM 2l+1 LMDIM =      8
   total plane-waves  NPLWV =   8000
   max r-space proj   IRMAX =      1   max aug-charges    IRDMAX=  53252
   dimension x,y,z NGX =    20 NGY =   20 NGZ =   20
   dimension x,y,z NGXF=    40 NGYF=   40 NGZF=   40
   support grid    NGXF=    80 NGYF=   80 NGZF=   80
   ions per type =               2
   NGX,Y,Z   is equivalent  to a cutoff of   8.64,  8.64,  8.64 a.u.
   NGXF,Y,Z  is equivalent  to a cutoff of  17.28, 17.28, 17.28 a.u.

 SYSTEM =  unknown system                          
 POSCAR =  Si2                                     

 Startparameter for this run:
   NWRITE =      2    write-flag & timer
   PREC   = accura    normal or accurate (medium, high low for compatibility)
   ISTART =      0    job   : 0-new  1-cont  2-samecut
   ICHARG =      2    charge: 1-file 2-atom 10-const
   ISPIN  =      1    spin polarized calculation?
   LNONCOLLINEAR =      F non collinear calculations
   LSORBIT =      F    spin-orbit coupling
   INIWAV =      1    electr: 0-lowe 1-rand  2-diag
   LASPH  =      T    aspherical Exc in radial PAW
   METAGGA=      F    non-selfconsistent MetaGGA calc.

 Electronic Relaxation 1
   ENCUT  =  250.0 eV  18.37 Ry    4.29 a.u.   4.96  4.96  4.96*2*pi/ulx,y,z
   ENINI  =  250.0     initial cutoff
   ENAUG  =  322.1 eV  augmentation charge cutoff
   NELM   =     90;   NELMIN=  6; NELMDL= -5     # of ELM steps 
   EDIFF  = 0.1E-05   stopping-criterion for ELM
   LREAL  =      F    real-space projection
   NLSPLINE    = F    spline interpolate recip. space projectors
   LCOMPAT=      F    compatible to vasp.4.4
   GGA_COMPAT  = T    GGA compatible to vasp.4.4-vasp.4.6
   LMAXPAW     = -100 max onsite density
   LMAXMIX     =    2 max onsite mixed and CHGCAR
   VOSKOWN=      0    Vosko Wilk Nusair interpolation
   ROPT   =    0.00000
 Ionic relaxation
   EDIFFG = -.2E-02   stopping-criterion for IOM
   NSW    =    100    number of steps for IOM
   NBLOCK =      1;   KBLOCK =    100    inner block; outer block 
   IBRION =      2    ionic relax: 0-MD 1-quasi-New 2-CG
   NFREE  =      1    steps in history (QN), initial steepest desc. (CG)
   ISIF   =      3    stress and relaxation
   IWAVPR =     11    prediction:  0-non 1-charg 2-wave 3-comb
   ISYM   =      2    0-nonsym 1-usesym 2-fastsym
   LCORR  =      T    Harris-Foulkes like correction to forces

   POTIM  = 0.5000    time-step for ionic-motion
   TEIN   =    0.0    initial temperature
   TEBEG  =    0.0;   TEEND  =   0.0 temperature during run
   SMASS  =  -3.00    Nose mass-parameter (am)
   estimated Nose-frequenzy (Omega)   =  0.10E-29 period in steps = 0.13E+47 mass=  -0.339E-27a.u.
   SCALEE = 1.0000    scale energy and forces
   NPACO  =    256;   APACO  = 16.0  distance and # of slots for P.C.
   PSTRESS=    0.0 pullay stress

  Mass of Ions in am
   POMASS =  28.09
  Ionic Valenz
   ZVAL   =   4.00
  Atomic Wigner-Seitz radii
   RWIGS  =  -1.00
  virtual crystal weights 
   VCA    =   1.00
   NELECT =       8.0000    total number of electrons
   NUPDOWN=      -1.0000    fix difference up-down

 DOS related values:
   EMIN   =  10.00;   EMAX   =-10.00  energy-range for DOS
   EFERMI =   0.00
   ISMEAR =     0;   SIGMA  =   0.05  broadening in eV -4-tet -1-fermi 0-gaus

 Electronic relaxation 2 (details)
   IALGO  =     38    algorithm
   LDIAG  =      T    sub-space diagonalisation (order eigenvalues)
   LSUBROT=      F    optimize rotation matrix (better conditioning)
   TURBO    =      0    0=normal 1=particle mesh
   IRESTART =      0    0=no restart 2=restart with 2 vectors
   NREBOOT  =      0    no. of reboots
   NMIN     =      0    reboot dimension
   EREF     =   0.00    reference energy to select bands
   IMIX   =      4    mixing-type and parameters
     AMIX     =   0.40;   BMIX     =  1.00
     AMIX_MAG =   1.60;   BMIX_MAG =  1.00
     AMIN     =   0.10
     WC   =   100.;   INIMIX=   1;  MIXPRE=   1;  MAXMIX= -45

 Intra band minimization:
   WEIMIN = 0.0010     energy-eigenvalue tresh-hold
   EBREAK =  0.31E-07  absolut break condition
   DEPER  =   0.30     relativ break condition  

   TIME   =   0.40     timestep for ELM

  volume/ion in A,a.u.               =      20.16       136.08
  Fermi-wavevector in a.u.,A,eV,Ry     =   0.954766  1.804247 12.402783  0.911579
  Thomas-Fermi vector in A             =   2.083543
 
 Write flags
   LWAVE        =      F    write WAVECAR
   LDOWNSAMPLE  =      F    k-point downsampling of WAVECAR
   LCHARG       =      F    write CHGCAR
   LVTOT        =      F    write LOCPOT, total local potential
   LVHAR        =      F    write LOCPOT, Hartree potential only
   LELF         =      F    write electronic localiz. function (ELF)
   LORBIT       =      0    0 simple, 1 ext, 2 COOP (PROOUT), +10 PAW based schemes


 Dipole corrections
   LMONO  =      F    monopole corrections only (constant potential shift)
   LDIPOL =      F    correct potential (dipole corrections)
   IDIPOL =      0    1-x, 2-y, 3-z, 4-all directions 
   EPSILON=  1.0000000 bulk dielectric constant

 Exchange correlation treatment:
   GGA     =    --    GGA type
   LEXCH   =     8    internal setting for exchange type
   VOSKOWN=      0    Vosko Wilk Nusair interpolation
   LHFCALC =     F    Hartree Fock is set to
   LHFONE  =     F    Hartree Fock one center treatment
   AEXX    =    0.0000 exact exchange contribution

 Linear response parameters
   LEPSILON=     F    determine dielectric tensor
   LRPA    =     F    only Hartree local field effects (RPA)
   LNABLA  =     F    use nabla operator in PAW spheres
   LVEL    =     F    velocity operator in full k-point grid
   LINTERFAST=   F  fast interpolation
   KINTER  =     0    interpolate to denser k-point grid
   CSHIFT  =0.1000    complex shift for real part using Kramers Kronig
   OMEGAMAX=  -1.0    maximum frequency
   DEG_THRESHOLD= 0.2000000E-02 threshold for treating states as degnerate
   RTIME   =   -0.100 relaxation time in fs
  (WPLASMAI=    0.000 imaginary part of plasma frequency in eV, 0.658/RTIME)
   DFIELD  = 0.0000000 0.0000000 0.0000000 field for delta impulse in time
 
 Orbital magnetization related:
   ORBITALMAG=     F  switch on orbital magnetization
   LCHIMAG   =     F  perturbation theory with respect to B field
   DQ        =  0.001000  dq finite difference perturbation B field
   LLRAUG    =     F  two centre corrections for induced B field



--------------------------------------------------------------------------------------------------------


 conjugate gradient relaxation of ions
 charge density and potential will be updated during run
 non-spin polarized calculation
 Variant of blocked Davidson
 Davidson routine will perform the subspace rotation
 perform sub-space diagonalisation
    after iterative eigenvector-optimisation
 modified Broyden-mixing scheme, WC =      100.0
 initial mixing is a Kerker type mixing with AMIX =  0.4000 and BMIX =      1.0000
 Hartree-type preconditioning will be used
 using additional bands            4
 reciprocal scheme for non local part
 use partial core corrections
 calculate Harris-corrections to forces 
   (improved forces if not selfconsistent)
 use gradient corrections 
 use of overlap-Matrix (Vanderbilt PP)
 Gauss-broadening in eV      SIGMA  =   0.05


--------------------------------------------------------------------------------------------------------


  energy-cutoff  :      250.00
  volume of cell :       40.33
      direct lattice vectors                 reciprocal lattice vectors
     3.333573000  0.000000000  1.924639000     0.299978432 -0.106058350  0.000000000
     1.111191000  3.142924000  1.924639000     0.000000000  0.318175050  0.000000000
     0.000000000  0.000000000  3.849278000    -0.149989216 -0.106058350  0.259788979

  length of vectors
     3.849278403  3.849279412  3.849278000     0.318175161  0.318175050  0.318175190


 
 k-points in units of 2pi/SCALE and weight: Automatic                               
   0.00000000  0.00000000  0.00000000       0.000
   0.01999856 -0.00707056  0.00000000       0.002
   0.03999712 -0.01414111  0.00000000       0.002
   0.05999569 -0.02121167  0.00000000       0.002
   0.07999425 -0.02828223  0.00000000       0.002
   0.09999281 -0.03535278  0.00000000       0.002
   0.11999137 -0.04242334  0.00000000       0.002
   0.13998993 -0.04949390  0.00000000       0.002
   0.01999856  0.01414111  0.00000000       0.002
   0.03999712  0.00707056  0.00000000       0.007
   0.05999569  0.00000000  0.00000000       0.007
   0.07999425 -0.00707056  0.00000000       0.007
   0.09999281 -0.01414111  0.00000000       0.007
   0.11999137 -0.02121167  0.00000000       0.007
   0.13998993 -0.02828223  0.00000000       0.007
  -0.13998993  0.07070557  0.00000000       0.007
  -0.11999137  0.06363501  0.00000000       0.007
  -0.09999281  0.05656445  0.00000000       0.007
  -0.07999425  0.04949390  0.00000000       0.007
  -0.05999569  0.04242334  0.00000000       0.007
  -0.03999712  0.03535278  0.00000000       0.007
  -0.01999856  0.02828223  0.00000000       0.004
   0.03999712  0.02828223  0.00000000       0.002
   0.05999569  0.02121167  0.00000000       0.007
   0.07999425  0.01414111  0.00000000       0.007
   0.09999281  0.00707056  0.00000000       0.007
   0.11999137  0.00000000  0.00000000       0.007
   0.13998993 -0.00707056  0.00000000       0.007
  -0.13998993  0.09191724  0.00000000       0.007
  -0.11999137  0.08484668  0.00000000       0.007
  -0.09999281  0.07777612  0.00000000       0.007
  -0.07999425  0.07070557  0.00000000       0.007
  -0.05999569  0.06363501  0.00000000       0.007
  -0.03999712  0.05656445  0.00000000       0.004
   0.05999569  0.04242334  0.00000000       0.002
   0.07999425  0.03535278  0.00000000       0.007
   0.09999281  0.02828223  0.00000000       0.007
   0.11999137  0.02121167  0.00000000       0.007
   0.13998993  0.01414111  0.00000000       0.007
  -0.13998993  0.11312891  0.00000000       0.007
  -0.11999137  0.10605835  0.00000000       0.007
  -0.09999281  0.09898779  0.00000000       0.007
  -0.07999425  0.09191724  0.00000000       0.007
  -0.05999569  0.08484668  0.00000000       0.004
   0.07999425  0.05656445  0.00000000       0.002
   0.09999281  0.04949390  0.00000000       0.007
   0.11999137  0.04242334  0.00000000       0.007
   0.13998993  0.03535278  0.00000000       0.007
  -0.13998993  0.13434058  0.00000000       0.007
  -0.11999137  0.12727002  0.00000000       0.007
  -0.09999281  0.12019946  0.00000000       0.007
  -0.07999425  0.11312891  0.00000000       0.004
   0.09999281  0.07070557  0.00000000       0.002
   0.11999137  0.06363501  0.00000000       0.007
   0.13998993  0.05656445  0.00000000       0.007
  -0.13998993  0.15555225  0.00000000       0.007
  -0.11999137  0.14848169  0.00000000       0.007
  -0.09999281  0.14141113  0.00000000       0.004
   0.11999137  0.08484668  0.00000000       0.002
   0.13998993  0.07777612  0.00000000       0.007
  -0.13998993  0.17676392  0.00000000       0.007
  -0.11999137  0.16969336  0.00000000       0.004
   0.13998993  0.09898779  0.00000000       0.002
  -0.13998993  0.19797559  0.00000000       0.004
   0.04999641  0.01414111  0.01731927       0.007
   0.06999497  0.00707056  0.01731927       0.014
   0.08999353 -0.00000000  0.01731927       0.014
   0.10999209 -0.00707056  0.01731927       0.014
   0.12999065 -0.01414111  0.01731927       0.014
  -0.14998922  0.08484668  0.01731927       0.014
   0.06999497  0.02828223  0.01731927       0.007
   0.08999353  0.02121167  0.01731927       0.014
   0.10999209  0.01414111  0.01731927       0.014
   0.12999065  0.00707056  0.01731927       0.014
  -0.14998922  0.10605835  0.01731927       0.014
  -0.12999065  0.09898779  0.01731927       0.014
  -0.10999209  0.09191724  0.01731927       0.014
  -0.08999353  0.08484668  0.01731927       0.014
  -0.06999497  0.07777612  0.01731927       0.014
  -0.04999641  0.07070557  0.01731927       0.007
   0.08999353  0.04242334  0.01731927       0.007
   0.10999209  0.03535278  0.01731927       0.014
   0.12999065  0.02828223  0.01731927       0.014
  -0.14998922  0.12727002  0.01731927       0.014
  -0.12999065  0.12019946  0.01731927       0.014
  -0.10999209  0.11312891  0.01731927       0.014
  -0.08999353  0.10605835  0.01731927       0.014
  -0.06999497  0.09898779  0.01731927       0.007
   0.10999209  0.05656445  0.01731927       0.007
   0.12999065  0.04949390  0.01731927       0.014
  -0.14998922  0.14848169  0.01731927       0.014
  -0.12999065  0.14141113  0.01731927       0.014
  -0.10999209  0.13434058  0.01731927       0.014
  -0.08999353  0.12727002  0.01731927       0.007
   0.12999065  0.07070557  0.01731927       0.007
  -0.14998922  0.16969336  0.01731927       0.014
  -0.12999065  0.16262280  0.01731927       0.014
  -0.10999209  0.15555225  0.01731927       0.007
  -0.14998922  0.19090503  0.01731927       0.007
  -0.12999065  0.18383447  0.01731927       0.007
   0.09999281  0.02828223  0.03463853       0.007
   0.11999137  0.02121167  0.03463853       0.014
  -0.15998850  0.12019946  0.03463853       0.014
  -0.13998993  0.11312891  0.03463853       0.014
   0.11999137  0.04242334  0.03463853       0.007
  -0.15998850  0.14141113  0.03463853       0.014
  -0.13998993  0.13434058  0.03463853       0.014
  -0.11999137  0.12727002  0.03463853       0.014
  -0.09999281  0.12019946  0.03463853       0.014
  -0.07999425  0.11312891  0.03463853       0.007
  -0.15998850  0.16262280  0.03463853       0.007
  -0.13998993  0.15555225  0.03463853       0.014
  -0.11999137  0.14848169  0.03463853       0.014
  -0.09999281  0.14141113  0.03463853       0.007
  -0.13998993  0.17676392  0.03463853       0.007
  -0.11999137  0.16969336  0.03463853       0.007
  -0.14998922  0.14848169  0.05195780       0.007
  -0.12999065  0.14141113  0.05195780       0.014
  -0.12999065  0.16262280  0.05195780       0.007
  -0.10999209  0.15555225  0.05195780       0.007
 
 k-points in reciprocal lattice and weights: Automatic                               
   0.00000000  0.00000000  0.00000000       0.000
   0.06666667 -0.00000000  0.00000000       0.002
   0.13333333 -0.00000000  0.00000000       0.002
   0.20000000  0.00000000  0.00000000       0.002
   0.26666667 -0.00000000  0.00000000       0.002
   0.33333333 -0.00000000  0.00000000       0.002
   0.40000000 -0.00000000  0.00000000       0.002
   0.46666667 -0.00000000  0.00000000       0.002
   0.06666667  0.06666667  0.00000000       0.002
   0.13333333  0.06666667  0.00000000       0.007
   0.20000000  0.06666667  0.00000000       0.007
   0.26666667  0.06666667  0.00000000       0.007
   0.33333333  0.06666667  0.00000000       0.007
   0.40000000  0.06666667  0.00000000       0.007
   0.46666667  0.06666667  0.00000000       0.007
  -0.46666667  0.06666667  0.00000000       0.007
  -0.40000000  0.06666667  0.00000000       0.007
  -0.33333333  0.06666667  0.00000000       0.007
  -0.26666667  0.06666667  0.00000000       0.007
  -0.20000000  0.06666667  0.00000000       0.007
  -0.13333333  0.06666667  0.00000000       0.007
  -0.06666667  0.06666667  0.00000000       0.004
   0.13333333  0.13333333  0.00000000       0.002
   0.20000000  0.13333333  0.00000000       0.007
   0.26666667  0.13333333  0.00000000       0.007
   0.33333333  0.13333333  0.00000000       0.007
   0.40000000  0.13333333  0.00000000       0.007
   0.46666667  0.13333333  0.00000000       0.007
  -0.46666667  0.13333333  0.00000000       0.007
  -0.40000000  0.13333333  0.00000000       0.007
  -0.33333333  0.13333333  0.00000000       0.007
  -0.26666667  0.13333333  0.00000000       0.007
  -0.20000000  0.13333333  0.00000000       0.007
  -0.13333333  0.13333333  0.00000000       0.004
   0.20000000  0.20000000  0.00000000       0.002
   0.26666667  0.20000000  0.00000000       0.007
   0.33333333  0.20000000  0.00000000       0.007
   0.40000000  0.20000000  0.00000000       0.007
   0.46666667  0.20000000  0.00000000       0.007
  -0.46666667  0.20000000  0.00000000       0.007
  -0.40000000  0.20000000  0.00000000       0.007
  -0.33333333  0.20000000  0.00000000       0.007
  -0.26666667  0.20000000  0.00000000       0.007
  -0.20000000  0.20000000  0.00000000       0.004
   0.26666667  0.26666667  0.00000000       0.002
   0.33333333  0.26666667  0.00000000       0.007
   0.40000000  0.26666667  0.00000000       0.007
   0.46666667  0.26666667  0.00000000       0.007
  -0.46666667  0.26666667  0.00000000       0.007
  -0.40000000  0.26666667  0.00000000       0.007
  -0.33333333  0.26666667  0.00000000       0.007
  -0.26666667  0.26666667  0.00000000       0.004
   0.33333333  0.33333333  0.00000000       0.002
   0.40000000  0.33333333  0.00000000       0.007
   0.46666667  0.33333333  0.00000000       0.007
  -0.46666667  0.33333333  0.00000000       0.007
  -0.40000000  0.33333333  0.00000000       0.007
  -0.33333333  0.33333333  0.00000000       0.004
   0.40000000  0.40000000  0.00000000       0.002
   0.46666667  0.40000000  0.00000000       0.007
  -0.46666667  0.40000000  0.00000000       0.007
  -0.40000000  0.40000000  0.00000000       0.004
   0.46666667  0.46666667  0.00000000       0.002
  -0.46666667  0.46666667  0.00000000       0.004
   0.20000000  0.13333333  0.06666667       0.007
   0.26666667  0.13333333  0.06666667       0.014
   0.33333333  0.13333333  0.06666667       0.014
   0.40000000  0.13333333  0.06666667       0.014
   0.46666667  0.13333333  0.06666667       0.014
  -0.46666667  0.13333333  0.06666667       0.014
   0.26666667  0.20000000  0.06666667       0.007
   0.33333333  0.20000000  0.06666667       0.014
   0.40000000  0.20000000  0.06666667       0.014
   0.46666667  0.20000000  0.06666667       0.014
  -0.46666667  0.20000000  0.06666667       0.014
  -0.40000000  0.20000000  0.06666667       0.014
  -0.33333333  0.20000000  0.06666667       0.014
  -0.26666667  0.20000000  0.06666667       0.014
  -0.20000000  0.20000000  0.06666667       0.014
  -0.13333333  0.20000000  0.06666667       0.007
   0.33333333  0.26666667  0.06666667       0.007
   0.40000000  0.26666667  0.06666667       0.014
   0.46666667  0.26666667  0.06666667       0.014
  -0.46666667  0.26666667  0.06666667       0.014
  -0.40000000  0.26666667  0.06666667       0.014
  -0.33333333  0.26666667  0.06666667       0.014
  -0.26666667  0.26666667  0.06666667       0.014
  -0.20000000  0.26666667  0.06666667       0.007
   0.40000000  0.33333333  0.06666667       0.007
   0.46666667  0.33333333  0.06666667       0.014
  -0.46666667  0.33333333  0.06666667       0.014
  -0.40000000  0.33333333  0.06666667       0.014
  -0.33333333  0.33333333  0.06666667       0.014
  -0.26666667  0.33333333  0.06666667       0.007
   0.46666667  0.40000000  0.06666667       0.007
  -0.46666667  0.40000000  0.06666667       0.014
  -0.40000000  0.40000000  0.06666667       0.014
  -0.33333333  0.40000000  0.06666667       0.007
  -0.46666667  0.46666667  0.06666667       0.007
  -0.40000000  0.46666667  0.06666667       0.007
   0.40000000  0.26666667  0.13333333       0.007
   0.46666667  0.26666667  0.13333333       0.014
  -0.46666667  0.26666667  0.13333333       0.014
  -0.40000000  0.26666667  0.13333333       0.014
   0.46666667  0.33333333  0.13333333       0.007
  -0.46666667  0.33333333  0.13333333       0.014
  -0.40000000  0.33333333  0.13333333       0.014
  -0.33333333  0.33333333  0.13333333       0.014
  -0.26666667  0.33333333  0.13333333       0.014
  -0.20000000  0.33333333  0.13333333       0.007
  -0.46666667  0.40000000  0.13333333       0.007
  -0.40000000  0.40000000  0.13333333       0.014
  -0.33333333  0.40000000  0.13333333       0.014
  -0.26666667  0.40000000  0.13333333       0.007
  -0.40000000  0.46666667  0.13333333       0.007
  -0.33333333  0.46666667  0.13333333       0.007
  -0.40000000  0.40000000  0.20000000       0.007
  -0.33333333  0.40000000  0.20000000       0.014
  -0.33333333  0.46666667  0.20000000       0.007
  -0.26666667  0.46666667  0.20000000       0.007
 
 position of ions in fractional coordinates (direct lattice) 
   0.87500000  0.87500000  0.87500000
   0.12500000  0.12500000  0.12500000
 
 position of ions in cartesian coordinates  (Angst):
   3.88916850  2.75005850  6.73623650
   0.55559550  0.39286550  0.96231950
 


--------------------------------------------------------------------------------------------------------


 k-point   1 :   0.0000 0.0000 0.0000  plane waves:     339
 k-point   2 :   0.0667-0.0000 0.0000  plane waves:     338
 k-point   3 :   0.1333-0.0000 0.0000  plane waves:     353
 k-point   4 :   0.2000 0.0000 0.0000  plane waves:     359
 k-point   5 :   0.2667-0.0000 0.0000  plane waves:     356
 k-point   6 :   0.3333-0.0000 0.0000  plane waves:     359
 k-point   7 :   0.4000-0.0000 0.0000  plane waves:     356
 k-point   8 :   0.4667-0.0000 0.0000  plane waves:     362
 k-point   9 :   0.0667 0.0667 0.0000  plane waves:     343
 k-point  10 :   0.1333 0.0667 0.0000  plane waves:     346
 k-point  11 :   0.2000 0.0667 0.0000  plane waves:     354
 k-point  12 :   0.2667 0.0667 0.0000  plane waves:     357
 k-point  13 :   0.3333 0.0667 0.0000  plane waves:     357
 k-point  14 :   0.4000 0.0667 0.0000  plane waves:     357
 k-point  15 :   0.4667 0.0667 0.0000  plane waves:     364
 k-point  16 :  -0.4667 0.0667 0.0000  plane waves:     358
 k-point  17 :  -0.4000 0.0667 0.0000  plane waves:     360
 k-point  18 :  -0.3333 0.0667 0.0000  plane waves:     356
 k-point  19 :  -0.2667 0.0667 0.0000  plane waves:     354
 k-point  20 :  -0.2000 0.0667 0.0000  plane waves:     358
 k-point  21 :  -0.1333 0.0667 0.0000  plane waves:     355
 k-point  22 :  -0.0667 0.0667 0.0000  plane waves:     343
 k-point  23 :   0.1333 0.1333 0.0000  plane waves:     351
 k-point  24 :   0.2000 0.1333 0.0000  plane waves:     354
 k-point  25 :   0.2667 0.1333 0.0000  plane waves:     357
 k-point  26 :   0.3333 0.1333 0.0000  plane waves:     358
 k-point  27 :   0.4000 0.1333 0.0000  plane waves:     362
 k-point  28 :   0.4667 0.1333 0.0000  plane waves:     366
 k-point  29 :  -0.4667 0.1333 0.0000  plane waves:     363
 k-point  30 :  -0.4000 0.1333 0.0000  plane waves:     363
 k-point  31 :  -0.3333 0.1333 0.0000  plane waves:     361
 k-point  32 :  -0.2667 0.1333 0.0000  plane waves:     359
 k-point  33 :  -0.2000 0.1333 0.0000  plane waves:     360
 k-point  34 :  -0.1333 0.1333 0.0000  plane waves:     361
 k-point  35 :   0.2000 0.2000 0.0000  plane waves:     355
 k-point  36 :   0.2667 0.2000 0.0000  plane waves:     352
 k-point  37 :   0.3333 0.2000 0.0000  plane waves:     355
 k-point  38 :   0.4000 0.2000 0.0000  plane waves:     356
 k-point  39 :   0.4667 0.2000 0.0000  plane waves:     364
 k-point  40 :  -0.4667 0.2000 0.0000  plane waves:     365
 k-point  41 :  -0.4000 0.2000 0.0000  plane waves:     370
 k-point  42 :  -0.3333 0.2000 0.0000  plane waves:     365
 k-point  43 :  -0.2667 0.2000 0.0000  plane waves:     361
 k-point  44 :  -0.2000 0.2000 0.0000  plane waves:     361
 k-point  45 :   0.2667 0.2667 0.0000  plane waves:     351
 k-point  46 :   0.3333 0.2667 0.0000  plane waves:     355
 k-point  47 :   0.4000 0.2667 0.0000  plane waves:     359
 k-point  48 :   0.4667 0.2667 0.0000  plane waves:     366
 k-point  49 :  -0.4667 0.2667 0.0000  plane waves:     362
 k-point  50 :  -0.4000 0.2667 0.0000  plane waves:     365
 k-point  51 :  -0.3333 0.2667 0.0000  plane waves:     363
 k-point  52 :  -0.2667 0.2667 0.0000  plane waves:     369
 k-point  53 :   0.3333 0.3333 0.0000  plane waves:     355
 k-point  54 :   0.4000 0.3333 0.0000  plane waves:     360
 k-point  55 :   0.4667 0.3333 0.0000  plane waves:     362
 k-point  56 :  -0.4667 0.3333 0.0000  plane waves:     362
 k-point  57 :  -0.4000 0.3333 0.0000  plane waves:     368
 k-point  58 :  -0.3333 0.3333 0.0000  plane waves:     375
 k-point  59 :   0.4000 0.4000 0.0000  plane waves:     359
 k-point  60 :   0.4667 0.4000 0.0000  plane waves:     362
 k-point  61 :  -0.4667 0.4000 0.0000  plane waves:     362
 k-point  62 :  -0.4000 0.4000 0.0000  plane waves:     365
 k-point  63 :   0.4667 0.4667 0.0000  plane waves:     351
 k-point  64 :  -0.4667 0.4667 0.0000  plane waves:     361
 k-point  65 :   0.2000 0.1333 0.0667  plane waves:     355
 k-point  66 :   0.2667 0.1333 0.0667  plane waves:     360
 k-point  67 :   0.3333 0.1333 0.0667  plane waves:     359
 k-point  68 :   0.4000 0.1333 0.0667  plane waves:     359
 k-point  69 :   0.4667 0.1333 0.0667  plane waves:     362
 k-point  70 :  -0.4667 0.1333 0.0667  plane waves:     367
 k-point  71 :   0.2667 0.2000 0.0667  plane waves:     356
 k-point  72 :   0.3333 0.2000 0.0667  plane waves:     355
 k-point  73 :   0.4000 0.2000 0.0667  plane waves:     360
 k-point  74 :   0.4667 0.2000 0.0667  plane waves:     367
 k-point  75 :  -0.4667 0.2000 0.0667  plane waves:     366
 k-point  76 :  -0.4000 0.2000 0.0667  plane waves:     366
 k-point  77 :  -0.3333 0.2000 0.0667  plane waves:     368
 k-point  78 :  -0.2667 0.2000 0.0667  plane waves:     358
 k-point  79 :  -0.2000 0.2000 0.0667  plane waves:     360
 k-point  80 :  -0.1333 0.2000 0.0667  plane waves:     357
 k-point  81 :   0.3333 0.2667 0.0667  plane waves:     354
 k-point  82 :   0.4000 0.2667 0.0667  plane waves:     356
 k-point  83 :   0.4667 0.2667 0.0667  plane waves:     361
 k-point  84 :  -0.4667 0.2667 0.0667  plane waves:     366
 k-point  85 :  -0.4000 0.2667 0.0667  plane waves:     367
 k-point  86 :  -0.3333 0.2667 0.0667  plane waves:     368
 k-point  87 :  -0.2667 0.2667 0.0667  plane waves:     363
 k-point  88 :  -0.2000 0.2667 0.0667  plane waves:     362
 k-point  89 :   0.4000 0.3333 0.0667  plane waves:     357
 k-point  90 :   0.4667 0.3333 0.0667  plane waves:     358
 k-point  91 :  -0.4667 0.3333 0.0667  plane waves:     360
 k-point  92 :  -0.4000 0.3333 0.0667  plane waves:     365
 k-point  93 :  -0.3333 0.3333 0.0667  plane waves:     366
 k-point  94 :  -0.2667 0.3333 0.0667  plane waves:     362
 k-point  95 :   0.4667 0.4000 0.0667  plane waves:     357
 k-point  96 :  -0.4667 0.4000 0.0667  plane waves:     361
 k-point  97 :  -0.4000 0.4000 0.0667  plane waves:     367
 k-point  98 :  -0.3333 0.4000 0.0667  plane waves:     372
 k-point  99 :  -0.4667 0.4667 0.0667  plane waves:     363
 k-point 100 :  -0.4000 0.4667 0.0667  plane waves:     365
 k-point 101 :   0.4000 0.2667 0.1333  plane waves:     360
 k-point 102 :   0.4667 0.2667 0.1333  plane waves:     362
 k-point 103 :  -0.4667 0.2667 0.1333  plane waves:     368
 k-point 104 :  -0.4000 0.2667 0.1333  plane waves:     366
 k-point 105 :   0.4667 0.3333 0.1333  plane waves:     357
 k-point 106 :  -0.4667 0.3333 0.1333  plane waves:     363
 k-point 107 :  -0.4000 0.3333 0.1333  plane waves:     368
 k-point 108 :  -0.3333 0.3333 0.1333  plane waves:     368
 k-point 109 :  -0.2667 0.3333 0.1333  plane waves:     367
 k-point 110 :  -0.2000 0.3333 0.1333  plane waves:     363
 k-point 111 :  -0.4667 0.4000 0.1333  plane waves:     361
 k-point 112 :  -0.4000 0.4000 0.1333  plane waves:     363
 k-point 113 :  -0.3333 0.4000 0.1333  plane waves:     370
 k-point 114 :  -0.2667 0.4000 0.1333  plane waves:     366
 k-point 115 :  -0.4000 0.4667 0.1333  plane waves:     363
 k-point 116 :  -0.3333 0.4667 0.1333  plane waves:     367
 k-point 117 :  -0.4000 0.4000 0.2000  plane waves:     361
 k-point 118 :  -0.3333 0.4000 0.2000  plane waves:     369
 k-point 119 :  -0.3333 0.4667 0.2000  plane waves:     367
 k-point 120 :  -0.2667 0.4667 0.2000  plane waves:     375

 maximum and minimum number of plane-waves per node :       375      338

 maximum number of plane-waves:       375
 maximum index in each direction: 
   IXMAX=    5   IYMAX=    4   IZMAX=    4
   IXMIN=   -5   IYMIN=   -5   IZMIN=   -5


 serial   3D FFT for wavefunctions
 parallel 3D FFT for charge:
    minimum data exchange during FFTs selected (reduces bandwidth)


 total amount of memory used by VASP MPI-rank0    37953. kBytes
=======================================================================

   base      :      30000. kBytes
   nonl-proj :       2899. kBytes
   fftplans  :       2423. kBytes
   grid      :       1120. kBytes
   one-center:          6. kBytes
   wavefun   :       1505. kBytes
 
     INWAV:  cpu time    0.0000: real time    0.0004
 Broyden mixing: mesh for mixing (old mesh)
   NGX =  9   NGY =  9   NGZ =  9
  (NGX  = 40   NGY  = 40   NGZ  = 40)
  gives a total of    729 points

 initial charge density was supplied:
 charge density of overlapping atoms calculated
 number of electron       8.0000000 magnetization 
 keeping initial charge density in first step


--------------------------------------------------------------------------------------------------------


 Maximum index for augmentation-charges        12784 (set IRDMAX)


--------------------------------------------------------------------------------------------------------


 First call to EWALD:  gamma=   0.517
 Maximum number of real-space cells 3x 3x 3
 Maximum number of reciprocal cells 3x 3x 3

    FEWALD:  cpu time    0.0030: real time    0.0035


--------------------------------------- Iteration      1(   1)  ---------------------------------------


    POTLOK:  cpu time    0.0190: real time    0.0216
    SETDIJ:  cpu time    0.1670: real time    0.1667
     EDDAV:  cpu time    0.7689: real time    0.7706
       DOS:  cpu time    0.0020: real time    0.0021
    --------------------------------------------
      LOOP:  cpu time    0.9579: real time    0.9613

 eigenvalue-minimisations  :  1960
 total energy-change (2. order) :-0.1681315E+01  (-0.2138638E+03)
 number of electron       8.0000000 magnetization 
 augmentation part        8.0000000 magnetization 

 Free energy of the ion-electron system (eV)
  ---------------------------------------------------
  alpha Z        PSCENC =         3.33880741
  Ewald energy   TEWEN  =      -227.98820643
  -Hartree energ DENC   =       -11.11484531
  -exchange      EXHF   =         0.00000000
  -V(xc)+E(xc)   XCENC  =       -18.63153109
  PAW double counting   =       176.24759923     -141.06103558
  entropy T*S    EENTRO =        -0.00049162
  eigenvalues    EBANDS =        11.40488921
  atomic energy  EATOM  =       206.12349923
  Solvation  Ediel_sol  =         0.00000000
  ---------------------------------------------------
  free energy    TOTEN  =        -1.68131495 eV

  energy without entropy =       -1.68082333  energy(sigma->0) =       -1.68106914


--------------------------------------------------------------------------------------------------------




--------------------------------------- Iteration      1(   2)  ---------------------------------------


     EDDAV:  cpu time    1.1038: real time    1.1210
       DOS:  cpu time    0.0020: real time    0.0014
    --------------------------------------------
      LOOP:  cpu time    1.1048: real time    1.1224

 eigenvalue-minimisations  :  2944
 total energy-change (2. order) :-0.9221446E+01  (-0.8967119E+01)
 number of electron       8.0000000 magnetization 
 augmentation part        8.0000000 magnetization 

 Free energy of the ion-electron system (eV)
  ---------------------------------------------------
  alpha Z        PSCENC =         3.33880741
  Ewald energy   TEWEN  =      -227.98820643
  -Hartree energ DENC   =       -11.11484531
  -exchange      EXHF   =         0.00000000
  -V(xc)+E(xc)   XCENC  =       -18.63153109
  PAW double counting   =       176.24759923     -141.06103558
  entropy T*S    EENTRO =        -0.00000000
  eigenvalues    EBANDS =         2.18295139
  atomic energy  EATOM  =       206.12349923
  Solvation  Ediel_sol  =         0.00000000
  ---------------------------------------------------
  free energy    TOTEN  =       -10.90276116 eV

  energy without entropy =      -10.90276116  energy(sigma->0) =      -10.90276116


--------------------------------------------------------------------------------------------------------




--------------------------------------- Iteration      1(   3)  ---------------------------------------


     EDDAV:  cpu time    0.9239: real time    0.9400
       DOS:  cpu time    0.0010: real time    0.0014
    --------------------------------------------
      LOOP:  cpu time    0.9259: real time    0.9415

 eigenvalue-minimisations  :  2400
 total energy-change (2. order) :-0.9896186E-01  (-0.9896186E-01)
 number of electron       8.0000000 magnetization 
 augmentation part        8.0000000 magnetization 

 Free energy of the ion-electron system (eV)
  ---------------------------------------------------
  alpha Z        PSCENC =         3.33880741
  Ewald energy   TEWEN  =      -227.98820643
  -Hartree energ DENC   =       -11.11484531
  -exchange      EXHF   =         0.00000000
  -V(xc)+E(xc)   XCENC  =       -18.63153109
  PAW double counting   =       176.24759923     -141.06103558
  entropy T*S    EENTRO =        -0.00000000
  eigenvalues    EBANDS =         2.08398952
  atomic energy  EATOM  =       206.12349923
  Solvation  Ediel_sol  =         0.00000000
  ---------------------------------------------------
  free energy    TOTEN  =       -11.00172302 eV

  energy without entropy =      -11.00172302  energy(sigma->0) =      -11.00172302


--------------------------------------------------------------------------------------------------------




--------------------------------------- Iteration      1(   4)  ---------------------------------------


     EDDAV:  cpu time    1.1778: real time    1.1856
       DOS:  cpu time    0.0010: real time    0.0015
    --------------------------------------------
      LOOP:  cpu time    1.1788: real time    1.1870

 eigenvalue-minimisations  :  3136
 total energy-change (2. order) :-0.3437732E-03  (-0.3437732E-03)
 number of electron       8.0000000 magnetization 
 augmentation part        8.0000000 magnetization 

 Free energy of the ion-electron system (eV)
  ---------------------------------------------------
  alpha Z        PSCENC =         3.33880741
  Ewald energy   TEWEN  =      -227.98820643
  -Hartree energ DENC   =       -11.11484531
  -exchange      EXHF   =         0.00000000
  -V(xc)+E(xc)   XCENC  =       -18.63153109
  PAW double counting   =       176.24759923     -141.06103558
  entropy T*S    EENTRO =        -0.00000000
  eigenvalues    EBANDS =         2.08364575
  atomic energy  EATOM  =       206.12349923
  Solvation  Ediel_sol  =         0.00000000
  ---------------------------------------------------
  free energy    TOTEN  =       -11.00206680 eV

  energy without entropy =      -11.00206680  energy(sigma->0) =      -11.00206680


--------------------------------------------------------------------------------------------------------




--------------------------------------- Iteration      1(   5)  ---------------------------------------


     EDDAV:  cpu time    0.9229: real time    0.9387
       DOS:  cpu time    0.0010: real time    0.0013
    CHARGE:  cpu time    0.0570: real time    0.0570
    MIXING:  cpu time    0.0010: real time    0.0010
    --------------------------------------------
      LOOP:  cpu time    0.9809: real time    0.9980

 eigenvalue-minimisations  :  2408
 total energy-change (2. order) :-0.2476750E-06  (-0.2474059E-06)
 number of electron       8.0000000 magnetization 
 augmentation part       -0.4691015 magnetization 

 Broyden mixing:
  rms(total) = 0.52787E+00    rms(broyden)= 0.52784E+00
  rms(prec ) = 0.96668E+00
  weight for this iteration     100.00

 Free energy of the ion-electron system (eV)
  ---------------------------------------------------
  alpha Z        PSCENC =         3.33880741
  Ewald energy   TEWEN  =      -227.98820643
  -Hartree energ DENC   =       -11.11484531
  -exchange      EXHF   =         0.00000000
  -V(xc)+E(xc)   XCENC  =       -18.63153109
  PAW double counting   =       176.24759923     -141.06103558
  entropy T*S    EENTRO =        -0.00000000
  eigenvalues    EBANDS =         2.08364550
  atomic energy  EATOM  =       206.12349923
  Solvation  Ediel_sol  =         0.00000000
  ---------------------------------------------------
  free energy    TOTEN  =       -11.00206704 eV

  energy without entropy =      -11.00206704  energy(sigma->0) =      -11.00206704


--------------------------------------------------------------------------------------------------------




--------------------------------------- Iteration      1(   6)  ---------------------------------------


    POTLOK:  cpu time    0.0200: real time    0.0285
    SETDIJ:  cpu time    0.1670: real time    0.1676
     EDDAV:  cpu time    0.9079: real time    0.9081
       DOS:  cpu time    0.0010: real time    0.0015
    CHARGE:  cpu time    0.0570: real time    0.0565
    MIXING:  cpu time    0.0000: real time    0.0011
    --------------------------------------------
      LOOP:  cpu time    1.1538: real time    1.1634

 eigenvalue-minimisations  :  2360
 total energy-change (2. order) : 0.1209516E+00  (-0.7913998E-02)
 number of electron       8.0000000 magnetization 
 augmentation part       -0.4633944 magnetization 

 Broyden mixing:
  rms(total) = 0.32340E+00    rms(broyden)= 0.32340E+00
  rms(prec ) = 0.57611E+00
  weight for this iteration     100.00

 eigenvalues of (default mixing * dielectric matrix)
  average eigenvalue GAMMA=   2.5739
  2.5739

 Free energy of the ion-electron system (eV)
  ---------------------------------------------------
  alpha Z        PSCENC =         3.33880741
  Ewald energy   TEWEN  =      -227.98820643
  -Hartree energ DENC   =       -12.59593132
  -exchange      EXHF   =         0.00000000
  -V(xc)+E(xc)   XCENC  =       -18.39336408
  PAW double counting   =       411.10717519     -376.03066052
  entropy T*S    EENTRO =        -0.00000000
  eigenvalues    EBANDS =         3.55756506
  atomic energy  EATOM  =       206.12349923
  Solvation  Ediel_sol  =         0.00000000
  ---------------------------------------------------
  free energy    TOTEN  =       -10.88111546 eV

  energy without entropy =      -10.88111546  energy(sigma->0) =      -10.88111546


--------------------------------------------------------------------------------------------------------




--------------------------------------- Iteration      1(   7)  ---------------------------------------


    POTLOK:  cpu time    0.0210: real time    0.0349
    SETDIJ:  cpu time    0.1670: real time    0.1669
     EDDAV:  cpu time    0.9469: real time    0.9483
       DOS:  cpu time    0.0000: real time    0.0014
    CHARGE:  cpu time    0.0560: real time    0.0560
    MIXING:  cpu time    0.0010: real time    0.0010
    --------------------------------------------
      LOOP:  cpu time    1.1918: real time    1.2085

 eigenvalue-minimisations  :  2480
 total energy-change (2. order) : 0.5505593E-01  (-0.1510111E-01)
 number of electron       8.0000000 magnetization 
 augmentation part       -0.4564525 magnetization 

 Broyden mixing:
  rms(total) = 0.18767E-01    rms(broyden)= 0.18767E-01
  rms(prec ) = 0.41307E-01
  weight for this iteration     100.00

 eigenvalues of (default mixing * dielectric matrix)
  average eigenvalue GAMMA=   2.0635
  1.7316  2.3954

 Free energy of the ion-electron system (eV)
  ---------------------------------------------------
  alpha Z        PSCENC =         3.33880741
  Ewald energy   TEWEN  =      -227.98820643
  -Hartree energ DENC   =       -15.02465176
  -exchange      EXHF   =         0.00000000
  -V(xc)+E(xc)   XCENC  =       -17.99687899
  PAW double counting   =       994.20251730     -959.26961967
  entropy T*S    EENTRO =        -0.00000000
  eigenvalues    EBANDS =         5.78847338
  atomic energy  EATOM  =       206.12349923
  Solvation  Ediel_sol  =         0.00000000
  ---------------------------------------------------
  free energy    TOTEN  =       -10.82605953 eV

  energy without entropy =      -10.82605953  energy(sigma->0) =      -10.82605953


--------------------------------------------------------------------------------------------------------




--------------------------------------- Iteration      1(   8)  ---------------------------------------


    POTLOK:  cpu time    0.0210: real time    0.0349
    SETDIJ:  cpu time    0.1660: real time    0.1671
     EDDAV:  cpu time    0.8259: real time    0.8259
       DOS:  cpu time    0.0010: real time    0.0016
    CHARGE:  cpu time    0.0560: real time    0.0562
    MIXING:  cpu time    0.0010: real time    0.0011
    --------------------------------------------
      LOOP:  cpu time    1.0708: real time    1.0868

 eigenvalue-minimisations  :  2120
 total energy-change (2. order) :-0.9933410E-03  (-0.3592243E-03)
 number of electron       8.0000000 magnetization 
 augmentation part       -0.4573989 magnetization 

 Broyden mixing:
  rms(total) = 0.71941E-02    rms(broyden)= 0.71935E-02
  rms(prec ) = 0.13155E-01
  weight for this iteration     100.00

 eigenvalues of (default mixing * dielectric matrix)
  average eigenvalue GAMMA=   2.2377
  2.8445  1.9342  1.9342

 Free energy of the ion-electron system (eV)
  ---------------------------------------------------
  alpha Z        PSCENC =         3.33880741
  Ewald energy   TEWEN  =      -227.98820643
  -Hartree energ DENC   =       -14.94725406
  -exchange      EXHF   =         0.00000000
  -V(xc)+E(xc)   XCENC  =       -17.99804297
  PAW double counting   =      1003.92546514     -968.96584386
  entropy T*S    EENTRO =        -0.00000000
  eigenvalues    EBANDS =         5.68452268
  atomic energy  EATOM  =       206.12349923
  Solvation  Ediel_sol  =         0.00000000
  ---------------------------------------------------
  free energy    TOTEN  =       -10.82705287 eV

  energy without entropy =      -10.82705287  energy(sigma->0) =      -10.82705287


--------------------------------------------------------------------------------------------------------




--------------------------------------- Iteration      1(   9)  ---------------------------------------


    POTLOK:  cpu time    0.0200: real time    0.0351
    SETDIJ:  cpu time    0.1680: real time    0.1675
     EDDAV:  cpu time    1.0668: real time    1.0685
       DOS:  cpu time    0.0020: real time    0.0014
    CHARGE:  cpu time    0.0560: real time    0.0560
    MIXING:  cpu time    0.0000: real time    0.0012
    --------------------------------------------
      LOOP:  cpu time    1.3128: real time    1.3298

 eigenvalue-minimisations  :  2792
 total energy-change (2. order) :-0.1974001E-03  (-0.1901456E-04)
 number of electron       8.0000000 magnetization 
 augmentation part       -0.4575266 magnetization 

 Broyden mixing:
  rms(total) = 0.57034E-02    rms(broyden)= 0.57033E-02
  rms(prec ) = 0.65249E-02
  weight for this iteration     100.00

 eigenvalues of (default mixing * dielectric matrix)
  average eigenvalue GAMMA=   2.0988
  0.9388  2.5377  2.5377  2.3811

 Free energy of the ion-electron system (eV)
  ---------------------------------------------------
  alpha Z        PSCENC =         3.33880741
  Ewald energy   TEWEN  =      -227.98820643
  -Hartree energ DENC   =       -14.98896035
  -exchange      EXHF   =         0.00000000
  -V(xc)+E(xc)   XCENC  =       -17.98966827
  PAW double counting   =      1007.73158241     -972.76927098
  entropy T*S    EENTRO =        -0.00000000
  eigenvalues    EBANDS =         5.71496672
  atomic energy  EATOM  =       206.12349923
  Solvation  Ediel_sol  =         0.00000000
  ---------------------------------------------------
  free energy    TOTEN  =       -10.82725027 eV

  energy without entropy =      -10.82725027  energy(sigma->0) =      -10.82725027


--------------------------------------------------------------------------------------------------------




--------------------------------------- Iteration      1(  10)  ---------------------------------------


    POTLOK:  cpu time    0.0210: real time    0.0351
    SETDIJ:  cpu time    0.1670: real time    0.1670
     EDDAV:  cpu time    0.8709: real time    0.8723
       DOS:  cpu time    0.0000: real time    0.0014
    CHARGE:  cpu time    0.0560: real time    0.0560
    MIXING:  cpu time    0.0010: real time    0.0011
    --------------------------------------------
      LOOP:  cpu time    1.1158: real time    1.1327

 eigenvalue-minimisations  :  2248
 total energy-change (2. order) :-0.2437819E-04  (-0.2775737E-05)
 number of electron       8.0000000 magnetization 
 augmentation part       -0.4575004 magnetization 

 Broyden mixing:
  rms(total) = 0.92931E-03    rms(broyden)= 0.92927E-03
  rms(prec ) = 0.10279E-02
  weight for this iteration     100.00

 eigenvalues of (default mixing * dielectric matrix)
  average eigenvalue GAMMA=   1.9134
  2.9024  2.4482  2.0546  1.0685  1.0936

 Free energy of the ion-electron system (eV)
  ---------------------------------------------------
  alpha Z        PSCENC =         3.33880741
  Ewald energy   TEWEN  =      -227.98820643
  -Hartree energ DENC   =       -14.99726917
  -exchange      EXHF   =         0.00000000
  -V(xc)+E(xc)   XCENC  =       -17.98934716
  PAW double counting   =       994.86263069     -959.90030357
  entropy T*S    EENTRO =        -0.00000000
  eigenvalues    EBANDS =         5.72291436
  atomic energy  EATOM  =       206.12349923
  Solvation  Ediel_sol  =         0.00000000
  ---------------------------------------------------
  free energy    TOTEN  =       -10.82727465 eV

  energy without entropy =      -10.82727465  energy(sigma->0) =      -10.82727465


--------------------------------------------------------------------------------------------------------




--------------------------------------- Iteration      1(  11)  ---------------------------------------


    POTLOK:  cpu time    0.0210: real time    0.0356
    SETDIJ:  cpu time    0.1670: real time    0.1671
     EDDAV:  cpu time    1.0138: real time    1.0152
       DOS:  cpu time    0.0020: real time    0.0016
    --------------------------------------------
      LOOP:  cpu time    1.2028: real time    1.2194

 eigenvalue-minimisations  :  2648
 total energy-change (2. order) : 0.2899864E-06  (-0.5950742E-07)
 number of electron       8.0000000 magnetization 
 augmentation part       -0.4575004 magnetization 

 Free energy of the ion-electron system (eV)
  ---------------------------------------------------
  alpha Z        PSCENC =         3.33880741
  Ewald energy   TEWEN  =      -227.98820643
  -Hartree energ DENC   =       -14.99603932
  -exchange      EXHF   =         0.00000000
  -V(xc)+E(xc)   XCENC  =       -17.98937435
  PAW double counting   =       996.44880480     -961.48600997
  entropy T*S    EENTRO =        -0.00000000
  eigenvalues    EBANDS =         5.72124428
  atomic energy  EATOM  =       206.12349923
  Solvation  Ediel_sol  =         0.00000000
  ---------------------------------------------------
  free energy    TOTEN  =       -10.82727436 eV

  energy without entropy =      -10.82727436  energy(sigma->0) =      -10.82727436


--------------------------------------------------------------------------------------------------------




 average (electrostatic) potential at core
  the test charge radii are     0.9892
  (the norm of the test charge is              1.0000)
       1 -83.3332       2 -83.3332
 
 
 
 E-fermi :   6.0012     XC(G=0):  -9.3822     alpha+bet :-11.8943

 Fermi energy:         6.0012235549

 k-point     1 :       0.0000    0.0000    0.0000
  band No.  band energies     occupation 
      1      -6.1552      2.00000
      2       5.7648      2.00000
      3       5.7648      2.00000
      4       5.7648      2.00000
      5       8.3299      0.00000
      6       8.3299      0.00000
      7       8.3299      0.00000
      8       9.0444      0.00000

 k-point     2 :       0.0667   -0.0000    0.0000
  band No.  band energies     occupation 
      1      -6.0972      2.00000
      2       5.1715      2.00000
      3       5.6699      2.00000
      4       5.6699      2.00000
      5       8.3832      0.00000
      6       8.4693      0.00000
      7       8.4693      0.00000
      8       9.4869      0.00000

 k-point     3 :       0.1333   -0.0000    0.0000
  band No.  band energies     occupation 
      1      -5.9246      2.00000
      2       4.0109      2.00000
      3       5.4444      2.00000
      4       5.4444      2.00000
      5       8.2205      0.00000
      6       8.7972      0.00000
      7       8.7972      0.00000
      8      10.5584      0.00000

 k-point     4 :       0.2000    0.0000    0.0000
  band No.  band energies     occupation 
      1      -5.6410      2.00000
      2       2.7601      2.00000
      3       5.1866      2.00000
      4       5.1866      2.00000
      5       7.9632      0.00000
      6       9.1278      0.00000
      7       9.1278      0.00000
      8      11.7551      0.00000

 k-point     5 :       0.2667   -0.0000    0.0000
  band No.  band energies     occupation 
      1      -5.2554      2.00000
      2       1.5513      2.00000
      3       4.9519      2.00000
      4       4.9519      2.00000
      5       7.7123      0.00000
      6       9.2950      0.00000
      7       9.2950      0.00000
      8      12.8946      0.00000

 k-point     6 :       0.3333   -0.0000    0.0000
  band No.  band energies     occupation 
      1      -4.7876      2.00000
      2       0.4451      2.00000
      3       4.7661      2.00000
      4       4.7661      2.00000
      5       7.5076      0.00000
      6       9.2807      0.00000
      7       9.2807      0.00000
      8      13.6032      0.00000

 k-point     7 :       0.4000   -0.0000    0.0000
  band No.  band energies     occupation 
      1      -4.2887      2.00000
      2      -0.4861      2.00000
      3       4.6396      2.00000
      4       4.6396      2.00000
      5       7.3631      0.00000
      6       9.1952      0.00000
      7       9.1952      0.00000
      8      13.5913      0.00000

 k-point     8 :       0.4667   -0.0000    0.0000
  band No.  band energies     occupation 
      1      -3.9033      2.00000
      2      -1.0897      2.00000
      3       4.5753      2.00000
      4       4.5753      2.00000
      5       7.2899      0.00000
      6       9.1303      0.00000
      7       9.1303      0.00000
      8      13.4957      0.00000

 k-point     9 :       0.0667    0.0667    0.0000
  band No.  band energies     occupation 
      1      -6.0779      2.00000
      2       5.2880      2.00000
      3       5.4726      2.00000
      4       5.4726      2.00000
      5       8.1489      0.00000
      6       8.7175      0.00000
      7       8.7175      0.00000
      8       9.4968      0.00000

 k-point    10 :       0.1333    0.0667    0.0000
  band No.  band energies     occupation 
      1      -5.9432      2.00000
      2       4.3544      2.00000
      3       5.1945      2.00000
      4       5.3671      2.00000
      5       8.1483      0.00000
      6       8.8052      0.00000
      7       9.1181      0.00000
      8      10.2635      0.00000

 k-point    11 :       0.2000    0.0667    0.0000
  band No.  band energies     occupation 
      1      -5.6961      2.00000
      2       3.1552      2.00000
      3       4.9197      2.00000
      4       5.1486      2.00000
      5       8.2423      0.00000
      6       8.7963      0.00000
      7       9.5066      0.00000
      8      11.1120      0.00000

 k-point    12 :       0.2667    0.0667    0.0000
  band No.  band energies     occupation 
      1      -5.3434      2.00000
      2       1.9474      2.00000
      3       4.6920      2.00000
      4       4.8747      2.00000
      5       8.1142      0.00000
      6       8.9720      0.00000
      7       9.7185      0.00000
      8      11.5645      0.00000

 k-point    13 :       0.3333    0.0667    0.0000
  band No.  band energies     occupation 
      1      -4.8998      2.00000
      2       0.8138      2.00000
      3       4.5309      2.00000
      4       4.6123      2.00000
      5       7.9269      0.00000
      6       9.0593      0.00000
      7       9.7030      0.00000
      8      12.1314      0.00000

 k-point    14 :       0.4000    0.0667    0.0000
  band No.  band energies     occupation 
      1      -4.4018      2.00000
      2      -0.1793      2.00000
      3       4.3914      2.00000
      4       4.4438      2.00000
      5       7.7731      0.00000
      6       9.0431      0.00000
      7       9.5632      0.00000
      8      12.9375      0.00000

 k-point    15 :       0.4667    0.0667    0.0000
  band No.  band energies     occupation 
      1      -3.9520      2.00000
      2      -0.9159      2.00000
      3       4.2265      2.00000
      4       4.4307      2.00000
      5       7.6784      0.00000
      6       9.0302      0.00000
      7       9.4097      0.00000
      8      13.5638      0.00000

 k-point    16 :      -0.4667    0.0667    0.0000
  band No.  band energies     occupation 
      1      -3.7975      2.00000
      2      -1.1420      2.00000
      3       4.1271      2.00000
      4       4.4906      2.00000
      5       7.6545      0.00000
      6       9.0790      0.00000
      7       9.3056      0.00000
      8      13.6934      0.00000

 k-point    17 :      -0.4000    0.0667    0.0000
  band No.  band energies     occupation 
      1      -4.0852      2.00000
      2      -0.7099      2.00000
      3       4.0987      2.00000
      4       4.6162      2.00000
      5       7.7011      0.00000
      6       9.1990      0.00000
      7       9.2639      0.00000
      8      13.6724      0.00000

 k-point    18 :      -0.3333    0.0667    0.0000
  band No.  band energies     occupation 
      1      -4.5705      2.00000
      2       0.1326      2.00000
      3       4.1471      2.00000
      4       4.8005      2.00000
      5       7.8181      0.00000
      6       9.2627      0.00000
      7       9.3625      0.00000
      8      13.2903      0.00000

 k-point    19 :      -0.2667    0.0667    0.0000
  band No.  band energies     occupation 
      1      -5.0567      2.00000
      2       1.1810      2.00000
      3       4.2743      2.00000
      4       5.0319      2.00000
      5       7.9963      0.00000
      6       9.2246      0.00000
      7       9.4817      0.00000
      8      12.5464      0.00000

 k-point    20 :      -0.2000    0.0667    0.0000
  band No.  band energies     occupation 
      1      -5.4725      2.00000
      2       2.3425      2.00000
      3       4.4816      2.00000
      4       5.2896      2.00000
      5       8.2193      0.00000
      6       9.0476      0.00000
      7       9.4068      0.00000
      8      11.8209      0.00000

 k-point    21 :      -0.1333    0.0667    0.0000
  band No.  band energies     occupation 
      1      -5.7910      2.00000
      2       3.5427      2.00000
      3       4.7706      2.00000
      4       5.5344      2.00000
      5       8.4566      0.00000
      6       8.7428      0.00000
      7       9.0617      0.00000
      8      11.0253      0.00000

 k-point    22 :      -0.0667    0.0667    0.0000
  band No.  band energies     occupation 
      1      -6.0009      2.00000
      2       4.6090      2.00000
      3       5.1786      2.00000
      4       5.6912      2.00000
      5       8.4893      0.00000
      6       8.6036      0.00000
      7       8.6217      0.00000
      8      10.1001      0.00000

 k-point    23 :       0.1333    0.1333    0.0000
  band No.  band energies     occupation 
      1      -5.8467      2.00000
      2       4.2844      2.00000
      3       4.8844      2.00000
      4       4.8844      2.00000
      5       7.7207      0.00000
      6       9.5861      0.00000
      7       9.5861      0.00000
      8      10.1368      0.00000

 k-point    24 :       0.2000    0.1333    0.0000
  band No.  band energies     occupation 
      1      -5.6368      2.00000
      2       3.3973      2.00000
      3       4.5926      2.00000
      4       4.6681      2.00000
      5       7.6873      0.00000
      6       9.6296      0.00000
      7      10.0579      0.00000
      8      10.4071      0.00000

 k-point    25 :       0.2667    0.1333    0.0000
  band No.  band energies     occupation 
      1      -5.3187      2.00000
      2       2.2913      2.00000
      3       4.3577      2.00000
      4       4.3812      2.00000
      5       7.8833      0.00000
      6       9.5454      0.00000
      7      10.3667      0.00000
      8      10.4330      0.00000

 k-point    26 :       0.3333    0.1333    0.0000
  band No.  band energies     occupation 
      1      -4.9034      2.00000
      2       1.1865      2.00000
      3       4.0508      2.00000
      4       4.1983      2.00000
      5       7.9870      0.00000
      6       9.5520      0.00000
      7      10.4127      0.00000
      8      10.6496      0.00000

 k-point    27 :       0.4000    0.1333    0.0000
  band No.  band energies     occupation 
      1      -4.4172      2.00000
      2       0.1720      2.00000
      3       3.7439      2.00000
      4       4.1218      2.00000
      5       7.9645      0.00000
      6       9.4810      0.00000
      7      10.2697      0.00000
      8      11.3646      0.00000

 k-point    28 :       0.4667    0.1333    0.0000
  band No.  band energies     occupation 
      1      -3.9311      2.00000
      2      -0.6521      2.00000
      3       3.4906      2.00000
      4       4.1306      2.00000
      5       7.9367      0.00000
      6       9.3974      0.00000
      7      10.0663      0.00000
      8      12.3866      0.00000

 k-point    29 :      -0.4667    0.1333    0.0000
  band No.  band energies     occupation 
      1      -3.6432      2.00000
      2      -1.0751      2.00000
      3       3.3083      2.00000
      4       4.2214      2.00000
      5       7.9685      0.00000
      6       9.3714      0.00000
      7       9.8854      0.00000
      8      13.5022      0.00000

 k-point    30 :      -0.4000    0.1333    0.0000
  band No.  band energies     occupation 
      1      -3.8024      2.00000
      2      -0.8447      2.00000
      3       3.2082      2.00000
      4       4.3872      2.00000
      5       8.0718      0.00000
      6       9.4209      0.00000
[...]
      8      11.8140      0.00000

 k-point    86 :      -0.3333    0.2667    0.0667
  band No.  band energies     occupation 
      1      -3.4391      2.00000
      2      -0.8426      2.00000
      3       1.8652      2.00000
      4       3.6950      2.00000
      5       7.9826      0.00000
      6       9.9473      0.00000
      7      11.6248      0.00000
      8      12.3827      0.00000

 k-point    87 :      -0.2667    0.2667    0.0667
  band No.  band energies     occupation 
      1      -3.8950      2.00000
      2      -0.2083      2.00000
      3       1.9138      2.00000
      4       3.9614      2.00000
      5       8.2760      0.00000
      6       9.7955      0.00000
      7      11.2354      0.00000
      8      11.5949      0.00000

 k-point    88 :      -0.2000    0.2667    0.0667
  band No.  band energies     occupation 
      1      -4.3827      2.00000
      2       0.4882      2.00000
      3       2.2149      2.00000
      4       4.2728      2.00000
      5       8.5962      0.00000
      6       9.4297      0.00000
      7      10.6975      0.00000
      8      11.1582      0.00000

 k-point    89 :       0.4000    0.3333    0.0667
  band No.  band energies     occupation 
      1      -4.2569      2.00000
      2       0.5365      2.00000
      3       2.9870      2.00000
      4       3.2702      2.00000
      5       6.8424      0.00000
      6       7.9878      0.00000
      7      12.0031      0.00000
      8      12.8168      0.00000

 k-point    90 :       0.4667    0.3333    0.0667
  band No.  band energies     occupation 
      1      -3.7966      2.00000
      2      -0.1224      2.00000
      3       2.5119      2.00000
      4       3.1073      2.00000
      5       7.1237      0.00000
      6       8.2251      0.00000
      7      11.8124      0.00000
      8      13.1575      0.00000

 k-point    91 :      -0.4667    0.3333    0.0667
  band No.  band energies     occupation 
      1      -3.3002      2.00000
      2      -0.7518      2.00000
      3       2.0174      2.00000
      4       3.0791      2.00000
      5       7.2519      0.00000
      6       9.0702      0.00000
      7      11.5696      0.00000
      8      13.1453      0.00000

 k-point    92 :      -0.4000    0.3333    0.0667
  band No.  band energies     occupation 
      1      -2.9205      2.00000
      2      -1.1858      2.00000
      3       1.6329      2.00000
      4       3.1686      2.00000
      5       7.3889      0.00000
      6      10.2131      0.00000
      7      11.3554      0.00000
      8      12.9997      0.00000

 k-point    93 :      -0.3333    0.3333    0.0667
  band No.  band energies     occupation 
      1      -2.9853      2.00000
      2      -1.1047      2.00000
      3       1.4313      2.00000
      4       3.3598      2.00000
      5       7.6110      0.00000
      6      10.9926      0.00000
      7      11.6742      0.00000
      8      12.3965      0.00000

 k-point    94 :      -0.2667    0.3333    0.0667
  band No.  band energies     occupation 
      1      -3.4100      2.00000
      2      -0.6482      2.00000
      3       1.4931      2.00000
      4       3.6342      2.00000
      5       7.9195      0.00000
      6      10.6460      0.00000
      7      11.5019      0.00000
      8      12.3951      0.00000

 k-point    95 :       0.4667    0.4000    0.0667
  band No.  band energies     occupation 
      1      -3.4718      2.00000
      2      -0.5388      2.00000
      3       2.7345      2.00000
      4       2.8936      2.00000
      5       6.6952      0.00000
      6       7.3518      0.00000
      7      13.1251      0.00000
      8      14.0764      0.00000

 k-point    96 :      -0.4667    0.4000    0.0667
  band No.  band energies     occupation 
      1      -2.9769      2.00000
      2      -1.0933      2.00000
      3       2.2427      2.00000
      4       2.8213      2.00000
      5       6.9571      0.00000
      6       7.8226      0.00000
      7      12.9076      0.00000
      8      14.3733      0.00000

 k-point    97 :      -0.4000    0.4000    0.0667
  band No.  band energies     occupation 
      1      -2.5355      2.00000
      2      -1.5271      2.00000
      3       1.7293      2.00000
      4       2.9021      2.00000
      5       7.0931      0.00000
      6       8.8637      0.00000
      7      12.6530      0.00000
      8      13.8313      0.00000

 k-point    98 :      -0.3333    0.4000    0.0667
  band No.  band energies     occupation 
      1      -2.5673      2.00000
      2      -1.4705      2.00000
      3       1.4105      2.00000
      4       3.0870      2.00000
      5       7.3046      0.00000
      6      10.1320      0.00000
      7      12.2441      0.00000
      8      12.7213      0.00000

 k-point    99 :      -0.4667    0.4667    0.0667
  band No.  band energies     occupation 
      1      -2.5754      2.00000
      2      -1.5882      2.00000
      3       2.6305      2.00000
      4       2.6817      2.00000
      5       6.7179      0.00000
      6       6.9313      0.00000
      7      14.2897      0.00000
      8      15.1307      0.00000

 k-point   100 :      -0.4000    0.4667    0.0667
  band No.  band energies     occupation 
      1      -2.1572      2.00000
      2      -1.9670      2.00000
      3       2.1500      2.00000
      4       2.7288      2.00000
      5       6.9026      0.00000
      6       7.6852      0.00000
      7      13.9767      0.00000
      8      14.1604      0.00000

 k-point   101 :       0.4000    0.2667    0.1333
  band No.  band energies     occupation 
      1      -4.7123      2.00000
      2       1.0836      2.00000
      3       2.7911      2.00000
      4       4.0773      2.00000
      5       8.1518      0.00000
      6       9.4997      0.00000
      7       9.7957      0.00000
      8      11.4006      0.00000

 k-point   102 :       0.4667    0.2667    0.1333
  band No.  band energies     occupation 
      1      -4.2544      2.00000
      2       0.3180      2.00000
      3       2.3960      2.00000
      4       3.8007      2.00000
      5       8.4740      0.00000
      6       9.4488      0.00000
      7       9.9344      0.00000
      8      11.7631      0.00000

 k-point   103 :      -0.4667    0.2667    0.1333
  band No.  band energies     occupation 
      1      -3.7607      2.00000
      2      -0.4484      2.00000
      3       2.1976      2.00000
      4       3.5633      2.00000
      5       8.6034      0.00000
      6       9.1544      0.00000
      7      10.8304      0.00000
      8      11.8464      0.00000

 k-point   104 :      -0.4000    0.2667    0.1333
  band No.  band energies     occupation 
      1      -3.3695      2.00000
      2      -0.9922      2.00000
      3       2.1177      2.00000
      4       3.4292      2.00000
      5       8.7186      0.00000
      6       8.9075      0.00000
      7      11.8122      0.00000
      8      12.0295      0.00000

 k-point   105 :       0.4667    0.3333    0.1333
  band No.  band energies     occupation 
      1      -4.0747      2.00000
      2       0.2306      2.00000
      3       2.4246      2.00000
      4       3.3276      2.00000
      5       7.8695      0.00000
      6       8.8266      0.00000
      7      10.5579      0.00000
      8      12.7235      0.00000

 k-point   106 :      -0.4667    0.3333    0.1333
  band No.  band energies     occupation 
      1      -3.5849      2.00000
      2      -0.4100      2.00000
      3       2.0545      2.00000
      4       3.0760      2.00000
      5       8.1925      0.00000
      6       9.3702      0.00000
      7      10.2815      0.00000
      8      13.0947      0.00000

 k-point   107 :      -0.4000    0.3333    0.1333
  band No.  band energies     occupation 
      1      -3.1294      2.00000
      2      -0.9700      2.00000
      3       1.8002      2.00000
      4       2.9600      2.00000
      5       8.3366      0.00000
      6       9.9075      0.00000
      7      10.5386      0.00000
      8      13.1337      0.00000

 k-point   108 :      -0.3333    0.3333    0.1333
  band No.  band energies     occupation 
      1      -2.9800      2.00000
      2      -1.1418      2.00000
      3       1.6580      2.00000
      4       3.0048      2.00000
      5       8.5213      0.00000
      6       9.7250      0.00000
      7      11.7090      0.00000
      8      12.1458      0.00000

 k-point   109 :      -0.2667    0.3333    0.1333
  band No.  band energies     occupation 
      1      -3.2988      2.00000
      2      -0.7650      2.00000
      3       1.6622      2.00000
      4       3.1901      2.00000
      5       8.7834      0.00000
      6       9.5436      0.00000
      7      10.8294      0.00000
      8      12.9785      0.00000

 k-point   110 :      -0.2000    0.3333    0.1333
  band No.  band energies     occupation 
      1      -3.7846      2.00000
      2      -0.1929      2.00000
      3       1.8846      2.00000
      4       3.4767      2.00000
      5       9.1106      0.00000
      6       9.1815      0.00000
      7      10.0504      0.00000
      8      12.5837      0.00000

 k-point   111 :      -0.4667    0.4000    0.1333
  band No.  band energies     occupation 
      1      -3.3226      2.00000
      2      -0.6609      2.00000
      3       2.2169      2.00000
      4       2.7339      2.00000
      5       7.7175      0.00000
      6       8.2608      0.00000
      7      11.5395      0.00000
      8      14.0530      0.00000

 k-point   112 :      -0.4000    0.4000    0.1333
  band No.  band energies     occupation 
      1      -2.8334      2.00000
      2      -1.1728      2.00000
      3       1.8530      2.00000
      4       2.5760      2.00000
      5       8.0115      0.00000
      6       9.0420      0.00000
      7      11.2580      0.00000
      8      13.5861      0.00000

 k-point   113 :      -0.3333    0.4000    0.1333
  band No.  band energies     occupation 
      1      -2.5620      2.00000
      2      -1.4369      2.00000
      3       1.5434      2.00000
      4       2.6467      2.00000
      5       8.1915      0.00000
      6      10.1985      0.00000
      7      11.0569      0.00000
      8      12.1971      0.00000

 k-point   114 :      -0.2667    0.4000    0.1333
  band No.  band energies     occupation 
      1      -2.8287      2.00000
      2      -1.1688      2.00000
      3       1.4472      2.00000
      4       2.8663      2.00000
      5       8.4500      0.00000
      6      10.4962      0.00000
      7      11.0767      0.00000
      8      11.7854      0.00000

 k-point   115 :      -0.4000    0.4667    0.1333
  band No.  band energies     occupation 
      1      -2.4791      2.00000
      2      -1.5776      2.00000
      3       2.1869      2.00000
      4       2.3532      2.00000
      5       7.7204      0.00000
      6       7.8958      0.00000
      7      12.6296      0.00000
      8      13.8110      0.00000

 k-point   116 :      -0.3333    0.4667    0.1333
  band No.  band energies     occupation 
      1      -2.1810      2.00000
      2      -1.8265      2.00000
      3       1.7882      2.00000
      4       2.3984      2.00000
      5       7.9495      0.00000
      6       8.9323      0.00000
      7      12.2964      0.00000
      8      12.4491      0.00000

 k-point   117 :      -0.4000    0.4000    0.2000
  band No.  band energies     occupation 
      1      -3.0961      2.00000
      2      -0.8807      2.00000
      3       1.7414      2.00000
      4       2.7113      2.00000
      5       9.0411      0.00000
      6       9.4422      0.00000
      7      10.0318      0.00000
      8      13.3775      0.00000

 k-point   118 :      -0.3333    0.4000    0.2000
  band No.  band energies     occupation 
      1      -2.6738      2.00000
      2      -1.3032      2.00000
      3       1.6033      2.00000
      4       2.4940      2.00000
      5       9.3118      0.00000
      6       9.6349      0.00000
      7      10.5738      0.00000
      8      11.9409      0.00000

 k-point   119 :      -0.3333    0.4667    0.2000
  band No.  band energies     occupation 
      1      -2.3535      2.00000
      2      -1.6022      2.00000
      3       1.8158      2.00000
      4       2.1374      2.00000
      5       9.0329      0.00000
      6       9.1739      0.00000
      7      10.9770      0.00000
      8      12.1151      0.00000

 k-point   120 :      -0.2667    0.4667    0.2000
  band No.  band energies     occupation 
      1      -2.2435      2.00000
      2      -1.6904      2.00000
      3       1.6645      2.00000
      4       2.1561      2.00000
      5       9.2836      0.00000
      6      10.1763      0.00000
      7      10.8204      0.00000
      8      10.8690      0.00000


--------------------------------------------------------------------------------------------------------


 soft charge-density along one line, spin component           1
         0         1         2         3         4         5         6         7         8         9
 total charge-density along one line
 
 pseudopotential strength for first ion, spin component:           1
 18.437  25.723   0.000  -0.000   0.000   0.000  -0.000   0.000
 25.723  35.892   0.000  -0.000   0.000   0.000  -0.000   0.000
  0.000   0.000   4.181  -0.000  -0.000   7.791  -0.000  -0.000
 -0.000  -0.000  -0.000   4.181  -0.000  -0.000   7.791  -0.000
  0.000   0.000  -0.000  -0.000   4.181  -0.000  -0.000   7.791
  0.000   0.000   7.791  -0.000  -0.000  14.530  -0.000  -0.000
 -0.000  -0.000  -0.000   7.791  -0.000  -0.000  14.530  -0.000
  0.000   0.000  -0.000  -0.000   7.791  -0.000  -0.000  14.530
 total augmentation occupancy for first ion, spin component:           1
  5.916  -2.268  -0.000  -0.000   0.000   0.000  -0.000   0.000
 -2.268   0.980   0.000   0.000   0.000   0.000   0.000  -0.000
 -0.000  -0.000   3.287  -0.000   0.000  -0.796   0.000  -0.000
 -0.000   0.000  -0.000   3.287  -0.000   0.000  -0.796   0.000
  0.000  -0.000   0.000  -0.000   3.287  -0.000   0.000  -0.796
  0.000  -0.000  -0.796   0.000  -0.000   0.200  -0.000   0.000
 -0.000   0.000   0.000  -0.796   0.000  -0.000   0.200  -0.000
  0.000  -0.000  -0.000   0.000  -0.796   0.000  -0.000   0.200


------------------------ aborting loop because EDIFF is reached ----------------------------------------


    CHARGE:  cpu time    0.0550: real time    0.0557
    FORLOC:  cpu time    0.0010: real time    0.0010
    FORNL :  cpu time    0.0760: real time    0.0755
    STRESS:  cpu time    0.5729: real time    0.5734
    FORCOR:  cpu time    0.0180: real time    0.0183
    FORHAR:  cpu time    0.0040: real time    0.0036
    MIXING:  cpu time    0.0010: real time    0.0008
    OFIELD:  cpu time    0.0000: real time    0.0002

  FORCE on cell =-STRESS in cart. coord.  units (eV):
  Direction    XX          YY          ZZ          XY          YZ          ZX
  --------------------------------------------------------------------------------------
  Alpha Z     3.30012     3.30012     3.30012
  Ewald     -75.70139   -75.70146   -75.70138     0.00001     0.00000     0.00000
  Hartree     5.04548     5.04548     5.04548     0.00000     0.00000     0.00000
  E(xc)     -25.27679   -25.27678   -25.27679    -0.00000    -0.00000    -0.00000
  Local     -29.60171   -29.60169   -29.60167     0.00001     0.00002     0.00003
  n-local    74.00152    77.37029    81.52982    -0.88563    -0.94685    -0.02614
  augment   -11.61654   -11.61654   -11.61657    -0.00001    -0.00002    -0.00002
  Kinetic    53.01443    54.97461    60.66722     0.87010     1.26981    -0.56464
  Fock        0.00000     0.00000     0.00000     0.00000     0.00000     0.00000
  -------------------------------------------------------------------------------------
  Total       0.00180     0.00180     0.00180    -0.00000    -0.00000    -0.00000
  in kB       0.07049     0.07049     0.07049    -0.00000    -0.00000    -0.00000
  external pressure =        0.07 kB  Pullay stress =        0.00 kB


 VOLUME and BASIS-vectors are now :
 -----------------------------------------------------------------------------
  energy-cutoff  :      250.00
  volume of cell :       40.80
      direct lattice vectors                 reciprocal lattice vectors
     3.346550137  0.000000000  1.932131351     0.298815185 -0.105647080  0.000000000
     1.115516712  3.155158977  1.932131351     0.000000000  0.316941240 -0.000000000
     0.000000000  0.000000000  3.864262701    -0.149407593 -0.105647080  0.258781578

  length of vectors
     3.864263109  3.864264129  3.864262701     0.316941352  0.316941240  0.316941382


 FORCES acting on ions
    electron-ion (+dipol)            ewald-force                    non-local-force                 convergence-correction
 -----------------------------------------------------------------------------------------------
   0.600E-05 0.250E-04 0.137E-05   -.892E-05 -.418E-04 -.347E-14   0.364E-16 -.208E-16 0.361E-15   -.181E-06 -.128E-06 -.314E-06
   -.600E-05 -.250E-04 -.137E-05   0.892E-05 0.418E-04 0.346E-14   0.260E-16 -.208E-16 -.139E-15   0.181E-06 0.128E-06 0.314E-06
 -----------------------------------------------------------------------------------------------
   -.618E-13 0.568E-13 0.749E-13   -.327E-15 -.956E-16 -.184E-17   0.625E-16 -.416E-16 0.222E-15   -.929E-15 0.448E-15 -.185E-14
 
 
 POSITION                                       TOTAL-FORCE (eV/Angst)
 -----------------------------------------------------------------------------------
      3.90431      2.76076      6.76246         0.000000      0.000000     -0.000000
      0.55776      0.39439      0.96607        -0.000000     -0.000000      0.000000
 -----------------------------------------------------------------------------------
    total drift:                               -0.000000      0.000000      0.000000


--------------------------------------------------------------------------------------------------------



  FREE ENERGIE OF THE ION-ELECTRON SYSTEM (eV)
  ---------------------------------------------------
  free  energy   TOTEN  =       -10.82884476 eV

  energy  without entropy=      -10.82884476  energy(sigma->0) =      -10.82884476
 
 d Force = 0.0000000E+00[ 0.000E+00, 0.000E+00]  d Energy = 0.7141856E-03-0.714E-03
 d Force = 0.0000000E+00[ 0.000E+00, 0.000E+00]  d Ewald  = 0.6033136E+00-0.603E+00


--------------------------------------------------------------------------------------------------------


    POTLOK:  cpu time    0.1880: real time    0.1957


--------------------------------------------------------------------------------------------------------




--------------------------------------------------------------------------------------------------------


  
 reached required accuracy - stopping structural energy minimisation
     LOOP+:  cpu time    7.5549: real time    7.7898
    4ORBIT:  cpu time    0.0000: real time    0.0000

 total amount of memory used by VASP MPI-rank0    37953. kBytes
=======================================================================

   base      :      30000. kBytes
   nonl-proj :       2899. kBytes
   fftplans  :       2423. kBytes
   grid      :       1120. kBytes
   one-center:          6. kBytes
   wavefun   :       1505. kBytes
 
  
  
 General timing and accounting informations for this job:
 ========================================================
  
                  Total CPU time used (sec):       29.616
                            User time (sec):       29.152
                          System time (sec):        0.465
                         Elapsed time (sec):       31.020
  
                   Maximum memory used (kb):       54856.
                   Average memory used (kb):          N/A
  
                          Minor page faults:        10381
                          Major page faults:            1
                 Voluntary context switches:        22426
