<?xml version="1.0" encoding="ISO-8859-1"?>
<modeling>
 <generator>
  <i name="program" type="string">vasp </i>
  <i name="version" type="string">6.2.0  </i>
  <i name="subversion" type="string">18Jan21 (build Aug 12 2022 13:00:08) complex                          parallel </i>
  <i name="platform" type="string">LinuxIFC </i>
  <i name="date" type="string">2024 11 03 </i>
  <i name="time" type="string">22:21:33 </i>
 </generator>
 <incar>
  <i type="int" name="ISTART">     0</i>
  <i type="string" name="PREC">Accurate      (Accurate strictly avoids</i>
  <i type="logical" name="ADDGRID"> T  </i>
  <i type="int" name="ISPIN">     1</i>
  <i type="int" name="NELM">    90</i>
  <i type="int" name="NELMIN">     6</i>
  <i type="int" name="IBRION">     2</i>
  <i name="EDIFF">      0.00000100</i>
  <i name="EDIFFG">     -0.00200000</i>
  <i type="int" name="NSW">   100</i>
  <i type="int" name="ISIF">     3</i>
  <i type="int" name="ISYM">     2</i>
  <i name="ENCUT">    250.00000000</i>
  <i type="logical" name="LREAL"> F  </i>
  <i type="int" name="ISMEAR">     0</i>
  <i name="SIGMA">      0.05000000</i>
  <i type="logical" name="LWAVE"> F  </i>
  <i type="logical" name="LCHARG"> F  </i>
  <i type="logical" name="LASPH"> T  </i>
 </incar>
 <primitive_cell>
  <structure name="primitive_cell" >
   <crystal>
    <varray name="basis" >
     <v>       3.33357300       0.00000000       1.92463900 </v>
     <v>       1.11119100       3.14292400       1.92463900 </v>
     <v>       0.00000000       0.00000000       3.84927800 </v>
    </varray>
    <i name="volume">     40.32952685 </i>
    <varray name="rec_basis" >
     <v>       0.29997843      -0.10605835       0.00000000 </v>
     <v>       0.00000000       0.31817505       0.00000000 </v>
     <v>      -0.14998922      -0.10605835       0.25978898 </v>
    </varray>
   </crystal>
   <varray name="positions" >
    <v>       0.87500000       0.87500000       0.87500000 </v>
    <v>       0.12500000       0.12500000       0.12500000 </v>
   </varray>
  </structure>
  <varray name="primitive_index" >
   <v type="int" >        1 </v>
   <v type="int" >        2 </v>
  </varray>
 </primitive_cell>
 <kpoints>
  <generation param="Monkhorst-Pack">
   <v type="int" name="divisions">      15       15       15 </v>
   <v name="usershift">      0.00000000       0.00000000       0.00000000 </v>
   <v name="genvec1">      0.06666667       0.00000000       0.00000000 </v>
   <v name="genvec2">      0.00000000       0.06666667       0.00000000 </v>
   <v name="genvec3">      0.00000000       0.00000000       0.06666667 </v>
   <v name="shift">      0.00000000       0.00000000       0.00000000 </v>
  </generation>
  <varray name="kpointlist" >
   <v>       0.00000000       0.00000000       0.00000000 </v>
   <v>       0.06666667      -0.00000000       0.00000000 </v>
   <v>       0.13333333      -0.00000000       0.00000000 </v>
   <v>       0.20000000       0.00000000       0.00000000 </v>
   <v>       0.26666667      -0.00000000       0.00000000 </v>
   <v>       0.33333333      -0.00000000       0.00000000 </v>
   <v>       0.40000000      -0.00000000       0.00000000 </v>
   <v>       0.46666667      -0.00000000       0.00000000 </v>
   <v>       0.06666667       0.06666667       0.00000000 </v>
   <v>       0.13333333       0.06666667       0.00000000 </v>
   <v>       0.20000000       0.06666667       0.00000000 </v>
   <v>       0.26666667       0.06666667       0.00000000 </v>
   <v>       0.33333333       0.06666667       0.00000000 </v>
   <v>       0.40000000       0.06666667       0.00000000 </v>
   <v>       0.46666667       0.06666667       0.00000000 </v>
   <v>      -0.46666667       0.06666667       0.00000000 </v>
   <v>      -0.40000000       0.06666667       0.00000000 </v>
   <v>      -0.33333333       0.06666667       0.00000000 </v>
   <v>      -0.26666667       0.06666667       0.00000000 </v>
   <v>      -0.20000000       0.06666667       0.00000000 </v>
   <v>      -0.13333333       0.06666667       0.00000000 </v>
   <v>      -0.06666667       0.06666667       0.00000000 </v>
   <v>       0.13333333       0.13333333       0.00000000 </v>
   <v>       0.20000000       0.13333333       0.00000000 </v>
   <v>       0.26666667       0.13333333       0.00000000 </v>
   <v>       0.33333333       0.13333333       0.00000000 </v>
   <v>       0.40000000       0.13333333       0.00000000 </v>
   <v>       0.46666667       0.13333333       0.00000000 </v>
   <v>      -0.46666667       0.13333333       0.00000000 </v>
   <v>      -0.40000000       0.13333333       0.00000000 </v>
   <v>      -0.33333333       0.13333333       0.00000000 </v>
   <v>      -0.26666667       0.13333333       0.00000000 </v>
   <v>      -0.20000000       0.13333333       0.00000000 </v>
   <v>      -0.13333333       0.13333333       0.00000000 </v>
   <v>       0.20000000       0.20000000       0.00000000 </v>
   <v>       0.26666667       0.20000000       0.00000000 </v>
   <v>       0.33333333       0.20000000       0.00000000 </v>
   <v>       0.40000000       0.20000000       0.00000000 </v>
   <v>       0.46666667       0.20000000       0.00000000 </v>
   <v>      -0.46666667       0.20000000       0.00000000 </v>
   <v>      -0.40000000       0.20000000       0.00000000 </v>
   <v>      -0.33333333       0.20000000       0.00000000 </v>
   <v>      -0.26666667       0.20000000       0.00000000 </v>
   <v>      -0.20000000       0.20000000       0.00000000 </v>
   <v>       0.26666667       0.26666667       0.00000000 </v>
   <v>       0.33333333       0.26666667       0.00000000 </v>
   <v>       0.40000000       0.26666667       0.00000000 </v>
   <v>       0.46666667       0.26666667       0.00000000 </v>
   <v>      -0.46666667       0.26666667       0.00000000 </v>
   <v>      -0.40000000       0.26666667       0.00000000 </v>
   <v>      -0.33333333       0.26666667       0.00000000 </v>
   <v>      -0.26666667       0.26666667       0.00000000 </v>
   <v>       0.33333333       0.33333333       0.00000000 </v>
   <v>       0.40000000       0.33333333       0.00000000 </v>
   <v>       0.46666667       0.33333333       0.00000000 </v>
   <v>      -0.46666667       0.33333333       0.00000000 </v>
   <v>      -0.40000000       0.33333333       0.00000000 </v>
   <v>      -0.33333333       0.33333333       0.00000000 </v>
   <v>       0.40000000       0.40000000       0.00000000 </v>
   <v>       0.46666667       0.40000000       0.00000000 </v>
   <v>      -0.46666667       0.40000000       0.00000000 </v>
   <v>      -0.40000000       0.40000000       0.00000000 </v>
   <v>       0.46666667       0.46666667       0.00000000 </v>
   <v>      -0.46666667       0.46666667       0.00000000 </v>
   <v>       0.20000000       0.13333333       0.06666667 </v>
   <v>       0.26666667       0.13333333       0.06666667 </v>
   <v>       0.33333333       0.13333333       0.06666667 </v>
   <v>       0.40000000       0.13333333       0.06666667 </v>
   <v>       0.46666667       0.13333333       0.06666667 </v>
   <v>      -0.46666667       0.13333333       0.06666667 </v>
   <v>       0.26666667       0.20000000       0.06666667 </v>
   <v>       0.33333333       0.20000000       0.06666667 </v>
   <v>       0.40000000       0.20000000       0.06666667 </v>
   <v>       0.46666667       0.20000000       0.06666667 </v>
   <v>      -0.46666667       0.20000000       0.06666667 </v>
   <v>      -0.40000000       0.20000000       0.06666667 </v>
   <v>      -0.33333333       0.20000000       0.06666667 </v>
   <v>      -0.26666667       0.20000000       0.06666667 </v>
   <v>      -0.20000000       0.20000000       0.06666667 </v>
   <v>      -0.13333333       0.20000000       0.06666667 </v>
   <v>       0.33333333       0.26666667       0.06666667 </v>
   <v>       0.40000000       0.26666667       0.06666667 </v>
   <v>       0.46666667       0.26666667       0.06666667 </v>
   <v>      -0.46666667       0.26666667       0.06666667 </v>
   <v>      -0.40000000       0.26666667       0.06666667 </v>
   <v>      -0.33333333       0.26666667       0.06666667 </v>
   <v>      -0.26666667       0.26666667       0.06666667 </v>
   <v>      -0.20000000       0.26666667       0.06666667 </v>
   <v>       0.40000000       0.33333333       0.06666667 </v>
   <v>       0.46666667       0.33333333       0.06666667 </v>
   <v>      -0.46666667       0.33333333       0.06666667 </v>
   <v>      -0.40000000       0.33333333       0.06666667 </v>
   <v>      -0.33333333       0.33333333       0.06666667 </v>
   <v>      -0.26666667       0.33333333       0.06666667 </v>
   <v>       0.46666667       0.40000000       0.06666667 </v>
   <v>      -0.46666667       0.40000000       0.06666667 </v>
   <v>      -0.40000000       0.40000000       0.06666667 </v>
   <v>      -0.33333333       0.40000000       0.06666667 </v>
   <v>      -0.46666667       0.46666667       0.06666667 </v>
   <v>      -0.40000000       0.46666667       0.06666667 </v>
   <v>       0.40000000       0.26666667       0.13333333 </v>
   <v>       0.46666667       0.26666667       0.13333333 </v>
   <v>      -0.46666667       0.26666667       0.13333333 </v>
   <v>      -0.40000000       0.26666667       0.13333333 </v>
   <v>       0.46666667       0.33333333       0.13333333 </v>
   <v>      -0.46666667       0.33333333       0.13333333 </v>
   <v>      -0.40000000       0.33333333       0.13333333 </v>
   <v>      -0.33333333       0.33333333       0.13333333 </v>
   <v>      -0.26666667       0.33333333       0.13333333 </v>
   <v>      -0.20000000       0.33333333       0.13333333 </v>
   <v>      -0.46666667       0.40000000       0.13333333 </v>
   <v>      -0.40000000       0.40000000       0.13333333 </v>
   <v>      -0.33333333       0.40000000       0.13333333 </v>
   <v>      -0.26666667       0.40000000       0.13333333 </v>
   <v>      -0.40000000       0.46666667       0.13333333 </v>
   <v>      -0.33333333       0.46666667       0.13333333 </v>
   <v>      -0.40000000       0.40000000       0.20000000 </v>
   <v>      -0.33333333       0.40000000       0.20000000 </v>
   <v>      -0.33333333       0.46666667       0.20000000 </v>
   <v>      -0.26666667       0.46666667       0.20000000 </v>
  </varray>
  <varray name="weights" >
   <v>       0.00029630 </v>
   <v>       0.00237037 </v>
   <v>       0.00237037 </v>
   <v>       0.00237037 </v>
   <v>       0.00237037 </v>
   <v>       0.00237037 </v>
   <v>       0.00237037 </v>
   <v>       0.00237037 </v>
   <v>       0.00177778 </v>
   <v>       0.00711111 </v>
   <v>       0.00711111 </v>
   <v>       0.00711111 </v>
   <v>       0.00711111 </v>
   <v>       0.00711111 </v>
   <v>       0.00711111 </v>
   <v>       0.00711111 </v>
   <v>       0.00711111 </v>
   <v>       0.00711111 </v>
   <v>       0.00711111 </v>
   <v>       0.00711111 </v>
   <v>       0.00711111 </v>
   <v>       0.00355556 </v>
   <v>       0.00177778 </v>
   <v>       0.00711111 </v>
   <v>       0.00711111 </v>
   <v>       0.00711111 </v>
   <v>       0.00711111 </v>
   <v>       0.00711111 </v>
   <v>       0.00711111 </v>
   <v>       0.00711111 </v>
   <v>       0.00711111 </v>
   <v>       0.00711111 </v>
   <v>       0.00711111 </v>
   <v>       0.00355556 </v>
   <v>       0.00177778 </v>
   <v>       0.00711111 </v>
   <v>       0.00711111 </v>
   <v>       0.00711111 </v>
   <v>       0.00711111 </v>
   <v>       0.00711111 </v>
   <v>       0.00711111 </v>
   <v>       0.00711111 </v>
   <v>       0.00711111 </v>
   <v>       0.00355556 </v>
   <v>       0.00177778 </v>
   <v>       0.00711111 </v>
   <v>       0.00711111 </v>
   <v>       0.00711111 </v>
   <v>       0.00711111 </v>
   <v>       0.00711111 </v>
   <v>       0.00711111 </v>
   <v>       0.00355556 </v>
   <v>       0.00177778 </v>
   <v>       0.00711111 </v>
   <v>       0.00711111 </v>
   <v>       0.00711111 </v>
   <v>       0.00711111 </v>
   <v>       0.00355556 </v>
   <v>       0.00177778 </v>
   <v>       0.00711111 </v>
   <v>       0.00711111 </v>
   <v>       0.00355556 </v>
   <v>       0.00177778 </v>
   <v>       0.00355556 </v>
   <v>       0.00711111 </v>
   <v>       0.01422222 </v>
   <v>       0.01422222 </v>
   <v>       0.01422222 </v>
   <v>       0.01422222 </v>
   <v>       0.01422222 </v>
   <v>       0.00711111 </v>
   <v>       0.01422222 </v>
   <v>       0.01422222 </v>
   <v>       0.01422222 </v>
   <v>       0.01422222 </v>
   <v>       0.01422222 </v>
   <v>       0.01422222 </v>
   <v>       0.01422222 </v>
   <v>       0.01422222 </v>
   <v>       0.00711111 </v>
   <v>       0.00711111 </v>
   <v>       0.01422222 </v>
   <v>       0.01422222 </v>
   <v>       0.01422222 </v>
   <v>       0.01422222 </v>
   <v>       0.01422222 </v>
   <v>       0.01422222 </v>
   <v>       0.00711111 </v>
   <v>       0.00711111 </v>
   <v>       0.01422222 </v>
   <v>       0.01422222 </v>
   <v>       0.01422222 </v>
   <v>       0.01422222 </v>
   <v>       0.00711111 </v>
   <v>       0.00711111 </v>
   <v>       0.01422222 </v>
   <v>       0.01422222 </v>
   <v>       0.00711111 </v>
   <v>       0.00711111 </v>
   <v>       0.00711111 </v>
   <v>       0.00711111 </v>
   <v>       0.01422222 </v>
   <v>       0.01422222 </v>
   <v>       0.01422222 </v>
   <v>       0.00711111 </v>
   <v>       0.01422222 </v>
   <v>       0.01422222 </v>
   <v>       0.01422222 </v>
   <v>       0.01422222 </v>
   <v>       0.00711111 </v>
   <v>       0.00711111 </v>
   <v>       0.01422222 </v>
   <v>       0.01422222 </v>
   <v>       0.00711111 </v>
   <v>       0.00711111 </v>
   <v>       0.00711111 </v>
   <v>       0.00711111 </v>
   <v>       0.01422222 </v>
   <v>       0.00711111 </v>
   <v>       0.00711111 </v>
  </varray>
 </kpoints>
 <parameters>
  <separator name="general" >
   <i type="string" name="SYSTEM">unknown system</i>
   <i type="logical" name="LCOMPAT"> F  </i>
  </separator>
  <separator name="electronic" >
   <i type="string" name="PREC">accura</i>
   <i name="ENMAX">    250.00000000</i>
   <i name="ENAUG">    322.06900000</i>
   <i name="EDIFF">      0.00000100</i>
   <i type="int" name="IALGO">    38</i>
   <i type="int" name="IWAVPR">    11</i>
   <i type="int" name="NBANDS">     8</i>
   <i type="int" name="NBANDSLOW">    -1</i>
   <i type="int" name="NBANDSHIGH">    -1</i>
   <i name="NELECT">      8.00000000</i>
   <i type="int" name="TURBO">     0</i>
   <i type="int" name="IRESTART">     0</i>
   <i type="int" name="NREBOOT">     0</i>
   <i type="int" name="NMIN">     0</i>
   <i name="EREF">      0.00000000</i>
   <separator name="electronic smearing" >
    <i type="int" name="ISMEAR">     0</i>
    <i name="SIGMA">      0.05000000</i>
    <i name="KSPACING">      0.50000000</i>
    <i type="logical" name="KGAMMA"> T  </i>
    <i type="logical" name="KBLOWUP"> T  </i>
   </separator>
   <separator name="electronic projectors" >
    <i type="logical" name="LREAL"> F  </i>
    <v name="ROPT">      0.00000000</v>
    <i type="int" name="LMAXPAW">  -100</i>
    <i type="int" name="LMAXMIX">     2</i>
    <i type="logical" name="NLSPLINE"> F  </i>
   </separator>
   <separator name="electronic startup" >
    <i type="int" name="ISTART">     0</i>
    <i type="int" name="ICHARG">     2</i>
    <i type="int" name="INIWAV">     1</i>
   </separator>
   <separator name="electronic spin" >
    <i type="int" name="ISPIN">     1</i>
    <i type="logical" name="LNONCOLLINEAR"> F  </i>
    <v name="MAGMOM">      1.00000000      1.00000000</v>
    <i name="NUPDOWN">     -1.00000000</i>
    <i type="logical" name="LSORBIT"> F  </i>
    <v name="SAXIS">      0.00000000      0.00000000      1.00000000</v>
    <i type="logical" name="LSPIRAL"> F  </i>
    <v name="QSPIRAL">      0.00000000      0.00000000      0.00000000</v>
    <i type="logical" name="LZEROZ"> F  </i>
   </separator>
   <separator name="electronic exchange-correlation" >
    <i type="logical" name="LASPH"> T  </i>
    <i type="logical" name="LMETAGGA"> F  </i>
   </separator>
   <separator name="electronic convergence" >
    <i type="int" name="NELM">    90</i>
    <i type="int" name="NELMDL">    -5</i>
    <i type="int" name="NELMIN">     6</i>
    <i name="ENINI">    250.00000000</i>
    <separator name="electronic convergence detail" >
     <i type="logical" name="LDIAG"> T  </i>
     <i type="logical" name="LSUBROT"> F  </i>
     <i name="WEIMIN">      0.00100000</i>
     <i name="EBREAK">      0.00000003</i>
     <i name="DEPER">      0.30000000</i>
     <i type="int" name="NRMM">     4</i>
     <i name="TIME">      0.40000000</i>
    </separator>
   </separator>
   <separator name="electronic mixer" >
    <i name="AMIX">      0.40000000</i>
    <i name="BMIX">      1.00000000</i>
    <i name="AMIN">      0.10000000</i>
    <i name="AMIX_MAG">      1.60000000</i>
    <i name="BMIX_MAG">      1.00000000</i>
    <separator name="electronic mixer details" >
     <i type="int" name="IMIX">     4</i>
     <i type="logical" name="MIXFIRST"> F  </i>
     <i type="int" name="MAXMIX">   -45</i>
     <i name="WC">    100.00000000</i>
     <i type="int" name="INIMIX">     1</i>
     <i type="int" name="MIXPRE">     1</i>
     <i type="int" name="MREMOVE">     5</i>
    </separator>
   </separator>
   <separator name="electronic dipolcorrection" >
    <i type="logical" name="LDIPOL"> F  </i>
    <i type="logical" name="LMONO"> F  </i>
    <i type="int" name="IDIPOL">     0</i>
    <i name="EPSILON">      1.00000000</i>
    <v name="DIPOL">   -100.00000000   -100.00000000   -100.00000000</v>
    <i name="EFIELD">      0.00000000</i>
   </separator>
  </separator>
  <separator name="grids" >
   <i type="int" name="NGX">    20</i>
   <i type="int" name="NGY">    20</i>
   <i type="int" name="NGZ">    20</i>
   <i type="int" name="NGXF">    40</i>
   <i type="int" name="NGYF">    40</i>
   <i type="int" name="NGZF">    40</i>
   <i type="logical" name="ADDGRID"> T  </i>
  </separator>
  <separator name="ionic" >
   <i type="int" name="NSW">   100</i>
   <i type="int" name="IBRION">     2</i>
   <i type="int" name="MDALGO">     0</i>
   <i type="int" name="ISIF">     3</i>
   <i name="PSTRESS">      0.00000000</i>
   <i name="EDIFFG">     -0.00200000</i>
   <i type="int" name="NFREE">     1</i>
   <i name="POTIM">      0.50000000</i>
   <i name="SMASS">     -3.00000000</i>
   <i name="SCALEE">      1.00000000</i>
  </separator>
  <separator name="ionic md" >
   <i name="TEBEG">      0.00010000</i>
   <i name="TEEND">      0.00010000</i>
   <i type="int" name="NBLOCK">     1</i>
   <i type="int" name="KBLOCK">   100</i>
   <i type="int" name="NPACO">   256</i>
   <i name="APACO">     16.00000000</i>
  </separator>
  <separator name="symmetry" >
   <i type="int" name="ISYM">     2</i>
   <i name="SYMPREC">      0.00001000</i>
  </separator>
  <separator name="dos" >
   <i type="int" name="LORBIT">     0</i>
   <v name="RWIGS">     -1.00000000</v>
   <i type="int" name="NEDOS">   301</i>
   <i name="EMIN">     10.00000000</i>
   <i name="EMAX">    -10.00000000</i>
   <i name="EFERMI">      0.00000000</i>
  </separator>
  <separator name="writing" >
   <i type="int" name="NWRITE">     2</i>
   <i type="logical" name="LWAVE"> F  </i>
   <i type="logical" name="LDOWNSAMPLE"> F  </i>
   <i type="logical" name="LCHARG"> F  </i>
   <i type="logical" name="LPARD"> F  </i>
   <i type="logical" name="LVTOT"> F  </i>
   <i type="logical" name="LVHAR"> F  </i>
   <i type="logical" name="LELF"> F  </i>
   <i type="logical" name="LOPTICS"> F  </i>
   <v name="STM">      0.00000000      0.00000000      0.00000000      0.00000000      0.00000000      0.00000000      0.00000000</v>
  </separator>
  <separator name="performance" >
   <i type="int" name="NPAR">     4</i>
   <i type="int" name="NSIM">     4</i>
   <i type="int" name="NBLK">    -1</i>
   <i type="logical" name="LPLANE"> T  </i>
   <i type="logical" name="LSCALAPACK"> T  </i>
   <i type="logical" name="LSCAAWARE"> F  </i>
   <i type="logical" name="LSCALU"> F  </i>
   <i type="logical" name="LASYNC"> F  </i>
   <i type="logical" name="LORBITALREAL"> F  </i>
  </separator>
  <separator name="miscellaneous" >
   <i type="int" name="IDIOT">     3</i>
   <i type="int" name="PHON_NSTRUCT">    -1</i>
   <i type="logical" name="LMUSIC"> F  </i>
   <v name="POMASS">     28.08500000</v>
   <v name="DARWINR">      0.00000000</v>
   <v name="DARWINV">      1.00000000</v>
   <i type="logical" name="LCORR"> T  </i>
  </separator>
  <i type="logical" name="GGA_COMPAT"> T  </i>
  <i type="logical" name="LBERRY"> F  </i>
  <i type="int" name="ICORELEVEL">     0</i>
  <i type="logical" name="LDAU"> F  </i>
  <i type="int" name="I_CONSTRAINED_M">     0</i>
  <separator name="electronic exchange-correlation" >
   <i type="string" name="GGA">--</i>
   <i type="int" name="VOSKOWN">     0</i>
   <i type="logical" name="LHFCALC"> F  </i>
   <i type="string" name="PRECFOCK"></i>
   <i type="logical" name="LSYMGRAD"> F  </i>
   <i type="logical" name="LHFONE"> F  </i>
   <i type="logical" name="LRHFCALC"> F  </i>
   <i type="logical" name="LTHOMAS"> F  </i>
   <i type="logical" name="LMODELHF"> F  </i>
   <i type="logical" name="LFOCKACE"> F  </i>
   <i name="ENCUT4O">     -1.00000000</i>
   <i type="int" name="EXXOEP">     0</i>
   <i type="int" name="FOURORBIT">     0</i>
   <i name="AEXX">      0.00000000</i>
   <i name="HFALPHA">      0.00000000</i>
   <i name="MCALPHA">      0.00000000</i>
   <i name="ALDAX">      1.00000000</i>
   <i name="AGGAX">      1.00000000</i>
   <i name="ALDAC">      1.00000000</i>
   <i name="AGGAC">      1.00000000</i>
   <i type="int" name="NKREDX">     1</i>
   <i type="int" name="NKREDY">     1</i>
   <i type="int" name="NKREDZ">     1</i>
   <i type="logical" name="SHIFTRED"> F  </i>
   <i type="logical" name="ODDONLY"> F  </i>
   <i type="logical" name="EVENONLY"> F  </i>
   <i type="int" name="LMAXFOCK">     0</i>
   <i type="int" name="NMAXFOCKAE">     0</i>
   <i type="logical" name="LFOCKAEDFT"> F  </i>
   <i name="HFSCREEN">      0.00000000</i>
   <i name="HFSCREENC">      0.00000000</i>
   <i type="int" name="NBANDSGWLOW">     0</i>
  </separator>
  <separator name="vdW DFT" >
   <i type="logical" name="LUSE_VDW"> F  </i>
   <i name="Zab_VDW">     -0.84910000</i>
   <i name="PARAM1">      0.12340000</i>
   <i name="PARAM2">      1.00000000</i>
   <i name="PARAM3">      0.00000000</i>
  </separator>
  <separator name="model GW" >
   <i type="int" name="MODEL_GW">     0</i>
   <i name="MODEL_EPS0">     12.09885805</i>
   <i name="MODEL_ALPHA">      1.00000000</i>
  </separator>
  <separator name="linear response parameters" >
   <i type="logical" name="LEPSILON"> F  </i>
   <i type="logical" name="LRPA"> F  </i>
   <i type="logical" name="LNABLA"> F  </i>
   <i type="logical" name="LVEL"> F  </i>
   <i type="int" name="KINTER">     0</i>
   <i name="CSHIFT">      0.10000000</i>
   <i name="OMEGAMAX">     -1.00000000</i>
   <i name="DEG_THRESHOLD">      0.00200000</i>
   <i name="RTIME">     -0.10000000</i>
   <i name="WPLASMAI">      0.00000000</i>
   <v name="DFIELD">      0.00000000      0.00000000      0.00000000</v>
   <v name="WPLASMA">      0.00000000      0.00000000      0.00000000      0.00000000      0.00000000      0.00000000      0.00000000      0.00000000      0.00000000</v>
  </separator>
  <separator name="orbital magnetization" >
   <i type="logical" name="NUCIND"> F  </i>
   <v name="MAGPOS">      0.00000000      0.00000000      0.00000000</v>
   <i type="logical" name="LNICSALL"> T  </i>
   <i type="logical" name="ORBITALMAG"> F  </i>
   <i type="logical" name="LMAGBLOCH"> F  </i>
   <i type="logical" name="LCHIMAG"> F  </i>
   <i type="logical" name="LGAUGE"> T  </i>
   <i type="int" name="MAGATOM">     0</i>
   <v name="MAGDIPOL">      0.00000000      0.00000000      0.00000000</v>
   <v name="AVECCONST">      0.00000000      0.00000000      0.00000000</v>
  </separator>
  <separator name="response functions" >
   <i type="logical" name="LFINITE_TEMPERATURE"> F  </i>
   <i type="logical" name="LADDER"> F  </i>
   <i type="logical" name="LRPAFORCE"> F  </i>
   <i type="logical" name="LFXC"> F  </i>
   <i type="logical" name="LHARTREE"> T  </i>
   <i type="int" name="IBSE">     0</i>
   <v type="int" name="KPOINT">    -1     0     0     0</v>
   <i type="logical" name="LTCTC"> F  </i>
   <i type="logical" name="LTCTE"> F  </i>
   <i type="logical" name="LTETE"> F  </i>
   <i type="logical" name="LTRIPLET"> F  </i>
   <i type="logical" name="LFXCEPS"> F  </i>
   <i type="logical" name="LFXHEG"> F  </i>
   <i type="int" name="NATURALO">     2</i>
   <i type="logical" name="LHOLEGF"> F  </i>
   <i type="logical" name="L2ORDER"> F  </i>
   <i type="logical" name="LDMP1"> F  </i>
   <i type="logical" name="LMP2LT"> F  </i>
   <i type="logical" name="LSMP2LT"> F  </i>
   <i type="logical" name="LGWLF"> F  </i>
   <i name="ENCUTGW">     -2.00000000</i>
   <i name="ENCUTGWSOFT">     -2.00000000</i>
   <i name="ENCUTLF">     -1.00000000</i>
   <i type="logical" name="LESF_SPLINES"> F  </i>
   <i type="int" name="LMAXMP2">    -1</i>
   <i name="SCISSOR">      0.00000000</i>
   <i type="int" name="NOMEGA">     0</i>
   <i type="int" name="NOMEGAR">     0</i>
   <i type="int" name="NBANDSGW">    -1</i>
   <i type="int" name="NBANDSO">    -1</i>
   <i type="int" name="NBANDSV">    -1</i>
   <i type="int" name="NELM">    90</i>
   <i type="int" name="NELMHF">     1</i>
   <i type="int" name="DIM">     3</i>
   <i type="int" name="IESPILON">     4</i>
   <i type="int" name="ANTIRES">     0</i>
   <i name="OMEGAMAX">    -30.00000000</i>
   <i name="OMEGAMIN">    -30.00000000</i>
   <i name="OMEGATL">   -200.00000000</i>
   <i type="int" name="OMEGAGRID">     0</i>
   <i name="CSHIFT">     -0.10000000</i>
   <i type="logical" name="LSELFENERGY"> F  </i>
   <i type="logical" name="LSPECTRAL"> F  </i>
   <i type="logical" name="LSPECTRALGW"> F  </i>
   <i type="logical" name="LSINGLES"> F  </i>
   <i type="logical" name="LFERMIGW"> F  </i>
   <i type="logical" name="ODDONLYGW"> F  </i>
   <i type="logical" name="EVENONLYGW"> F  </i>
   <i type="int" name="NKREDLFX">     1</i>
   <i type="int" name="NKREDLFY">     1</i>
   <i type="int" name="NKREDLFZ">     1</i>
   <i type="int" name="MAXMEM">  2800</i>
   <i type="int" name="TELESCOPE">     0</i>
   <i type="int" name="NTAUPAR">    -1</i>
   <i type="int" name="NOMEGAPAR">    -1</i>
   <i name="DAMP_NEWTON">      0.80000001</i>
   <i name="LAMBDA">      1.00000000</i>
  </separator>
  <separator name="External order field" >
   <i name="OFIELD_KAPPA">      0.00000000</i>
   <v name="OFIELD_K">      0.00000000      0.00000000      0.00000000</v>
   <i name="OFIELD_Q6_NEAR">      0.00000000</i>
   <i name="OFIELD_Q6_FAR">      0.00000000</i>
   <i name="OFIELD_A">      0.00000000</i>
  </separator>
 </parameters>
 <atominfo>
  <atoms>       2 </atoms>
  <types>       1 </types>
  <array name="atoms" >
   <dimension dim="1">ion</dimension>
   <field type="string">element</field>
   <field type="int">atomtype</field>
   <set>
    <rc><c>Si</c><c>   1</c></rc>
    <rc><c>Si</c><c>   1</c></rc>
   </set>
  </array>
  <array name="atomtypes" >
   <dimension dim="1">type</dimension>
   <field type="int">atomspertype</field>
   <field type="string">element</field>
   <field>mass</field>
   <field>valence</field>
   <field type="string">pseudopotential</field>
   <set>
    <rc><c>   2</c><c>Si</c><c>     28.08500000</c><c>      4.00000000</c><c>  PAW_PBE Si 05Jan2001                  </c></rc>
   </set>
  </array>
 </atominfo>
 <structure name="initialpos" >
  <crystal>
   <varray name="basis" >
    <v>       3.33357300       0.00000000       1.92463900 </v>
    <v>       1.11119100       3.14292400       1.92463900 </v>
    <v>       0.00000000       0.00000000       3.84927800 </v>
   </varray>
   <i name="volume">     40.32952685 </i>
   <varray name="rec_basis" >
    <v>       0.29997843      -0.10605835       0.00000000 </v>
    <v>       0.00000000       0.31817505       0.00000000 </v>
    <v>      -0.14998922      -0.10605835       0.25978898 </v>
   </varray>
  </crystal>
  <varray name="positions" >
   <v>       0.87500000       0.87500000       0.87500000 </v>
   <v>       0.12500000       0.12500000       0.12500000 </v>
  </varray>
 </structure>
 <calculation>
  <scstep>
   <time name="dav">    0.77    0.77</time>
   <time name="total">    0.96    0.96</time>
   <energy>
    <i name="alphaZ">      3.33880741 </i>
    <i name="ewald">   -227.98820643 </i>
    <i name="hartreedc">    -11.11484531 </i>
    <i name="XCdc">    -18.63153109 </i>
    <i name="pawpsdc">    176.24759923 </i>
    <i name="pawaedc">   -141.06103558 </i>
    <i name="eentropy">     -0.00049162 </i>
    <i name="bandstr">     11.40488921 </i>
    <i name="atom">    206.12349923 </i>
    <i name="e_fr_energy">     -1.68131495 </i>
    <i name="e_wo_entrp">     -1.68082333 </i>
    <i name="e_0_energy">     -1.68106914 </i>
   </energy>
  </scstep>
  <scstep>
   <time name="dav">    1.10    1.12</time>
   <time name="total">    1.10    1.12</time>
   <energy>
    <i name="e_fr_energy">    -10.90276116 </i>
    <i name="e_wo_entrp">    -10.90276116 </i>
    <i name="e_0_energy">    -10.90276116 </i>
   </energy>
  </scstep>
  <scstep>
   <time name="dav">    0.92    0.94</time>
   <time name="total">    0.93    0.94</time>
   <energy>
    <i name="e_fr_energy">    -11.00172302 </i>
    <i name="e_wo_entrp">    -11.00172302 </i>
    <i name="e_0_energy">    -11.00172302 </i>
   </energy>
  </scstep>
  <scstep>
   <time name="dav">    1.18    1.19</time>
   <time name="total">    1.18    1.19</time>
   <energy>
    <i name="e_fr_energy">    -11.00206680 </i>
    <i name="e_wo_entrp">    -11.00206680 </i>
    <i name="e_0_energy">    -11.00206680 </i>
   </energy>
  </scstep>
  <scstep>
   <time name="dav">    0.92    0.94</time>
   <time name="total">    0.98    1.00</time>
   <energy>
    <i name="e_fr_energy">    -11.00206704 </i>
    <i name="e_wo_entrp">    -11.00206704 </i>
    <i name="e_0_energy">    -11.00206704 </i>
   </energy>
  </scstep>
  <scstep>
   <time name="dav">    0.91    0.91</time>
   <time name="total">    1.15    1.16</time>
   <energy>
    <i name="e_fr_energy">    -10.88111546 </i>
    <i name="e_wo_entrp">    -10.88111546 </i>
    <i name="e_0_energy">    -10.88111546 </i>
   </energy>
  </scstep>
  <scstep>
   <time name="dav">    0.95    0.95</time>
   <time name="total">    1.19    1.21</time>
   <energy>
    <i name="e_fr_energy">    -10.82605953 </i>
    <i name="e_wo_entrp">    -10.82605953 </i>
    <i name="e_0_energy">    -10.82605953 </i>
   </energy>
  </scstep>
  <scstep>
   <time name="dav">    0.83    0.83</time>
   <time name="total">    1.07    1.09</time>
   <energy>
    <i name="e_fr_energy">    -10.82705287 </i>
    <i name="e_wo_entrp">    -10.82705287 </i>
    <i name="e_0_energy">    -10.82705287 </i>
   </energy>
  </scstep>
  <scstep>
   <time name="dav">    1.07    1.07</time>
   <time name="total">    1.31    1.33</time>
   <energy>
    <i name="e_fr_energy">    -10.82725027 </i>
    <i name="e_wo_entrp">    -10.82725027 </i>
    <i name="e_0_energy">    -10.82725027 </i>
   </energy>
  </scstep>
  <scstep>
   <time name="dav">    0.87    0.87</time>
   <time name="total">    1.12    1.13</time>
   <energy>
    <i name="e_fr_energy">    -10.82727465 </i>
    <i name="e_wo_entrp">    -10.82727465 </i>
    <i name="e_0_energy">    -10.82727465 </i>
   </energy>
  </scstep>
  <scstep>
   <time name="dav">    1.01    1.02</time>
   <time name="total">    1.20    1.22</time>
   <energy>
    <i name="alphaZ">      3.33880741 </i>
    <i name="ewald">   -227.98820643 </i>
    <i name="hartreedc">    -14.99603932 </i>
    <i name="XCdc">    -17.98937435 </i>
    <i name="pawpsdc">    996.44880480 </i>
    <i name="pawaedc">   -961.48600997 </i>
    <i name="eentropy">     -0.00000000 </i>
    <i name="bandstr">      5.72124428 </i>
    <i name="atom">    206.12349923 </i>
    <i name="e_fr_energy">    -10.82727436 </i>
    <i name="e_wo_entrp">    -10.82727436 </i>
    <i name="e_0_energy">    -10.82727436 </i>
   </energy>
  </scstep>
  <structure>
   <crystal>
    <varray name="basis" >
     <v>       3.33357300       0.00000000       1.92463900 </v>
     <v>       1.11119100       3.14292400       1.92463900 </v>
     <v>       0.00000000       0.00000000       3.84927800 </v>
    </varray>
    <i name="volume">     40.32952685 </i>
    <varray name="rec_basis" >
     <v>       0.29997843      -0.10605835       0.00000000 </v>
     <v>       0.00000000       0.31817505       0.00000000 </v>
     <v>      -0.14998922      -0.10605835       0.25978898 </v>
    </varray>
   </crystal>
   <varray name="positions" >
    <v>       0.87500000       0.87500000       0.87500000 </v>
    <v>       0.12500000       0.12500000       0.12500000 </v>
   </varray>
  </structure>
  <varray name="forces" >
   <v>      -0.00000000       0.00000000       0.00000000 </v>
   <v>       0.00000000      -0.00000000      -0.00000000 </v>
  </varray>
  <varray name="stress" >
   <v>      10.81543020      -0.00000000       0.00000000 </v>
   <v>       0.00000000      10.81543870       0.00000000 </v>
   <v>       0.00000000       0.00000000      10.81542717 </v>
  </varray>
  <energy>
   <i name="e_fr_energy">    -10.82727436 </i>
   <i name="e_wo_entrp">    -10.82727436 </i>
   <i name="e_0_energy">    -10.82727436 </i>
  </energy>
  <time name="totalsc">   13.42   13.75</time>
 </calculation>
 <calculation>
  <scstep>
   <time name="dav">    0.93    0.94</time>
   <time name="total">    1.18    1.19</time>
   <energy>
    <i name="alphaZ">      3.27388552 </i>
    <i name="ewald">   -226.50080783 </i>
    <i name="hartreedc">    -14.89979105 </i>
    <i name="XCdc">    -18.08519811 </i>
    <i name="pawpsdc">    996.40307024 </i>
    <i name="pawaedc">   -961.44030375 </i>
    <i name="eentropy">     -0.00000000 </i>
    <i name="bandstr">      4.29536863 </i>
    <i name="atom">    206.12349923 </i>
    <i name="e_fr_energy">    -10.83027713 </i>
    <i name="e_wo_entrp">    -10.83027713 </i>
    <i name="e_0_energy">    -10.83027713 </i>
   </energy>
  </scstep>
  <scstep>
   <time name="dav">    0.97    0.97</time>
   <time name="total">    1.21    1.23</time>
   <energy>
    <i name="e_fr_energy">    -10.82886090 </i>
    <i name="e_wo_entrp">    -10.82886090 </i>
    <i name="e_0_energy">    -10.82886090 </i>
   </energy>
  </scstep>
  <scstep>
   <time name="dav">    0.88    0.88</time>
   <time name="total">    1.12    1.14</time>
   <energy>
    <i name="e_fr_energy">    -10.82813638 </i>
    <i name="e_wo_entrp">    -10.82813638 </i>
    <i name="e_0_energy">    -10.82813638 </i>
   </energy>
  </scstep>
  <scstep>
   <time name="dav">    1.05    1.05</time>
   <time name="total">    1.30    1.31</time>
   <energy>
    <i name="e_fr_energy">    -10.82813633 </i>
    <i name="e_wo_entrp">    -10.82813633 </i>
    <i name="e_0_energy">    -10.82813633 </i>
   </energy>
  </scstep>
  <scstep>
   <time name="dav">    0.85    0.85</time>
   <time name="total">    1.10    1.11</time>
   <energy>
    <i name="e_fr_energy">    -10.82813047 </i>
    <i name="e_wo_entrp">    -10.82813047 </i>
    <i name="e_0_energy">    -10.82813047 </i>
   </energy>
  </scstep>
  <scstep>
   <time name="dav">    0.57    0.57</time>
   <time name="total">    0.76    0.77</time>
   <energy>
    <i name="alphaZ">      3.27388552 </i>
    <i name="ewald">   -226.50080783 </i>
    <i name="hartreedc">    -15.23141452 </i>
    <i name="XCdc">    -18.07867292 </i>
    <i name="pawpsdc">    965.14876856 </i>
    <i name="pawaedc">   -930.16919487 </i>
    <i name="eentropy">     -0.00000000 </i>
    <i name="bandstr">      4.60580627 </i>
    <i name="atom">    206.12349923 </i>
    <i name="e_fr_energy">    -10.82813057 </i>
    <i name="e_wo_entrp">    -10.82813057 </i>
    <i name="e_0_energy">    -10.82813057 </i>
   </energy>
  </scstep>
  <structure>
   <crystal>
    <varray name="basis" >
     <v>       3.35546410       0.00000000       1.93727783 </v>
     <v>       1.11848803       3.16356315       1.93727783 </v>
     <v>       0.00000000       0.00000000       3.87455565 </v>
    </varray>
    <i name="volume">     41.12927054 </i>
    <varray name="rec_basis" >
     <v>       0.29802137      -0.10536642       0.00000000 </v>
     <v>       0.00000000       0.31609927      -0.00000000 </v>
     <v>      -0.14901068      -0.10536642       0.25809411 </v>
    </varray>
   </crystal>
   <varray name="positions" >
    <v>       0.87500000       0.87500000       0.87500000 </v>
    <v>       0.12500000       0.12500000       0.12500000 </v>
   </varray>
  </structure>
  <varray name="forces" >
   <v>      -0.00000000       0.00000000       0.00000000 </v>
   <v>       0.00000000      -0.00000000      -0.00000000 </v>
  </varray>
  <varray name="stress" >
   <v>      -6.92328831      -0.00000000       0.00000000 </v>
   <v>      -0.00000000      -6.92329382       0.00000000 </v>
   <v>       0.00000000      -0.00000000      -6.92328635 </v>
  </varray>
  <energy>
   <i name="e_fr_energy">    -10.82813057 </i>
   <i name="e_wo_entrp">    -10.82813057 </i>
   <i name="e_0_energy">    -10.82813057 </i>
  </energy>
  <time name="totalsc">    7.91    8.14</time>
 </calculation>
 <calculation>
  <scstep>
   <time name="dav">    0.92    0.92</time>
   <time name="total">    1.17    1.17</time>
   <energy>
    <i name="alphaZ">      3.30011649 </i>
    <i name="ewald">   -227.10412143 </i>
    <i name="hartreedc">    -15.27257945 </i>
    <i name="XCdc">    -18.04000015 </i>
    <i name="pawpsdc">    962.64755393 </i>
    <i name="pawaedc">   -927.66804686 </i>
    <i name="eentropy">     -0.00000000 </i>
    <i name="bandstr">      5.18438823 </i>
    <i name="atom">    206.12349923 </i>
    <i name="e_fr_energy">    -10.82919002 </i>
    <i name="e_wo_entrp">    -10.82919002 </i>
    <i name="e_0_energy">    -10.82919002 </i>
   </energy>
  </scstep>
  <scstep>
   <time name="dav">    0.97    0.97</time>
   <time name="total">    1.22    1.24</time>
   <energy>
    <i name="e_fr_energy">    -10.82896215 </i>
    <i name="e_wo_entrp">    -10.82896215 </i>
    <i name="e_0_energy">    -10.82896215 </i>
   </energy>
  </scstep>
  <scstep>
   <time name="dav">    0.87    0.88</time>
   <time name="total">    1.12    1.14</time>
   <energy>
    <i name="e_fr_energy">    -10.82884285 </i>
    <i name="e_wo_entrp">    -10.82884285 </i>
    <i name="e_0_energy">    -10.82884285 </i>
   </energy>
  </scstep>
  <scstep>
   <time name="dav">    0.98    0.99</time>
   <time name="total">    1.23    1.25</time>
   <energy>
    <i name="e_fr_energy">    -10.82884331 </i>
    <i name="e_wo_entrp">    -10.82884331 </i>
    <i name="e_0_energy">    -10.82884331 </i>
   </energy>
  </scstep>
  <scstep>
   <time name="dav">    0.74    0.74</time>
   <time name="total">    0.98    1.00</time>
   <energy>
    <i name="e_fr_energy">    -10.82884477 </i>
    <i name="e_wo_entrp">    -10.82884477 </i>
    <i name="e_0_energy">    -10.82884477 </i>
   </energy>
  </scstep>
  <scstep>
   <time name="dav">    0.51    0.51</time>
   <time name="total">    0.70    0.71</time>
   <energy>
    <i name="alphaZ">      3.30011649 </i>
    <i name="ewald">   -227.10412143 </i>
    <i name="hartreedc">    -15.13662969 </i>
    <i name="XCdc">    -18.04248482 </i>
    <i name="pawpsdc">    975.91297698 </i>
    <i name="pawaedc">   -940.94021969 </i>
    <i name="eentropy">     -0.00000000 </i>
    <i name="bandstr">      5.05801818 </i>
    <i name="atom">    206.12349923 </i>
    <i name="e_fr_energy">    -10.82884476 </i>
    <i name="e_wo_entrp">    -10.82884476 </i>
    <i name="e_0_energy">    -10.82884476 </i>
   </energy>
  </scstep>
  <structure>
   <crystal>
    <varray name="basis" >
     <v>       3.34655014       0.00000000       1.93213135 </v>
     <v>       1.11551671       3.15515898       1.93213135 </v>
     <v>       0.00000000       0.00000000       3.86426270 </v>
    </varray>
    <i name="volume">     40.80235458 </i>
    <varray name="rec_basis" >
     <v>       0.29881519      -0.10564708       0.00000000 </v>
     <v>       0.00000000       0.31694124      -0.00000000 </v>
     <v>      -0.14940759      -0.10564708       0.25878158 </v>
    </varray>
   </crystal>
   <varray name="positions" >
    <v>       0.87500000       0.87500000       0.87500000 </v>
    <v>       0.12500000       0.12500000       0.12500000 </v>
   </varray>
  </structure>
  <varray name="forces" >
   <v>       0.00000000       0.00000000      -0.00000000 </v>
   <v>      -0.00000000      -0.00000000       0.00000000 </v>
  </varray>
  <varray name="stress" >
   <v>       0.07049220      -0.00000000      -0.00000000 </v>
   <v>      -0.00000000       0.07049226       0.00000000 </v>
   <v>      -0.00000000      -0.00000000       0.07049218 </v>
  </varray>
  <energy>
   <i name="e_fr_energy">    -10.82884476 </i>
   <i name="e_wo_entrp">    -10.82884476 </i>
   <i name="e_0_energy">    -10.82884476 </i>
  </energy>
  <time name="totalsc">    7.55    7.79</time>
  <eigenvalues>
   <array>
    <dimension dim="1">band</dimension>
    <dimension dim="2">kpoint</dimension>
    <dimension dim="3">spin</dimension>
    <field>eigene</field>
    <field>occ</field>
    <set>
     <set comment="spin 1">
      <set comment="kpoint 1">
       <r>   -6.1922    1.0000 </r>
       <r>    5.6486    1.0000 </r>
       <r>    5.6486    1.0000 </r>
       <r>    5.6486    1.0000 </r>
       <r>    8.2087    0.0000 </r>
       <r>    8.2087    0.0000 </r>
       <r>    8.2087    0.0000 </r>
       <r>    8.7948    0.0000 </r>
      </set>
      <set comment="kpoint 2">
       <r>   -6.1348    1.0000 </r>
       <r>    5.0544    1.0000 </r>
       <r>    5.5550    1.0000 </r>
       <r>    5.5550    1.0000 </r>
       <r>    8.2461    0.0000 </r>
       <r>    8.3464    0.0000 </r>
       <r>    8.3464    0.0000 </r>
       <r>    9.2554    0.0000 </r>
      </set>
      <set comment="kpoint 3">
       <r>   -5.9639    1.0000 </r>
       <r>    3.8988    1.0000 </r>
       <r>    5.3318    1.0000 </r>
       <r>    5.3319    1.0000 </r>
       <r>    8.0682    0.0000 </r>
       <r>    8.6709    0.0000 </r>
       <r>    8.6709    0.0000 </r>
       <r>   10.3413    0.0000 </r>
      </set>
      <set comment="kpoint 4">
       <r>   -5.6833    1.0000 </r>
       <r>    2.6570    1.0000 </r>
       <r>    5.0764    1.0000 </r>
       <r>    5.0764    1.0000 </r>
       <r>    7.8072    0.0000 </r>
       <r>    9.0000    0.0000 </r>
       <r>    9.0000    0.0000 </r>
       <r>   11.5402    0.0000 </r>
      </set>
      <set comment="kpoint 5">
       <r>   -5.3018    1.0000 </r>
       <r>    1.4585    1.0000 </r>
       <r>    4.8435    1.0000 </r>
       <r>    4.8435    1.0000 </r>
       <r>    7.5553    0.0000 </r>
       <r>    9.1704    0.0000 </r>
       <r>    9.1704    0.0000 </r>
       <r>   12.6860    0.0000 </r>
      </set>
      <set comment="kpoint 6">
       <r>   -4.8395    1.0000 </r>
       <r>    0.3628    1.0000 </r>
       <r>    4.6589    1.0000 </r>
       <r>    4.6589    1.0000 </r>
       <r>    7.3504    0.0000 </r>
       <r>    9.1619    0.0000 </r>
       <r>    9.1619    0.0000 </r>
       <r>   13.4382    0.0000 </r>
      </set>
      <set comment="kpoint 7">
       <r>   -4.3472    1.0000 </r>
       <r>   -0.5582    1.0000 </r>
       <r>    4.5332    1.0000 </r>
       <r>    4.5332    1.0000 </r>
       <r>    7.2058    0.0000 </r>
       <r>    9.0812    0.0000 </r>
       <r>    9.0812    0.0000 </r>
       <r>   13.4547    0.0000 </r>
      </set>
      <set comment="kpoint 8">
       <r>   -3.9684    1.0000 </r>
       <r>   -1.1536    1.0000 </r>
       <r>    4.4692    1.0000 </r>
       <r>    4.4692    1.0000 </r>
       <r>    7.1326    0.0000 </r>
       <r>    9.0187    0.0000 </r>
       <r>    9.0187    0.0000 </r>
       <r>   13.3644    0.0000 </r>
      </set>
      <set comment="kpoint 9">
       <r>   -6.1157    1.0000 </r>
       <r>    5.1642    1.0000 </r>
       <r>    5.3607    1.0000 </r>
       <r>    5.3607    1.0000 </r>
       <r>    8.0296    0.0000 </r>
       <r>    8.5911    0.0000 </r>
       <r>    8.5911    0.0000 </r>
       <r>    9.2555    0.0000 </r>
      </set>
      <set comment="kpoint 10">
       <r>   -5.9823    1.0000 </r>
       <r>    4.2372    1.0000 </r>
       <r>    5.0859    1.0000 </r>
       <r>    5.2527    1.0000 </r>
       <r>    8.0277    0.0000 </r>
       <r>    8.6560    0.0000 </r>
       <r>    8.9874    0.0000 </r>
       <r>   10.0492    0.0000 </r>
      </set>
      <set comment="kpoint 11">
       <r>   -5.7378    1.0000 </r>
       <r>    3.0470    1.0000 </r>
       <r>    4.8137    1.0000 </r>
       <r>    5.0357    1.0000 </r>
       <r>    8.1064    0.0000 </r>
       <r>    8.6525    0.0000 </r>
       <r>    9.3732    0.0000 </r>
       <r>   10.9312    0.0000 </r>
      </set>
      <set comment="kpoint 12">
       <r>   -5.3888    1.0000 </r>
       <r>    1.8497    1.0000 </r>
       <r>    4.5878    1.0000 </r>
       <r>    4.7639    1.0000 </r>
       <r>    7.9644    0.0000 </r>
       <r>    8.8417    0.0000 </r>
       <r>    9.5873    0.0000 </r>
       <r>   11.4219    0.0000 </r>
      </set>
      <set comment="kpoint 13">
       <r>   -4.9502    1.0000 </r>
       <r>    0.7268    1.0000 </r>
       <r>    4.4276    1.0000 </r>
       <r>    4.5036    1.0000 </r>
       <r>    7.7735    0.0000 </r>
       <r>    8.9380    0.0000 </r>
       <r>    9.5778    0.0000 </r>
       <r>   11.9924    0.0000 </r>
      </set>
      <set comment="kpoint 14">
       <r>   -4.4585    1.0000 </r>
       <r>   -0.2559    1.0000 </r>
       <r>    4.2845    1.0000 </r>
       <r>    4.3406    1.0000 </r>
       <r>    7.6184    0.0000 </r>
       <r>    8.9281    0.0000 </r>
       <r>    9.4438    0.0000 </r>
       <r>   12.7918    0.0000 </r>
      </set>
      <set comment="kpoint 15">
       <r>   -4.0156    1.0000 </r>
       <r>   -0.9831    1.0000 </r>
       <r>    4.1213    1.0000 </r>
       <r>    4.3270    1.0000 </r>
       <r>    7.5231    0.0000 </r>
       <r>    8.9185    0.0000 </r>
       <r>    9.2944    0.0000 </r>
       <r>   13.4201    0.0000 </r>
      </set>
      <set comment="kpoint 16">
       <r>   -3.8641    1.0000 </r>
       <r>   -1.2056    1.0000 </r>
       <r>    4.0234    1.0000 </r>
       <r>    4.3858    1.0000 </r>
       <r>    7.4986    0.0000 </r>
       <r>    8.9677    0.0000 </r>
       <r>    9.1921    0.0000 </r>
       <r>   13.5545    0.0000 </r>
      </set>
      <set comment="kpoint 17">
       <r>   -4.1467    1.0000 </r>
       <r>   -0.7800    1.0000 </r>
       <r>    3.9960    1.0000 </r>
       <r>    4.5099    1.0000 </r>
       <r>    7.5447    0.0000 </r>
       <r>    9.0857    0.0000 </r>
       <r>    9.1498    0.0000 </r>
       <r>   13.5276    0.0000 </r>
      </set>
      <set comment="kpoint 18">
       <r>   -4.6249    1.0000 </r>
       <r>    0.0526    1.0000 </r>
       <r>    4.0450    1.0000 </r>
       <r>    4.6923    1.0000 </r>
       <r>    7.6613    0.0000 </r>
       <r>    9.1454    0.0000 </r>
       <r>    9.2447    0.0000 </r>
       <r>   13.1291    0.0000 </r>
      </set>
      <set comment="kpoint 19">
       <r>   -5.1053    1.0000 </r>
       <r>    1.0904    1.0000 </r>
       <r>    4.1720    1.0000 </r>
       <r>    4.9215    1.0000 </r>
       <r>    7.8393    0.0000 </r>
       <r>    9.1024    0.0000 </r>
       <r>    9.3572    0.0000 </r>
       <r>   12.3769    0.0000 </r>
      </set>
      <set comment="kpoint 20">
       <r>   -5.5166    1.0000 </r>
       <r>    2.2412    1.0000 </r>
       <r>    4.3785    1.0000 </r>
       <r>    5.1769    1.0000 </r>
       <r>    8.0630    0.0000 </r>
       <r>    8.9220    0.0000 </r>
       <r>    9.2756    0.0000 </r>
       <r>   11.6359    0.0000 </r>
      </set>
      <set comment="kpoint 21">
       <r>   -5.8317    1.0000 </r>
       <r>    3.4311    1.0000 </r>
       <r>    4.6662    1.0000 </r>
       <r>    5.4195    1.0000 </r>
       <r>    8.3033    0.0000 </r>
       <r>    8.6181    0.0000 </r>
       <r>    8.9273    0.0000 </r>
       <r>   10.8201    0.0000 </r>
      </set>
      <set comment="kpoint 22">
       <r>   -6.0395    1.0000 </r>
       <r>    4.4905    1.0000 </r>
       <r>    5.0709    1.0000 </r>
       <r>    5.5751    1.0000 </r>
       <r>    8.3667    0.0000 </r>
       <r>    8.4696    0.0000 </r>
       <r>    8.4774    0.0000 </r>
       <r>    9.8835    0.0000 </r>
      </set>
      <set comment="kpoint 23">
       <r>   -5.8868    1.0000 </r>
       <r>    4.1567    1.0000 </r>
       <r>    4.7796    1.0000 </r>
       <r>    4.7796    1.0000 </r>
       <r>    7.6061    0.0000 </r>
       <r>    9.4501    0.0000 </r>
       <r>    9.4501    0.0000 </r>
       <r>    9.9256    0.0000 </r>
      </set>
      <set comment="kpoint 24">
       <r>   -5.6790    1.0000 </r>
       <r>    3.2794    1.0000 </r>
       <r>    4.4907    1.0000 </r>
       <r>    4.5612    1.0000 </r>
       <r>    7.5727    0.0000 </r>
       <r>    9.4655    0.0000 </r>
       <r>    9.9178    0.0000 </r>
       <r>   10.2644    0.0000 </r>
      </set>
      <set comment="kpoint 25">
       <r>   -5.3642    1.0000 </r>
       <r>    2.1851    1.0000 </r>
       <r>    4.2578    1.0000 </r>
       <r>    4.2750    1.0000 </r>
       <r>    7.7651    0.0000 </r>
       <r>    9.3789    0.0000 </r>
       <r>   10.2269    0.0000 </r>
       <r>   10.3158    0.0000 </r>
      </set>
      <set comment="kpoint 26">
       <r>   -4.9535    1.0000 </r>
       <r>    1.0919    1.0000 </r>
       <r>    3.9468    1.0000 </r>
       <r>    4.0995    1.0000 </r>
       <r>    7.8647    0.0000 </r>
       <r>    9.3943    0.0000 </r>
       <r>   10.2781    0.0000 </r>
       <r>   10.5293    0.0000 </r>
      </set>
      <set comment="kpoint 27">
       <r>   -4.4732    1.0000 </r>
       <r>    0.0884    1.0000 </r>
       <r>    3.6426    1.0000 </r>
       <r>    4.0232    1.0000 </r>
       <r>    7.8390    0.0000 </r>
       <r>    9.3361    0.0000 </r>
       <r>   10.1416    0.0000 </r>
       <r>   11.2301    0.0000 </r>
      </set>
      <set comment="kpoint 28">
       <r>   -3.9940    1.0000 </r>
       <r>   -0.7255    1.0000 </r>
       <r>    3.3919    1.0000 </r>
       <r>    4.0312    1.0000 </r>
       <r>    7.8080    0.0000 </r>
       <r>    9.2598    0.0000 </r>
       <r>    9.9432    0.0000 </r>
       <r>   12.2400    0.0000 </r>
      </set>
      <set comment="kpoint 29">
       <r>   -3.7111    1.0000 </r>
       <r>   -1.1420    1.0000 </r>
       <r>    3.2119    1.0000 </r>
       <r>    4.1205    1.0000 </r>
       <r>    7.8354    0.0000 </r>
       <r>    9.2386    0.0000 </r>
       <r>    9.7651    0.0000 </r>
       <r>   13.3451    0.0000 </r>
      </set>
      <set comment="kpoint 30">
       <r>   -3.8675    1.0000 </r>
       <r>   -0.9152    1.0000 </r>
       <r>    3.1138    1.0000 </r>
       <r>    4.2842    1.0000 </r>
       <r>    7.9332    0.0000 </r>
       <r>    9.2918    0.0000 </r>
       <r>    9.6367    0.0000 </r>
       <r>   13.7700    0.0000 </r>
      </set>
      <set comment="kpoint 31">
       <r>   -4.3132    1.0000 </r>
       <r>   -0.1974    1.0000 </r>
       <r>    3.1077    1.0000 </r>
       <r>    4.5112    1.0000 </r>
       <r>    8.0932    0.0000 </r>
       <r>    9.4109    0.0000 </r>
       <r>    9.5436    0.0000 </r>
       <r>   12.9312    0.0000 </r>
      </set>
      <set comment="kpoint 32">
       <r>   -4.8045    1.0000 </r>
       <r>    0.7523    1.0000 </r>
       <r>    3.2062    1.0000 </r>
       <r>    4.7829    1.0000 </r>
       <r>    8.2963    0.0000 </r>
       <r>    9.4200    0.0000 </r>
       <r>    9.5294    0.0000 </r>
       <r>   12.0290    0.0000 </r>
      </set>
      <set comment="kpoint 33">
       <r>   -5.2414    1.0000 </r>
       <r>    1.7914    1.0000 </r>
       <r>    3.4385    1.0000 </r>
       <r>    5.0669    1.0000 </r>
       <r>    8.5111    0.0000 </r>
       <r>    9.1711    0.0000 </r>
       <r>    9.4529    0.0000 </r>
       <r>   11.4114    0.0000 </r>
      </set>
      <set comment="kpoint 34">
       <r>   -5.5887    1.0000 </r>
       <r>    2.7549    1.0000 </r>
       <r>    3.8943    1.0000 </r>
       <r>    5.3083    1.0000 </r>
       <r>    8.6375    0.0000 </r>
       <r>    8.8365    0.0000 </r>
       <r>    9.0765    0.0000 </r>
       <r>   11.1593    0.0000 </r>
      </set>
      <set comment="kpoint 35">
       <r>   -5.5079    1.0000 </r>
       <r>    3.0089    1.0000 </r>
       <r>    4.1851    1.0000 </r>
       <r>    4.1851    1.0000 </r>
       <r>    7.1251    0.0000 </r>
       <r>    9.5136    0.0000 </r>
       <r>   10.5023    0.0000 </r>
       <r>   10.5023    0.0000 </r>
      </set>
      <set comment="kpoint 36">
       <r>   -5.2282    1.0000 </r>
       <r>    2.2405    1.0000 </r>
       <r>    3.8760    1.0000 </r>
       <r>    3.9370    1.0000 </r>
       <r>    7.1163    0.0000 </r>
       <r>    9.1597    0.0000 </r>
       <r>   10.7768    0.0000 </r>
       <r>   10.9658    0.0000 </r>
      </set>
      <set comment="kpoint 37">
       <r>   -4.8482    1.0000 </r>
       <r>    1.3086    1.0000 </r>
       <r>    3.4717    1.0000 </r>
       <r>    3.7665    1.0000 </r>
       <r>    7.3302    0.0000 </r>
       <r>    9.1763    0.0000 </r>
       <r>   10.6934    0.0000 </r>
       <r>   11.1477    0.0000 </r>
      </set>
      <set comment="kpoint 38">
       <r>   -4.3867    1.0000 </r>
       <r>    0.3715    1.0000 </r>
       <r>    3.0592    1.0000 </r>
       <r>    3.6825    1.0000 </r>
       <r>    7.4402    0.0000 </r>
       <r>    9.7314    0.0000 </r>
       <r>   10.5273    0.0000 </r>
       <r>   11.0658    0.0000 </r>
      </set>
      <set comment="kpoint 39">
       <r>   -3.8927    1.0000 </r>
       <r>   -0.4609    1.0000 </r>
       <r>    2.7033    1.0000 </r>
       <r>    3.6880    1.0000 </r>
       <r>    7.4755    0.0000 </r>
       <r>   10.3669    0.0000 </r>
       <r>   10.6915    0.0000 </r>
       <r>   10.8577    0.0000 </r>
      </set>
      <set comment="kpoint 40">
       <r>   -3.5109    1.0000 </r>
       <r>   -1.0127    1.0000 </r>
       <r>    2.4328    1.0000 </r>
       <r>    3.7820    1.0000 </r>
       <r>    7.5526    0.0000 </r>
       <r>   10.2599    0.0000 </r>
       <r>   10.6350    0.0000 </r>
       <r>   11.8702    0.0000 </r>
      </set>
      <set comment="kpoint 41">
       <r>   -3.5235    1.0000 </r>
       <r>   -0.9917    1.0000 </r>
       <r>    2.2639    1.0000 </r>
       <r>    3.9575    1.0000 </r>
       <r>    7.7131    0.0000 </r>
       <r>   10.2105    0.0000 </r>
       <r>   10.4421    0.0000 </r>
       <r>   13.1672    0.0000 </r>
      </set>
      <set comment="kpoint 42">
       <r>   -3.9162    1.0000 </r>
       <r>   -0.4179    1.0000 </r>
       <r>    2.2166    1.0000 </r>
       <r>    4.2040    1.0000 </r>
       <r>    7.9548    0.0000 </r>
       <r>   10.2185    0.0000 </r>
       <r>   10.2661    0.0000 </r>
       <r>   12.8111    0.0000 </r>
      </set>
      <set comment="kpoint 43">
       <r>   -4.4089    1.0000 </r>
       <r>    0.3913    1.0000 </r>
       <r>    2.3296    1.0000 </r>
       <r>    4.5005    1.0000 </r>
       <r>    8.2447    0.0000 </r>
       <r>   10.0246    0.0000 </r>
       <r>   10.2155    0.0000 </r>
       <r>   11.8187    0.0000 </r>
      </set>
      <set comment="kpoint 44">
       <r>   -4.8661    1.0000 </r>
       <r>    1.1908    1.0000 </r>
       <r>    2.7002    1.0000 </r>
       <r>    4.8100    1.0000 </r>
       <r>    8.5078    0.0000 </r>
       <r>    9.6185    0.0000 </r>
       <r>    9.9353    0.0000 </r>
       <r>   11.3176    0.0000 </r>
      </set>
      <set comment="kpoint 45">
       <r>   -4.9832    1.0000 </r>
       <r>    1.8269    1.0000 </r>
       <r>    3.6703    1.0000 </r>
       <r>    3.6703    1.0000 </r>
       <r>    6.7046    0.0000 </r>
       <r>    8.5546    0.0000 </r>
       <r>   11.6477    0.0000 </r>
       <r>   11.6477    0.0000 </r>
      </set>
      <set comment="kpoint 46">
       <r>   -4.6352    1.0000 </r>
       <r>    1.1455    1.0000 </r>
       <r>    3.3211    1.0000 </r>
       <r>    3.4802    1.0000 </r>
       <r>    6.7477    0.0000 </r>
       <r>    8.2506    0.0000 </r>
       <r>   11.9283    0.0000 </r>
       <r>   12.0693    0.0000 </r>
      </set>
      <set comment="kpoint 47">
       <r>   -4.1980    1.0000 </r>
       <r>    0.3833    1.0000 </r>
       <r>    2.8107    1.0000 </r>
       <r>    3.3782    1.0000 </r>
       <r>    6.9602    0.0000 </r>
       <r>    8.4483    0.0000 </r>
       <r>   11.8654    0.0000 </r>
       <r>   12.1211    0.0000 </r>
      </set>
      <set comment="kpoint 48">
       <r>   -3.7047    1.0000 </r>
       <r>   -0.3604    1.0000 </r>
       <r>    2.3085    1.0000 </r>
       <r>    3.3687    1.0000 </r>
       <r>    7.0557    0.0000 </r>
       <r>    9.2154    0.0000 </r>
       <r>   11.7177    0.0000 </r>
       <r>   11.9499    0.0000 </r>
      </set>
      <set comment="kpoint 49">
       <r>   -3.2575    1.0000 </r>
       <r>   -0.9508    1.0000 </r>
       <r>    1.9073    1.0000 </r>
       <r>    3.4518    1.0000 </r>
       <r>    7.1504    0.0000 </r>
       <r>   10.3046    0.0000 </r>
       <r>   11.5951    0.0000 </r>
       <r>   11.7116    0.0000 </r>
      </set>
      <set comment="kpoint 50">
       <r>   -3.1311    1.0000 </r>
       <r>   -1.0988    1.0000 </r>
       <r>    1.6476    1.0000 </r>
       <r>    3.6219    1.0000 </r>
       <r>    7.3245    0.0000 </r>
       <r>   11.2916    0.0000 </r>
       <r>   11.4655    0.0000 </r>
       <r>   11.7927    0.0000 </r>
      </set>
      <set comment="kpoint 51">
       <r>   -3.4560    1.0000 </r>
       <r>   -0.6914    1.0000 </r>
       <r>    1.5713    1.0000 </r>
       <r>    3.8692    1.0000 </r>
       <r>    7.5908    0.0000 </r>
       <r>   11.1811    0.0000 </r>
       <r>   11.3331    0.0000 </r>
       <r>   12.7190    0.0000 </r>
      </set>
      <set comment="kpoint 52">
       <r>   -3.9406    1.0000 </r>
       <r>   -0.0985    1.0000 </r>
       <r>    1.7634    1.0000 </r>
       <r>    4.1740    1.0000 </r>
       <r>    7.9227    0.0000 </r>
       <r>   10.7024    0.0000 </r>
       <r>   11.0593    0.0000 </r>
       <r>   11.9016    0.0000 </r>
      </set>
      <set comment="kpoint 53">
       <r>   -4.3188    1.0000 </r>
       <r>    0.6478    1.0000 </r>
       <r>    3.2681    1.0000 </r>
       <r>    3.2681    1.0000 </r>
       <r>    6.4073    0.0000 </r>
       <r>    7.6786    0.0000 </r>
       <r>   12.8483    0.0000 </r>
       <r>   12.8483    0.0000 </r>
      </set>
      <set comment="kpoint 54">
       <r>   -3.9082    1.0000 </r>
       <r>    0.0308    1.0000 </r>
       <r>    2.9232    1.0000 </r>
       <r>    3.1437    1.0000 </r>
       <r>    6.5112    0.0000 </r>
       <r>    7.5009    0.0000 </r>
       <r>   13.1503    0.0000 </r>
       <r>   13.2079    0.0000 </r>
      </set>
      <set comment="kpoint 55">
       <r>   -3.4263    1.0000 </r>
       <r>   -0.5929    1.0000 </r>
       <r>    2.3650    1.0000 </r>
       <r>    3.1125    1.0000 </r>
       <r>    6.6971    0.0000 </r>
       <r>    7.9388    0.0000 </r>
       <r>   13.1070    0.0000 </r>
       <r>   13.1558    0.0000 </r>
      </set>
      <set comment="kpoint 56">
       <r>   -2.9424    1.0000 </r>
       <r>   -1.1383    1.0000 </r>
       <r>    1.8243    1.0000 </r>
       <r>    3.1760    1.0000 </r>
       <r>    6.8036    0.0000 </r>
       <r>    8.9080    0.0000 </r>
       <r>   12.9262    0.0000 </r>
       <r>   12.9726    0.0000 </r>
      </set>
      <set comment="kpoint 57">
       <r>   -2.7104    1.0000 </r>
       <r>   -1.3690    1.0000 </r>
       <r>    1.4404    1.0000 </r>
       <r>    3.3303    1.0000 </r>
       <r>    6.9738    0.0000 </r>
       <r>   10.1302    0.0000 </r>
       <r>   12.6111    0.0000 </r>
       <r>   12.8433    0.0000 </r>
      </set>
      <set comment="kpoint 58">
       <r>   -2.9887    1.0000 </r>
       <r>   -1.0811    1.0000 </r>
       <r>    1.3180    1.0000 </r>
       <r>    3.5668    1.0000 </r>
       <r>    7.2415    0.0000 </r>
       <r>   11.4484    0.0000 </r>
       <r>   12.0683    0.0000 </r>
       <r>   12.6442    0.0000 </r>
      </set>
      <set comment="kpoint 59">
       <r>   -3.5237    1.0000 </r>
       <r>   -0.5026    1.0000 </r>
       <r>    2.9947    1.0000 </r>
       <r>    2.9947    1.0000 </r>
       <r>    6.2681    0.0000 </r>
       <r>    7.0029    0.0000 </r>
       <r>   14.0786    0.0000 </r>
       <r>   14.0786    0.0000 </r>
      </set>
      <set comment="kpoint 60">
       <r>   -3.0590    1.0000 </r>
       <r>   -1.0637    1.0000 </r>
       <r>    2.6846    1.0000 </r>
       <r>    2.9387    1.0000 </r>
       <r>    6.4250    0.0000 </r>
       <r>    6.9821    0.0000 </r>
       <r>   14.3715    0.0000 </r>
       <r>   14.4001    0.0000 </r>
      </set>
      <set comment="kpoint 61">
       <r>   -2.5594    1.0000 </r>
       <r>   -1.5734    1.0000 </r>
       <r>    2.1454    1.0000 </r>
       <r>    2.9782    1.0000 </r>
       <r>    6.5608    0.0000 </r>
       <r>    7.6836    0.0000 </r>
       <r>   14.2040    0.0000 </r>
       <r>   14.3680    0.0000 </r>
      </set>
      <set comment="kpoint 62">
       <r>   -2.3455    1.0000 </r>
       <r>   -1.7417    1.0000 </r>
       <r>    1.6602    1.0000 </r>
       <r>    3.1111    1.0000 </r>
       <r>    6.7158    0.0000 </r>
       <r>    8.8065    0.0000 </r>
       <r>   13.6653    0.0000 </r>
       <r>   14.2472    0.0000 </r>
      </set>
      <set comment="kpoint 63">
       <r>   -2.6108    1.0000 </r>
       <r>   -1.5967    1.0000 </r>
       <r>    2.8567    1.0000 </r>
       <r>    2.8567    1.0000 </r>
       <r>    6.3096    0.0000 </r>
       <r>    6.5494    0.0000 </r>
       <r>   15.2787    0.0000 </r>
       <r>   15.2787    0.0000 </r>
      </set>
      <set comment="kpoint 64">
       <r>   -2.1331    1.0000 </r>
       <r>   -2.0736    1.0000 </r>
       <r>    2.6052    1.0000 </r>
       <r>    2.8700    1.0000 </r>
       <r>    6.4382    0.0000 </r>
       <r>    6.7655    0.0000 </r>
       <r>   15.2432    0.0000 </r>
       <r>   15.3869    0.0000 </r>
      </set>
      <set comment="kpoint 65">
       <r>   -5.8120    1.0000 </r>
       <r>    3.5837    1.0000 </r>
       <r>    4.4861    1.0000 </r>
       <r>    5.1749    1.0000 </r>
       <r>    8.0128    0.0000 </r>
       <r>    8.9177    0.0000 </r>
       <r>    9.3117    0.0000 </r>
       <r>   10.5399    0.0000 </r>
      </set>
      <set comment="kpoint 66">
       <r>   -5.5323    1.0000 </r>
       <r>    2.5700    1.0000 </r>
       <r>    4.0476    1.0000 </r>
       <r>    4.9956    1.0000 </r>
       <r>    8.1984    0.0000 </r>
       <r>    8.9088    0.0000 </r>
       <r>    9.7041    0.0000 </r>
       <r>   10.7730    0.0000 </r>
      </set>
      <set comment="kpoint 67">
       <r>   -5.1519    1.0000 </r>
       <r>    1.4600    1.0000 </r>
       <r>    3.7726    1.0000 </r>
       <r>    4.7415    1.0000 </r>
       <r>    8.2350    0.0000 </r>
       <r>    8.9604    0.0000 </r>
       <r>    9.9026    0.0000 </r>
       <r>   11.0108    0.0000 </r>
      </set>
      <set comment="kpoint 68">
       <r>   -4.6904    1.0000 </r>
       <r>    0.4065    1.0000 </r>
       <r>    3.5959    1.0000 </r>
       <r>    4.4937    1.0000 </r>
       <r>    8.1279    0.0000 </r>
       <r>    8.9684    0.0000 </r>
       <r>    9.8791    0.0000 </r>
       <r>   11.6301    0.0000 </r>
      </set>
      <set comment="kpoint 69">
       <r>   -4.1977    1.0000 </r>
       <r>   -0.4947    1.0000 </r>
       <r>    3.4949    1.0000 </r>
       <r>    4.3002    1.0000 </r>
       <r>    8.0203    0.0000 </r>
       <r>    8.8974    0.0000 </r>
       <r>    9.7820    0.0000 </r>
       <r>   12.5482    0.0000 </r>
      </set>
      <set comment="kpoint 70">
       <r>   -3.8163    1.0000 </r>
       <r>   -1.0837    1.0000 </r>
       <r>    3.4513    1.0000 </r>
       <r>    4.1928    1.0000 </r>
       <r>    7.9610    0.0000 </r>
       <r>    8.8381    0.0000 </r>
       <r>    9.7109    0.0000 </r>
       <r>   13.4988    0.0000 </r>
      </set>
      <set comment="kpoint 71">
       <r>   -5.4356    1.0000 </r>
       <r>    2.6168    1.0000 </r>
       <r>    3.8890    1.0000 </r>
       <r>    4.4804    1.0000 </r>
       <r>    7.5502    0.0000 </r>
       <r>    9.5309    0.0000 </r>
       <r>   10.1949    0.0000 </r>
       <r>   10.3986    0.0000 </r>
      </set>
      <set comment="kpoint 72">
       <r>   -5.0881    1.0000 </r>
       <r>    1.7058    1.0000 </r>
       <r>    3.4496    1.0000 </r>
       <r>    4.2794    1.0000 </r>
       <r>    7.7843    0.0000 </r>
       <r>    9.5195    0.0000 </r>
       <r>   10.0479    0.0000 </r>
       <r>   10.7721    0.0000 </r>
      </set>
      <set comment="kpoint 73">
       <r>   -4.6511    1.0000 </r>
       <r>    0.7243    1.0000 </r>
       <r>    3.1526    1.0000 </r>
       <r>    4.0456    1.0000 </r>
       <r>    7.9383    0.0000 </r>
       <r>    9.6329    0.0000 </r>
       <r>   10.1359    0.0000 </r>
       <r>   10.8756    0.0000 </r>
      </set>
      <set comment="kpoint 74">
       <r>   -4.1595    1.0000 </r>
       <r>   -0.1868    1.0000 </r>
       <r>    2.9333    1.0000 </r>
       <r>    3.8768    1.0000 </r>
       <r>    7.9735    0.0000 </r>
       <r>    9.4514    0.0000 </r>
       <r>   10.7503    0.0000 </r>
       <r>   11.0008    0.0000 </r>
      </set>
      <set comment="kpoint 75">
       <r>   -3.7130    1.0000 </r>
       <r>   -0.8815    1.0000 </r>
       <r>    2.7658    1.0000 </r>
       <r>    3.8190    1.0000 </r>
       <r>    8.0163    0.0000 </r>
       <r>    9.2619    0.0000 </r>
       <r>   10.6772    0.0000 </r>
       <r>   12.0759    0.0000 </r>
      </set>
      <set comment="kpoint 76">
       <r>   -3.5617    1.0000 </r>
       <r>   -1.0934    1.0000 </r>
       <r>    2.6525    1.0000 </r>
       <r>    3.8790    1.0000 </r>
       <r>    8.1229    0.0000 </r>
       <r>    9.1296    0.0000 </r>
       <r>   10.6049    0.0000 </r>
       <r>   13.3068    0.0000 </r>
      </set>
      <set comment="kpoint 77">
       <r>   -3.8525    1.0000 </r>
       <r>   -0.6729    1.0000 </r>
       <r>    2.6123    1.0000 </r>
       <r>    4.0420    1.0000 </r>
       <r>    8.2969    0.0000 </r>
       <r>    9.0665    0.0000 </r>
       <r>   10.5729    0.0000 </r>
       <r>   12.4214    0.0000 </r>
      </set>
      <set comment="kpoint 78">
       <r>   -4.3335    1.0000 </r>
       <r>    0.1167    1.0000 </r>
       <r>    2.6703    1.0000 </r>
       <r>    4.2837    1.0000 </r>
       <r>    8.5136    0.0000 </r>
       <r>    9.0500    0.0000 </r>
       <r>   10.5464    0.0000 </r>
       <r>   11.4189    0.0000 </r>
      </set>
      <set comment="kpoint 79">
       <r>   -4.8121    1.0000 </r>
       <r>    1.0408    1.0000 </r>
       <r>    2.8663    1.0000 </r>
       <r>    4.5679    1.0000 </r>
       <r>    8.6971    0.0000 </r>
       <r>    8.9785    0.0000 </r>
       <r>   10.4318    0.0000 </r>
       <r>   10.7495    0.0000 </r>
      </set>
      <set comment="kpoint 80">
       <r>   -5.2201    1.0000 </r>
       <r>    1.9178    1.0000 </r>
       <r>    3.2952    1.0000 </r>
       <r>    4.8375    1.0000 </r>
       <r>    8.5281    0.0000 </r>
       <r>    8.9695    0.0000 </r>
       <r>   10.1333    0.0000 </r>
       <r>   10.5629    0.0000 </r>
      </set>
      <set comment="kpoint 81">
       <r>   -4.9148    1.0000 </r>
       <r>    1.5981    1.0000 </r>
       <r>    3.3772    1.0000 </r>
       <r>    3.8093    1.0000 </r>
       <r>    7.1398    0.0000 </r>
       <r>    8.8175    0.0000 </r>
       <r>   10.9459    0.0000 </r>
       <r>   11.5823    0.0000 </r>
      </set>
      <set comment="kpoint 82">
       <r>   -4.5061    1.0000 </r>
       <r>    0.8157    1.0000 </r>
       <r>    2.9272    1.0000 </r>
       <r>    3.6029    1.0000 </r>
       <r>    7.4049    0.0000 </r>
       <r>    8.8690    0.0000 </r>
       <r>   10.7936    0.0000 </r>
       <r>   11.9327    0.0000 </r>
      </set>
      <set comment="kpoint 83">
       <r>   -4.0264    1.0000 </r>
       <r>    0.0028    1.0000 </r>
       <r>    2.5358    1.0000 </r>
       <r>    3.4537    1.0000 </r>
       <r>    7.5502    0.0000 </r>
       <r>    9.4891    0.0000 </r>
       <r>   10.5615    0.0000 </r>
       <r>   11.9622    0.0000 </r>
      </set>
      <set comment="kpoint 84">
       <r>   -3.5441    1.0000 </r>
       <r>   -0.7081    1.0000 </r>
       <r>    2.2122    1.0000 </r>
       <r>    3.4224    1.0000 </r>
       <r>    7.6292    0.0000 </r>
       <r>   10.2479    0.0000 </r>
       <r>   10.5895    0.0000 </r>
       <r>   11.8615    0.0000 </r>
      </set>
      <set comment="kpoint 85">
       <r>   -3.2621    1.0000 </r>
       <r>   -1.0786    1.0000 </r>
       <r>    1.9793    1.0000 </r>
       <r>    3.5082    1.0000 </r>
       <r>    7.7637    0.0000 </r>
       <r>   10.0951    0.0000 </r>
       <r>   11.7091    0.0000 </r>
       <r>   11.8140    0.0000 </r>
      </set>
      <set comment="kpoint 86">
       <r>   -3.4391    1.0000 </r>
       <r>   -0.8426    1.0000 </r>
       <r>    1.8652    1.0000 </r>
       <r>    3.6950    1.0000 </r>
       <r>    7.9826    0.0000 </r>
       <r>    9.9473    0.0000 </r>
       <r>   11.6248    0.0000 </r>
       <r>   12.3827    0.0000 </r>
      </set>
      <set comment="kpoint 87">
       <r>   -3.8950    1.0000 </r>
       <r>   -0.2083    1.0000 </r>
       <r>    1.9138    1.0000 </r>
       <r>    3.9614    1.0000 </r>
       <r>    8.2760    0.0000 </r>
       <r>    9.7955    0.0000 </r>
       <r>   11.2354    0.0000 </r>
       <r>   11.5949    0.0000 </r>
      </set>
      <set comment="kpoint 88">
       <r>   -4.3827    1.0000 </r>
       <r>    0.4882    1.0000 </r>
       <r>    2.2149    1.0000 </r>
       <r>    4.2728    1.0000 </r>
       <r>    8.5962    0.0000 </r>
       <r>    9.4297    0.0000 </r>
       <r>   10.6975    0.0000 </r>
       <r>   11.1582    0.0000 </r>
      </set>
      <set comment="kpoint 89">
       <r>   -4.2569    1.0000 </r>
       <r>    0.5365    1.0000 </r>
       <r>    2.9870    1.0000 </r>
       <r>    3.2702    1.0000 </r>
       <r>    6.8424    0.0000 </r>
       <r>    7.9878    0.0000 </r>
       <r>   12.0031    0.0000 </r>
       <r>   12.8168    0.0000 </r>
      </set>
      <set comment="kpoint 90">
       <r>   -3.7966    1.0000 </r>
       <r>   -0.1224    1.0000 </r>
       <r>    2.5119    1.0000 </r>
       <r>    3.1073    1.0000 </r>
       <r>    7.1237    0.0000 </r>
       <r>    8.2251    0.0000 </r>
       <r>   11.8124    0.0000 </r>
       <r>   13.1575    0.0000 </r>
      </set>
      <set comment="kpoint 91">
       <r>   -3.3002    1.0000 </r>
       <r>   -0.7518    1.0000 </r>
       <r>    2.0174    1.0000 </r>
       <r>    3.0791    1.0000 </r>
       <r>    7.2519    0.0000 </r>
       <r>    9.0702    0.0000 </r>
       <r>   11.5696    0.0000 </r>
       <r>   13.1453    0.0000 </r>
      </set>
      <set comment="kpoint 92">
       <r>   -2.9205    1.0000 </r>
       <r>   -1.1858    1.0000 </r>
       <r>    1.6329    1.0000 </r>
       <r>    3.1686    1.0000 </r>
       <r>    7.3889    0.0000 </r>
       <r>   10.2131    0.0000 </r>
       <r>   11.3554    0.0000 </r>
       <r>   12.9997    0.0000 </r>
      </set>
      <set comment="kpoint 93">
       <r>   -2.9853    1.0000 </r>
       <r>   -1.1047    1.0000 </r>
       <r>    1.4313    1.0000 </r>
       <r>    3.3598    1.0000 </r>
       <r>    7.6110    0.0000 </r>
       <r>   10.9926    0.0000 </r>
       <r>   11.6742    0.0000 </r>
       <r>   12.3965    0.0000 </r>
      </set>
      <set comment="kpoint 94">
       <r>   -3.4100    1.0000 </r>
       <r>   -0.6482    1.0000 </r>
       <r>    1.4931    1.0000 </r>
       <r>    3.6342    1.0000 </r>
       <r>    7.9195    0.0000 </r>
       <r>   10.6460    0.0000 </r>
       <r>   11.5019    0.0000 </r>
       <r>   12.3951    0.0000 </r>
      </set>
      <set comment="kpoint 95">
       <r>   -3.4718    1.0000 </r>
       <r>   -0.5388    1.0000 </r>
       <r>    2.7345    1.0000 </r>
       <r>    2.8936    1.0000 </r>
       <r>    6.6952    0.0000 </r>
       <r>    7.3518    0.0000 </r>
       <r>   13.1251    0.0000 </r>
       <r>   14.0764    0.0000 </r>
      </set>
      <set comment="kpoint 96">
       <r>   -2.9769    1.0000 </r>
       <r>   -1.0933    1.0000 </r>
       <r>    2.2427    1.0000 </r>
       <r>    2.8213    1.0000 </r>
       <r>    6.9571    0.0000 </r>
       <r>    7.8226    0.0000 </r>
       <r>   12.9076    0.0000 </r>
       <r>   14.3733    0.0000 </r>
      </set>
      <set comment="kpoint 97">
       <r>   -2.5355    1.0000 </r>
       <r>   -1.5271    1.0000 </r>
       <r>    1.7293    1.0000 </r>
       <r>    2.9021    1.0000 </r>
       <r>    7.0931    0.0000 </r>
       <r>    8.8637    0.0000 </r>
       <r>   12.6530    0.0000 </r>
       <r>   13.8313    0.0000 </r>
      </set>
      <set comment="kpoint 98">
       <r>   -2.5673    1.0000 </r>
       <r>   -1.4705    1.0000 </r>
       <r>    1.4105    1.0000 </r>
       <r>    3.0870    1.0000 </r>
       <r>    7.3046    0.0000 </r>
       <r>   10.1320    0.0000 </r>
       <r>   12.2441    0.0000 </r>
       <r>   12.7213    0.0000 </r>
      </set>
      <set comment="kpoint 99">
       <r>   -2.5754    1.0000 </r>
       <r>   -1.5882    1.0000 </r>
       <r>    2.6305    1.0000 </r>
       <r>    2.6817    1.0000 </r>
       <r>    6.7179    0.0000 </r>
       <r>    6.9313    0.0000 </r>
       <r>   14.2897    0.0000 </r>
       <r>   15.1307    0.0000 </r>
      </set>
      <set comment="kpoint 100">
       <r>   -2.1572    1.0000 </r>
       <r>   -1.9670    1.0000 </r>
       <r>    2.1500    1.0000 </r>
       <r>    2.7288    1.0000 </r>
       <r>    6.9026    0.0000 </r>
       <r>    7.6852    0.0000 </r>
       <r>   13.9767    0.0000 </r>
       <r>   14.1604    0.0000 </r>
      </set>
      <set comment="kpoint 101">
       <r>   -4.7123    1.0000 </r>
       <r>    1.0836    1.0000 </r>
       <r>    2.7911    1.0000 </r>
       <r>    4.0773    1.0000 </r>
       <r>    8.1518    0.0000 </r>
       <r>    9.4997    0.0000 </r>
       <r>    9.7957    0.0000 </r>
       <r>   11.4006    0.0000 </r>
      </set>
      <set comment="kpoint 102">
       <r>   -4.2544    1.0000 </r>
       <r>    0.3180    1.0000 </r>
       <r>    2.3960    1.0000 </r>
       <r>    3.8007    1.0000 </r>
       <r>    8.4740    0.0000 </r>
       <r>    9.4488    0.0000 </r>
       <r>    9.9344    0.0000 </r>
       <r>   11.7631    0.0000 </r>
      </set>
      <set comment="kpoint 103">
       <r>   -3.7607    1.0000 </r>
       <r>   -0.4484    1.0000 </r>
       <r>    2.1976    1.0000 </r>
       <r>    3.5633    1.0000 </r>
       <r>    8.6034    0.0000 </r>
       <r>    9.1544    0.0000 </r>
       <r>   10.8304    0.0000 </r>
       <r>   11.8464    0.0000 </r>
      </set>
      <set comment="kpoint 104">
       <r>   -3.3695    1.0000 </r>
       <r>   -0.9922    1.0000 </r>
       <r>    2.1177    1.0000 </r>
       <r>    3.4292    1.0000 </r>
       <r>    8.7186    0.0000 </r>
       <r>    8.9075    0.0000 </r>
       <r>   11.8122    0.0000 </r>
       <r>   12.0295    0.0000 </r>
      </set>
      <set comment="kpoint 105">
       <r>   -4.0747    1.0000 </r>
       <r>    0.2306    1.0000 </r>
       <r>    2.4246    1.0000 </r>
       <r>    3.3276    1.0000 </r>
       <r>    7.8695    0.0000 </r>
       <r>    8.8266    0.0000 </r>
       <r>   10.5579    0.0000 </r>
       <r>   12.7235    0.0000 </r>
      </set>
      <set comment="kpoint 106">
       <r>   -3.5849    1.0000 </r>
       <r>   -0.4100    1.0000 </r>
       <r>    2.0545    1.0000 </r>
       <r>    3.0760    1.0000 </r>
       <r>    8.1925    0.0000 </r>
       <r>    9.3702    0.0000 </r>
       <r>   10.2815    0.0000 </r>
       <r>   13.0947    0.0000 </r>
      </set>
      <set comment="kpoint 107">
       <r>   -3.1294    1.0000 </r>
       <r>   -0.9700    1.0000 </r>
       <r>    1.8002    1.0000 </r>
       <r>    2.9600    1.0000 </r>
       <r>    8.3366    0.0000 </r>
       <r>    9.9075    0.0000 </r>
       <r>   10.5386    0.0000 </r>
       <r>   13.1337    0.0000 </r>
      </set>
      <set comment="kpoint 108">
       <r>   -2.9800    1.0000 </r>
       <r>   -1.1418    1.0000 </r>
       <r>    1.6580    1.0000 </r>
       <r>    3.0048    1.0000 </r>
       <r>    8.5213    0.0000 </r>
       <r>    9.7250    0.0000 </r>
       <r>   11.7090    0.0000 </r>
       <r>   12.1458    0.0000 </r>
      </set>
      <set comment="kpoint 109">
       <r>   -3.2988    1.0000 </r>
       <r>   -0.7650    1.0000 </r>
       <r>    1.6622    1.0000 </r>
       <r>    3.1901    1.0000 </r>
       <r>    8.7834    0.0000 </r>
       <r>    9.5436    0.0000 </r>
       <r>   10.8294    0.0000 </r>
       <r>   12.9785    0.0000 </r>
      </set>
      <set comment="kpoint 110">
       <r>   -3.7846    1.0000 </r>
       <r>   -0.1929    1.0000 </r>
       <r>    1.8846    1.0000 </r>
       <r>    3.4767    1.0000 </r>
       <r>    9.1106    0.0000 </r>
       <r>    9.1815    0.0000 </r>
       <r>   10.0504    0.0000 </r>
       <r>   12.5837    0.0000 </r>
      </set>
      <set comment="kpoint 111">
       <r>   -3.3226    1.0000 </r>
       <r>   -0.6609    1.0000 </r>
       <r>    2.2169    1.0000 </r>
       <r>    2.7339    1.0000 </r>
       <r>    7.7175    0.0000 </r>
       <r>    8.2608    0.0000 </r>
       <r>   11.5395    0.0000 </r>
       <r>   14.0530    0.0000 </r>
      </set>
      <set comment="kpoint 112">
       <r>   -2.8334    1.0000 </r>
       <r>   -1.1728    1.0000 </r>
       <r>    1.8530    1.0000 </r>
       <r>    2.5760    1.0000 </r>
       <r>    8.0115    0.0000 </r>
       <r>    9.0420    0.0000 </r>
       <r>   11.2580    0.0000 </r>
       <r>   13.5861    0.0000 </r>
      </set>
      <set comment="kpoint 113">
       <r>   -2.5620    1.0000 </r>
       <r>   -1.4369    1.0000 </r>
       <r>    1.5434    1.0000 </r>
       <r>    2.6467    1.0000 </r>
       <r>    8.1915    0.0000 </r>
       <r>   10.1985    0.0000 </r>
       <r>   11.0569    0.0000 </r>
       <r>   12.1971    0.0000 </r>
      </set>
      <set comment="kpoint 114">
       <r>   -2.8287    1.0000 </r>
       <r>   -1.1688    1.0000 </r>
       <r>    1.4472    1.0000 </r>
       <r>    2.8663    1.0000 </r>
       <r>    8.4500    0.0000 </r>
       <r>   10.4962    0.0000 </r>
       <r>   11.0767    0.0000 </r>
       <r>   11.7854    0.0000 </r>
      </set>
      <set comment="kpoint 115">
       <r>   -2.4791    1.0000 </r>
       <r>   -1.5776    1.0000 </r>
       <r>    2.1869    1.0000 </r>
       <r>    2.3532    1.0000 </r>
       <r>    7.7204    0.0000 </r>
       <r>    7.8958    0.0000 </r>
       <r>   12.6296    0.0000 </r>
       <r>   13.8110    0.0000 </r>
      </set>
      <set comment="kpoint 116">
       <r>   -2.1810    1.0000 </r>
       <r>   -1.8265    1.0000 </r>
       <r>    1.7882    1.0000 </r>
       <r>    2.3984    1.0000 </r>
       <r>    7.9495    0.0000 </r>
       <r>    8.9323    0.0000 </r>
       <r>   12.2964    0.0000 </r>
       <r>   12.4491    0.0000 </r>
      </set>
      <set comment="kpoint 117">
       <r>   -3.0961    1.0000 </r>
       <r>   -0.8807    1.0000 </r>
       <r>    1.7414    1.0000 </r>
       <r>    2.7113    1.0000 </r>
       <r>    9.0411    0.0000 </r>
       <r>    9.4422    0.0000 </r>
       <r>   10.0318    0.0000 </r>
       <r>   13.3775    0.0000 </r>
      </set>
      <set comment="kpoint 118">
       <r>   -2.6738    1.0000 </r>
       <r>   -1.3032    1.0000 </r>
       <r>    1.6033    1.0000 </r>
       <r>    2.4940    1.0000 </r>
       <r>    9.3118    0.0000 </r>
       <r>    9.6349    0.0000 </r>
       <r>   10.5738    0.0000 </r>
       <r>   11.9409    0.0000 </r>
      </set>
      <set comment="kpoint 119">
       <r>   -2.3535    1.0000 </r>
       <r>   -1.6022    1.0000 </r>
       <r>    1.8158    1.0000 </r>
       <r>    2.1374    1.0000 </r>
       <r>    9.0329    0.0000 </r>
       <r>    9.1739    0.0000 </r>
       <r>   10.9770    0.0000 </r>
       <r>   12.1151    0.0000 </r>
      </set>
      <set comment="kpoint 120">
       <r>   -2.2435    1.0000 </r>
       <r>   -1.6904    1.0000 </r>
       <r>    1.6645    1.0000 </r>
       <r>    2.1561    1.0000 </r>
       <r>    9.2836    0.0000 </r>
       <r>   10.1763    0.0000 </r>
       <r>   10.8204    0.0000 </r>
       <r>   10.8690    0.0000 </r>
      </set>
     </set>
    </set>
   </array>
  </eigenvalues>
  <separator name="orbital magnetization" >
   <v name="MAGDIPOLOUT">      0.00000000      0.00000000      0.00000000</v>
  </separator>
  <dos>
   <i name="efermi">      5.86579046 </i>
   <total>
    <array>
     <dimension dim="1">gridpoints</dimension>
     <dimension dim="2">spin</dimension>
     <field>energy</field>
     <field>total</field>
     <field>integrated</field>
     <set>
      <set comment="spin 1">
       <r>    -7.2711     0.0000     0.0000 </r>
       <r>    -7.1920     0.0000     0.0000 </r>
       <r>    -7.1129     0.0000     0.0000 </r>
       <r>    -7.0338     0.0000     0.0000 </r>
       <r>    -6.9546     0.0000     0.0000 </r>
       <r>    -6.8755     0.0000     0.0000 </r>
       <r>    -6.7964     0.0000     0.0000 </r>
       <r>    -6.7173     0.0000     0.0000 </r>
       <r>    -6.6381     0.0000     0.0000 </r>
       <r>    -6.5590     0.0000     0.0000 </r>
       <r>    -6.4799     0.0000     0.0000 </r>
       <r>    -6.4008     0.0000     0.0000 </r>
       <r>    -6.3216     0.0000     0.0000 </r>
       <r>    -6.2425     0.0007     0.0001 </r>
       <r>    -6.1634     0.0218     0.0018 </r>
       <r>    -6.0843     0.0865     0.0086 </r>
       <r>    -6.0052     0.1323     0.0191 </r>
       <r>    -5.9260     0.1889     0.0340 </r>
       <r>    -5.8469     0.1401     0.0451 </r>
       <r>    -5.7678     0.2880     0.0679 </r>
       <r>    -5.6887     0.2501     0.0877 </r>
       <r>    -5.6095     0.1829     0.1022 </r>
       <r>    -5.5304     0.3223     0.1277 </r>
       <r>    -5.4513     0.3813     0.1578 </r>
       <r>    -5.3722     0.3159     0.1828 </r>
       <r>    -5.2930     0.2221     0.2004 </r>
       <r>    -5.2139     0.3812     0.2306 </r>
       <r>    -5.1348     0.4783     0.2684 </r>
       <r>    -5.0557     0.5062     0.3085 </r>
       <r>    -4.9766     0.1985     0.3242 </r>
       <r>    -4.8974     0.4238     0.3577 </r>
       <r>    -4.8183     0.5267     0.3994 </r>
       <r>    -4.7392     0.4422     0.4343 </r>
       <r>    -4.6601     0.6124     0.4828 </r>
       <r>    -4.5809     0.5533     0.5266 </r>
       <r>    -4.5018     0.2883     0.5494 </r>
       <r>    -4.4227     0.5354     0.5918 </r>
       <r>    -4.3436     0.6385     0.6423 </r>
       <r>    -4.2644     0.6760     0.6958 </r>
       <r>    -4.1853     0.7753     0.7571 </r>
       <r>    -4.1062     0.6293     0.8069 </r>
       <r>    -4.0271     0.4530     0.8427 </r>
       <r>    -3.9480     0.6056     0.8907 </r>
       <r>    -3.8688     1.0464     0.9735 </r>
       <r>    -3.7897     1.1997     1.0684 </r>
       <r>    -3.7106     0.9538     1.1439 </r>
       <r>    -3.6315     0.4307     1.1779 </r>
       <r>    -3.5523     0.6945     1.2329 </r>
       <r>    -3.4732     0.9263     1.3062 </r>
       <r>    -3.3941     0.8614     1.3743 </r>
       <r>    -3.3150     0.7566     1.4342 </r>
       <r>    -3.2358     0.9270     1.5076 </r>
       <r>    -3.1567     0.2858     1.5302 </r>
       <r>    -3.0776     0.5571     1.5742 </r>
       <r>    -2.9985     0.5880     1.6208 </r>
       <r>    -2.9194     1.0674     1.7052 </r>
       <r>    -2.8402     0.4801     1.7432 </r>
       <r>    -2.7611     0.3282     1.7692 </r>
       <r>    -2.6820     0.2866     1.7919 </r>
       <r>    -2.6029     0.4092     1.8242 </r>
       <r>    -2.5237     0.9174     1.8968 </r>
       <r>    -2.4446     0.3746     1.9265 </r>
       <r>    -2.3655     0.1222     1.9361 </r>
       <r>    -2.2864     0.1892     1.9511 </r>
       <r>    -2.2072     0.1981     1.9668 </r>
       <r>    -2.1281     0.3363     1.9934 </r>
       <r>    -2.0490     0.1525     2.0054 </r>
       <r>    -1.9699     0.1049     2.0137 </r>
       <r>    -1.8908     0.0993     2.0216 </r>
       <r>    -1.8116     0.1180     2.0309 </r>
       <r>    -1.7325     0.1327     2.0414 </r>
       <r>    -1.6534     0.1948     2.0569 </r>
       <r>    -1.5743     0.5100     2.0972 </r>
       <r>    -1.4951     0.6045     2.1450 </r>
       <r>    -1.4160     0.4543     2.1810 </r>
       <r>    -1.3369     0.3017     2.2049 </r>
       <r>    -1.2578     0.3205     2.2302 </r>
       <r>    -1.1786     0.7203     2.2872 </r>
       <r>    -1.0995     1.9168     2.4389 </r>
       <r>    -1.0204     1.6509     2.5695 </r>
       <r>    -0.9413     1.1203     2.6581 </r>
       <r>    -0.8622     0.7992     2.7214 </r>
       <r>    -0.7830     0.6841     2.7755 </r>
       <r>    -0.7039     1.0815     2.8611 </r>
       <r>    -0.6248     0.9185     2.9337 </r>
       <r>    -0.5457     0.3891     2.9645 </r>
       <r>    -0.4665     0.6473     3.0157 </r>
       <r>    -0.3874     0.8353     3.0818 </r>
       <r>    -0.3083     0.2878     3.1046 </r>
       <r>    -0.2292     0.3414     3.1316 </r>
       <r>    -0.1500     0.8931     3.2023 </r>
       <r>    -0.0709     0.4341     3.2366 </r>
       <r>     0.0082     0.3085     3.2610 </r>
       <r>     0.0873     0.5678     3.3060 </r>
       <r>     0.1664     0.3959     3.3373 </r>
       <r>     0.2456     0.1517     3.3493 </r>
       <r>     0.3247     0.3021     3.3732 </r>
       <r>     0.4038     0.7221     3.4303 </r>
       <r>     0.4829     0.4310     3.4644 </r>
       <r>     0.5621     0.2304     3.4827 </r>
       <r>     0.6412     0.0689     3.4881 </r>
       <r>     0.7203     0.2949     3.5114 </r>
       <r>     0.7994     0.5352     3.5538 </r>
       <r>     0.8786     0.2559     3.5740 </r>
       <r>     0.9577     0.0170     3.5754 </r>
       <r>     1.0368     0.1995     3.5912 </r>
       <r>     1.1159     0.6082     3.6393 </r>
       <r>     1.1951     0.3015     3.6631 </r>
       <r>     1.2742     0.0942     3.6706 </r>
       <r>     1.3533     0.2152     3.6876 </r>
       <r>     1.4324     0.5663     3.7324 </r>
       <r>     1.5115     0.9259     3.8057 </r>
       <r>     1.5907     0.7549     3.8654 </r>
       <r>     1.6698     1.4370     3.9791 </r>
       <r>     1.7489     1.2205     4.0757 </r>
       <r>     1.8280     1.2277     4.1728 </r>
       <r>     1.9072     1.3723     4.2814 </r>
       <r>     1.9863     0.7958     4.3444 </r>
       <r>     2.0654     0.6711     4.3975 </r>
       <r>     2.1445     0.8428     4.4642 </r>
       <r>     2.2237     1.7281     4.6009 </r>
       <r>     2.3028     1.2410     4.6991 </r>
       <r>     2.3819     0.7442     4.7580 </r>
       <r>     2.4610     0.8050     4.8217 </r>
       <r>     2.5401     0.9353     4.8957 </r>
       <r>     2.6193     1.3994     5.0064 </r>
       <r>     2.6984     1.7776     5.1470 </r>
       <r>     2.7775     1.3328     5.2525 </r>
       <r>     2.8566     1.0936     5.3390 </r>
       <r>     2.9358     1.6086     5.4663 </r>
       <r>     3.0149     1.4569     5.5816 </r>
       <r>     3.0940     1.4634     5.6974 </r>
       <r>     3.1731     1.7922     5.8392 </r>
       <r>     3.2523     1.0775     5.9244 </r>
       <r>     3.3314     0.9322     5.9982 </r>
       <r>     3.4105     1.5550     6.1212 </r>
       <r>     3.4896     2.4006     6.3112 </r>
       <r>     3.5687     1.3051     6.4144 </r>
       <r>     3.6479     1.2958     6.5170 </r>
       <r>     3.7270     0.9195     6.5897 </r>
       <r>     3.8061     1.0673     6.6742 </r>
       <r>     3.8852     1.3861     6.7838 </r>
       <r>     3.9644     1.2249     6.8808 </r>
       <r>     4.0435     1.4652     6.9967 </r>
       <r>     4.1226     1.2995     7.0995 </r>
       <r>     4.2017     0.8854     7.1696 </r>
       <r>     4.2809     1.4190     7.2819 </r>
       <r>     4.3600     1.3518     7.3888 </r>
       <r>     4.4391     0.5952     7.4359 </r>
       <r>     4.5182     1.4020     7.5468 </r>
       <r>     4.5973     1.0560     7.6304 </r>
       <r>     4.6765     0.4341     7.6647 </r>
       <r>     4.7556     0.5951     7.7118 </r>
       <r>     4.8347     0.7373     7.7702 </r>
       <r>     4.9138     0.3330     7.7965 </r>
       <r>     4.9930     0.3023     7.8204 </r>
       <r>     5.0721     0.6173     7.8693 </r>
       <r>     5.1512     0.4494     7.9048 </r>
       <r>     5.2303     0.3368     7.9315 </r>
       <r>     5.3095     0.2292     7.9496 </r>
       <r>     5.3886     0.2324     7.9680 </r>
       <r>     5.4677     0.1576     7.9805 </r>
       <r>     5.5468     0.0828     7.9870 </r>
       <r>     5.6259     0.1380     7.9979 </r>
       <r>     5.7051     0.0248     7.9999 </r>
       <r>     5.7842     0.0013     8.0000 </r>
       <r>     5.8633     0.0000     8.0000 </r>
       <r>     5.9424     0.0000     8.0000 </r>
       <r>     6.0216     0.0000     8.0000 </r>
       <r>     6.1007     0.0000     8.0000 </r>
       <r>     6.1798     0.0003     8.0000 </r>
       <r>     6.2589     0.0210     8.0017 </r>
       <r>     6.3381     0.0606     8.0065 </r>
       <r>     6.4172     0.1351     8.0172 </r>
       <r>     6.4963     0.2483     8.0368 </r>
       <r>     6.5754     0.2661     8.0579 </r>
       <r>     6.6545     0.1344     8.0685 </r>
       <r>     6.7337     0.5526     8.1122 </r>
       <r>     6.8128     0.4646     8.1490 </r>
       <r>     6.8919     0.3251     8.1747 </r>
       <r>     6.9710     0.7436     8.2335 </r>
       <r>     7.0502     0.5835     8.2797 </r>
       <r>     7.1293     0.8507     8.3470 </r>
       <r>     7.2084     0.6406     8.3977 </r>
       <r>     7.2875     0.4883     8.4363 </r>
       <r>     7.3667     0.7451     8.4953 </r>
       <r>     7.4458     0.8048     8.5590 </r>
       <r>     7.5249     0.8673     8.6276 </r>
       <r>     7.6040     1.4243     8.7403 </r>
       <r>     7.6832     1.1620     8.8322 </r>
       <r>     7.7623     1.1410     8.9225 </r>
       <r>     7.8414     1.4805     9.0397 </r>
       <r>     7.9205     1.3365     9.1454 </r>
       <r>     7.9996     2.3787     9.3336 </r>
       <r>     8.0788     1.6822     9.4667 </r>
       <r>     8.1579     1.1943     9.5612 </r>
       <r>     8.2370     1.7137     9.6968 </r>
       <r>     8.3161     1.6611     9.8282 </r>
       <r>     8.3953     0.7145     9.8848 </r>
       <r>     8.4744     0.7009     9.9402 </r>
       <r>     8.5535     1.2852    10.0419 </r>
       <r>     8.6326     0.9483    10.1170 </r>
       <r>     8.7118     0.9359    10.1910 </r>
       <r>     8.7909     0.7277    10.2486 </r>
       <r>     8.8700     1.5896    10.3744 </r>
       <r>     8.9491     2.7052    10.5884 </r>
       <r>     9.0282     2.1941    10.7620 </r>
       <r>     9.1074     2.0386    10.9233 </r>
       <r>     9.1865     2.0340    11.0842 </r>
       <r>     9.2656     1.5977    11.2107 </r>
       <r>     9.3447     1.6063    11.3377 </r>
       <r>     9.4239     1.6042    11.4647 </r>
       <r>     9.5030     2.0059    11.6234 </r>
       <r>     9.5821     1.4804    11.7405 </r>
       <r>     9.6612     1.0817    11.8261 </r>
       <r>     9.7404     1.1870    11.9200 </r>
       <r>     9.8195     1.1057    12.0075 </r>
       <r>     9.8986     0.9764    12.0848 </r>
       <r>     9.9777     1.4471    12.1993 </r>
       <r>    10.0568     0.9053    12.2709 </r>
       <r>    10.1360     1.2278    12.3680 </r>
       <r>    10.2151     1.6863    12.5015 </r>
       <r>    10.2942     1.8490    12.6478 </r>
       <r>    10.3733     0.7759    12.7092 </r>
       <r>    10.4525     0.6147    12.7578 </r>
       <r>    10.5316     1.1612    12.8497 </r>
       <r>    10.6107     2.3123    13.0326 </r>
       <r>    10.6898     1.2273    13.1297 </r>
       <r>    10.7690     1.5200    13.2500 </r>
       <r>    10.8481     1.8773    13.3985 </r>
       <r>    10.9272     1.0078    13.4783 </r>
       <r>    11.0063     1.1386    13.5684 </r>
       <r>    11.0854     1.0948    13.6550 </r>
       <r>    11.1646     0.5653    13.6997 </r>
       <r>    11.2437     0.7449    13.7587 </r>
       <r>    11.3228     0.7559    13.8185 </r>
       <r>    11.4019     0.7940    13.8813 </r>
       <r>    11.4811     0.8239    13.9465 </r>
       <r>    11.5602     0.6840    14.0006 </r>
       <r>    11.6393     1.4467    14.1151 </r>
       <r>    11.7184     1.3892    14.2250 </r>
       <r>    11.7976     1.4093    14.3365 </r>
       <r>    11.8767     1.7799    14.4773 </r>
       <r>    11.9558     1.3469    14.5839 </r>
       <r>    12.0349     1.1840    14.6776 </r>
       <r>    12.1140     0.9869    14.7557 </r>
       <r>    12.1932     0.7236    14.8129 </r>
       <r>    12.2723     0.5320    14.8550 </r>
       <r>    12.3514     0.3750    14.8847 </r>
       <r>    12.4305     1.0532    14.9680 </r>
       <r>    12.5097     0.4436    15.0031 </r>
       <r>    12.5888     0.4594    15.0394 </r>
       <r>    12.6679     0.7197    15.0964 </r>
       <r>    12.7470     0.6251    15.1458 </r>
       <r>    12.8262     0.5622    15.1903 </r>
       <r>    12.9053     0.6081    15.2384 </r>
       <r>    12.9844     0.8685    15.3072 </r>
       <r>    13.0635     0.5880    15.3537 </r>
       <r>    13.1426     1.3144    15.4577 </r>
       <r>    13.2218     1.1802    15.5511 </r>
       <r>    13.3009     0.2809    15.5733 </r>
       <r>    13.3800     0.4866    15.6118 </r>
       <r>    13.4591     0.3952    15.6431 </r>
       <r>    13.5383     0.5295    15.6850 </r>
       <r>    13.6174     0.4988    15.7244 </r>
       <r>    13.6965     0.1438    15.7358 </r>
       <r>    13.7756     0.1642    15.7488 </r>
       <r>    13.8548     0.4566    15.7849 </r>
       <r>    13.9339     0.1317    15.7953 </r>
       <r>    14.0130     0.1654    15.8084 </r>
       <r>    14.0921     0.3343    15.8349 </r>
       <r>    14.1713     0.2536    15.8549 </r>
       <r>    14.2504     0.2699    15.8763 </r>
       <r>    14.3295     0.2797    15.8984 </r>
       <r>    14.4086     0.6554    15.9503 </r>
       <r>    14.4877     0.1775    15.9643 </r>
       <r>    14.5669     0.0016    15.9644 </r>
       <r>    14.6460     0.0000    15.9644 </r>
       <r>    14.7251     0.0000    15.9644 </r>
       <r>    14.8042     0.0000    15.9644 </r>
       <r>    14.8834     0.0000    15.9644 </r>
       <r>    14.9625     0.0000    15.9644 </r>
       <r>    15.0416     0.0011    15.9645 </r>
       <r>    15.1207     0.0689    15.9700 </r>
       <r>    15.1999     0.1163    15.9792 </r>
       <r>    15.2790     0.1147    15.9883 </r>
       <r>    15.3581     0.0761    15.9943 </r>
       <r>    15.4372     0.0654    15.9995 </r>
       <r>    15.5163     0.0069    16.0000 </r>
       <r>    15.5955     0.0000    16.0000 </r>
       <r>    15.6746     0.0000    16.0000 </r>
       <r>    15.7537     0.0000    16.0000 </r>
       <r>    15.8328     0.0000    16.0000 </r>
       <r>    15.9120     0.0000    16.0000 </r>
       <r>    15.9911     0.0000    16.0000 </r>
       <r>    16.0702     0.0000    16.0000 </r>
       <r>    16.1493     0.0000    16.0000 </r>
       <r>    16.2285     0.0000    16.0000 </r>
       <r>    16.3076     0.0000    16.0000 </r>
       <r>    16.3867     0.0000    16.0000 </r>
       <r>    16.4658     0.0000    16.0000 </r>
      </set>
     </set>
    </array>
   </total>
  </dos>
 </calculation>
 <structure name="finalpos" >
  <crystal>
   <varray name="basis" >
    <v>       3.34655014       0.00000000       1.93213135 </v>
    <v>       1.11551671       3.15515898       1.93213135 </v>
    <v>       0.00000000       0.00000000       3.86426270 </v>
   </varray>
   <i name="volume">     40.80235458 </i>
   <varray name="rec_basis" >
    <v>       0.29881519      -0.10564708       0.00000000 </v>
    <v>       0.00000000       0.31694124      -0.00000000 </v>
    <v>      -0.14940759      -0.10564708       0.25878158 </v>
   </varray>
  </crystal>
  <varray name="positions" >
   <v>       0.87500000       0.87500000       0.87500000 </v>
   <v>       0.12500000       0.12500000       0.12500000 </v>
  </varray>
 </structure>
</modeling>
