unknown system                          
   1.00000000000000     
     2.820365   -0.000000    0.000000
     0.000000    2.820365    0.000000
    -0.000000   -0.000000    2.820365
   Fe
     2
Direct
  0.000000  0.000000  0.000000
  0.500000  0.500000  0.500000
 
   36   36   36
 0.19006556416E+03 0.18545786704E+03 0.17226053317E+03 0.15220996061E+03 0.12779734137E+03
 0.10178800415E+03 0.76764374255E+02 0.54758657764E+02 0.37046212690E+02 0.24087082967E+02
 0.15610026577E+02 0.10776287270E+02 0.84417752863E+01 0.73474501897E+01 0.66087492082E+01
 0.60924163064E+01 0.57750100117E+01 0.56092804586E+01 0.55581661216E+01 0.56092804586E+01
 0.57750100117E+01 0.60924163064E+01 0.66087492082E+01 0.73474501897E+01 0.84417752863E+01
 0.10776287270E+02 0.15610026577E+02 0.24087082967E+02 0.37046212690E+02 0.54758657764E+02
 0.76764374255E+02 0.10178800415E+03 0.12779734137E+03 0.15220996061E+03 0.17226053317E+03
 0.18545786704E+03 0.18545786704E+03 0.18098008224E+03 0.16814997975E+03 0.14864149167E+03
 0.12486422109E+03 0.99501839543E+02 0.75073773652E+02 0.53573729107E+02 0.36267558268E+02
 0.23615265828E+02 0.15355961183E+02 0.10663455786E+02 0.84047356865E+01 0.73336804827E+01
 0.66000465661E+01 0.60899133872E+01 0.57758279553E+01 0.56126655751E+01 0.55618027226E+01
 0.56126655751E+01 0.57758279553E+01 0.60899133872E+01 0.66000465661E+01 0.73336804827E+01
 0.84047356865E+01 0.10663455786E+02 0.15355961183E+02 0.23615265828E+02 0.36267558268E+02
 0.53573729107E+02 0.75073773652E+02 0.99501839543E+02 0.12486422109E+03 0.14864149167E+03
 0.16814997975E+03 0.18098008224E+03 0.17226053317E+03 0.16814997975E+03 0.15635774178E+03
 0.13838491886E+03 0.11641123791E+03 0.92892941521E+02 0.70173359263E+02 0.50138914140E+02
 0.34010628446E+02 0.22252747381E+02 0.14629516954E+02 0.10344835062E+02 0.83012483353E+01
 0.72916072858E+01 0.65741909935E+01 0.60819537257E+01 0.57780820670E+01 0.56219588139E+01
 0.55722714132E+01 0.56219588139E+01 0.57780820670E+01 0.60819537257E+01 0.65741909935E+01
 0.72916072858E+01 0.83012483353E+01 0.10344835062E+02 0.14629516954E+02 0.22252747381E+02
 0.34010628446E+02 0.50138914140E+02 0.70173359263E+02 0.92892941521E+02 0.11641123791E+03
 0.13838491886E+03 0.15635774178E+03 0.16814997975E+03 0.15220996061E+03 0.14864149167E+03
 0.13838491886E+03 0.12269467599E+03 0.10342131314E+03 0.82690093454E+02 0.62579542013E+02
 0.44805572477E+02 0.30516956047E+02 0.20163435877E+02 0.13534495078E+02 0.98792679431E+01
 0.81490644909E+01 0.72197662714E+01 0.65310779955E+01 0.60681329260E+01 0.57812223873E+01
 0.56360417647E+01 0.55884795817E+01 0.56360417647E+01 0.57812223873E+01 0.60681329260E+01
 0.65310779955E+01 0.72197662714E+01 0.81490644909E+01 0.98792679431E+01 0.13534495078E+02
 0.20163435877E+02 0.30516956047E+02 0.44805572477E+02 0.62579542013E+02 0.82690093454E+02
 0.10342131314E+03 0.12269467599E+03 0.13838491886E+03 0.14864149167E+03 0.12779734137E+03
 0.12486422109E+03 0.11641123791E+03 0.10342131314E+03 0.87372496838E+02 0.70013652915E+02
 0.53107329672E+02 0.38156672658E+02 0.26188297689E+02 0.17616073924E+02 0.12237445370E+02
 0.93508714624E+01 0.79666913484E+01 0.71147755120E+01 0.64730364525E+01 0.60471366125E+01
 0.57849047007E+01 0.56519987643E+01 0.56089719558E+01 0.56519987643E+01 0.57849047007E+01
 0.60471366125E+01 0.64730364525E+01 0.71147755120E+01 0.79666913484E+01 0.93508714624E+01
 0.12237445370E+02 0.17616073924E+02 0.26188297689E+02 0.38156672658E+02 0.53107329672E+02
 0.70013652915E+02 0.87372496838E+02 0.10342131314E+03 0.11641123791E+03 0.12486422109E+03
 0.10178800415E+03 0.99501839543E+02 0.92892941521E+02 0.82690093454E+02 0.70013652915E+02
 0.56240427131E+02 0.42798372681E+02 0.30946837034E+02 0.21554068790E+02 0.14957428315E+02
 0.10937643786E+02 0.88442446047E+01 0.77590814100E+01 0.69779968111E+01 0.64023252606E+01
 0.60192841039E+01 0.57881353349E+01 0.56679031956E+01 0.56314746143E+01 0.56679031956E+01
 0.57881353349E+01 0.60192841039E+01 0.64023252606E+01 0.69779968111E+01 0.77590814100E+01
 0.88442446047E+01 0.10937643786E+02 0.14957428315E+02 0.21554068790E+02 0.30946837034E+02
 0.42798372681E+02 0.56240427131E+02 0.70013652915E+02 0.82690093454E+02 0.92892941521E+02
 0.99501839543E+02 0.76764374255E+02 0.75073773652E+02 0.70173359263E+02 0.62579542013E+02
 0.53107329672E+02 0.42798372681E+02 0.32763997169E+02 0.24003050944E+02 0.17184569812E+02
 0.12540340053E+02 0.98177938777E+01 0.84021742819E+01 0.75175283590E+01 0.68193269230E+01
 0.63210819758E+01 0.59869032371E+01 0.57884157102E+01 0.56823505943E+01 0.56520497321E+01
 0.56823505943E+01 0.57884157102E+01 0.59869032371E+01 0.63210819758E+01 0.68193269230E+01
 0.75175283590E+01 0.84021742819E+01 0.98177938777E+01 0.12540340053E+02 0.17184569812E+02
 0.24003050944E+02 0.32763997169E+02 0.42798372681E+02 0.53107329672E+02 0.62579542013E+02
 0.70173359263E+02 0.75073773652E+02 0.54758657764E+02 0.53573729107E+02 0.50138914140E+02
 0.44805572477E+02 0.38156672658E+02 0.30946837034E+02 0.24003050944E+02 0.18050281491E+02
 0.13564021213E+02 0.10631269084E+02 0.89706580130E+01 0.80008471681E+01 0.72425587641E+01
 0.66531114717E+01 0.62315237607E+01 0.59533813375E+01 0.57835418933E+01 0.56952105409E+01
 0.56672441529E+01 0.56952105409E+01 0.57835418933E+01 0.59533813375E+01 0.62315237607E+01
 0.66531114717E+01 0.72425587641E+01 0.80008471681E+01 0.89706580130E+01 0.10631269084E+02
 0.13564021213E+02 0.18050281491E+02 0.24003050944E+02 0.30946837034E+02 0.38156672658E+02
 0.44805572477E+02 0.50138914140E+02 0.53573729107E+02 0.37046212690E+02 0.36267558268E+02
 0.34010628446E+02 0.30516956047E+02 0.26188297689E+02 0.21554068790E+02 0.17184569812E+02
 0.13564021213E+02 0.10952486122E+02 0.93208307690E+01 0.83427314580E+01 0.75903376021E+01
 0.69624655997E+01 0.64851175937E+01 0.61433846193E+01 0.59164185842E+01 0.57757118111E+01
 0.57013400977E+01 0.56776322435E+01 0.57013400977E+01 0.57757118111E+01 0.59164185842E+01
 0.61433846193E+01 0.64851175937E+01 0.69624655997E+01 0.75903376021E+01 0.83427314580E+01
 0.93208307690E+01 0.10952486122E+02 0.13564021213E+02 0.17184569812E+02 0.21554068790E+02
 0.26188297689E+02 0.30516956047E+02 0.34010628446E+02 0.36267558268E+02 0.24087082967E+02
 0.23615265828E+02 0.22252747381E+02 0.20163435877E+02 0.17616073924E+02 0.14957428315E+02
 0.12540340053E+02 0.10631269084E+02 0.93208307690E+01 0.84677942469E+01 0.77867508961E+01
 0.71847220651E+01 0.66977732904E+01 0.63255516045E+01 0.60593880716E+01 0.58779360611E+01
 0.57641867026E+01 0.57013616313E+01 0.56819824573E+01 0.57013616313E+01 0.57641867026E+01
 0.58779360611E+01 0.60593880716E+01 0.63255516045E+01 0.66977732904E+01 0.71847220651E+01
 0.77867508961E+01 0.84677942469E+01 0.93208307690E+01 0.10631269084E+02 0.12540340053E+02
 0.14957428315E+02 0.17616073924E+02 0.20163435877E+02 0.22252747381E+02 0.23615265828E+02
 0.15610026577E+02 0.15355961183E+02 0.14629516954E+02 0.13534495078E+02 0.12237445370E+02
 0.10937643786E+02 0.98177938777E+01 0.89706580130E+01 0.83427314580E+01 0.77867508961E+01
 0.72658121654E+01 0.68199220857E+01 0.64586405630E+01 0.61831150037E+01 0.59810597885E+01
 0.58399790834E+01 0.57469903020E+01 0.56948086307E+01 0.56776322435E+01 0.56948086307E+01
 0.57469903020E+01 0.58399790834E+01 0.59810597885E+01 0.61831150037E+01 0.64586405630E+01
 0.68199220857E+01 0.72658121654E+01 0.77867508961E+01 0.83427314580E+01 0.89706580130E+01
 0.98177938777E+01 0.10937643786E+02 0.12237445370E+02 0.13534495078E+02 0.14629516954E+02
 0.15355961183E+02 0.10776287270E+02 0.10663455786E+02 0.10344835062E+02 0.98792679431E+01
 0.93508714624E+01 0.88442446047E+01 0.84021742819E+01 0.80008471681E+01 0.75903376021E+01
 0.71847220651E+01 0.68199220857E+01 0.65076054578E+01 0.62555886829E+01 0.60585813184E+01
 0.59092262942E+01 0.57997671175E+01 0.57252719725E+01 0.56815085629E+01 0.56672441529E+01
 0.56815085629E+01 0.57252719725E+01 0.57997671175E+01 0.59092262942E+01 0.60585813184E+01
 0.62555886829E+01 0.65076054578E+01 0.68199220857E+01 0.71847220651E+01 0.75903376021E+01
 0.80008471681E+01 0.84021742819E+01 0.88442446047E+01 0.93508714624E+01 0.98792679431E+01
 0.10344835062E+02 0.10663455786E+02 0.84417752863E+01 0.84047356865E+01 0.83012483353E+01
 0.81490644909E+01 0.79666913484E+01 0.77590814100E+01 0.75175283590E+01 0.72425587641E+01
 0.69624655997E+01 0.66977732904E+01 0.64586405630E+01 0.62555886829E+01 0.60874933370E+01
 0.59510986517E+01 0.58430403436E+01 0.57604415811E+01 0.57007845758E+01 0.56644331912E+01
 0.56520497321E+01 0.56644331912E+01 0.57007845758E+01 0.57604415811E+01 0.58430403436E+01
 0.59510986517E+01 0.60874933370E+01 0.62555886829E+01 0.64586405630E+01 0.66977732904E+01
 0.69624655997E+01 0.72425587641E+01 0.75175283590E+01 0.77590814100E+01 0.79666913484E+01
 0.81490644909E+01 0.83012483353E+01 0.84047356865E+01 0.73474501897E+01 0.73336804827E+01
 0.72916072858E+01 0.72197662714E+01 0.71147755120E+01 0.69779968111E+01 0.68193269230E+01
 0.66531114717E+01 0.64851175937E+01 0.63255516045E+01 0.61831150037E+01 0.60585813184E+01
 0.59510986517E+01 0.58598795779E+01 0.57836821490E+01 0.57205931422E+01 0.56724851037E+01
 0.56418782474E+01 0.56314746143E+01 0.56418782474E+01 0.56724851037E+01 0.57205931422E+01
 0.57836821490E+01 0.58598795779E+01 0.59510986517E+01 0.60585813184E+01 0.61831150037E+01
 0.63255516045E+01 0.64851175937E+01 0.66531114717E+01 0.68193269230E+01 0.69779968111E+01
 0.71147755120E+01 0.72197662714E+01 0.72916072858E+01 0.73336804827E+01 0.66087492082E+01
 0.66000465661E+01 0.65741909935E+01 0.65310779955E+01 0.64730364525E+01 0.64023252606E+01
 0.63210819758E+01 0.62315237607E+01 0.61433846193E+01 0.60593880716E+01 0.59810597885E+01
 0.59092262942E+01 0.58430403436E+01 0.57836821490E+01 0.57288287265E+01 0.56806354972E+01
 0.56422197657E+01 0.56176232493E+01 0.56089719558E+01 0.56176232493E+01 0.56422197657E+01
 0.56806354972E+01 0.57288287265E+01 0.57836821490E+01 0.58430403436E+01 0.59092262942E+01
 0.59810597885E+01 0.60593880716E+01 0.61433846193E+01 0.62315237607E+01 0.63210819758E+01
 0.64023252606E+01 0.64730364525E+01 0.65310779955E+01 0.65741909935E+01 0.66000465661E+01
 0.60924163064E+01 0.60899133872E+01 0.60819537257E+01 0.60681329260E+01 0.60471366125E+01
 0.60192841039E+01 0.59869032371E+01 0.59533813375E+01 0.59164185842E+01 0.58779360611E+01
 0.58399790834E+01 0.57997671175E+01 0.57604415811E+01 0.57205931422E+01 0.56806354972E+01
 0.56438078841E+01 0.56143009424E+01 0.55950724526E+01 0.55884795817E+01 0.55950724526E+01
 0.56143009424E+01 0.56438078841E+01 0.56806354972E+01 0.57205931422E+01 0.57604415811E+01
 0.57997671175E+01 0.58399790834E+01 0.58779360611E+01 0.59164185842E+01 0.59533813375E+01
 0.59869032371E+01 0.60192841039E+01 0.60471366125E+01 0.60681329260E+01 0.60819537257E+01
 0.60899133872E+01 0.57750100117E+01 0.57758279553E+01 0.57780820670E+01 0.57812223873E+01
 0.57849047007E+01 0.57881353349E+01 0.57884157102E+01 0.57835418933E+01 0.57757118111E+01
 0.57641867026E+01 0.57469903020E+01 0.57252719725E+01 0.57007845758E+01 0.56724851037E+01
 0.56422197657E+01 0.56143009424E+01 0.55918444516E+01 0.55773466097E+01 0.55722714132E+01
 0.55773466097E+01 0.55918444516E+01 0.56143009424E+01 0.56422197657E+01 0.56724851037E+01
 0.57007845758E+01 0.57252719725E+01 0.57469903020E+01 0.57641867026E+01 0.57757118111E+01
 0.57835418933E+01 0.57884157102E+01 0.57881353349E+01 0.57849047007E+01 0.57812223873E+01
 0.57780820670E+01 0.57758279553E+01 0.56092804586E+01 0.56126655751E+01 0.56219588139E+01
 0.56360417647E+01 0.56519987643E+01 0.56679031956E+01 0.56823505943E+01 0.56952105409E+01
 0.57013400977E+01 0.57013616313E+01 0.56948086307E+01 0.56815085629E+01 0.56644331912E+01
 0.56418782474E+01 0.56176232493E+01 0.55950724526E+01 0.55773466097E+01 0.55657163998E+01
 0.55618027226E+01 0.55657163998E+01 0.55773466097E+01 0.55950724526E+01 0.56176232493E+01
 0.56418782474E+01 0.56644331912E+01 0.56815085629E+01 0.56948086307E+01 0.57013616313E+01
 0.57013400977E+01 0.56952105409E+01 0.56823505943E+01 0.56679031956E+01 0.56519987643E+01
 0.56360417647E+01 0.56219588139E+01 0.56126655751E+01 0.55581661216E+01 0.55618027226E+01
 0.55722714132E+01 0.55884795817E+01 0.56089719558E+01 0.56314746143E+01 0.56520497321E+01
 0.56672441529E+01 0.56776322435E+01 0.56819824573E+01 0.56776322435E+01 0.56672441529E+01
 0.56520497321E+01 0.56314746143E+01 0.56089719558E+01 0.55884795817E+01 0.55722714132E+01
 0.55618027226E+01 0.55581661216E+01 0.55618027226E+01 0.55722714132E+01 0.55884795817E+01
 0.56089719558E+01 0.56314746143E+01 0.56520497321E+01 0.56672441529E+01 0.56776322435E+01
 0.56819824573E+01 0.56776322435E+01 0.56672441529E+01 0.56520497321E+01 0.56314746143E+01
 0.56089719558E+01 0.55884795817E+01 0.55722714132E+01 0.55618027226E+01 0.56092804586E+01
 0.56126655751E+01 0.56219588139E+01 0.56360417647E+01 0.56519987643E+01 0.56679031956E+01
 0.56823505943E+01 0.56952105409E+01 0.57013400977E+01 0.57013616313E+01 0.56948086307E+01
 0.56815085629E+01 0.56644331912E+01 0.56418782474E+01 0.56176232493E+01 0.55950724526E+01
 0.55773466097E+01 0.55657163998E+01 0.55618027226E+01 0.55657163998E+01 0.55773466097E+01
 0.55950724526E+01 0.56176232493E+01 0.56418782474E+01 0.56644331912E+01 0.56815085629E+01
 0.56948086307E+01 0.57013616313E+01 0.57013400977E+01 0.56952105409E+01 0.56823505943E+01
 0.56679031956E+01 0.56519987643E+01 0.56360417647E+01 0.56219588139E+01 0.56126655751E+01
 0.57750100117E+01 0.57758279553E+01 0.57780820670E+01 0.57812223873E+01 0.57849047007E+01
 0.57881353349E+01 0.57884157102E+01 0.57835418933E+01 0.57757118111E+01 0.57641867026E+01
 0.57469903020E+01 0.57252719725E+01 0.57007845758E+01 0.56724851037E+01 0.56422197657E+01
 0.56143009424E+01 0.55918444516E+01 0.55773466097E+01 0.55722714132E+01 0.55773466097E+01
 0.55918444516E+01 0.56143009424E+01 0.56422197657E+01 0.56724851037E+01 0.57007845758E+01
 0.57252719725E+01 0.57469903020E+01 0.57641867026E+01 0.57757118111E+01 0.57835418933E+01
 0.57884157102E+01 0.57881353349E+01 0.57849047007E+01 0.57812223873E+01 0.57780820670E+01
 0.57758279553E+01 0.60924163064E+01 0.60899133872E+01 0.60819537257E+01 0.60681329260E+01
 0.60471366125E+01 0.60192841039E+01 0.59869032371E+01 0.59533813375E+01 0.59164185842E+01
 0.58779360611E+01 0.58399790834E+01 0.57997671175E+01 0.57604415811E+01 0.57205931422E+01
 0.56806354972E+01 0.56438078841E+01 0.56143009424E+01 0.55950724526E+01 0.55884795817E+01
 0.55950724526E+01 0.56143009424E+01 0.56438078841E+01 0.56806354972E+01 0.57205931422E+01
 0.57604415811E+01 0.57997671175E+01 0.58399790834E+01 0.58779360611E+01 0.59164185842E+01
 0.59533813375E+01 0.59869032371E+01 0.60192841039E+01 0.60471366125E+01 0.60681329260E+01
 0.60819537257E+01 0.60899133872E+01 0.66087492082E+01 0.66000465661E+01 0.65741909935E+01
 0.65310779955E+01 0.64730364525E+01 0.64023252606E+01 0.63210819758E+01 0.62315237607E+01
 0.61433846193E+01 0.60593880716E+01 0.59810597885E+01 0.59092262942E+01 0.58430403436E+01
 0.57836821490E+01 0.57288287265E+01 0.56806354972E+01 0.56422197657E+01 0.56176232493E+01
 0.56089719558E+01 0.56176232493E+01 0.56422197657E+01 0.56806354972E+01 0.57288287265E+01
 0.57836821490E+01 0.58430403436E+01 0.59092262942E+01 0.59810597885E+01 0.60593880716E+01
 0.61433846193E+01 0.62315237607E+01 0.63210819758E+01 0.64023252606E+01 0.64730364525E+01
 0.65310779955E+01 0.65741909935E+01 0.66000465661E+01 0.73474501897E+01 0.73336804827E+01
 0.72916072858E+01 0.72197662714E+01 0.71147755120E+01 0.69779968111E+01 0.68193269230E+01
 0.66531114717E+01 0.64851175937E+01 0.63255516045E+01 0.61831150037E+01 0.60585813184E+01
 0.59510986517E+01 0.58598795779E+01 0.57836821490E+01 0.57205931422E+01 0.56724851037E+01
 0.56418782474E+01 0.56314746143E+01 0.56418782474E+01 0.56724851037E+01 0.57205931422E+01
 0.57836821490E+01 0.58598795779E+01 0.59510986517E+01 0.60585813184E+01 0.61831150037E+01
 0.63255516045E+01 0.64851175937E+01 0.66531114717E+01 0.68193269230E+01 0.69779968111E+01
 0.71147755120E+01 0.72197662714E+01 0.72916072858E+01 0.73336804827E+01 0.84417752863E+01
 0.84047356865E+01 0.83012483353E+01 0.81490644909E+01 0.79666913484E+01 0.77590814100E+01
 0.75175283590E+01 0.72425587641E+01 0.69624655997E+01 0.66977732904E+01 0.64586405630E+01
 0.62555886829E+01 0.60874933370E+01 0.59510986517E+01 0.58430403436E+01 0.57604415811E+01
 0.57007845758E+01 0.56644331912E+01 0.56520497321E+01 0.56644331912E+01 0.57007845758E+01
 0.57604415811E+01 0.58430403436E+01 0.59510986517E+01 0.60874933370E+01 0.62555886829E+01
 0.64586405630E+01 0.66977732904E+01 0.69624655997E+01 0.72425587641E+01 0.75175283590E+01
 0.77590814100E+01 0.79666913484E+01 0.81490644909E+01 0.83012483353E+01 0.84047356865E+01
 0.10776287270E+02 0.10663455786E+02 0.10344835062E+02 0.98792679431E+01 0.93508714624E+01
 0.88442446047E+01 0.84021742819E+01 0.80008471681E+01 0.75903376021E+01 0.71847220651E+01
 0.68199220857E+01 0.65076054578E+01 0.62555886829E+01 0.60585813184E+01 0.59092262942E+01
 0.57997671175E+01 0.57252719725E+01 0.56815085629E+01 0.56672441529E+01 0.56815085629E+01
 0.57252719725E+01 0.57997671175E+01 0.59092262942E+01 0.60585813184E+01 0.62555886829E+01
 0.65076054578E+01 0.68199220857E+01 0.71847220651E+01 0.75903376021E+01 0.80008471681E+01
 0.84021742819E+01 0.88442446047E+01 0.93508714624E+01 0.98792679431E+01 0.10344835062E+02
 0.10663455786E+02 0.15610026577E+02 0.15355961183E+02 0.14629516954E+02 0.13534495078E+02
 0.12237445370E+02 0.10937643786E+02 0.98177938777E+01 0.89706580130E+01 0.83427314580E+01
 0.77867508961E+01 0.72658121654E+01 0.68199220857E+01 0.64586405630E+01 0.61831150037E+01
 0.59810597885E+01 0.58399790834E+01 0.57469903020E+01 0.56948086307E+01 0.56776322435E+01
 0.56948086307E+01 0.57469903020E+01 0.58399790834E+01 0.59810597885E+01 0.61831150037E+01
 0.64586405630E+01 0.68199220857E+01 0.72658121654E+01 0.77867508961E+01 0.83427314580E+01
 0.89706580130E+01 0.98177938777E+01 0.10937643786E+02 0.12237445370E+02 0.13534495078E+02
 0.14629516954E+02 0.15355961183E+02 0.24087082967E+02 0.23615265828E+02 0.22252747381E+02
 0.20163435877E+02 0.17616073924E+02 0.14957428315E+02 0.12540340053E+02 0.10631269084E+02
 0.93208307690E+01 0.84677942469E+01 0.77867508961E+01 0.71847220651E+01 0.66977732904E+01
 0.63255516045E+01 0.60593880716E+01 0.58779360611E+01 0.57641867026E+01 0.57013616313E+01
 0.56819824573E+01 0.57013616313E+01 0.57641867026E+01 0.58779360611E+01 0.60593880716E+01
 0.63255516045E+01 0.66977732904E+01 0.71847220651E+01 0.77867508961E+01 0.84677942469E+01
 0.93208307690E+01 0.10631269084E+02 0.12540340053E+02 0.14957428315E+02 0.17616073924E+02
 0.20163435877E+02 0.22252747381E+02 0.23615265828E+02 0.37046212690E+02 0.36267558268E+02
 0.34010628446E+02 0.30516956047E+02 0.26188297689E+02 0.21554068790E+02 0.17184569812E+02
 0.13564021213E+02 0.10952486122E+02 0.93208307690E+01 0.83427314580E+01 0.75903376021E+01
 0.69624655997E+01 0.64851175937E+01 0.61433846193E+01 0.59164185842E+01 0.57757118111E+01
 0.57013400977E+01 0.56776322435E+01 0.57013400977E+01 0.57757118111E+01 0.59164185842E+01
 0.61433846193E+01 0.64851175937E+01 0.69624655997E+01 0.75903376021E+01 0.83427314580E+01
 0.93208307690E+01 0.10952486122E+02 0.13564021213E+02 0.17184569812E+02 0.21554068790E+02
 0.26188297689E+02 0.30516956047E+02 0.34010628446E+02 0.36267558268E+02 0.54758657764E+02
 0.53573729107E+02 0.50138914140E+02 0.44805572477E+02 0.38156672658E+02 0.30946837034E+02
 0.24003050944E+02 0.18050281491E+02 0.13564021213E+02 0.10631269084E+02 0.89706580130E+01
 0.80008471681E+01 0.72425587641E+01 0.66531114717E+01 0.62315237607E+01 0.59533813375E+01
 0.57835418933E+01 0.56952105409E+01 0.56672441529E+01 0.56952105409E+01 0.57835418933E+01
 0.59533813375E+01 0.62315237607E+01 0.66531114717E+01 0.72425587641E+01 0.80008471681E+01
 0.89706580130E+01 0.10631269084E+02 0.13564021213E+02 0.18050281491E+02 0.24003050944E+02
 0.30946837034E+02 0.38156672658E+02 0.44805572477E+02 0.50138914140E+02 0.53573729107E+02
 0.76764374255E+02 0.75073773652E+02 0.70173359263E+02 0.62579542013E+02 0.53107329672E+02
 0.42798372681E+02 0.32763997169E+02 0.24003050944E+02 0.17184569812E+02 0.12540340053E+02
 0.98177938777E+01 0.84021742819E+01 0.75175283590E+01 0.68193269230E+01 0.63210819758E+01
 0.59869032371E+01 0.57884157102E+01 0.56823505943E+01 0.56520497321E+01 0.56823505943E+01
 0.57884157102E+01 0.59869032371E+01 0.63210819758E+01 0.68193269230E+01 0.75175283590E+01
 0.84021742819E+01 0.98177938777E+01 0.12540340053E+02 0.17184569812E+02 0.24003050944E+02
 0.32763997169E+02 0.42798372681E+02 0.53107329672E+02 0.62579542013E+02 0.70173359263E+02
 0.75073773652E+02 0.10178800415E+03 0.99501839543E+02 0.92892941521E+02 0.82690093454E+02
 0.70013652915E+02 0.56240427131E+02 0.42798372681E+02 0.30946837034E+02 0.21554068790E+02
 0.14957428315E+02 0.10937643786E+02 0.88442446047E+01 0.77590814100E+01 0.69779968111E+01
 0.64023252606E+01 0.60192841039E+01 0.57881353349E+01 0.56679031956E+01 0.56314746143E+01
 0.56679031956E+01 0.57881353349E+01 0.60192841039E+01 0.64023252606E+01 0.69779968111E+01
 0.77590814100E+01 0.88442446047E+01 0.10937643786E+02 0.14957428315E+02 0.21554068790E+02
 0.30946837034E+02 0.42798372681E+02 0.56240427131E+02 0.70013652915E+02 0.82690093454E+02
 0.92892941521E+02 0.99501839543E+02 0.12779734137E+03 0.12486422109E+03 0.11641123791E+03
 0.10342131314E+03 0.87372496838E+02 0.70013652915E+02 0.53107329672E+02 0.38156672658E+02
 0.26188297689E+02 0.17616073924E+02 0.12237445370E+02 0.93508714624E+01 0.79666913484E+01
 0.71147755120E+01 0.64730364525E+01 0.60471366125E+01 0.57849047007E+01 0.56519987643E+01
 0.56089719558E+01 0.56519987643E+01 0.57849047007E+01 0.60471366125E+01 0.64730364525E+01
 0.71147755120E+01 0.79666913484E+01 0.93508714624E+01 0.12237445370E+02 0.17616073924E+02
 0.26188297689E+02 0.38156672658E+02 0.53107329672E+02 0.70013652915E+02 0.87372496838E+02
 0.10342131314E+03 0.11641123791E+03 0.12486422109E+03 0.15220996061E+03 0.14864149167E+03
 0.13838491886E+03 0.12269467599E+03 0.10342131314E+03 0.82690093454E+02 0.62579542013E+02
 0.44805572477E+02 0.30516956047E+02 0.20163435877E+02 0.13534495078E+02 0.98792679431E+01
 0.81490644909E+01 0.72197662714E+01 0.65310779955E+01 0.60681329260E+01 0.57812223873E+01
 0.56360417647E+01 0.55884795817E+01 0.56360417647E+01 0.57812223873E+01 0.60681329260E+01
 0.65310779955E+01 0.72197662714E+01 0.81490644909E+01 0.98792679431E+01 0.13534495078E+02
 0.20163435877E+02 0.30516956047E+02 0.44805572477E+02 0.62579542013E+02 0.82690093454E+02
 0.10342131314E+03 0.12269467599E+03 0.13838491886E+03 0.14864149167E+03 0.17226053317E+03
 0.16814997975E+03 0.15635774178E+03 0.13838491886E+03 0.11641123791E+03 0.92892941521E+02
 0.70173359263E+02 0.50138914140E+02 0.34010628446E+02 0.22252747381E+02 0.14629516954E+02
 0.10344835062E+02 0.83012483353E+01 0.72916072858E+01 0.65741909935E+01 0.60819537257E+01
 0.57780820670E+01 0.56219588139E+01 0.55722714132E+01 0.56219588139E+01 0.57780820670E+01
 0.60819537257E+01 0.65741909935E+01 0.72916072858E+01 0.83012483353E+01 0.10344835062E+02
 0.14629516954E+02 0.22252747381E+02 0.34010628446E+02 0.50138914140E+02 0.70173359263E+02
 0.92892941521E+02 0.11641123791E+03 0.13838491886E+03 0.15635774178E+03 0.16814997975E+03
 0.18545786704E+03 0.18098008224E+03 0.16814997975E+03 0.14864149167E+03 0.12486422109E+03
 0.99501839543E+02 0.75073773652E+02 0.53573729107E+02 0.36267558268E+02 0.23615265828E+02
 0.15355961183E+02 0.10663455786E+02 0.84047356865E+01 0.73336804827E+01 0.66000465661E+01
 0.60899133872E+01 0.57758279553E+01 0.56126655751E+01 0.55618027226E+01 0.56126655751E+01
 0.57758279553E+01 0.60899133872E+01 0.66000465661E+01 0.73336804827E+01 0.84047356865E+01
 0.10663455786E+02 0.15355961183E+02 0.23615265828E+02 0.36267558268E+02 0.53573729107E+02
 0.75073773652E+02 0.99501839543E+02 0.12486422109E+03 0.14864149167E+03 0.16814997975E+03
 0.18098008224E+03 0.18545786704E+03 0.18098008224E+03 0.16814997975E+03 0.14864149167E+03
 0.12486422109E+03 0.99501839543E+02 0.75073773652E+02 0.53573729107E+02 0.36267558268E+02
 0.23615265828E+02 0.15355961183E+02 0.10663455786E+02 0.84047356865E+01 0.73336804827E+01
 0.66000465661E+01 0.60899133872E+01 0.57758279553E+01 0.56126655751E+01 0.55618027226E+01
 0.56126655751E+01 0.57758279553E+01 0.60899133872E+01 0.66000465661E+01 0.73336804827E+01
 0.84047356865E+01 0.10663455786E+02 0.15355961183E+02 0.23615265828E+02 0.36267558268E+02
 0.53573729107E+02 0.75073773652E+02 0.99501839543E+02 0.12486422109E+03 0.14864149167E+03
 0.16814997975E+03 0.18098008224E+03 0.18098008224E+03 0.17662753375E+03 0.16415163773E+03
 0.14516665413E+03 0.12200402075E+03 0.97268751454E+02 0.73419592627E+02 0.52413229285E+02
 0.35505212541E+02 0.23154151011E+02 0.15108972300E+02 0.10554943275E+02 0.83696012442E+01
 0.73204499149E+01 0.65919493280E+01 0.60878523853E+01 0.57770026250E+01 0.56163129263E+01
 0.55657163998E+01 0.56163129263E+01 0.57770026250E+01 0.60878523853E+01 0.65919493280E+01
 0.73204499149E+01 0.83696012442E+01 0.10554943275E+02 0.15108972300E+02 0.23154151011E+02
 0.35505212541E+02 0.52413229285E+02 0.73419592627E+02 0.97268751454E+02 0.12200402075E+03
 0.14516665413E+03 0.16415163773E+03 0.17662753375E+03 0.16814997975E+03 0.16415163773E+03
 0.15267712121E+03 0.13517567480E+03 0.11375830185E+03 0.90812040630E+02 0.68625135100E+02
 0.49050066092E+02 0.33296314593E+02 0.21823497958E+02 0.14403423851E+02 0.10248710487E+02
 0.82716709342E+01 0.72798328418E+01 0.65675984216E+01 0.60812103052E+01 0.57805694989E+01
 0.56267123324E+01 0.55773466097E+01 0.56267123324E+01 0.57805694989E+01 0.60812103052E+01
 0.65675984216E+01 0.72798328418E+01 0.82716709342E+01 0.10248710487E+02 0.14403423851E+02
 0.21823497958E+02 0.33296314593E+02 0.49050066092E+02 0.68625135100E+02 0.90812040630E+02
 0.11375830185E+03 0.13517567480E+03 0.15267712121E+03 0.16415163773E+03 0.14864149167E+03
 0.14516665413E+03 0.13517567480E+03 0.11988223280E+03 0.10108128240E+03 0.80841766902E+02
 0.61195729607E+02 0.43830713484E+02 0.29879972442E+02 0.19785681787E+02 0.13341692705E+02
 0.98021279144E+01 0.81268626569E+01 0.72100289491E+01 0.65270716201E+01 0.60692569781E+01
 0.57855249332E+01 0.56421310628E+01 0.55950724526E+01 0.56421310628E+01 0.57855249332E+01
 0.60692569781E+01 0.65270716201E+01 0.72100289491E+01 0.81268626569E+01 0.98021279144E+01
 0.13341692705E+02 0.19785681787E+02 0.29879972442E+02 0.43830713484E+02 0.61195729607E+02
 0.80841766902E+02 0.10108128240E+03 0.11988223280E+03 0.13517567480E+03 0.14516665413E+03
 0.12486422109E+03 0.12200402075E+03 0.11375830185E+03 0.10108128240E+03 0.85409793560E+02
 0.68451251751E+02 0.51931405897E+02 0.37329474395E+02 0.25652366890E+02 0.17306229748E+02
 0.12087071873E+02 0.92963729298E+01 0.79517345785E+01 0.71074301181E+01 0.64721231367E+01
 0.60505585181E+01 0.57915878225E+01 0.56599166572E+01 0.56176232493E+01 0.56599166572E+01
 0.57915878225E+01 0.60505585181E+01 0.64721231367E+01 0.71074301181E+01 0.79517345785E+01
 0.92963729298E+01 0.12087071873E+02 0.17306229748E+02 0.25652366890E+02 0.37329474395E+02
 0.51931405897E+02 0.68451251751E+02 0.85409793560E+02 0.10108128240E+03 0.11375830185E+03
 0.12200402075E+03 0.99501839543E+02 0.97268751454E+02 0.90812040630E+02 0.80841766902E+02
 0.68451251751E+02 0.54988432052E+02 0.41855151462E+02 0.30287957885E+02 0.21134821983E+02
 0.14725386074E+02 0.10833572566E+02 0.88117120730E+01 0.77492299800E+01 0.69740390410E+01
 0.64047261672E+01 0.60253808340E+01 0.57969619372E+01 0.56776985673E+01 0.56418782474E+01
 0.56776985673E+01 0.57969619372E+01 0.60253808340E+01 0.64047261672E+01 0.69740390410E+01
 0.77492299800E+01 0.88117120730E+01 0.10833572566E+02 0.14725386074E+02 0.21134821983E+02
 0.30287957885E+02 0.41855151462E+02 0.54988432052E+02 0.68451251751E+02 0.80841766902E+02
 0.90812040630E+02 0.97268751454E+02 0.75073773652E+02 0.73419592627E+02 0.68625135100E+02
 0.61195729607E+02 0.51931405897E+02 0.41855151462E+02 0.32058263815E+02 0.23516957497E+02
 0.16886784715E+02 0.12386322776E+02 0.97572939999E+01 0.83856593011E+01 0.75111928969E+01
 0.68195489595E+01 0.63264683976E+01 0.59960200041E+01 0.57995134163E+01 0.56945687768E+01
 0.56644331912E+01 0.56945687768E+01 0.57995134163E+01 0.59960200041E+01 0.63264683976E+01
 0.68195489595E+01 0.75111928969E+01 0.83856593011E+01 0.97572939999E+01 0.12386322776E+02
 0.16886784715E+02 0.23516957497E+02 0.32058263815E+02 0.41855151462E+02 0.51931405897E+02
 0.61195729607E+02 0.68625135100E+02 0.73419592627E+02 0.53573729107E+02 0.52413229285E+02
 0.49050066092E+02 0.43830713484E+02 0.37329474395E+02 0.30287957885E+02 0.23516957497E+02
 0.17727115187E+02 0.13378456711E+02 0.10545308122E+02 0.89430925718E+01 0.79922578630E+01
 0.72403609598E+01 0.66575711917E+01 0.62404338031E+01 0.59652849597E+01 0.57968574816E+01
 0.57093684730E+01 0.56815085629E+01 0.57093684730E+01 0.57968574816E+01 0.59652849597E+01
 0.62404338031E+01 0.66575711917E+01 0.72403609598E+01 0.79922578630E+01 0.89430925718E+01
 0.10545308122E+02 0.13378456711E+02 0.17727115187E+02 0.23516957497E+02 0.30287957885E+02
 0.37329474395E+02 0.43830713484E+02 0.49050066092E+02 0.52413229285E+02 0.36267558268E+02
 0.35505212541E+02 0.33296314593E+02 0.29879972442E+02 0.25652366890E+02 0.21134821983E+02
 0.16886784715E+02 0.13378456711E+02 0.10856332433E+02 0.92846230660E+01 0.83315639882E+01
 0.75863409333E+01 0.69655998807E+01 0.64934851976E+01 0.61556971779E+01 0.59311828791E+01
 0.57920577811E+01 0.57182484806E+01 0.56948086307E+01 0.57182484806E+01 0.57920577811E+01
 0.59311828791E+01 0.61556971779E+01 0.64934851976E+01 0.69655998807E+01 0.75863409333E+01
 0.83315639882E+01 0.92846230660E+01 0.10856332433E+02 0.13378456711E+02 0.16886784715E+02
 0.21134821983E+02 0.25652366890E+02 0.29879972442E+02 0.33296314593E+02 0.35505212541E+02
 0.23615265828E+02 0.23154151011E+02 0.21823497958E+02 0.19785681787E+02 0.17306229748E+02
 0.14725386074E+02 0.12386322776E+02 0.10545308122E+02 0.92846230660E+01 0.84553560848E+01