Automatically generated mesh
      20
Reciprocal lattice
    0.00000000000000    0.00000000000000    0.00000000000000             1
    0.16666666666666    0.00000000000000    0.00000000000000             6
    0.33333333333334    0.00000000000000    0.00000000000000             6
    0.50000000000000   -0.00000000000000    0.00000000000000             3
    0.16666666666666    0.16666666666666    0.00000000000000            12
    0.33333333333334    0.16666666666666    0.00000000000000            24
    0.50000000000000    0.16666666666666    0.00000000000000            12
    0.33333333333334    0.33333333333334    0.00000000000000            12
    0.50000000000000    0.33333333333334    0.00000000000000            12
    0.50000000000000    0.50000000000000    0.00000000000000             3
    0.16666666666666    0.16666666666666    0.16666666666666             8
    0.33333333333334    0.16666666666666    0.16666666666666            24
    0.50000000000000    0.16666666666666    0.16666666666666            12
    0.33333333333334    0.33333333333334    0.16666666666666            24
    0.50000000000000    0.33333333333334    0.16666666666666            24
    0.50000000000000    0.50000000000000    0.16666666666666             6
    0.33333333333334    0.33333333333334    0.33333333333334             8
    0.50000000000000    0.33333333333334    0.33333333333334            12
    0.50000000000000    0.50000000000000    0.33333333333334             6
    0.50000000000000    0.50000000000000    0.50000000000000             1
