 vasp.6.2.0 18Jan21 (build Aug 12 2022 13:00:08) complex                        
  
 executed on             LinuxIFC date 2024.11.04  05:25:06
 running on    4 total cores
 distrk:  each k-point on    4 cores,    1 groups
 distr:  one band on NCORE=   1 cores,    4 groups


--------------------------------------------------------------------------------------------------------


 INCAR:
   ISTART = 0            (Read existing wavefunction, if there)
   ISPIN = 2            (Non-Spin polarised DFT)
   MAGMOM = 5 5          (Set this parameters manually)
   GGA_COMPAT = .FALSE.   (Apply spherical cutoff on gradient field)
   VOSKOWN = 1        (Enhances the magnetic moments and the magnetic energies)
   LMAXMIX = 4        (For d elements increase LMAXMIX to 4, f: LMAXMIX \= 6)
   LREAL = .FALSE.       (Projection operators: automatic)
   ENCUT = 350          (Cut-off energy for plane wave basis set, in eV)
   LORBIT = 11           (Write orbital decomposed charge densities and magnetic moments)
   ADDGRID = .TRUE.        (Increase grid, helps GGA convergence)
   LASPH = .TRUE.        (Give more accurate total energies and band structure calculations)
   PREC = Accurate      (Accurate strictly avoids any aliasing or wrap around errors)
   KSPACING = 0.39
   ISMEAR = 1            (Gaussian smearing, metals:1)
   SIGMA = 0.2          (Smearing value in eV, metals:0.2)
   NELM = 90           (Max electronic SCF steps)
   NELMIN = 6            (Min electronic SCF steps)
   EDIFF = 1E-06        (SCF energy convergence, in eV)
   NSW = 100          (Max ionic steps)
   IBRION = 2            (Algorithm: 0-MD, 1-Quasi-New, 2-CG)
   ISIF = 3            (Stress/relaxation: 2-Ions, 3-Shape/Ions/V, 4-Shape/Ions)
   EDIFFG = -2E-03        (Ionic convergence, eV/AA)
   ISYM = 2              (Symmetry: 0\=none, 2\=GGA, 3\=hybrids)

 POTCAR:    PAW_PBE Fe 06Sep2000                  
 POTCAR:    PAW_PBE Fe 06Sep2000                  
   VRHFIN =Fe:  d7 s1                                                                               
   LEXCH  = PE                                                                                      
   EATOM  =   594.3153 eV,   43.6809 Ry                                                             
                                                                                                    
   TITEL  = PAW_PBE Fe 06Sep2000                                                                    
   LULTRA =        F    use ultrasoft PP ?                                                          
   IUNSCR =        1    unscreen: 0-lin 1-nonlin 2-no                                               
   RPACOR =    2.000    partial core radius                                                         
   POMASS =   55.847; ZVAL   =    8.000    mass and valenz                                          
   RCORE  =    2.300    outmost cutoff radius                                                       
   RWIGS  =    2.460; RWIGS  =    1.302    wigner-seitz radius (au A)                               
   ENMAX  =  267.882; ENMIN  =  200.911 eV                                                          
   RCLOC  =    1.701    cutoff for local pot                                                        
   LCOR   =        T    correct aug charges                                                         
   LPAW   =        T    paw PP                                                                      
   EAUG   =  511.368                                                                                
   DEXC   =    0.000                                                                                
   RMAX   =    2.356    core radius for proj-oper                                                   
   RAUG   =    1.300    factor for augmentation sphere                                              
   RDEP   =    2.442    radius for radial grids                                                     
   RDEPT  =    1.890    core radius for aug-charge                                                  
                                                                                                    
   Atomic configuration                                                                             
    9 entries                                                                                       
     n  l   j            E        occ.                                                              
     1  0  0.50     -6993.8440   2.0000                                                             
     2  0  0.50      -814.6047   2.0000                                                             
     2  1  1.50      -693.3689   6.0000                                                             
     3  0  0.50       -89.4732   2.0000                                                             
     3  1  1.50       -55.6373   6.0000                                                             
     3  2  2.50        -3.8151   7.0000                                                             
     4  0  0.50        -4.2551   1.0000                                                             
     4  1  1.50        -3.4015   0.0000                                                             
     4  3  2.50        -1.3606   0.0000                                                             
   Description                                                                                      
     l       E           TYP  RCUT    TYP  RCUT                                                     
     2     -3.8151135     23  2.300                                                                 
     2     -5.1756961     23  2.300                                                                 
     0     -4.2550963     23  2.300                                                                 
     0      7.2035603     23  2.300                                                                 
     1     -2.7211652     23  2.300                                                                 
     1     18.4316424     23  2.300                                                                 
  local pseudopotential read in
  partial core-charges read in
  partial kinetic energy density read in
  atomic valenz-charges read in
  non local Contribution for L=           2  read in
    real space projection operators read in
  non local Contribution for L=           2  read in
    real space projection operators read in
  non local Contribution for L=           0  read in
    real space projection operators read in
  non local Contribution for L=           0  read in
    real space projection operators read in
  non local Contribution for L=           1  read in
    real space projection operators read in
  non local Contribution for L=           1  read in
    real space projection operators read in
    PAW grid and wavefunctions read in
 
   number of l-projection  operators is LMAX  =           6
   number of lm-projection operators is LMMAX =          18
 
  PAW_PBE Fe 06Sep2000                  :
 energy of atom  1       EATOM= -594.3153
 kinetic energy error for atom=    0.0205 (will be added to EATOM!!)
 
 
 POSCAR: Fe2
  positions in direct lattice
  No initial velocities read in
 exchange correlation table for  LEXCH =        8
   RHO(1)=    0.500       N(1)  =     2000
   RHO(2)=  100.500       N(2)  =     4000
 


--------------------------------------------------------------------------------------------------------


 ion  position               nearest neighbor table
   1  0.000  0.000  0.000-   2 2.48   2 2.48   2 2.48   2 2.48   2 2.48   2 2.48   2 2.48   2 2.48

   2  0.500  0.500  0.500-   1 2.48   1 2.48   1 2.48   1 2.48   1 2.48   1 2.48   1 2.48   1 2.48

 
  LATTYP: Found a simple cubic cell.
 ALAT       =     2.8630354989
  
  Lattice vectors:
  
 A1 = (   2.8630354989,   0.0000000000,   0.0000000000)
 A2 = (   0.0000000000,   2.8630354989,   0.0000000000)
 A3 = (   0.0000000000,   0.0000000000,   2.8630354989)


Analysis of symmetry for initial positions (statically):
=====================================================================
 Subroutine PRICEL returns following result:
 
  LATTYP: Found a body centered cubic cell.
 ALAT       =     2.8630354989
  
  Lattice vectors:
  
 A1 = (   1.4315177495,   1.4315177495,  -1.4315177495)
 A2 = (  -1.4315177495,   1.4315177495,   1.4315177495)
 A3 = (   1.4315177495,  -1.4315177495,   1.4315177495)
 
   2 primitive cells build up your supercell.
 

 Routine SETGRP: Setting up the symmetry group for a 
 simple cubic supercell.


 Subroutine GETGRP returns: Found 48 space group operations
 (whereof 48 operations were pure point group operations)
 out of a pool of 48 trial point group operations.


The static configuration has the point symmetry O_h .


Analysis of symmetry for dynamics (positions and initial velocities):
=====================================================================
 Subroutine PRICEL returns following result:
 
  LATTYP: Found a body centered cubic cell.
 ALAT       =     2.8630354989
  
  Lattice vectors:
  
 A1 = (   1.4315177495,   1.4315177495,  -1.4315177495)
 A2 = (  -1.4315177495,   1.4315177495,   1.4315177495)
 A3 = (   1.4315177495,  -1.4315177495,   1.4315177495)
 
   2 primitive cells build up your supercell.
 

 Routine SETGRP: Setting up the symmetry group for a 
 simple cubic supercell.


 Subroutine GETGRP returns: Found 48 space group operations
 (whereof 48 operations were pure point group operations)
 out of a pool of 48 trial point group operations.


The dynamic configuration has the point symmetry O_h .


Analysis of structural, dynamic, and magnetic symmetry:
=====================================================================
 Subroutine PRICEL returns following result:
 
  LATTYP: Found a body centered cubic cell.
 ALAT       =     2.8630354989
  
  Lattice vectors:
  
 A1 = (   1.4315177495,   1.4315177495,  -1.4315177495)
 A2 = (  -1.4315177495,   1.4315177495,   1.4315177495)
 A3 = (   1.4315177495,  -1.4315177495,   1.4315177495)
 
   2 primitive cells build up your supercell.
 

 Routine SETGRP: Setting up the symmetry group for a 
 simple cubic supercell.


 Subroutine GETGRP returns: Found 48 space group operations
 (whereof 48 operations were pure point group operations)
 out of a pool of 48 trial point group operations.


The overall configuration has the point symmetry O_h .


 Subroutine INISYM returns: Found 48 space group operations
 (whereof 48 operations are pure point group operations),
 and found     2 'primitive' translations


----------------------------------------------------------------------------------------

                                     Primitive cell                                     

  volume of cell :      11.7341

  direct lattice vectors                    reciprocal lattice vectors
     1.431517749  1.431517749 -1.431517749     0.349279637  0.349279637  0.000000000
    -1.431517749  1.431517749  1.431517749     0.000000000  0.349279637  0.349279637
     1.431517749 -1.431517749  1.431517749     0.349279637 -0.000000000  0.349279637

  length of vectors
     2.479461474  2.479461474  2.479461474     0.493956000  0.493956000  0.493956000

  position of ions in fractional coordinates (direct lattice)
     0.000000000  0.000000000  0.000000000

  ion indices of the primitive-cell ions
   primitive index   ion index
                 1           1

----------------------------------------------------------------------------------------

 
 -----------------------------------------------------------------------------
|                                                                             |
|           W    W    AA    RRRRR   N    N  II  N    N   GGGG   !!!           |
|           W    W   A  A   R    R  NN   N  II  NN   N  G    G  !!!           |
|           W    W  A    A  R    R  N N  N  II  N N  N  G       !!!           |
|           W WW W  AAAAAA  RRRRR   N  N N  II  N  N N  G  GGG   !            |
|           WW  WW  A    A  R   R   N   NN  II  N   NN  G    G                |
|           W    W  A    A  R    R  N    N  II  N    N   GGGG   !!!           |
|                                                                             |
|     The requested file  could not be found or opened for reading            |
|     k-point information. Automatic k-point generation is used as a          |
|     fallback, which may lead to unwanted results.                           |
|                                                                             |
 -----------------------------------------------------------------------------

 

Automatic generation of k-mesh.
 Grid dimensions derived from KSPACING:
 generate k-points for:    6    6    6

 Generating k-lattice:

  Cartesian coordinates                     Fractional coordinates (reciprocal lattice)
     0.058213273 -0.000000000  0.000000000     0.166666667  0.000000000  0.000000000
     0.000000000  0.058213273  0.000000000     0.000000000  0.166666667  0.000000000
    -0.000000000 -0.000000000  0.058213273     0.000000000  0.000000000  0.166666667

  Length of vectors
     0.058213273  0.058213273  0.058213273

  Shift w.r.t. Gamma in fractional coordinates (k-lattice)
     0.000000000  0.000000000  0.000000000

 
 Subroutine IBZKPT returns following result:
 ===========================================
 
 Found     20 irreducible k-points:
 
 Following reciprocal coordinates:
            Coordinates               Weight
  0.000000  0.000000  0.000000      1.000000
  0.166667  0.000000  0.000000      6.000000
  0.333333  0.000000  0.000000      6.000000
  0.500000 -0.000000  0.000000      3.000000
  0.166667  0.166667  0.000000     12.000000
  0.333333  0.166667  0.000000     24.000000
  0.500000  0.166667  0.000000     12.000000
  0.333333  0.333333  0.000000     12.000000
  0.500000  0.333333  0.000000     12.000000
  0.500000  0.500000  0.000000      3.000000
  0.166667  0.166667  0.166667      8.000000
  0.333333  0.166667  0.166667     24.000000
  0.500000  0.166667  0.166667     12.000000
  0.333333  0.333333  0.166667     24.000000
  0.500000  0.333333  0.166667     24.000000
  0.500000  0.500000  0.166667      6.000000
  0.333333  0.333333  0.333333      8.000000
  0.500000  0.333333  0.333333     12.000000
  0.500000  0.500000  0.333333      6.000000
  0.500000  0.500000  0.500000      1.000000
 
 Following cartesian coordinates:
            Coordinates               Weight
  0.000000  0.000000  0.000000      1.000000
  0.058213 -0.000000  0.000000      6.000000
  0.116427 -0.000000  0.000000      6.000000
  0.174640 -0.000000  0.000000      3.000000
  0.058213  0.058213  0.000000     12.000000
  0.116427  0.058213  0.000000     24.000000
  0.174640  0.058213  0.000000     12.000000
  0.116427  0.116427  0.000000     12.000000
  0.174640  0.116427  0.000000     12.000000
  0.174640  0.174640  0.000000      3.000000
  0.058213  0.058213  0.058213      8.000000
  0.116427  0.058213  0.058213     24.000000
  0.174640  0.058213  0.058213     12.000000
  0.116427  0.116427  0.058213     24.000000
  0.174640  0.116427  0.058213     24.000000
  0.174640  0.174640  0.058213      6.000000
  0.116427  0.116427  0.116427      8.000000
  0.174640  0.116427  0.116427     12.000000
  0.174640  0.174640  0.116427      6.000000
  0.174640  0.174640  0.174640      1.000000
 


--------------------------------------------------------------------------------------------------------




 Dimension of arrays:
   k-points           NKPTS =     20   k-points in BZ     NKDIM =     20   number of bands    NBANDS=     20
   number of dos      NEDOS =    301   number of ions     NIONS =      2
   non local maximal  LDIM  =      6   non local SUM 2l+1 LMDIM =     18
   total plane-waves  NPLWV =   5832
   max r-space proj   IRMAX =      1   max aug-charges    IRDMAX=  71010
   dimension x,y,z NGX =    18 NGY =   18 NGZ =   18
   dimension x,y,z NGXF=    36 NGYF=   36 NGZF=   36
   support grid    NGXF=    72 NGYF=   72 NGZF=   72
   ions per type =               2
   NGX,Y,Z   is equivalent  to a cutoff of  10.45, 10.45, 10.45 a.u.
   NGXF,Y,Z  is equivalent  to a cutoff of  20.90, 20.90, 20.90 a.u.

 SYSTEM =  unknown system                          
 POSCAR =  Fe2                                     

 Startparameter for this run:
   NWRITE =      2    write-flag & timer
   PREC   = accura    normal or accurate (medium, high low for compatibility)
   ISTART =      0    job   : 0-new  1-cont  2-samecut
   ICHARG =      2    charge: 1-file 2-atom 10-const
   ISPIN  =      2    spin polarized calculation?
   LNONCOLLINEAR =      F non collinear calculations
   LSORBIT =      F    spin-orbit coupling
   INIWAV =      1    electr: 0-lowe 1-rand  2-diag
   LASPH  =      T    aspherical Exc in radial PAW
   METAGGA=      F    non-selfconsistent MetaGGA calc.

 Electronic Relaxation 1
   ENCUT  =  350.0 eV  25.72 Ry    5.07 a.u.   4.37  4.37  4.37*2*pi/ulx,y,z
   ENINI  =  350.0     initial cutoff
   ENAUG  =  511.4 eV  augmentation charge cutoff
   NELM   =     90;   NELMIN=  6; NELMDL= -5     # of ELM steps 
   EDIFF  = 0.1E-05   stopping-criterion for ELM
   LREAL  =      F    real-space projection
   NLSPLINE    = F    spline interpolate recip. space projectors
   LCOMPAT=      F    compatible to vasp.4.4
   GGA_COMPAT  = F    GGA compatible to vasp.4.4-vasp.4.6
   LMAXPAW     = -100 max onsite density
   LMAXMIX     =    4 max onsite mixed and CHGCAR
   VOSKOWN=      1    Vosko Wilk Nusair interpolation
   ROPT   =    0.00000
 Ionic relaxation
   EDIFFG = -.2E-02   stopping-criterion for IOM
   NSW    =    100    number of steps for IOM
   NBLOCK =      1;   KBLOCK =    100    inner block; outer block 
   IBRION =      2    ionic relax: 0-MD 1-quasi-New 2-CG
   NFREE  =      1    steps in history (QN), initial steepest desc. (CG)
   ISIF   =      3    stress and relaxation
   IWAVPR =     11    prediction:  0-non 1-charg 2-wave 3-comb
   ISYM   =      2    0-nonsym 1-usesym 2-fastsym
   LCORR  =      T    Harris-Foulkes like correction to forces

   POTIM  = 0.5000    time-step for ionic-motion
   TEIN   =    0.0    initial temperature
   TEBEG  =    0.0;   TEEND  =   0.0 temperature during run
   SMASS  =  -3.00    Nose mass-parameter (am)
   estimated Nose-frequenzy (Omega)   =  0.10E-29 period in steps = 0.13E+47 mass=  -0.187E-27a.u.
   SCALEE = 1.0000    scale energy and forces
   NPACO  =    256;   APACO  = 16.0  distance and # of slots for P.C.
   PSTRESS=    0.0 pullay stress

  Mass of Ions in am
   POMASS =  55.85
  Ionic Valenz
   ZVAL   =   8.00
  Atomic Wigner-Seitz radii
   RWIGS  =  -1.00
  virtual crystal weights 
   VCA    =   1.00
   NELECT =      16.0000    total number of electrons
   NUPDOWN=      -1.0000    fix difference up-down

 DOS related values:
   EMIN   =  10.00;   EMAX   =-10.00  energy-range for DOS
   EFERMI =   0.00
   ISMEAR =     1;   SIGMA  =   0.20  broadening in eV -4-tet -1-fermi 0-gaus

 Electronic relaxation 2 (details)
   IALGO  =     38    algorithm
   LDIAG  =      T    sub-space diagonalisation (order eigenvalues)
   LSUBROT=      F    optimize rotation matrix (better conditioning)
   TURBO    =      0    0=normal 1=particle mesh
   IRESTART =      0    0=no restart 2=restart with 2 vectors
   NREBOOT  =      0    no. of reboots
   NMIN     =      0    reboot dimension
   EREF     =   0.00    reference energy to select bands
   IMIX   =      4    mixing-type and parameters
     AMIX     =   0.40;   BMIX     =  1.00
     AMIX_MAG =   1.60;   BMIX_MAG =  1.00
     AMIN     =   0.10
     WC   =   100.;   INIMIX=   1;  MIXPRE=   1;  MAXMIX= -45

 Intra band minimization:
   WEIMIN = 0.0010     energy-eigenvalue tresh-hold
   EBREAK =  0.12E-07  absolut break condition
   DEPER  =   0.30     relativ break condition  

   TIME   =   0.40     timestep for ELM

  volume/ion in A,a.u.               =      11.73        79.19
  Fermi-wavevector in a.u.,A,eV,Ry     =   1.440859  2.722828 28.246703  2.076074
  Thomas-Fermi vector in A             =   2.559556
 
 Write flags
   LWAVE        =      T    write WAVECAR
   LDOWNSAMPLE  =      F    k-point downsampling of WAVECAR
   LCHARG       =      T    write CHGCAR
   LVTOT        =      F    write LOCPOT, total local potential
   LVHAR        =      F    write LOCPOT, Hartree potential only
   LELF         =      F    write electronic localiz. function (ELF)
   LORBIT       =     11    0 simple, 1 ext, 2 COOP (PROOUT), +10 PAW based schemes


 Dipole corrections
   LMONO  =      F    monopole corrections only (constant potential shift)
   LDIPOL =      F    correct potential (dipole corrections)
   IDIPOL =      0    1-x, 2-y, 3-z, 4-all directions 
   EPSILON=  1.0000000 bulk dielectric constant

 Exchange correlation treatment:
   GGA     =    --    GGA type
   LEXCH   =     8    internal setting for exchange type
   VOSKOWN=      1    Vosko Wilk Nusair interpolation
   LHFCALC =     F    Hartree Fock is set to
   LHFONE  =     F    Hartree Fock one center treatment
   AEXX    =    0.0000 exact exchange contribution

 Linear response parameters
   LEPSILON=     F    determine dielectric tensor
   LRPA    =     F    only Hartree local field effects (RPA)
   LNABLA  =     F    use nabla operator in PAW spheres
   LVEL    =     F    velocity operator in full k-point grid
   LINTERFAST=   F  fast interpolation
   KINTER  =     0    interpolate to denser k-point grid
   CSHIFT  =0.1000    complex shift for real part using Kramers Kronig
   OMEGAMAX=  -1.0    maximum frequency
   DEG_THRESHOLD= 0.2000000E-02 threshold for treating states as degnerate
   RTIME   =   -0.100 relaxation time in fs
  (WPLASMAI=    0.000 imaginary part of plasma frequency in eV, 0.658/RTIME)
   DFIELD  = 0.0000000 0.0000000 0.0000000 field for delta impulse in time
 
 Orbital magnetization related:
   ORBITALMAG=     F  switch on orbital magnetization
   LCHIMAG   =     F  perturbation theory with respect to B field
   DQ        =  0.001000  dq finite difference perturbation B field
   LLRAUG    =     F  two centre corrections for induced B field



--------------------------------------------------------------------------------------------------------


 conjugate gradient relaxation of ions
 charge density and potential will be updated during run
 spin polarized calculation
 Variant of blocked Davidson
 Davidson routine will perform the subspace rotation
 perform sub-space diagonalisation
    after iterative eigenvector-optimisation
 modified Broyden-mixing scheme, WC =      100.0
 initial mixing is a Kerker type mixing with AMIX =  0.4000 and BMIX =      1.0000
 Hartree-type preconditioning will be used
 using additional bands           12
 reciprocal scheme for non local part
 use partial core corrections
 calculate Harris-corrections to forces 
   (improved forces if not selfconsistent)
 use gradient corrections 
 use of overlap-Matrix (Vanderbilt PP)
 Methfessel and Paxton  Order N= 1 SIGMA  =   0.20


--------------------------------------------------------------------------------------------------------


  energy-cutoff  :      350.00
  volume of cell :       23.47
      direct lattice vectors                 reciprocal lattice vectors
     2.863035499  0.000000000  0.000000000     0.349279637 -0.000000000  0.000000000
     0.000000000  2.863035499  0.000000000     0.000000000  0.349279637  0.000000000
     0.000000000  0.000000000  2.863035499    -0.000000000 -0.000000000  0.349279637

  length of vectors
     2.863035499  2.863035499  2.863035499     0.349279637  0.349279637  0.349279637


 
 k-points in units of 2pi/SCALE and weight: read from INCAR                         
   0.00000000  0.00000000  0.00000000       0.005
   0.05821327 -0.00000000  0.00000000       0.028
   0.11642655 -0.00000000  0.00000000       0.028
   0.17463982 -0.00000000  0.00000000       0.014
   0.05821327  0.05821327  0.00000000       0.056
   0.11642655  0.05821327  0.00000000       0.111
   0.17463982  0.05821327  0.00000000       0.056
   0.11642655  0.11642655  0.00000000       0.056
   0.17463982  0.11642655  0.00000000       0.056
   0.17463982  0.17463982  0.00000000       0.014
   0.05821327  0.05821327  0.05821327       0.037
   0.11642655  0.05821327  0.05821327       0.111
   0.17463982  0.05821327  0.05821327       0.056
   0.11642655  0.11642655  0.05821327       0.111
   0.17463982  0.11642655  0.05821327       0.111
   0.17463982  0.17463982  0.05821327       0.028
   0.11642655  0.11642655  0.11642655       0.037
   0.17463982  0.11642655  0.11642655       0.056
   0.17463982  0.17463982  0.11642655       0.028
   0.17463982  0.17463982  0.17463982       0.005
 
 k-points in reciprocal lattice and weights: read from INCAR                         
   0.00000000  0.00000000  0.00000000       0.005
   0.16666667  0.00000000  0.00000000       0.028
   0.33333333  0.00000000  0.00000000       0.028
   0.50000000 -0.00000000  0.00000000       0.014
   0.16666667  0.16666667  0.00000000       0.056
   0.33333333  0.16666667  0.00000000       0.111
   0.50000000  0.16666667  0.00000000       0.056
   0.33333333  0.33333333  0.00000000       0.056
   0.50000000  0.33333333  0.00000000       0.056
   0.50000000  0.50000000  0.00000000       0.014
   0.16666667  0.16666667  0.16666667       0.037
   0.33333333  0.16666667  0.16666667       0.111
   0.50000000  0.16666667  0.16666667       0.056
   0.33333333  0.33333333  0.16666667       0.111
   0.50000000  0.33333333  0.16666667       0.111
   0.50000000  0.50000000  0.16666667       0.028
   0.33333333  0.33333333  0.33333333       0.037
   0.50000000  0.33333333  0.33333333       0.056
   0.50000000  0.50000000  0.33333333       0.028
   0.50000000  0.50000000  0.50000000       0.005
 
 position of ions in fractional coordinates (direct lattice) 
   0.00000000  0.00000000  0.00000000
   0.50000000  0.50000000  0.50000000
 
 position of ions in cartesian coordinates  (Angst):
   0.00000000  0.00000000  0.00000000
   1.43151775  1.43151775  1.43151775
 


--------------------------------------------------------------------------------------------------------


 k-point   1 :   0.0000 0.0000 0.0000  plane waves:     365
 k-point   2 :   0.1667 0.0000 0.0000  plane waves:     353
 k-point   3 :   0.3333 0.0000 0.0000  plane waves:     353
 k-point   4 :   0.5000-0.0000 0.0000  plane waves:     336
 k-point   5 :   0.1667 0.1667 0.0000  plane waves:     360
 k-point   6 :   0.3333 0.1667 0.0000  plane waves:     345
 k-point   7 :   0.5000 0.1667 0.0000  plane waves:     350
 k-point   8 :   0.3333 0.3333 0.0000  plane waves:     348
 k-point   9 :   0.5000 0.3333 0.0000  plane waves:     358
 k-point  10 :   0.5000 0.5000 0.0000  plane waves:     356
 k-point  11 :   0.1667 0.1667 0.1667  plane waves:     350
 k-point  12 :   0.3333 0.1667 0.1667  plane waves:     350
 k-point  13 :   0.5000 0.1667 0.1667  plane waves:     354
 k-point  14 :   0.3333 0.3333 0.1667  plane waves:     348
 k-point  15 :   0.5000 0.3333 0.1667  plane waves:     350
 k-point  16 :   0.5000 0.5000 0.1667  plane waves:     340
 k-point  17 :   0.3333 0.3333 0.3333  plane waves:     347
 k-point  18 :   0.5000 0.3333 0.3333  plane waves:     338
 k-point  19 :   0.5000 0.5000 0.3333  plane waves:     340
 k-point  20 :   0.5000 0.5000 0.5000  plane waves:     360

 maximum and minimum number of plane-waves per node :       365      336

 maximum number of plane-waves:       365
 maximum index in each direction: 
   IXMAX=    4   IYMAX=    4   IZMAX=    4
   IXMIN=   -4   IYMIN=   -4   IZMIN=   -4


 serial   3D FFT for wavefunctions
 parallel 3D FFT for charge:
    minimum data exchange during FFTs selected (reduces bandwidth)


 total amount of memory used by VASP MPI-rank0    35553. kBytes
=======================================================================

   base      :      30000. kBytes
   nonl-proj :       1071. kBytes
   fftplans  :       1775. kBytes
   grid      :       1353. kBytes
   one-center:         62. kBytes
   wavefun   :       1292. kBytes
 
     INWAV:  cpu time    0.0000: real time    0.0007
 Broyden mixing: mesh for mixing (old mesh)
   NGX =  9   NGY =  9   NGZ =  9
  (NGX  = 36   NGY  = 36   NGZ  = 36)
  gives a total of    729 points

 initial charge density was supplied:
 charge density of overlapping atoms calculated
 number of electron      16.0000000 magnetization      10.0000000
 keeping initial charge density in first step


--------------------------------------------------------------------------------------------------------


 Maximum index for augmentation-charges        17277 (set IRDMAX)


--------------------------------------------------------------------------------------------------------


 First call to EWALD:  gamma=   0.619
 Maximum number of real-space cells 3x 3x 3
 Maximum number of reciprocal cells 3x 3x 3

    FEWALD:  cpu time    0.0030: real time    0.0035


--------------------------------------- Iteration      1(   1)  ---------------------------------------


    POTLOK:  cpu time    0.0350: real time    0.0385
    SETDIJ:  cpu time    1.5518: real time    1.5524
     EDDAV:  cpu time    0.6389: real time    0.6401
       DOS:  cpu time    0.0030: real time    0.0025
    --------------------------------------------
      LOOP:  cpu time    2.2287: real time    2.2338

 eigenvalue-minimisations  :  1784
 total energy-change (2. order) : 0.6403900E+02  (-0.6189987E+03)
 number of electron      16.0000000 magnetization      10.0000000
 augmentation part       16.0000000 magnetization      10.0000000

 Free energy of the ion-electron system (eV)
  ---------------------------------------------------
  alpha Z        PSCENC =       117.79976220
  Ewald energy   TEWEN  =     -1171.43779597
  -Hartree energ DENC   =      -228.04061711
  -exchange      EXHF   =         0.00000000
  -V(xc)+E(xc)   XCENC  =        14.27160946
  PAW double counting   =      1103.49540010    -1119.11610375
  entropy T*S    EENTRO =        -0.00724093
  eigenvalues    EBANDS =       158.48433041
  atomic energy  EATOM  =      1188.58965621
  Solvation  Ediel_sol  =         0.00000000
  ---------------------------------------------------
  free energy    TOTEN  =        64.03900063 eV

  energy without entropy =       64.04624155  energy(sigma->0) =       64.04141427


--------------------------------------------------------------------------------------------------------




--------------------------------------- Iteration      1(   2)  ---------------------------------------


     EDDAV:  cpu time    0.5939: real time    0.6115
       DOS:  cpu time    0.0030: real time    0.0024
    --------------------------------------------
      LOOP:  cpu time    0.5969: real time    0.6139

 eigenvalue-minimisations  :  1624
 total energy-change (2. order) :-0.7762970E+02  (-0.6967955E+02)
 number of electron      16.0000000 magnetization      10.0000000
 augmentation part       16.0000000 magnetization      10.0000000

 Free energy of the ion-electron system (eV)
  ---------------------------------------------------
  alpha Z        PSCENC =       117.79976220
  Ewald energy   TEWEN  =     -1171.43779597
  -Hartree energ DENC   =      -228.04061711
  -exchange      EXHF   =         0.00000000
  -V(xc)+E(xc)   XCENC  =        14.27160946
  PAW double counting   =      1103.49540010    -1119.11610375
  entropy T*S    EENTRO =        -0.00493647
  eigenvalues    EBANDS =        80.85232304
  atomic energy  EATOM  =      1188.58965621
  Solvation  Ediel_sol  =         0.00000000
  ---------------------------------------------------
  free energy    TOTEN  =       -13.59070229 eV

  energy without entropy =      -13.58576582  energy(sigma->0) =      -13.58905680


--------------------------------------------------------------------------------------------------------




--------------------------------------- Iteration      1(   3)  ---------------------------------------


     EDDAV:  cpu time    0.6419: real time    0.6498
       DOS:  cpu time    0.0020: real time    0.0023
    --------------------------------------------
      LOOP:  cpu time    0.6439: real time    0.6521

 eigenvalue-minimisations  :  1808
 total energy-change (2. order) :-0.2492314E+01  (-0.2460956E+01)
 number of electron      16.0000000 magnetization      10.0000000
 augmentation part       16.0000000 magnetization      10.0000000

 Free energy of the ion-electron system (eV)
  ---------------------------------------------------
  alpha Z        PSCENC =       117.79976220
  Ewald energy   TEWEN  =     -1171.43779597
  -Hartree energ DENC   =      -228.04061711
  -exchange      EXHF   =         0.00000000
  -V(xc)+E(xc)   XCENC  =        14.27160946
  PAW double counting   =      1103.49540010    -1119.11610375
  entropy T*S    EENTRO =        -0.00560071
  eigenvalues    EBANDS =        78.36067335
  atomic energy  EATOM  =      1188.58965621
  Solvation  Ediel_sol  =         0.00000000
  ---------------------------------------------------
  free energy    TOTEN  =       -16.08301622 eV

  energy without entropy =      -16.07741551  energy(sigma->0) =      -16.08114931


--------------------------------------------------------------------------------------------------------




--------------------------------------- Iteration      1(   4)  ---------------------------------------


     EDDAV:  cpu time    0.6309: real time    0.6468
       DOS:  cpu time    0.0010: real time    0.0024
    --------------------------------------------
      LOOP:  cpu time    0.6329: real time    0.6492

 eigenvalue-minimisations  :  1764
 total energy-change (2. order) :-0.1807928E-01  (-0.1807624E-01)
 number of electron      16.0000000 magnetization      10.0000000
 augmentation part       16.0000000 magnetization      10.0000000

 Free energy of the ion-electron system (eV)
  ---------------------------------------------------
  alpha Z        PSCENC =       117.79976220
  Ewald energy   TEWEN  =     -1171.43779597
  -Hartree energ DENC   =      -228.04061711
  -exchange      EXHF   =         0.00000000
  -V(xc)+E(xc)   XCENC  =        14.27160946
  PAW double counting   =      1103.49540010    -1119.11610375
  entropy T*S    EENTRO =        -0.00560953
  eigenvalues    EBANDS =        78.34260289
  atomic energy  EATOM  =      1188.58965621
  Solvation  Ediel_sol  =         0.00000000
  ---------------------------------------------------
  free energy    TOTEN  =       -16.10109550 eV

  energy without entropy =      -16.09548597  energy(sigma->0) =      -16.09922565


--------------------------------------------------------------------------------------------------------




--------------------------------------- Iteration      1(   5)  ---------------------------------------


     EDDAV:  cpu time    0.6399: real time    0.6476
       DOS:  cpu time    0.0020: real time    0.0023
    CHARGE:  cpu time    0.0740: real time    0.0737
    MIXING:  cpu time    0.0000: real time    0.0011
    --------------------------------------------
      LOOP:  cpu time    0.7159: real time    0.7247

 eigenvalue-minimisations  :  1796
 total energy-change (2. order) :-0.2251107E-03  (-0.2251002E-03)
 number of electron      16.0000001 magnetization       4.5255713
 augmentation part        7.3978729 magnetization       2.8065742

 Broyden mixing:
  rms(total) = 0.19309E+01    rms(broyden)= 0.19308E+01
  rms(prec ) = 0.34891E+01
  weight for this iteration     100.00

 Free energy of the ion-electron system (eV)
  ---------------------------------------------------
  alpha Z        PSCENC =       117.79976220
  Ewald energy   TEWEN  =     -1171.43779597
  -Hartree energ DENC   =      -228.04061711
  -exchange      EXHF   =         0.00000000
  -V(xc)+E(xc)   XCENC  =        14.27160946
  PAW double counting   =      1103.49540010    -1119.11610375
  entropy T*S    EENTRO =        -0.00560954
  eigenvalues    EBANDS =        78.34237779
  atomic energy  EATOM  =      1188.58965621
  Solvation  Ediel_sol  =         0.00000000
  ---------------------------------------------------
  free energy    TOTEN  =       -16.10132061 eV

  energy without entropy =      -16.09571107  energy(sigma->0) =      -16.09945076


--------------------------------------------------------------------------------------------------------




--------------------------------------- Iteration      1(   6)  ---------------------------------------


    POTLOK:  cpu time    0.0350: real time    0.0516
    SETDIJ:  cpu time    1.5468: real time    1.5463
     EDDAV:  cpu time    0.6269: real time    0.6285
       DOS:  cpu time    0.0020: real time    0.0023
    CHARGE:  cpu time    0.0700: real time    0.0693
    MIXING:  cpu time    0.0010: real time    0.0012
    --------------------------------------------
      LOOP:  cpu time    2.2807: real time    2.2992

 eigenvalue-minimisations  :  1764
 total energy-change (2. order) :-0.4620087E+00  (-0.5027047E+00)
 number of electron      16.0000001 magnetization       4.5663728
 augmentation part        8.4763562 magnetization       3.7826972

 Broyden mixing:
  rms(total) = 0.57344E+00    rms(broyden)= 0.57265E+00
  rms(prec ) = 0.63969E+00
  weight for this iteration     100.00

 eigenvalues of (default mixing * dielectric matrix)
  average eigenvalue GAMMA=   0.9189
  0.9189

 Free energy of the ion-electron system (eV)
  ---------------------------------------------------
  alpha Z        PSCENC =       117.79976220
  Ewald energy   TEWEN  =     -1171.43779597
  -Hartree energ DENC   =      -197.34946885
  -exchange      EXHF   =         0.00000000
  -V(xc)+E(xc)   XCENC  =         8.36713274
  PAW double counting   =      1216.72845729    -1229.06777269
  entropy T*S    EENTRO =         0.00092953
  eigenvalues    EBANDS =        49.80577026
  atomic energy  EATOM  =      1188.58965621
  Solvation  Ediel_sol  =         0.00000000
  ---------------------------------------------------
  free energy    TOTEN  =       -16.56332927 eV

  energy without entropy =      -16.56425881  energy(sigma->0) =      -16.56363912


--------------------------------------------------------------------------------------------------------




--------------------------------------- Iteration      1(   7)  ---------------------------------------


    POTLOK:  cpu time    0.0350: real time    0.0522
    SETDIJ:  cpu time    1.5448: real time    1.5444
     EDDAV:  cpu time    0.6629: real time    0.6646
       DOS:  cpu time    0.0030: real time    0.0023
    CHARGE:  cpu time    0.0670: real time    0.0688
    MIXING:  cpu time    0.0020: real time    0.0012
    --------------------------------------------
      LOOP:  cpu time    2.3146: real time    2.3336

 eigenvalue-minimisations  :  1896
 total energy-change (2. order) : 0.5679875E-01  (-0.3330601E-01)
 number of electron      16.0000001 magnetization       4.4529895
 augmentation part        8.2776769 magnetization       3.7149594

 Broyden mixing:
  rms(total) = 0.41903E+00    rms(broyden)= 0.41891E+00
  rms(prec ) = 0.48394E+00
  weight for this iteration     100.00

 eigenvalues of (default mixing * dielectric matrix)
  average eigenvalue GAMMA=   0.7789
  1.0496  0.5081

 Free energy of the ion-electron system (eV)
  ---------------------------------------------------
  alpha Z        PSCENC =       117.79976220
  Ewald energy   TEWEN  =     -1171.43779597
  -Hartree energ DENC   =      -199.54541654
  -exchange      EXHF   =         0.00000000
  -V(xc)+E(xc)   XCENC  =         8.87286477
  PAW double counting   =      1294.44437138    -1309.78853776
  entropy T*S    EENTRO =        -0.00246573
  eigenvalues    EBANDS =        54.56103091
  atomic energy  EATOM  =      1188.58965621
  Solvation  Ediel_sol  =         0.00000000
  ---------------------------------------------------
  free energy    TOTEN  =       -16.50653052 eV

  energy without entropy =      -16.50406479  energy(sigma->0) =      -16.50570861


--------------------------------------------------------------------------------------------------------




--------------------------------------- Iteration      1(   8)  ---------------------------------------


    POTLOK:  cpu time    0.0370: real time    0.0523
    SETDIJ:  cpu time    1.5408: real time    1.5417
     EDDAV:  cpu time    0.6839: real time    0.6840
       DOS:  cpu time    0.0010: real time    0.0024
    CHARGE:  cpu time    0.0680: real time    0.0683
    MIXING:  cpu time    0.0010: real time    0.0011
    --------------------------------------------
      LOOP:  cpu time    2.3326: real time    2.3498

 eigenvalue-minimisations  :  1964
 total energy-change (2. order) : 0.1326672E-01  (-0.9124007E-03)
 number of electron      16.0000001 magnetization       4.3681331
 augmentation part        8.2908302 magnetization       3.6334403

 Broyden mixing:
  rms(total) = 0.15712E+00    rms(broyden)= 0.15708E+00
  rms(prec ) = 0.22468E+00
  weight for this iteration     100.00

 eigenvalues of (default mixing * dielectric matrix)
  average eigenvalue GAMMA=   1.1029
  1.8439  0.8754  0.5896

 Free energy of the ion-electron system (eV)
  ---------------------------------------------------
  alpha Z        PSCENC =       117.79976220
  Ewald energy   TEWEN  =     -1171.43779597
  -Hartree energ DENC   =      -198.07340015
  -exchange      EXHF   =         0.00000000
  -V(xc)+E(xc)   XCENC  =         8.65533557
  PAW double counting   =      1332.41070890    -1348.57648834
  entropy T*S    EENTRO =        -0.00277771
  eigenvalues    EBANDS =        54.14173548
  atomic energy  EATOM  =      1188.58965621
  Solvation  Ediel_sol  =         0.00000000
  ---------------------------------------------------
  free energy    TOTEN  =       -16.49326380 eV

  energy without entropy =      -16.49048609  energy(sigma->0) =      -16.49233790


--------------------------------------------------------------------------------------------------------




--------------------------------------- Iteration      1(   9)  ---------------------------------------


    POTLOK:  cpu time    0.0360: real time    0.0522
    SETDIJ:  cpu time    1.5418: real time    1.5419
     EDDAV:  cpu time    0.7919: real time    0.7930
       DOS:  cpu time    0.0020: real time    0.0024
    CHARGE:  cpu time    0.0670: real time    0.0683
    MIXING:  cpu time    0.0010: real time    0.0012
    --------------------------------------------
      LOOP:  cpu time    2.4396: real time    2.4591

 eigenvalue-minimisations  :  2340
 total energy-change (2. order) : 0.1001488E-01  (-0.2744472E-03)
 number of electron      16.0000001 magnetization       4.3734306
 augmentation part        8.3192452 magnetization       3.6462088

 Broyden mixing:
  rms(total) = 0.32270E-01    rms(broyden)= 0.32169E-01
  rms(prec ) = 0.39620E-01
  weight for this iteration     100.00

 eigenvalues of (default mixing * dielectric matrix)
  average eigenvalue GAMMA=   1.1711
  2.2247  1.0362  0.7788  0.6445

 Free energy of the ion-electron system (eV)
  ---------------------------------------------------
  alpha Z        PSCENC =       117.79976220
  Ewald energy   TEWEN  =     -1171.43779597
  -Hartree energ DENC   =      -195.80496676
  -exchange      EXHF   =         0.00000000
  -V(xc)+E(xc)   XCENC  =         8.49591068
  PAW double counting   =      1391.65681073    -1409.11575977
  entropy T*S    EENTRO =        -0.00247730
  eigenvalues    EBANDS =        53.33561106
  atomic energy  EATOM  =      1188.58965621
  Solvation  Ediel_sol  =         0.00000000
  ---------------------------------------------------
  free energy    TOTEN  =       -16.48324891 eV

  energy without entropy =      -16.48077162  energy(sigma->0) =      -16.48242315


--------------------------------------------------------------------------------------------------------




--------------------------------------- Iteration      1(  10)  ---------------------------------------


    POTLOK:  cpu time    0.0370: real time    0.0517
    SETDIJ:  cpu time    1.5458: real time    1.5465
     EDDAV:  cpu time    0.6489: real time    0.6502
       DOS:  cpu time    0.0020: real time    0.0024
    CHARGE:  cpu time    0.0690: real time    0.0688
    MIXING:  cpu time    0.0000: real time    0.0013
    --------------------------------------------
      LOOP:  cpu time    2.3026: real time    2.3208

 eigenvalue-minimisations  :  1820
 total energy-change (2. order) : 0.3329323E-03  (-0.8704539E-04)
 number of electron      16.0000001 magnetization       4.3888517
 augmentation part        8.3141377 magnetization       3.6589306

 Broyden mixing:
  rms(total) = 0.95131E-02    rms(broyden)= 0.95073E-02
  rms(prec ) = 0.12812E-01
  weight for this iteration     100.00

 eigenvalues of (default mixing * dielectric matrix)
  average eigenvalue GAMMA=   1.1406
  2.3079  1.1684  0.6319  0.7975  0.7975

 Free energy of the ion-electron system (eV)
  ---------------------------------------------------
  alpha Z        PSCENC =       117.79976220
  Ewald energy   TEWEN  =     -1171.43779597
  -Hartree energ DENC   =      -195.52454227
  -exchange      EXHF   =         0.00000000
  -V(xc)+E(xc)   XCENC  =         8.49576966
  PAW double counting   =      1407.45925758    -1425.31635718
  entropy T*S    EENTRO =        -0.00252505
  eigenvalues    EBANDS =        53.45385885
  atomic energy  EATOM  =      1188.58965621
  Solvation  Ediel_sol  =         0.00000000
  ---------------------------------------------------
  free energy    TOTEN  =       -16.48291598 eV

  energy without entropy =      -16.48039093  energy(sigma->0) =      -16.48207430


--------------------------------------------------------------------------------------------------------




--------------------------------------- Iteration      1(  11)  ---------------------------------------


    POTLOK:  cpu time    0.0370: real time    0.0520
    SETDIJ:  cpu time    1.5438: real time    1.5445
     EDDAV:  cpu time    0.6719: real time    0.6730
       DOS:  cpu time    0.0020: real time    0.0025
    CHARGE:  cpu time    0.0690: real time    0.0691
    MIXING:  cpu time    0.0020: real time    0.0013
    --------------------------------------------
      LOOP:  cpu time    2.3246: real time    2.3424

 eigenvalue-minimisations  :  1900
 total energy-change (2. order) :-0.4502520E-04  (-0.7795530E-05)
 number of electron      16.0000001 magnetization       4.3887530
 augmentation part        8.3158664 magnetization       3.6587648

 Broyden mixing:
  rms(total) = 0.54821E-02    rms(broyden)= 0.54821E-02
  rms(prec ) = 0.58903E-02
  weight for this iteration     100.00

 eigenvalues of (default mixing * dielectric matrix)
  average eigenvalue GAMMA=   1.1950
  2.3762  1.7379  1.0077  0.7139  0.7139  0.6208

 Free energy of the ion-electron system (eV)
  ---------------------------------------------------
  alpha Z        PSCENC =       117.79976220
  Ewald energy   TEWEN  =     -1171.43779597
  -Hartree energ DENC   =      -195.43977596
  -exchange      EXHF   =         0.00000000
  -V(xc)+E(xc)   XCENC  =         8.51147213
  PAW double counting   =      1410.59592822    -1428.51155350
  entropy T*S    EENTRO =        -0.00253148
  eigenvalues    EBANDS =        53.41187714
  atomic energy  EATOM  =      1188.58965621
  Solvation  Ediel_sol  =         0.00000000
  ---------------------------------------------------
  free energy    TOTEN  =       -16.48296101 eV

  energy without entropy =      -16.48042953  energy(sigma->0) =      -16.48211718


--------------------------------------------------------------------------------------------------------




--------------------------------------- Iteration      1(  12)  ---------------------------------------


    POTLOK:  cpu time    0.0360: real time    0.0520
    SETDIJ:  cpu time    1.5478: real time    1.5490
     EDDAV:  cpu time    0.6809: real time    0.6820
       DOS:  cpu time    0.0020: real time    0.0024
    CHARGE:  cpu time    0.0690: real time    0.0685
    MIXING:  cpu time    0.0010: real time    0.0013
    --------------------------------------------
      LOOP:  cpu time    2.3366: real time    2.3552

 eigenvalue-minimisations  :  1956
 total energy-change (2. order) : 0.1698422E-04  (-0.4955244E-06)
 number of electron      16.0000001 magnetization       4.3884390
 augmentation part        8.3158352 magnetization       3.6582483

 Broyden mixing:
  rms(total) = 0.14348E-02    rms(broyden)= 0.14331E-02
  rms(prec ) = 0.16179E-02
  weight for this iteration     100.00

 eigenvalues of (default mixing * dielectric matrix)
  average eigenvalue GAMMA=   1.2007
  2.4563  2.0703  1.0501  0.8174  0.7453  0.6326  0.6326

 Free energy of the ion-electron system (eV)
  ---------------------------------------------------
  alpha Z        PSCENC =       117.79976220
  Ewald energy   TEWEN  =     -1171.43779597
  -Hartree energ DENC   =      -195.44265413
  -exchange      EXHF   =         0.00000000
  -V(xc)+E(xc)   XCENC  =         8.51129860
  PAW double counting   =      1411.07880744    -1428.99083156
  entropy T*S    EENTRO =        -0.00255775
  eigenvalues    EBANDS =        53.41137094
  atomic energy  EATOM  =      1188.58965621
  Solvation  Ediel_sol  =         0.00000000
  ---------------------------------------------------
  free energy    TOTEN  =       -16.48294402 eV

  energy without entropy =      -16.48038627  energy(sigma->0) =      -16.48209144


--------------------------------------------------------------------------------------------------------




--------------------------------------- Iteration      1(  13)  ---------------------------------------


    POTLOK:  cpu time    0.0360: real time    0.0522
    SETDIJ:  cpu time    1.5478: real time    1.5487
     EDDAV:  cpu time    0.6059: real time    0.6067
       DOS:  cpu time    0.0020: real time    0.0024
    --------------------------------------------
      LOOP:  cpu time    2.1927: real time    2.2100

 eigenvalue-minimisations  :  1640
 total energy-change (2. order) :-0.7521862E-06  (-0.1597720E-06)
 number of electron      16.0000001 magnetization       4.3884390
 augmentation part        8.3158352 magnetization       3.6582483

 Free energy of the ion-electron system (eV)
  ---------------------------------------------------
  alpha Z        PSCENC =       117.79976220
  Ewald energy   TEWEN  =     -1171.43779597
  -Hartree energ DENC   =      -195.44515409
  -exchange      EXHF   =         0.00000000
  -V(xc)+E(xc)   XCENC  =         8.51220346
  PAW double counting   =      1411.23199290    -1429.13878860
  entropy T*S    EENTRO =        -0.00255742
  eigenvalues    EBANDS =        53.40773654
  atomic energy  EATOM  =      1188.58965621
  Solvation  Ediel_sol  =         0.00000000
  ---------------------------------------------------
  free energy    TOTEN  =       -16.48294478 eV

  energy without entropy =      -16.48038736  energy(sigma->0) =      -16.48209230


--------------------------------------------------------------------------------------------------------




 average (electrostatic) potential at core
  the test charge radii are     1.0103
  (the norm of the test charge is              1.0000)
       1 -43.5854       2 -43.5854
 
 
 
 E-fermi :   5.5581     XC(G=0): -12.9334     alpha+bet :-13.2097

 Fermi energy:         5.5580578730

 spin component 1

 k-point     1 :       0.0000    0.0000    0.0000
  band No.  band energies     occupation 
      1      -2.7218      1.00000
      2       0.8698      1.00000
      3       0.8698      1.00000
      4       3.2768      1.00000
      5       3.2768      1.00000
      6       3.2768      1.00000
      7       4.4408      1.00000
      8       4.4408      1.00000
      9       5.5807      0.40482
     10       5.5807      0.40482
     11       5.5807      0.40482
     12      15.2291      0.00000
     13      15.2291      0.00000
     14      15.2291      0.00000
     15      20.8525      0.00000
     16      20.8525      0.00000
     17      25.5568      0.00000
     18      30.2308      0.00000
     19      30.2308      0.00000
     20      30.2308      0.00000

 k-point     2 :       0.1667    0.0000    0.0000
  band No.  band energies     occupation 
      1      -2.1682      1.00000
      2       1.0926      1.00000
      3       1.1020      1.00000
      4       3.2796      1.00000
      5       3.2796      1.00000
      6       3.4253      1.00000
      7       4.2017      1.00000
      8       4.5343      1.00000
      9       5.1663      1.00911
     10       5.1663      1.00911
     11       5.4210      0.95457
     12      12.2888      0.00000
     13      16.2358      0.00000
     14      16.2358      0.00000
     15      21.0274      0.00000
     16      22.5372      0.00000
     17      27.6641      0.00000
     18      27.6913      0.00000
     19      29.3510      0.00000
     20      29.3510      0.00000

 k-point     3 :       0.3333    0.0000    0.0000
  band No.  band energies     occupation 
      1      -0.6694      1.00000
      2       1.4595      1.00000
      3       1.7446      1.00000
      4       3.3693      1.00000
      5       3.3693      1.00000
      6       3.5424      1.00000
      7       3.8355      1.00000
      8       4.3596      1.00000
      9       4.3596      1.00000
     10       4.8141      1.00000
     11       4.9880      1.00021
     12       8.3072     -0.00000
     13      18.7817      0.00000
     14      18.7817      0.00000
     15      21.6105      0.00000
     16      23.5588      0.00000
     17      24.7445      0.00000
     18      26.0231      0.00000
     19      26.0231      0.00000
     20      27.7883      0.00000

 k-point     4 :       0.5000   -0.0000    0.0000
  band No.  band energies     occupation 
      1       1.0047      1.00000
      2       1.0047      1.00000
      3       2.6388      1.00000
      4       2.6388      1.00000
      5       3.7045      1.00000
      6       3.7045      1.00000
      7       3.7045      1.00000
      8       3.7045      1.00000
      9       4.4061      1.00000
     10       4.4061      1.00000
     11       5.6843      0.06641
     12       5.6843      0.06641
     13      22.1987      0.00000
     14      22.1987      0.00000
     15      22.1987      0.00000
     16      22.1987      0.00000
     17      22.7725      0.00000
     18      22.7725      0.00000
     19      25.0197      0.00000
     20      25.0197      0.00000

 k-point     5 :       0.1667    0.1667    0.0000
  band No.  band energies     occupation 
      1      -1.6452      1.00000
      2       1.2604      1.00000
      3       1.3575      1.00000
      4       3.0062      1.00000
      5       3.2098      1.00000
      6       3.8385      1.00000
      7       4.2657      1.00000
      8       4.4677      1.00000
      9       4.5131      1.00000
     10       4.7797      1.00000
     11       5.6445      0.16945
     12      12.4552      0.00000
     13      13.7925      0.00000
     14      17.1020      0.00000
     15      21.8556      0.00000
     16      24.7019      0.00000
     17      24.8865      0.00000
     18      28.2525      0.00000
     19      28.9672      0.00000
     20      29.5448      0.00000

 k-point     6 :       0.3333    0.1667    0.0000
  band No.  band energies     occupation 
      1      -0.2818      1.00000
      2       1.5240      1.00000
      3       1.9649      1.00000
      4       2.8910      1.00000
      5       3.1043      1.00000
      6       3.6828      1.00000
      7       4.0476      1.00000
      8       4.1913      1.00000
      9       4.4092      1.00000
     10       4.7226      1.00000
     11       5.4800      0.80399
     12       8.8007     -0.00000
     13      15.3447      0.00000
     14      19.4154      0.00000
     15      21.1801      0.00000
     16      22.4853      0.00000
     17      25.8571      0.00000
     18      26.5049      0.00000
     19      26.8681      0.00000
     20      31.6205      0.00000

 k-point     7 :       0.5000    0.1667    0.0000
  band No.  band energies     occupation 
      1       1.1013      1.00000
      2       1.1013      1.00000
      3       2.6583      1.00000
      4       2.6583      1.00000
      5       3.1017      1.00000
      6       3.1017      1.00000
      7       4.0343      1.00000
      8       4.0343      1.00000
      9       5.0030      1.00031
     10       5.0030      1.00031
     11       5.8390     -0.03160
     12       5.8390     -0.03160
     13      17.9815      0.00000
     14      17.9815      0.00000
     15      22.6799      0.00000
     16      22.6799      0.00000
     17      23.7155      0.00000
     18      23.7155      0.00000
     19      28.9188      0.00000
     20      28.9188      0.00000

 k-point     8 :       0.3333    0.3333    0.0000
  band No.  band energies     occupation 
      1       0.4535      1.00000
      2       1.2838      1.00000
      3       2.4932      1.00000
      4       2.8052      1.00000
      5       2.9081      1.00000
      6       3.6106      1.00000
      7       4.1482      1.00000
      8       4.4269      1.00000
      9       4.5560      1.00000
     10       5.1053      1.00311
     11       5.7728     -0.03119
     12       8.6892     -0.00000
     13      12.7841      0.00000
     14      17.2430      0.00000
     15      21.2346      0.00000
     16      22.8710      0.00000
     17      24.9268      0.00000
     18      27.0572      0.00000
     19      28.7884      0.00000
     20      31.8739      0.00000

 k-point     9 :       0.5000    0.3333    0.0000
  band No.  band energies     occupation 
      1       0.9192      1.00000
      2       0.9192      1.00000
      3       2.4806      1.00000
      4       2.4806      1.00000
      5       3.6393      1.00000
      6       3.6393      1.00000
      7       4.3933      1.00000
      8       4.3933      1.00000
      9       5.6123      0.27970
     10       5.6123      0.27970
     11       6.1021     -0.00041
     12       6.1021     -0.00041
     13      14.2138      0.00000
     14      14.2138      0.00000
     15      23.6702      0.00000
     16      23.6702      0.00000
     17      24.0098      0.00000
     18      24.0098      0.00000
     19      30.5588      0.00000
     20      30.5588      0.00000

 k-point    10 :       0.5000    0.5000    0.0000
  band No.  band energies     occupation 
      1       0.7725      1.00000
      2       0.7725      1.00000
      3       2.2491      1.00000
      4       2.2491      1.00000
      5       4.4991      1.00000
      6       4.4991      1.00000
      7       4.6185      1.00000
      8       4.6185      1.00000
      9       5.8376     -0.03186
     10       5.8376     -0.03186
     11       6.0550     -0.00124
     12       6.0550     -0.00124
     13      12.5894      0.00000
     14      12.5894      0.00000
     15      23.6147      0.00000
     16      23.6147      0.00000
     17      25.2330      0.00000
     18      25.2330      0.00000
     19      28.5406      0.00000
     20      28.5406      0.00000

 k-point    11 :       0.1667    0.1667    0.1667
  band No.  band energies     occupation 
      1      -1.1396      1.00000
      2       1.5163      1.00000
      3       1.5163      1.00000
      4       2.9213      1.00000
      5       2.9213      1.00000
      6       3.7418      1.00000
      7       4.2902      1.00000
      8       4.3805      1.00000
      9       4.3805      1.00000
     10       5.2358      1.02254
     11       5.2358      1.02254
     12      13.3171      0.00000
     13      13.3171      0.00000
     14      14.8986      0.00000
     15      24.7431      0.00000
     16      24.7431      0.00000
     17      25.0685      0.00000
     18      25.0685      0.00000
     19      27.8117      0.00000
     20      29.7659      0.00000

 k-point    12 :       0.3333    0.1667    0.1667
  band No.  band energies     occupation 
      1       0.1366      1.00000
      2       1.8540      1.00000
      3       1.9247      1.00000
      4       2.7140      1.00000
      5       2.8138      1.00000
      6       3.1047      1.00000
      7       4.1822      1.00000
      8       4.5319      1.00000
      9       4.6267      1.00000
     10       5.0606      1.00123
     11       5.2735      1.03092
     12       9.4650     -0.00000
     13      15.3667      0.00000
     14      16.2266      0.00000
     15      21.1001      0.00000
     16      22.0375      0.00000
     17      26.2191      0.00000
     18      27.0825      0.00000
     19      27.4672      0.00000
     20      30.7689      0.00000

 k-point    13 :       0.5000    0.1667    0.1667
  band No.  band energies     occupation 
      1       1.3428      1.00000
      2       1.3428      1.00000
      3       2.3874      1.00000
      4       2.3874      1.00000
      5       3.0643      1.00000
      6       3.0643      1.00000
      7       4.1370      1.00000
      8       4.1370      1.00000
      9       4.9358      1.00005
     10       4.9358      1.00005
     11       6.4881     -0.00000
     12       6.4881     -0.00000
     13      18.0036      0.00000
     14      18.0036      0.00000
     15      18.7135      0.00000
     16      18.7135      0.00000
     17      27.8559      0.00000
     18      27.8559      0.00000
     19      28.2129      0.00000
     20      28.2129      0.00000

 k-point    14 :       0.3333    0.3333    0.1667
  band No.  band energies     occupation 
      1       0.9107      1.00000
      2       1.6157      1.00000
      3       2.4149      1.00000
      4       2.5698      1.00000
      5       2.7356      1.00000
      6       2.9655      1.00000
      7       4.4331      1.00000
      8       4.4372      1.00000
      9       4.5621      1.00000
     10       5.2509      1.02603
     11       6.0256     -0.00232
     12       9.8144     -0.00000
     13      12.8870      0.00000
     14      17.2422      0.00000
     15      17.5592      0.00000
     16      22.0578      0.00000
     17      23.6191      0.00000
     18      26.6122      0.00000
     19      29.8669      0.00000
     20      32.1398      0.00000

 k-point    15 :       0.5000    0.3333    0.1667
  band No.  band energies     occupation 
      1       1.2803      1.00000
      2       1.2803      1.00000
      3       2.3585      1.00000
      4       2.3585      1.00000
      5       3.3568      1.00000
      6       3.3568      1.00000
      7       4.4364      1.00000
      8       4.4364      1.00000
      9       4.8940      1.00001
     10       4.8940      1.00001
     11       7.5378     -0.00000
     12       7.5378     -0.00000
     13      14.4666      0.00000
     14      14.4666      0.00000
     15      19.5011      0.00000
     16      19.5011      0.00000
     17      24.6956      0.00000
     18      24.6956      0.00000
     19      30.7928      0.00000
     20      30.7928      0.00000

 k-point    16 :       0.5000    0.5000    0.1667
  band No.  band energies     occupation 
      1       1.1342      1.00000
      2       1.1342      1.00000
      3       2.2065      1.00000
      4       2.2065      1.00000
      5       4.2219      1.00000
      6       4.2219      1.00000
      7       4.5440      1.00000
      8       4.5440      1.00000
      9       4.6269      1.00000
     10       4.6269      1.00000
     11       8.1759     -0.00000
     12       8.1759     -0.00000
     13      12.6889      0.00000
     14      12.6889      0.00000
     15      21.0390      0.00000
     16      21.0390      0.00000
     17      22.2198      0.00000
     18      22.2198      0.00000
     19      31.7522      0.00000
     20      31.7522      0.00000

 k-point    17 :       0.3333    0.3333    0.3333
  band No.  band energies     occupation 
      1       1.9448      1.00000
      2       1.9661      1.00000
      3       2.2899      1.00000
      4       2.2899      1.00000
      5       2.5200      1.00000
      6       2.5200      1.00000
      7       4.5622      1.00000
      8       4.5622      1.00000
      9       4.7237      1.00000
     10       4.7237      1.00000
     11       7.4751     -0.00000
     12      12.1275      0.00000
     13      12.1275      0.00000
     14      14.6480      0.00000
     15      18.3440      0.00000
     16      18.3440      0.00000
     17      19.6865      0.00000
     18      24.1757      0.00000
     19      33.4955      0.00000
     20      33.4955      0.00000

 k-point    18 :       0.5000    0.3333    0.3333
  band No.  band energies     occupation 
      1       1.8629      1.00000
      2       1.8629      1.00000
      3       2.3095      1.00000
      4       2.3095      1.00000
      5       2.8391      1.00000
      6       2.8391      1.00000
      7       4.5698      1.00000
      8       4.5699      1.00000
      9       4.6895      1.00000
     10       4.6895      1.00000
     11       9.4131     -0.00000
     12       9.4131     -0.00000
     13      15.0073      0.00000
     14      15.0073      0.00000
     15      16.0432      0.00000
     16      16.0432      0.00000
     17      21.0219      0.00000
     18      21.0219      0.00000
     19      35.3749      0.00000
     20      35.3749      0.00000

 k-point    19 :       0.5000    0.5000    0.3333
  band No.  band energies     occupation 
      1       1.9385      1.00000
      2       1.9385      1.00000
      3       2.1816      1.00000
      4       2.1816      1.00000
      5       3.0447      1.00000
      6       3.0447      1.00000
      7       4.6236      1.00000
      8       4.6236      1.00000
      9       4.6437      1.00000
     10       4.6437      1.00000
     11      10.8540     -0.00000
     12      10.8540     -0.00000
     13      13.1575      0.00000
     14      13.1575      0.00000
     15      17.3734      0.00000
     16      17.3734      0.00000
     17      18.1893      0.00000
     18      18.1893      0.00000
     19      37.3579      0.00000
     20      37.3579      0.00000

 k-point    20 :       0.5000    0.5000    0.5000
  band No.  band energies     occupation 
      1       2.3964      1.00000
      2       2.3964      1.00000
      3       2.3964      1.00000
      4       2.3964      1.00000
      5       2.3964      1.00000
      6       2.3964      1.00000
      7       4.6520      1.00000
      8       4.6520      1.00000
      9       4.6520      1.00000
     10       4.6520      1.00000
     11      13.9367      0.00000
     12      13.9367      0.00000
     13      13.9367      0.00000
     14      13.9367      0.00000
     15      13.9368      0.00000
     16      13.9368      0.00000
     17      15.9703      0.00000
     18      15.9703      0.00000
     19      43.9117      0.00000
     20      43.9134      0.00000
 Fermi energy:         5.5580578730

 spin component 2

 k-point     1 :       0.0000    0.0000    0.0000
  band No.  band energies     occupation 
      1      -2.6126      1.00000
      2       2.6757      1.00000
      3       2.6759      1.00000
      4       5.2268      1.02049
      5       5.2269      1.02052
      6       5.2270      1.02052
      7       7.1844     -0.00000
      8       7.1846     -0.00000
      9       7.8132     -0.00000
     10       7.8133     -0.00000
     11       7.8133     -0.00000
     12      15.4500      0.00000
     13      15.4500      0.00000
     14      15.4500      0.00000
     15      21.8373      0.00000
     16      21.8373      0.00000
     17      26.6330      0.00000
     18      29.9036      0.00000
     19      29.9036      0.00000
     20      29.9036      0.00000

 k-point     2 :       0.1667    0.0000    0.0000
  band No.  band energies     occupation 
      1      -2.0552      1.00000
      2       2.8331      1.00000
      3       2.9555      1.00000
      4       5.2093      1.01668
      5       5.2094      1.01670
      6       5.3920      0.99736
      7       6.8695     -0.00000
      8       7.2711     -0.00000
      9       7.2712     -0.00000
     10       7.3009     -0.00000
     11       7.6323     -0.00000
     12      12.9361      0.00000
     13      16.5890      0.00000
     14      16.5890      0.00000
     15      21.9601      0.00000
     16      23.2635      0.00000
     17      27.6068      0.00000
     18      28.6378      0.00000
     19      29.3538      0.00000
     20      29.3538      0.00000

 k-point     3 :       0.3333    0.0000    0.0000
  band No.  band energies     occupation 
      1      -0.5065      1.00000
      2       2.8137      1.00000
      3       3.7388      1.00000
      4       5.2609      1.02828
      5       5.2610      1.02831
      6       5.8491     -0.02960
      7       6.0087     -0.00324
      8       6.3055     -0.00000
      9       6.3056     -0.00000
     10       7.1427     -0.00000
     11       7.5744     -0.00000
     12       9.6495     -0.00000
     13      19.3043      0.00000
     14      19.3043      0.00000
     15      22.3888      0.00000
     16      24.1216      0.00000
     17      24.9829      0.00000
     18      26.5099      0.00000
     19      26.5099      0.00000
     20      28.1569      0.00000

 k-point     4 :       0.5000   -0.0000    0.0000
  band No.  band energies     occupation 
      1       1.5298      1.00000
      2       1.5298      1.00000
      3       4.8532      1.00000
      4       4.8532      1.00000
      5       5.5871      0.37852
      6       5.5871      0.37852
      7       5.5872      0.37799
      8       5.5872      0.37799
      9       6.4879     -0.00000
     10       6.4879     -0.00000
     11       8.0440     -0.00000
     12       8.0440     -0.00000
     13      22.7827      0.00000
     14      22.7827      0.00000
     15      22.7827      0.00000
     16      22.7827      0.00000
     17      23.3060      0.00000
     18      23.3060      0.00000
     19      25.4268      0.00000
     20      25.4268      0.00000

 k-point     5 :       0.1667    0.1667    0.0000
  band No.  band energies     occupation 
      1      -1.5217      1.00000
      2       3.0745      1.00000
      3       3.1131      1.00000
      4       4.8973      1.00002
      5       5.1100      1.00341
      6       5.8444     -0.03057
      7       6.5117     -0.00000
      8       6.7910     -0.00000
      9       6.9158     -0.00000
     10       7.2171     -0.00000
     11       7.8851     -0.00000
     12      13.1935      0.00000
     13      14.5482      0.00000
     14      17.5168      0.00000
     15      22.6249      0.00000
     16      25.1877      0.00000
     17      25.2034      0.00000
     18      28.2141      0.00000
     19      29.5462      0.00000
     20      29.9091      0.00000

 k-point     6 :       0.3333    0.1667    0.0000
  band No.  band energies     occupation 
      1      -0.0634      1.00000
      2       2.9872      1.00000
      3       3.7848      1.00000
      4       4.7378      1.00000
      5       4.9462      1.00007
      6       5.5658      0.46728
      7       6.2240     -0.00001
      8       6.4766     -0.00000
      9       6.4912     -0.00000
     10       7.4750     -0.00000
     11       7.6902     -0.00000
     12      10.0905     -0.00000
     13      16.1933      0.00000
     14      19.9345      0.00000
     15      21.7664      0.00000
     16      23.0749      0.00000
     17      26.0065      0.00000
     18      27.0142      0.00000
     19      27.2551      0.00000
     20      32.0106      0.00000

 k-point     7 :       0.5000    0.1667    0.0000
  band No.  band energies     occupation 
      1       1.7836      1.00000
      2       1.7836      1.00000
      3       4.5587      1.00000
      4       4.5587      1.00000
      5       4.9373      1.00005
      6       4.9373      1.00005
      7       6.1826     -0.00005
      8       6.1826     -0.00005
      9       7.1433     -0.00000
     10       7.1433     -0.00000
     11       8.0742     -0.00000
     12       8.0742     -0.00000
     13      18.7549      0.00000
     14      18.7549      0.00000
     15      23.2529      0.00000
     16      23.2529      0.00000
     17      24.0712      0.00000
     18      24.0712      0.00000
     19      29.2705      0.00000
     20      29.2705      0.00000

 k-point     8 :       0.3333    0.3333    0.0000
  band No.  band energies     occupation 
      1       1.0106      1.00000
      2       2.7402      1.00000
      3       4.2815      1.00000
      4       4.4295      1.00000
      5       4.7085      1.00000
      6       4.9076      1.00002
      7       6.4183     -0.00000
      8       6.9304     -0.00000
      9       7.2614     -0.00000
     10       7.3384     -0.00000
     11       8.0298     -0.00000
     12       9.8406     -0.00000
     13      14.0173      0.00000
     14      18.0703      0.00000
     15      21.7596      0.00000
     16      23.2379      0.00000
     17      24.9471      0.00000
     18      27.6990      0.00000
     19      29.1265      0.00000
     20      32.0101      0.00000

 k-point     9 :       0.5000    0.3333    0.0000
  band No.  band energies     occupation 
      1       2.0427      1.00000
      2       2.0427      1.00000
      3       4.2490      1.00000
      4       4.2490      1.00000
      5       5.0822      1.00195
      6       5.0822      1.00195
      7       6.8225     -0.00000
      8       6.8225     -0.00000
      9       7.8417     -0.00000
     10       7.8417     -0.00000
     11       7.9528     -0.00000
     12       7.9528     -0.00000
     13      15.3037      0.00000
     14      15.3037      0.00000
     15      23.7895      0.00000
     16      23.7895      0.00000
     17      24.5582      0.00000
     18      24.5582      0.00000
     19      30.9915      0.00000
     20      30.9915      0.00000

 k-point    10 :       0.5000    0.5000    0.0000
  band No.  band energies     occupation 
      1       2.0408      1.00000
      2       2.0408      1.00000
      3       3.9924      1.00000
      4       3.9924      1.00000
      5       6.0948     -0.00049
      6       6.0948     -0.00049
      7       7.0464     -0.00000
      8       7.0464     -0.00000
      9       7.4301     -0.00000
     10       7.4301     -0.00000
     11       8.1028     -0.00000
     12       8.1028     -0.00000
     13      13.9488      0.00000
     14      13.9488      0.00000
     15      23.5957      0.00000
     16      23.5957      0.00000
     17      25.7696      0.00000
     18      25.7696      0.00000
     19      28.9874      0.00000
     20      28.9874      0.00000

 k-point    11 :       0.1667    0.1667    0.1667
  band No.  band energies     occupation 
      1      -1.0045      1.00000
      2       3.2954      1.00000
      3       3.2955      1.00000
      4       4.7887      1.00000
      5       4.7888      1.00000
      6       5.5585      0.49813
      7       6.3092     -0.00000
      8       7.0770     -0.00000
      9       7.0772     -0.00000
     10       7.3899     -0.00000
     11       7.3900     -0.00000
     12      14.1502      0.00000
     13      14.1502      0.00000
     14      15.5867      0.00000
     15      25.0290      0.00000
     16      25.0290      0.00000
     17      25.5181      0.00000
     18      25.5181      0.00000
     19      28.6010      0.00000
     20      30.6782      0.00000

 k-point    12 :       0.3333    0.1667    0.1667
  band No.  band energies     occupation 
      1       0.3876      1.00000
      2       3.2729      1.00000
      3       3.7506      1.00000
      4       4.5434      1.00000
      5       4.5792      1.00000
      6       4.9023      1.00002
      7       6.6621     -0.00000
      8       6.7182     -0.00000
      9       7.0396     -0.00000
     10       7.4285     -0.00000
     11       7.4993     -0.00000
     12      10.7536     -0.00000
     13      16.2502      0.00000
     14      16.9350      0.00000
     15      21.6477      0.00000
     16      22.5558      0.00000
     17      26.5775      0.00000
     18      27.6184      0.00000
     19      27.8238      0.00000
     20      30.7774      0.00000

 k-point    13 :       0.5000    0.1667    0.1667
  band No.  band energies     occupation 
      1       2.0936      1.00000
      2       2.0936      1.00000
      3       4.2210      1.00000
      4       4.2210      1.00000
      5       4.7574      1.00000
      6       4.7574      1.00000
      7       6.4315     -0.00000
      8       6.4315     -0.00000
      9       7.3617     -0.00000
     10       7.3617     -0.00000
     11       8.4386     -0.00000
     12       8.4386     -0.00000
     13      18.7766      0.00000
     14      18.7766      0.00000
     15      19.3521      0.00000
     16      19.3521      0.00000
     17      28.2414      0.00000
     18      28.2414      0.00000
     19      28.4515      0.00000
     20      28.4515      0.00000

 k-point    14 :       0.3333    0.3333    0.1667
  band No.  band energies     occupation 
      1       1.4693      1.00000
      2       3.0898      1.00000
      3       4.1590      1.00000
      4       4.2986      1.00000
      5       4.3032      1.00000
      6       4.4359      1.00000
      7       6.7750     -0.00000
      8       7.0356     -0.00000
      9       7.3348     -0.00000
     10       7.5593     -0.00000
     11       7.9757     -0.00000
     12      10.9800     -0.00000
     13      14.0536      0.00000
     14      17.9170      0.00000
     15      18.3231      0.00000
     16      22.4077      0.00000
     17      24.2640      0.00000
     18      26.9238      0.00000
     19      30.2599      0.00000
     20      32.1220      0.00000

 k-point    15 :       0.5000    0.3333    0.1667
  band No.  band energies     occupation 
      1       2.4393      1.00000
      2       2.4393      1.00000
      3       4.0664      1.00000
      4       4.0664      1.00000
      5       4.6730      1.00000
      6       4.6730      1.00000
      7       6.9386     -0.00000
      8       6.9386     -0.00000
      9       7.4753     -0.00000
     10       7.4753     -0.00000
     11       9.1502     -0.00000
     12       9.1502     -0.00000
     13      15.4734      0.00000
     14      15.4734      0.00000
     15      20.0474      0.00000
     16      20.0474      0.00000
     17      25.1146      0.00000
     18      25.1146      0.00000
     19      30.9972      0.00000
     20      30.9972      0.00000

 k-point    16 :       0.5000    0.5000    0.1667
  band No.  band energies     occupation 
      1       2.4334      1.00000
      2       2.4334      1.00000
      3       3.8973      1.00000
      4       3.8973      1.00000
      5       5.2294      1.02109
      6       5.2294      1.02109
      7       7.1392     -0.00000
      8       7.1392     -0.00000
      9       7.4415     -0.00000
     10       7.4415     -0.00000
     11       9.4688     -0.00000
     12       9.4688     -0.00000
     13      13.9709      0.00000
     14      13.9709      0.00000
     15      21.3672      0.00000
     16      21.3672      0.00000
     17      22.8009      0.00000
     18      22.8009      0.00000
     19      31.8737      0.00000
     20      31.8737      0.00000

 k-point    17 :       0.3333    0.3333    0.3333
  band No.  band energies     occupation 
      1       2.5459      1.00000
      2       3.5092      1.00000
      3       3.9299      1.00000
      4       3.9300      1.00000
      5       4.0139      1.00000
      6       4.0140      1.00000
      7       7.2357     -0.00000
      8       7.2358     -0.00000
      9       7.2985     -0.00000
     10       7.2986     -0.00000
     11       9.2075     -0.00000
     12      13.1663      0.00000
     13      13.1663      0.00000
     14      15.5290      0.00000
     15      18.9658      0.00000
[...]

 k-point    14 :       0.3333    0.3333    0.1667
  band No.  band energies     occupation 
      1       1.7503      1.00000
      2       3.2987      1.00000
      3       4.3727      1.00000
      4       4.5343      1.00000
      5       4.5912      1.00000
      6       4.7023      1.00000
      7       7.1461     -0.00000
      8       7.4260     -0.00000
      9       7.7469     -0.00000
     10       7.9759     -0.00000
     11       8.4218     -0.00000
     12      11.6091      0.00000
     13      14.8536      0.00000
     14      18.8106      0.00000
     15      19.2172      0.00000
     16      23.3184      0.00000
     17      25.4121      0.00000
     18      27.9931      0.00000
     19      31.4293      0.00000
     20      33.2032      0.00000

 k-point    15 :       0.5000    0.3333    0.1667
  band No.  band energies     occupation 
      1       2.6627      1.00000
      2       2.6627      1.00000
      3       4.2816      1.00000
      4       4.2816      1.00000
      5       4.9924      1.00000
      6       4.9924      1.00000
      7       7.3214     -0.00000
      8       7.3214     -0.00000
      9       7.8946     -0.00000
     10       7.8946     -0.00000
     11       9.6804     -0.00000
     12       9.6804     -0.00000
     13      16.3103      0.00000
     14      16.3103      0.00000
     15      20.9695      0.00000
     16      20.9695      0.00000
     17      26.1930      0.00000
     18      26.1930      0.00000
     19      32.1167      0.00000
     20      32.1167      0.00000

 k-point    16 :       0.5000    0.5000    0.1667
  band No.  band energies     occupation 
      1       2.6214      1.00000
      2       2.6214      1.00000
      3       4.0979      1.00000
      4       4.0979      1.00000
      5       5.6045      1.00794
      6       5.6045      1.00794
      7       7.5370     -0.00000
      8       7.5370     -0.00000
      9       7.8613     -0.00000
     10       7.8613     -0.00000
     11      10.0082     -0.00000
     12      10.0082     -0.00000
     13      14.7806      0.00000
     14      14.7806      0.00000
     15      22.2441      0.00000
     16      22.2441      0.00000
     17      23.8904      0.00000
     18      23.8904      0.00000
     19      32.9898      0.00000
     20      32.9898      0.00000

 k-point    17 :       0.3333    0.3333    0.3333
  band No.  band energies     occupation 
      1       2.8535      1.00000
      2       3.7089      1.00000
      3       4.1441      1.00000
      4       4.1442      1.00000
      5       4.2759      1.00000
      6       4.2759      1.00000
      7       7.6361     -0.00000
      8       7.6363     -0.00000
      9       7.7075     -0.00000
     10       7.7076     -0.00000
     11       9.7357     -0.00000
     12      13.8754      0.00000
     13      13.8754      0.00000
     14      16.4175      0.00000
     15      19.8260      0.00000
     16      19.8260      0.00000
     17      21.4367      0.00000
     18      25.7352      0.00000
     19      34.7122      0.00000
     20      34.7122      0.00000

 k-point    18 :       0.5000    0.3333    0.3333
  band No.  band energies     occupation 
      1       3.4231      1.00000
      2       3.4231      1.00000
      3       4.0745      1.00000
      4       4.0745      1.00000
      5       4.4014      1.00000
      6       4.4014      1.00000
      7       7.6304     -0.00000
      8       7.6304     -0.00000
      9       7.8468     -0.00000
     10       7.8468     -0.00000
     11      11.3814     -0.00000
     12      11.3814     -0.00000
     13      16.6439      0.00000
     14      16.6439      0.00000
     15      17.6894      0.00000
     16      17.6894      0.00000
     17      22.5619      0.00000
     18      22.5619      0.00000
     19      36.4911      0.00000
     20      36.4911      0.00000

 k-point    19 :       0.5000    0.5000    0.3333
  band No.  band energies     occupation 
      1       3.5267      1.00000
      2       3.5267      1.00000
      3       3.9512      1.00000
      4       3.9512      1.00000
      5       4.5716      1.00000
      6       4.5716      1.00000
      7       7.7621     -0.00000
      8       7.7621     -0.00000
      9       7.8855     -0.00000
     10       7.8855     -0.00000
     11      12.5551      0.00000
     12      12.5551      0.00000
     13      15.0128      0.00000
     14      15.0128      0.00000
     15      18.8334      0.00000
     16      18.8334      0.00000
     17      19.8142      0.00000
     18      19.8142      0.00000
     19      38.4488      0.00000
     20      38.4488      0.00000

 k-point    20 :       0.5000    0.5000    0.5000
  band No.  band energies     occupation 
      1       4.0358      1.00000
      2       4.0358      1.00000
      3       4.0359      1.00000
      4       4.0359      1.00000
      5       4.0359      1.00000
      6       4.0359      1.00000
      7       7.8972     -0.00000
      8       7.8972     -0.00000
      9       7.8974     -0.00000
     10       7.8974     -0.00000
     11      15.5408      0.00000
     12      15.5408      0.00000
     13      15.5408      0.00000
     14      15.5408      0.00000
     15      15.5408      0.00000
     16      15.5408      0.00000
     17      17.6728      0.00000
     18      17.6728      0.00000
     19      44.9586      0.00000
     20      44.9586      0.00000


--------------------------------------------------------------------------------------------------------


 soft charge-density along one line, spin component           1
         0         1         2         3         4         5         6         7         8         9
 total charge-density along one line
 
 soft charge-density along one line, spin component           2
         0         1         2         3         4         5         6         7         8         9
 total charge-density along one line
 
 pseudopotential strength for first ion, spin component:           1
 -5.482   0.000  -0.000  -0.000  -0.000  -6.016   0.000  -0.000
  0.000  -5.482   0.000   0.000   0.000   0.000  -6.016   0.000
 -0.000   0.000  -5.699   0.000   0.000  -0.000   0.000  -6.226
 -0.000   0.000   0.000  -5.482  -0.000  -0.000   0.000   0.000
 -0.000   0.000   0.000  -0.000  -5.699  -0.000   0.000   0.000
 -6.016   0.000  -0.000  -0.000  -0.000  -6.508   0.000  -0.000
  0.000  -6.016   0.000   0.000   0.000   0.000  -6.508   0.000
 -0.000   0.000  -6.226   0.000   0.000  -0.000   0.000  -6.711
 -0.000   0.000   0.000  -6.016  -0.000  -0.000   0.000   0.000
 -0.000   0.000   0.000  -0.000  -6.226  -0.000   0.000   0.000
 -0.000   0.000   0.000  -0.000  -0.000  -0.000   0.000   0.000
 -0.000   0.000   0.000  -0.000  -0.000  -0.000   0.000   0.000
  0.000   0.000  -0.000   0.000  -0.000   0.000   0.000  -0.000
  0.000   0.000   0.000  -0.000   0.000   0.000   0.000   0.000
  0.000   0.000   0.000   0.000  -0.000   0.000   0.000   0.000
  0.000   0.000  -0.000   0.000  -0.000   0.000   0.000  -0.000
  0.000   0.000   0.000  -0.000   0.000   0.000   0.000   0.000
  0.000   0.000   0.000   0.000  -0.000   0.000   0.000   0.000
 pseudopotential strength for first ion, spin component:           2
 -4.105   0.000   0.000   0.000   0.000  -4.681   0.000   0.000
  0.000  -4.105  -0.000  -0.000  -0.000   0.000  -4.681  -0.000
  0.000  -0.000  -3.851  -0.000  -0.000   0.000  -0.000  -4.436
  0.000  -0.000  -0.000  -4.105   0.000   0.000  -0.000  -0.000
  0.000  -0.000  -0.000   0.000  -3.851   0.000  -0.000  -0.000
 -4.681   0.000   0.000   0.000   0.000  -5.214   0.000   0.000
  0.000  -4.681  -0.000  -0.000  -0.000   0.000  -5.214  -0.000
  0.000  -0.000  -4.436  -0.000  -0.000   0.000  -0.000  -4.978
  0.000  -0.000  -0.000  -4.681   0.000   0.000  -0.000  -0.000
  0.000  -0.000  -0.000   0.000  -4.436   0.000  -0.000  -0.000
  0.000  -0.000  -0.000  -0.000   0.000   0.000  -0.000  -0.000
  0.000  -0.000  -0.000  -0.000   0.000   0.000  -0.000  -0.000
  0.000   0.000  -0.000  -0.000  -0.000   0.000   0.000  -0.000
 -0.000   0.000   0.000  -0.000   0.000  -0.000   0.000   0.000
  0.000  -0.000   0.000   0.000  -0.000   0.000  -0.000   0.000
  0.000   0.000  -0.000  -0.000  -0.000   0.000   0.000  -0.000
 -0.000   0.000   0.000  -0.000   0.000  -0.000   0.000   0.000
  0.000  -0.000   0.000   0.000  -0.000   0.000  -0.000   0.000
 total augmentation occupancy for first ion, spin component:           1
  2.218   0.000  -0.000   0.000  -0.000  -1.238  -0.000   0.000  -0.000   0.000   0.000  -0.000   0.000   0.000   0.000   0.000
  0.000   2.218   0.000   0.000  -0.000  -0.000  -1.238  -0.000  -0.000   0.000   0.000  -0.000   0.000   0.000   0.000   0.000
 -0.000   0.000   3.585   0.000   0.000   0.000   0.000  -2.355   0.000  -0.000  -0.000   0.000   0.000   0.000   0.000   0.000
  0.000   0.000   0.000   2.218   0.000  -0.000  -0.000   0.000  -1.238  -0.000  -0.000   0.000   0.000   0.000   0.000   0.000
 -0.000  -0.000   0.000   0.000   3.585   0.000   0.000   0.000  -0.000  -2.355  -0.000   0.000  -0.000   0.000   0.000   0.000
 -1.238  -0.000   0.000  -0.000   0.000   1.663   0.000  -0.000   0.000  -0.000  -0.000   0.000   0.000   0.000   0.000   0.000
 -0.000  -1.238   0.000  -0.000   0.000   0.000   1.663   0.000   0.000  -0.000  -0.000   0.000   0.000   0.000  -0.000  -0.000
  0.000   0.000  -2.355  -0.000   0.000  -0.000   0.000   2.377   0.000   0.000   0.000   0.000   0.000   0.000   0.000  -0.000
 -0.000  -0.000   0.000  -1.238  -0.000   0.000   0.000   0.000   1.663   0.000  -0.000   0.000   0.000   0.000   0.000   0.000
  0.000   0.000   0.000  -0.000  -2.355  -0.000  -0.000   0.000   0.000   2.377   0.000   0.000   0.000  -0.000  -0.000   0.000
 -0.000  -0.000  -0.000  -0.000   0.000  -0.000  -0.000   0.000  -0.000  -0.000   2.451  -0.289   0.000   0.000  -0.000   0.000
  0.000   0.000   0.000  -0.000   0.000   0.000   0.000   0.000   0.000   0.000  -0.289   0.039  -0.000  -0.000  -0.000   0.000
  0.000   0.000   0.000   0.000   0.000   0.000   0.000   0.000   0.000   0.000   0.000  -0.000   0.298   0.000   0.000  -0.026
  0.000   0.000  -0.000   0.000   0.000   0.000   0.000   0.000   0.000  -0.000   0.000   0.000   0.000   0.298   0.000  -0.000
  0.000   0.000  -0.000   0.000  -0.000   0.000  -0.000   0.000   0.000   0.000  -0.000  -0.000   0.000   0.000   0.298  -0.000
  0.000   0.000   0.000   0.000  -0.000   0.000  -0.000   0.000   0.000   0.000   0.000   0.000  -0.026  -0.000  -0.000   0.003
  0.000   0.000   0.000   0.000   0.000   0.000   0.000  -0.000   0.000   0.000  -0.000  -0.000  -0.000  -0.026  -0.000   0.000
 -0.000   0.000  -0.000  -0.000   0.000   0.000   0.000   0.000   0.000   0.000   0.000  -0.000  -0.000  -0.000  -0.026   0.000
 total augmentation occupancy for first ion, spin component:           2
  1.795   0.000  -0.000   0.000  -0.000  -0.743  -0.000   0.000  -0.000   0.000   0.000  -0.000   0.000   0.000  -0.000   0.000
  0.000   1.795   0.000   0.000  -0.000  -0.000  -0.743  -0.000  -0.000   0.000   0.000   0.000   0.000   0.000   0.000  -0.000
 -0.000   0.000   2.997   0.000   0.000   0.000  -0.000  -1.314  -0.000   0.000   0.000  -0.000   0.000   0.000  -0.000   0.000
  0.000   0.000   0.000   1.795   0.000  -0.000  -0.000  -0.000  -0.743  -0.000   0.000   0.000   0.000   0.000   0.000   0.000
 -0.000  -0.000  -0.000   0.000   2.997   0.000   0.000  -0.000  -0.000  -1.314  -0.000   0.000   0.000   0.000   0.000   0.000
 -0.743  -0.000   0.000  -0.000   0.000   0.068   0.000  -0.000   0.000  -0.000  -0.000   0.000   0.000   0.000   0.000   0.000
 -0.000  -0.743  -0.000  -0.000   0.000   0.000   0.068  -0.000   0.000  -0.000   0.000   0.000   0.000   0.000  -0.000   0.000
  0.000  -0.000  -1.314  -0.000   0.000  -0.000  -0.000   0.334  -0.000   0.000  -0.000  -0.000   0.000   0.000  -0.000  -0.000
 -0.000  -0.000  -0.000  -0.743  -0.000   0.000   0.000  -0.000   0.068   0.000  -0.000  -0.000   0.000   0.000   0.000   0.000
  0.000   0.000   0.000  -0.000  -1.314  -0.000  -0.000   0.000   0.000   0.334   0.000  -0.000   0.000   0.000  -0.000   0.000
  0.000   0.000   0.000   0.000  -0.000  -0.000   0.000  -0.000  -0.000   0.000  -0.335   0.097   0.000   0.000   0.000  -0.000
 -0.000  -0.000   0.000  -0.000  -0.000  -0.000   0.000   0.000  -0.000   0.000   0.097  -0.017   0.000  -0.000  -0.000  -0.000
  0.000   0.000   0.000   0.000   0.000   0.000   0.000  -0.000   0.000   0.000   0.000  -0.000  -0.041  -0.000  -0.000   0.006
  0.000   0.000  -0.000   0.000   0.000   0.000   0.000  -0.000   0.000  -0.000   0.000   0.000  -0.000  -0.041  -0.000   0.000
 -0.000   0.000   0.000   0.000   0.000   0.000  -0.000  -0.000   0.000   0.000   0.000   0.000  -0.000  -0.000  -0.041   0.000
  0.000  -0.000   0.000   0.000   0.000   0.000   0.000   0.000   0.000   0.000  -0.000  -0.000   0.006   0.000   0.000  -0.001
  0.000   0.000   0.000  -0.000   0.000   0.000  -0.000  -0.000   0.000   0.000   0.000   0.000   0.000   0.006   0.000  -0.000
 -0.000   0.000  -0.000  -0.000   0.000  -0.000   0.000  -0.000   0.000  -0.000  -0.000  -0.000   0.000   0.000   0.006  -0.000


------------------------ aborting loop because EDIFF is reached ----------------------------------------





 total charge

# of ion       s       p       d       tot
------------------------------------------
    1        0.490   0.548   6.254   7.293
    2        0.490   0.548   6.254   7.293
--------------------------------------------------
tot          0.980   1.097  12.509  14.585



 magnetization (x)

# of ion       s       p       d       tot
------------------------------------------
    1       -0.017  -0.065   2.172   2.090
    2       -0.017  -0.065   2.172   2.090
--------------------------------------------------
tot         -0.034  -0.131   4.344   4.180
 
    CHARGE:  cpu time    0.0700: real time    0.0704
    FORLOC:  cpu time    0.0010: real time    0.0008
    FORNL :  cpu time    0.2460: real time    0.2462
    STRESS:  cpu time    0.8009: real time    0.8020
    FORCOR:  cpu time    0.0340: real time    0.0338
    FORHAR:  cpu time    0.0020: real time    0.0029
    MIXING:  cpu time    0.0000: real time    0.0010
    OFIELD:  cpu time    0.0010: real time    0.0002

  FORCE on cell =-STRESS in cart. coord.  units (eV):
  Direction    XX          YY          ZZ          XY          YZ          ZX
  --------------------------------------------------------------------------------------
  Alpha Z   123.22773   123.22773   123.22773
  Ewald    -396.38690  -396.38690  -396.38690     0.00000     0.00000     0.00000
  Hartree    62.81369    62.81369    62.81369    -0.00000    -0.00000    -0.00000
  E(xc)     -79.44032   -79.44032   -79.44032     0.00000     0.00000     0.00000
  Local     118.68183   118.68183   118.68183    -0.00000    -0.00000     0.00000
  n-local   -55.42357   -51.89538   -49.26850     1.94487    -0.70472     0.46870
  augment    77.27314    77.27314    77.27314     0.00000     0.00000     0.00000
  Kinetic   147.93439   145.75386   144.39557     2.56279    -0.33725     0.32202
  Fock        0.00000     0.00000     0.00000     0.00000     0.00000     0.00000
  -------------------------------------------------------------------------------------
  Total       0.00129     0.00129     0.00129     0.00000     0.00000     0.00000
  in kB       0.09230     0.09230     0.09230     0.00000     0.00000     0.00000
  external pressure =        0.09 kB  Pullay stress =        0.00 kB


 VOLUME and BASIS-vectors are now :
 -----------------------------------------------------------------------------
  energy-cutoff  :      350.00
  volume of cell :       22.43
      direct lattice vectors                 reciprocal lattice vectors
     2.820365469 -0.000000000  0.000000000     0.354563978 -0.000000000  0.000000000
     0.000000000  2.820365469  0.000000000     0.000000000  0.354563978  0.000000000
    -0.000000000 -0.000000000  2.820365469    -0.000000000 -0.000000000  0.354563978

  length of vectors
     2.820365469  2.820365469  2.820365469     0.354563978  0.354563978  0.354563978


 FORCES acting on ions
    electron-ion (+dipol)            ewald-force                    non-local-force                 convergence-correction
 -----------------------------------------------------------------------------------------------
   -.105E-13 -.120E-13 -.159E-13   -.963E-14 -.394E-14 -.297E-14   -.243E-25 -.103E-24 0.000E+00   0.425E-14 0.140E-13 0.176E-14
   0.136E-12 -.544E-12 0.455E-13   0.965E-14 0.421E-14 0.294E-14   -.242E-25 -.103E-24 0.000E+00   0.135E-13 0.188E-13 0.681E-14
 -----------------------------------------------------------------------------------------------
   0.126E-12 -.556E-12 0.297E-13   0.200E-16 0.264E-15 -.294E-16   -.485E-25 -.205E-24 0.000E+00   0.177E-13 0.328E-13 0.857E-14
 
 
 POSITION                                       TOTAL-FORCE (eV/Angst)
 -----------------------------------------------------------------------------------
      0.00000      0.00000      0.00000        -0.000000     -0.000000     -0.000000
      1.41018      1.41018      1.41018         0.000000      0.000000      0.000000
 -----------------------------------------------------------------------------------
    total drift:                                0.000000     -0.000000      0.000000


--------------------------------------------------------------------------------------------------------



  FREE ENERGIE OF THE ION-ELECTRON SYSTEM (eV)
  ---------------------------------------------------
  free  energy   TOTEN  =       -16.50816586 eV

  energy  without entropy=      -16.51264554  energy(sigma->0) =      -16.50965908
 
 d Force = 0.0000000E+00[ 0.000E+00, 0.000E+00]  d Energy = 0.1468652E-01-0.147E-01
 d Force = 0.0000000E+00[ 0.000E+00, 0.000E+00]  d Ewald  =-0.1258658E+02 0.126E+02


--------------------------------------------------------------------------------------------------------


    POTLOK:  cpu time    1.5838: real time    1.5914


--------------------------------------------------------------------------------------------------------




--------------------------------------------------------------------------------------------------------


  
 reached required accuracy - stopping structural energy minimisation
 writing wavefunctions
     LOOP+:  cpu time   24.4743: real time   24.9499
    4ORBIT:  cpu time    0.0000: real time    0.0000



 total charge

# of ion       s       p       d       tot
------------------------------------------
    1        0.490   0.548   6.254   7.293
    2        0.490   0.548   6.254   7.293
--------------------------------------------------
tot          0.980   1.097  12.509  14.585



 magnetization (x)

# of ion       s       p       d       tot
------------------------------------------
    1       -0.017  -0.065   2.172   2.090
    2       -0.017  -0.065   2.172   2.090
--------------------------------------------------
tot         -0.034  -0.131   4.344   4.180
 

 total amount of memory used by VASP MPI-rank0    35553. kBytes
=======================================================================

   base      :      30000. kBytes
   nonl-proj :       1071. kBytes
   fftplans  :       1775. kBytes
   grid      :       1353. kBytes
   one-center:         62. kBytes
   wavefun   :       1292. kBytes
 
  
  
 General timing and accounting informations for this job:
 ========================================================
  
                  Total CPU time used (sec):       81.231
                            User time (sec):       79.939
                          System time (sec):        1.292
                         Elapsed time (sec):       85.621
  
                   Maximum memory used (kb):       65008.
                   Average memory used (kb):          N/A
  
                          Minor page faults:        10461
                          Major page faults:            1
                 Voluntary context switches:       100144
