<?xml version="1.0" encoding="ISO-8859-1"?>
<modeling>
 <generator>
  <i name="program" type="string">vasp </i>
  <i name="version" type="string">6.2.0  </i>
  <i name="subversion" type="string">18Jan21 (build Aug 12 2022 13:00:08) complex                          parallel </i>
  <i name="platform" type="string">LinuxIFC </i>
  <i name="date" type="string">2024 11 04 </i>
  <i name="time" type="string">05:25:06 </i>
 </generator>
 <incar>
  <i type="int" name="ISTART">     0</i>
  <i type="string" name="PREC">Accurate      (Accurate strictly avoids</i>
  <i type="logical" name="ADDGRID"> T  </i>
  <i type="int" name="ISPIN">     2</i>
  <i type="int" name="NELM">    90</i>
  <i type="int" name="NELMIN">     6</i>
  <i type="int" name="IBRION">     2</i>
  <i name="EDIFF">      0.00000100</i>
  <i name="EDIFFG">     -0.00200000</i>
  <i type="int" name="NSW">   100</i>
  <i type="int" name="ISIF">     3</i>
  <i type="int" name="ISYM">     2</i>
  <i name="ENCUT">    350.00000000</i>
  <v name="MAGMOM">      5.00000000      5.00000000</v>
  <i type="logical" name="LREAL"> F  </i>
  <i type="int" name="ISMEAR">     1</i>
  <i name="SIGMA">      0.20000000</i>
  <i name="KSPACING">      0.39000000</i>
  <i type="int" name="LMAXMIX">     4</i>
  <i type="int" name="LORBIT">    11</i>
  <i type="logical" name="LASPH"> T  </i>
  <i type="logical" name="GGA_COMPAT"> F  </i>
  <i type="int" name="VOSKOWN">     1</i>
 </incar>
 <primitive_cell>
  <structure name="primitive_cell" >
   <crystal>
    <varray name="basis" >
     <v>       1.43151775       1.43151775      -1.43151775 </v>
     <v>      -1.43151775       1.43151775       1.43151775 </v>
     <v>       1.43151775      -1.43151775       1.43151775 </v>
    </varray>
    <i name="volume">     11.73411129 </i>
    <varray name="rec_basis" >
     <v>       0.34927964       0.34927964       0.00000000 </v>
     <v>       0.00000000       0.34927964       0.34927964 </v>
     <v>       0.34927964      -0.00000000       0.34927964 </v>
    </varray>
   </crystal>
   <varray name="positions" >
    <v>       0.00000000       0.00000000       0.00000000 </v>
   </varray>
  </structure>
  <varray name="primitive_index" >
   <v type="int" >        1 </v>
  </varray>
 </primitive_cell>
 <kpoints>
  <generation param="Gamma">
   <v type="int" name="divisions">       6        6        6 </v>
   <v name="usershift">      0.00000000       0.00000000       0.00000000 </v>
   <v name="genvec1">      0.16666667       0.00000000       0.00000000 </v>
   <v name="genvec2">      0.00000000       0.16666667       0.00000000 </v>
   <v name="genvec3">      0.00000000       0.00000000       0.16666667 </v>
   <v name="shift">      0.00000000       0.00000000       0.00000000 </v>
  </generation>
  <varray name="kpointlist" >
   <v>       0.00000000       0.00000000       0.00000000 </v>
   <v>       0.16666667       0.00000000       0.00000000 </v>
   <v>       0.33333333       0.00000000       0.00000000 </v>
   <v>       0.50000000      -0.00000000       0.00000000 </v>
   <v>       0.16666667       0.16666667       0.00000000 </v>
   <v>       0.33333333       0.16666667       0.00000000 </v>
   <v>       0.50000000       0.16666667       0.00000000 </v>
   <v>       0.33333333       0.33333333       0.00000000 </v>
   <v>       0.50000000       0.33333333       0.00000000 </v>
   <v>       0.50000000       0.50000000       0.00000000 </v>
   <v>       0.16666667       0.16666667       0.16666667 </v>
   <v>       0.33333333       0.16666667       0.16666667 </v>
   <v>       0.50000000       0.16666667       0.16666667 </v>
   <v>       0.33333333       0.33333333       0.16666667 </v>
   <v>       0.50000000       0.33333333       0.16666667 </v>
   <v>       0.50000000       0.50000000       0.16666667 </v>
   <v>       0.33333333       0.33333333       0.33333333 </v>
   <v>       0.50000000       0.33333333       0.33333333 </v>
   <v>       0.50000000       0.50000000       0.33333333 </v>
   <v>       0.50000000       0.50000000       0.50000000 </v>
  </varray>
  <varray name="weights" >
   <v>       0.00462963 </v>
   <v>       0.02777778 </v>
   <v>       0.02777778 </v>
   <v>       0.01388889 </v>
   <v>       0.05555556 </v>
   <v>       0.11111111 </v>
   <v>       0.05555556 </v>
   <v>       0.05555556 </v>
   <v>       0.05555556 </v>
   <v>       0.01388889 </v>
   <v>       0.03703704 </v>
   <v>       0.11111111 </v>
   <v>       0.05555556 </v>
   <v>       0.11111111 </v>
   <v>       0.11111111 </v>
   <v>       0.02777778 </v>
   <v>       0.03703704 </v>
   <v>       0.05555556 </v>
   <v>       0.02777778 </v>
   <v>       0.00462963 </v>
  </varray>
 </kpoints>
 <parameters>
  <separator name="general" >
   <i type="string" name="SYSTEM">unknown system</i>
   <i type="logical" name="LCOMPAT"> F  </i>
  </separator>
  <separator name="electronic" >
   <i type="string" name="PREC">accura</i>
   <i name="ENMAX">    350.00000000</i>
   <i name="ENAUG">    511.36800000</i>
   <i name="EDIFF">      0.00000100</i>
   <i type="int" name="IALGO">    38</i>
   <i type="int" name="IWAVPR">    11</i>
   <i type="int" name="NBANDS">    20</i>
   <i type="int" name="NBANDSLOW">    -1</i>
   <i type="int" name="NBANDSHIGH">    -1</i>
   <i name="NELECT">     16.00000000</i>
   <i type="int" name="TURBO">     0</i>
   <i type="int" name="IRESTART">     0</i>
   <i type="int" name="NREBOOT">     0</i>
   <i type="int" name="NMIN">     0</i>
   <i name="EREF">      0.00000000</i>
   <separator name="electronic smearing" >
    <i type="int" name="ISMEAR">     1</i>
    <i name="SIGMA">      0.20000000</i>
    <i name="KSPACING">      0.39000000</i>
    <i type="logical" name="KGAMMA"> T  </i>
    <i type="logical" name="KBLOWUP"> T  </i>
   </separator>
   <separator name="electronic projectors" >
    <i type="logical" name="LREAL"> F  </i>
    <v name="ROPT">      0.00000000</v>
    <i type="int" name="LMAXPAW">  -100</i>
    <i type="int" name="LMAXMIX">     4</i>
    <i type="logical" name="NLSPLINE"> F  </i>
   </separator>
   <separator name="electronic startup" >
    <i type="int" name="ISTART">     0</i>
    <i type="int" name="ICHARG">     2</i>
    <i type="int" name="INIWAV">     1</i>
   </separator>
   <separator name="electronic spin" >
    <i type="int" name="ISPIN">     2</i>
    <i type="logical" name="LNONCOLLINEAR"> F  </i>
    <v name="MAGMOM">      5.00000000      5.00000000</v>
    <i name="NUPDOWN">     -1.00000000</i>
    <i type="logical" name="LSORBIT"> F  </i>
    <v name="SAXIS">      0.00000000      0.00000000      1.00000000</v>
    <i type="logical" name="LSPIRAL"> F  </i>
    <v name="QSPIRAL">      0.00000000      0.00000000      0.00000000</v>
    <i type="logical" name="LZEROZ"> F  </i>
   </separator>
   <separator name="electronic exchange-correlation" >
    <i type="logical" name="LASPH"> T  </i>
    <i type="logical" name="LMETAGGA"> F  </i>
   </separator>
   <separator name="electronic convergence" >
    <i type="int" name="NELM">    90</i>
    <i type="int" name="NELMDL">    -5</i>
    <i type="int" name="NELMIN">     6</i>
    <i name="ENINI">    350.00000000</i>
    <separator name="electronic convergence detail" >
     <i type="logical" name="LDIAG"> T  </i>
     <i type="logical" name="LSUBROT"> F  </i>
     <i name="WEIMIN">      0.00100000</i>
     <i name="EBREAK">      0.00000001</i>
     <i name="DEPER">      0.30000000</i>
     <i type="int" name="NRMM">     4</i>
     <i name="TIME">      0.40000000</i>
    </separator>
   </separator>
   <separator name="electronic mixer" >
    <i name="AMIX">      0.40000000</i>
    <i name="BMIX">      1.00000000</i>
    <i name="AMIN">      0.10000000</i>
    <i name="AMIX_MAG">      1.60000000</i>
    <i name="BMIX_MAG">      1.00000000</i>
    <separator name="electronic mixer details" >
     <i type="int" name="IMIX">     4</i>
     <i type="logical" name="MIXFIRST"> F  </i>
     <i type="int" name="MAXMIX">   -45</i>
     <i name="WC">    100.00000000</i>
     <i type="int" name="INIMIX">     1</i>
     <i type="int" name="MIXPRE">     1</i>
     <i type="int" name="MREMOVE">     5</i>
    </separator>
   </separator>
   <separator name="electronic dipolcorrection" >
    <i type="logical" name="LDIPOL"> F  </i>
    <i type="logical" name="LMONO"> F  </i>
    <i type="int" name="IDIPOL">     0</i>
    <i name="EPSILON">      1.00000000</i>
    <v name="DIPOL">   -100.00000000   -100.00000000   -100.00000000</v>
    <i name="EFIELD">      0.00000000</i>
   </separator>
  </separator>
  <separator name="grids" >
   <i type="int" name="NGX">    18</i>
   <i type="int" name="NGY">    18</i>
   <i type="int" name="NGZ">    18</i>
   <i type="int" name="NGXF">    36</i>
   <i type="int" name="NGYF">    36</i>
   <i type="int" name="NGZF">    36</i>
   <i type="logical" name="ADDGRID"> T  </i>
  </separator>
  <separator name="ionic" >
   <i type="int" name="NSW">   100</i>
   <i type="int" name="IBRION">     2</i>
   <i type="int" name="MDALGO">     0</i>
   <i type="int" name="ISIF">     3</i>
   <i name="PSTRESS">      0.00000000</i>
   <i name="EDIFFG">     -0.00200000</i>
   <i type="int" name="NFREE">     1</i>
   <i name="POTIM">      0.50000000</i>
   <i name="SMASS">     -3.00000000</i>
   <i name="SCALEE">      1.00000000</i>
  </separator>
  <separator name="ionic md" >
   <i name="TEBEG">      0.00010000</i>
   <i name="TEEND">      0.00010000</i>
   <i type="int" name="NBLOCK">     1</i>
   <i type="int" name="KBLOCK">   100</i>
   <i type="int" name="NPACO">   256</i>
   <i name="APACO">     16.00000000</i>
  </separator>
  <separator name="symmetry" >
   <i type="int" name="ISYM">     2</i>
   <i name="SYMPREC">      0.00001000</i>
  </separator>
  <separator name="dos" >
   <i type="int" name="LORBIT">    11</i>
   <v name="RWIGS">     -1.00000000</v>
   <i type="int" name="NEDOS">   301</i>
   <i name="EMIN">     10.00000000</i>
   <i name="EMAX">    -10.00000000</i>
   <i name="EFERMI">      0.00000000</i>
  </separator>
  <separator name="writing" >
   <i type="int" name="NWRITE">     2</i>
   <i type="logical" name="LWAVE"> T  </i>
   <i type="logical" name="LDOWNSAMPLE"> F  </i>
   <i type="logical" name="LCHARG"> T  </i>
   <i type="logical" name="LPARD"> F  </i>
   <i type="logical" name="LVTOT"> F  </i>
   <i type="logical" name="LVHAR"> F  </i>
   <i type="logical" name="LELF"> F  </i>
   <i type="logical" name="LOPTICS"> F  </i>
   <v name="STM">      0.00000000      0.00000000      0.00000000      0.00000000      0.00000000      0.00000000      0.00000000</v>
  </separator>
  <separator name="performance" >
   <i type="int" name="NPAR">     4</i>
   <i type="int" name="NSIM">     4</i>
   <i type="int" name="NBLK">    -1</i>
   <i type="logical" name="LPLANE"> T  </i>
   <i type="logical" name="LSCALAPACK"> T  </i>
   <i type="logical" name="LSCAAWARE"> F  </i>
   <i type="logical" name="LSCALU"> F  </i>
   <i type="logical" name="LASYNC"> F  </i>
   <i type="logical" name="LORBITALREAL"> F  </i>
  </separator>
  <separator name="miscellaneous" >
   <i type="int" name="IDIOT">     3</i>
   <i type="int" name="PHON_NSTRUCT">    -1</i>
   <i type="logical" name="LMUSIC"> F  </i>
   <v name="POMASS">     55.84700000</v>
   <v name="DARWINR">      0.00000000</v>
   <v name="DARWINV">      1.00000000</v>
   <i type="logical" name="LCORR"> T  </i>
  </separator>
  <i type="logical" name="GGA_COMPAT"> F  </i>
  <i type="logical" name="LBERRY"> F  </i>
  <i type="int" name="ICORELEVEL">     0</i>
  <i type="logical" name="LDAU"> F  </i>
  <i type="int" name="I_CONSTRAINED_M">     0</i>
  <separator name="electronic exchange-correlation" >
   <i type="string" name="GGA">--</i>
   <i type="int" name="VOSKOWN">     1</i>
   <i type="logical" name="LHFCALC"> F  </i>
   <i type="string" name="PRECFOCK"></i>
   <i type="logical" name="LSYMGRAD"> F  </i>
   <i type="logical" name="LHFONE"> F  </i>
   <i type="logical" name="LRHFCALC"> F  </i>
   <i type="logical" name="LTHOMAS"> F  </i>
   <i type="logical" name="LMODELHF"> F  </i>
   <i type="logical" name="LFOCKACE"> F  </i>
   <i name="ENCUT4O">     -1.00000000</i>
   <i type="int" name="EXXOEP">     0</i>
   <i type="int" name="FOURORBIT">     0</i>
   <i name="AEXX">      0.00000000</i>
   <i name="HFALPHA">      0.00000000</i>
   <i name="MCALPHA">      0.00000000</i>
   <i name="ALDAX">      1.00000000</i>
   <i name="AGGAX">      1.00000000</i>
   <i name="ALDAC">      1.00000000</i>
   <i name="AGGAC">      1.00000000</i>
   <i type="int" name="NKREDX">     1</i>
   <i type="int" name="NKREDY">     1</i>
   <i type="int" name="NKREDZ">     1</i>
   <i type="logical" name="SHIFTRED"> F  </i>
   <i type="logical" name="ODDONLY"> F  </i>
   <i type="logical" name="EVENONLY"> F  </i>
   <i type="int" name="LMAXFOCK">     0</i>
   <i type="int" name="NMAXFOCKAE">     0</i>
   <i type="logical" name="LFOCKAEDFT"> F  </i>
   <i name="HFSCREEN">      0.00000000</i>
   <i name="HFSCREENC">      0.00000000</i>
   <i type="int" name="NBANDSGWLOW">     0</i>
  </separator>
  <separator name="vdW DFT" >
   <i type="logical" name="LUSE_VDW"> F  </i>
   <i name="Zab_VDW">     -0.84910000</i>
   <i name="PARAM1">      0.12340000</i>
   <i name="PARAM2">      1.00000000</i>
   <i name="PARAM3">      0.00000000</i>
  </separator>
  <separator name="model GW" >
   <i type="int" name="MODEL_GW">     0</i>
   <i name="MODEL_EPS0">      7.04046678</i>
   <i name="MODEL_ALPHA">      1.00000000</i>
  </separator>
  <separator name="linear response parameters" >
   <i type="logical" name="LEPSILON"> F  </i>
   <i type="logical" name="LRPA"> F  </i>
   <i type="logical" name="LNABLA"> F  </i>
   <i type="logical" name="LVEL"> F  </i>
   <i type="int" name="KINTER">     0</i>
   <i name="CSHIFT">      0.10000000</i>
   <i name="OMEGAMAX">     -1.00000000</i>
   <i name="DEG_THRESHOLD">      0.00200000</i>
   <i name="RTIME">     -0.10000000</i>
   <i name="WPLASMAI">      0.00000000</i>
   <v name="DFIELD">      0.00000000      0.00000000      0.00000000</v>
   <v name="WPLASMA">      0.00000000      0.00000000      0.00000000      0.00000000      0.00000000      0.00000000      0.00000000      0.00000000      0.00000000</v>
  </separator>
  <separator name="orbital magnetization" >
   <i type="logical" name="NUCIND"> F  </i>
   <v name="MAGPOS">      0.00000000      0.00000000      0.00000000</v>
   <i type="logical" name="LNICSALL"> T  </i>
   <i type="logical" name="ORBITALMAG"> F  </i>
   <i type="logical" name="LMAGBLOCH"> F  </i>
   <i type="logical" name="LCHIMAG"> F  </i>
   <i type="logical" name="LGAUGE"> T  </i>
   <i type="int" name="MAGATOM">     0</i>
   <v name="MAGDIPOL">      0.00000000      0.00000000      0.00000000</v>
   <v name="AVECCONST">      0.00000000      0.00000000      0.00000000</v>
  </separator>
  <separator name="response functions" >
   <i type="logical" name="LFINITE_TEMPERATURE"> F  </i>
   <i type="logical" name="LADDER"> F  </i>
   <i type="logical" name="LRPAFORCE"> F  </i>
   <i type="logical" name="LFXC"> F  </i>
   <i type="logical" name="LHARTREE"> T  </i>
   <i type="int" name="IBSE">     0</i>
   <v type="int" name="KPOINT">    -1     0     0     0</v>
   <i type="logical" name="LTCTC"> F  </i>
   <i type="logical" name="LTCTE"> F  </i>
   <i type="logical" name="LTETE"> F  </i>
   <i type="logical" name="LTRIPLET"> F  </i>
   <i type="logical" name="LFXCEPS"> F  </i>
   <i type="logical" name="LFXHEG"> F  </i>
   <i type="int" name="NATURALO">     2</i>
   <i type="logical" name="LHOLEGF"> F  </i>
   <i type="logical" name="L2ORDER"> F  </i>
   <i type="logical" name="LDMP1"> F  </i>
   <i type="logical" name="LMP2LT"> F  </i>
   <i type="logical" name="LSMP2LT"> F  </i>
   <i type="logical" name="LGWLF"> F  </i>
   <i name="ENCUTGW">     -2.00000000</i>
   <i name="ENCUTGWSOFT">     -2.00000000</i>
   <i name="ENCUTLF">     -1.00000000</i>
   <i type="logical" name="LESF_SPLINES"> F  </i>
   <i type="int" name="LMAXMP2">    -1</i>
   <i name="SCISSOR">      0.00000000</i>
   <i type="int" name="NOMEGA">     0</i>
   <i type="int" name="NOMEGAR">     0</i>
   <i type="int" name="NBANDSGW">    -1</i>
   <i type="int" name="NBANDSO">    -1</i>
   <i type="int" name="NBANDSV">    -1</i>
   <i type="int" name="NELM">    90</i>
   <i type="int" name="NELMHF">     1</i>
   <i type="int" name="DIM">     3</i>
   <i type="int" name="IESPILON">     4</i>
   <i type="int" name="ANTIRES">     0</i>
   <i name="OMEGAMAX">    -30.00000000</i>
   <i name="OMEGAMIN">    -30.00000000</i>
   <i name="OMEGATL">   -200.00000000</i>
   <i type="int" name="OMEGAGRID">     0</i>
   <i name="CSHIFT">     -0.10000000</i>
   <i type="logical" name="LSELFENERGY"> F  </i>
   <i type="logical" name="LSPECTRAL"> F  </i>
   <i type="logical" name="LSPECTRALGW"> F  </i>
   <i type="logical" name="LSINGLES"> F  </i>
   <i type="logical" name="LFERMIGW"> F  </i>
   <i type="logical" name="ODDONLYGW"> F  </i>
   <i type="logical" name="EVENONLYGW"> F  </i>
   <i type="int" name="NKREDLFX">     1</i>
   <i type="int" name="NKREDLFY">     1</i>
   <i type="int" name="NKREDLFZ">     1</i>
   <i type="int" name="MAXMEM">  2800</i>
   <i type="int" name="TELESCOPE">     0</i>
   <i type="int" name="NTAUPAR">    -1</i>
   <i type="int" name="NOMEGAPAR">    -1</i>
   <i name="DAMP_NEWTON">      0.80000001</i>
   <i name="LAMBDA">      1.00000000</i>
  </separator>
  <separator name="External order field" >
   <i name="OFIELD_KAPPA">      0.00000000</i>
   <v name="OFIELD_K">      0.00000000      0.00000000      0.00000000</v>
   <i name="OFIELD_Q6_NEAR">      0.00000000</i>
   <i name="OFIELD_Q6_FAR">      0.00000000</i>
   <i name="OFIELD_A">      0.00000000</i>
  </separator>
 </parameters>
 <atominfo>
  <atoms>       2 </atoms>
  <types>       1 </types>
  <array name="atoms" >
   <dimension dim="1">ion</dimension>
   <field type="string">element</field>
   <field type="int">atomtype</field>
   <set>
    <rc><c>Fe</c><c>   1</c></rc>
    <rc><c>Fe</c><c>   1</c></rc>
   </set>
  </array>
  <array name="atomtypes" >
   <dimension dim="1">type</dimension>
   <field type="int">atomspertype</field>
   <field type="string">element</field>
   <field>mass</field>
   <field>valence</field>
   <field type="string">pseudopotential</field>
   <set>
    <rc><c>   2</c><c>Fe</c><c>     55.84700000</c><c>      8.00000000</c><c>  PAW_PBE Fe 06Sep2000                  </c></rc>
   </set>
  </array>
 </atominfo>
 <structure name="initialpos" >
  <crystal>
   <varray name="basis" >
    <v>       2.86303550       0.00000000       0.00000000 </v>
    <v>       0.00000000       2.86303550       0.00000000 </v>
    <v>       0.00000000       0.00000000       2.86303550 </v>
   </varray>
   <i name="volume">     23.46822259 </i>
   <varray name="rec_basis" >
    <v>       0.34927964      -0.00000000       0.00000000 </v>
    <v>       0.00000000       0.34927964       0.00000000 </v>
    <v>      -0.00000000      -0.00000000       0.34927964 </v>
   </varray>
  </crystal>
  <varray name="positions" >
   <v>       0.00000000       0.00000000       0.00000000 </v>
   <v>       0.50000000       0.50000000       0.50000000 </v>
  </varray>
 </structure>
 <calculation>
  <scstep>
   <time name="dav">    0.64    0.64</time>
   <time name="total">    2.23    2.23</time>
   <energy>
    <i name="alphaZ">    117.79976220 </i>
    <i name="ewald">  -1171.43779597 </i>
    <i name="hartreedc">   -228.04061711 </i>
    <i name="XCdc">     14.27160946 </i>
    <i name="pawpsdc">   1103.49540010 </i>
    <i name="pawaedc">  -1119.11610375 </i>
    <i name="eentropy">     -0.00724093 </i>
    <i name="bandstr">    158.48433041 </i>
    <i name="atom">   1188.58965621 </i>
    <i name="e_fr_energy">     64.03900063 </i>
    <i name="e_wo_entrp">     64.04624155 </i>
    <i name="e_0_energy">     64.04141427 </i>
   </energy>
  </scstep>
  <scstep>
   <time name="dav">    0.59    0.61</time>
   <time name="total">    0.60    0.61</time>
   <energy>
    <i name="e_fr_energy">    -13.59070229 </i>
    <i name="e_wo_entrp">    -13.58576582 </i>
    <i name="e_0_energy">    -13.58905680 </i>
   </energy>
  </scstep>
  <scstep>
   <time name="dav">    0.64    0.65</time>
   <time name="total">    0.64    0.65</time>
   <energy>
    <i name="e_fr_energy">    -16.08301622 </i>
    <i name="e_wo_entrp">    -16.07741551 </i>
    <i name="e_0_energy">    -16.08114931 </i>
   </energy>
  </scstep>
  <scstep>
   <time name="dav">    0.63    0.65</time>
   <time name="total">    0.63    0.65</time>
   <energy>
    <i name="e_fr_energy">    -16.10109550 </i>
    <i name="e_wo_entrp">    -16.09548597 </i>
    <i name="e_0_energy">    -16.09922565 </i>
   </energy>
  </scstep>
  <scstep>
   <time name="dav">    0.64    0.65</time>
   <time name="total">    0.72    0.72</time>
   <energy>
    <i name="e_fr_energy">    -16.10132061 </i>
    <i name="e_wo_entrp">    -16.09571107 </i>
    <i name="e_0_energy">    -16.09945076 </i>
   </energy>
  </scstep>
  <scstep>
   <time name="dav">    0.63    0.63</time>
   <time name="total">    2.28    2.30</time>
   <energy>
    <i name="e_fr_energy">    -16.56332927 </i>
    <i name="e_wo_entrp">    -16.56425881 </i>
    <i name="e_0_energy">    -16.56363912 </i>
   </energy>
  </scstep>
  <scstep>
   <time name="dav">    0.66    0.66</time>
   <time name="total">    2.31    2.33</time>
   <energy>
    <i name="e_fr_energy">    -16.50653052 </i>
    <i name="e_wo_entrp">    -16.50406479 </i>
    <i name="e_0_energy">    -16.50570861 </i>
   </energy>
  </scstep>
  <scstep>
   <time name="dav">    0.68    0.68</time>
   <time name="total">    2.33    2.35</time>
   <energy>
    <i name="e_fr_energy">    -16.49326380 </i>
    <i name="e_wo_entrp">    -16.49048609 </i>
    <i name="e_0_energy">    -16.49233790 </i>
   </energy>
  </scstep>
  <scstep>
   <time name="dav">    0.79    0.79</time>
   <time name="total">    2.44    2.46</time>
   <energy>
    <i name="e_fr_energy">    -16.48324891 </i>
    <i name="e_wo_entrp">    -16.48077162 </i>
    <i name="e_0_energy">    -16.48242315 </i>
   </energy>
  </scstep>
  <scstep>
   <time name="dav">    0.65    0.65</time>
   <time name="total">    2.30    2.32</time>
   <energy>
    <i name="e_fr_energy">    -16.48291598 </i>
    <i name="e_wo_entrp">    -16.48039093 </i>
    <i name="e_0_energy">    -16.48207430 </i>
   </energy>
  </scstep>
  <scstep>
   <time name="dav">    0.67    0.67</time>
   <time name="total">    2.32    2.34</time>
   <energy>
    <i name="e_fr_energy">    -16.48296101 </i>
    <i name="e_wo_entrp">    -16.48042953 </i>
    <i name="e_0_energy">    -16.48211718 </i>
   </energy>
  </scstep>
  <scstep>
   <time name="dav">    0.68    0.68</time>
   <time name="total">    2.34    2.36</time>
   <energy>
    <i name="e_fr_energy">    -16.48294402 </i>
    <i name="e_wo_entrp">    -16.48038627 </i>
    <i name="e_0_energy">    -16.48209144 </i>
   </energy>
  </scstep>
  <scstep>
   <time name="dav">    0.61    0.61</time>
   <time name="total">    2.19    2.21</time>
   <energy>
    <i name="alphaZ">    117.79976220 </i>
    <i name="ewald">  -1171.43779597 </i>
    <i name="hartreedc">   -195.44515409 </i>
    <i name="XCdc">      8.51220346 </i>
    <i name="pawpsdc">   1411.23199290 </i>
    <i name="pawaedc">  -1429.13878860 </i>
    <i name="eentropy">     -0.00255742 </i>
    <i name="bandstr">     53.40773654 </i>
    <i name="atom">   1188.58965621 </i>
    <i name="e_fr_energy">    -16.48294478 </i>
    <i name="e_wo_entrp">    -16.48038736 </i>
    <i name="e_0_energy">    -16.48209230 </i>
   </energy>
  </scstep>
  <structure>
   <crystal>
    <varray name="basis" >
     <v>       2.86303550       0.00000000       0.00000000 </v>
     <v>       0.00000000       2.86303550       0.00000000 </v>
     <v>       0.00000000       0.00000000       2.86303550 </v>
    </varray>
    <i name="volume">     23.46822259 </i>
    <varray name="rec_basis" >
     <v>       0.34927964      -0.00000000       0.00000000 </v>
     <v>       0.00000000       0.34927964       0.00000000 </v>
     <v>      -0.00000000      -0.00000000       0.34927964 </v>
    </varray>
   </crystal>
   <varray name="positions" >
    <v>       0.00000000       0.00000000       0.00000000 </v>
    <v>       0.50000000       0.50000000       0.50000000 </v>
   </varray>
  </structure>
  <varray name="forces" >
   <v>       0.00000000       0.00000000       0.00000000 </v>
   <v>      -0.00000000      -0.00000000      -0.00000000 </v>
  </varray>
  <varray name="stress" >
   <v>     -71.38313534      -0.00000000       0.00000000 </v>
   <v>      -0.00000000     -71.38313534       0.00000000 </v>
   <v>      -0.00000000      -0.00000000     -71.38313534 </v>
  </varray>
  <energy>
   <i name="e_fr_energy">    -16.48294478 </i>
   <i name="e_wo_entrp">    -16.48038736 </i>
   <i name="e_0_energy">    -16.48209230 </i>
  </energy>
  <time name="totalsc">   28.18   29.15</time>
 </calculation>
 <calculation>
  <scstep>
   <time name="dav">    0.62    0.62</time>
   <time name="total">    2.28    2.29</time>
   <energy>
    <i name="alphaZ">    127.18217301 </i>
    <i name="ewald">  -1201.74735428 </i>
    <i name="hartreedc">   -200.50499391 </i>
    <i name="XCdc">     10.01029768 </i>
    <i name="pawpsdc">   1411.30956446 </i>
    <i name="pawaedc">  -1429.21302888 </i>
    <i name="eentropy">      0.00785985 </i>
    <i name="bandstr">     76.95537556 </i>
    <i name="atom">   1188.58965621 </i>
    <i name="e_fr_energy">    -17.41045027 </i>
    <i name="e_wo_entrp">    -17.41831013 </i>
    <i name="e_0_energy">    -17.41307023 </i>
   </energy>
  </scstep>
  <scstep>
   <time name="dav">    0.62    0.62</time>
   <time name="total">    2.27    2.29</time>
   <energy>
    <i name="e_fr_energy">    -16.55482863 </i>
    <i name="e_wo_entrp">    -16.55998289 </i>
    <i name="e_0_energy">    -16.55654672 </i>
   </energy>
  </scstep>
  <scstep>
   <time name="dav">    0.65    0.65</time>
   <time name="total">    2.31    2.32</time>
   <energy>
    <i name="e_fr_energy">    -16.50940409 </i>
    <i name="e_wo_entrp">    -16.51501953 </i>
    <i name="e_0_energy">    -16.51127590 </i>
   </energy>
  </scstep>
  <scstep>
   <time name="dav">    0.70    0.70</time>
   <time name="total">    2.36    2.38</time>
   <energy>
    <i name="e_fr_energy">    -16.50045488 </i>
    <i name="e_wo_entrp">    -16.50626101 </i>
    <i name="e_0_energy">    -16.50239026 </i>
   </energy>
  </scstep>
  <scstep>
   <time name="dav">    0.65    0.65</time>
   <time name="total">    2.31    2.33</time>
   <energy>
    <i name="e_fr_energy">    -16.49332747 </i>
    <i name="e_wo_entrp">    -16.49906249 </i>
    <i name="e_0_energy">    -16.49523914 </i>
   </energy>
  </scstep>
  <scstep>
   <time name="dav">    0.62    0.62</time>
   <time name="total">    2.27    2.29</time>
   <energy>
    <i name="e_fr_energy">    -16.49347044 </i>
    <i name="e_wo_entrp">    -16.49914858 </i>
    <i name="e_0_energy">    -16.49536316 </i>
   </energy>
  </scstep>
  <scstep>
   <time name="dav">    0.59    0.59</time>
   <time name="total">    2.25    2.27</time>
   <energy>
    <i name="e_fr_energy">    -16.49348451 </i>
    <i name="e_wo_entrp">    -16.49914646 </i>
    <i name="e_0_energy">    -16.49537183 </i>
   </energy>
  </scstep>
  <scstep>
   <time name="dav">    0.53    0.53</time>
   <time name="total">    2.18    2.20</time>
   <energy>
    <i name="e_fr_energy">    -16.49348124 </i>
    <i name="e_wo_entrp">    -16.49915266 </i>
    <i name="e_0_energy">    -16.49537171 </i>
   </energy>
  </scstep>
  <scstep>
   <time name="dav">    0.41    0.41</time>
   <time name="total">    2.06    2.08</time>
   <energy>
    <i name="e_fr_energy">    -16.49347915 </i>
    <i name="e_wo_entrp">    -16.49915643 </i>
    <i name="e_0_energy">    -16.49537158 </i>
   </energy>
  </scstep>
  <scstep>
   <time name="dav">    0.40    0.40</time>
   <time name="total">    1.98    2.00</time>
   <energy>
    <i name="alphaZ">    127.18217301 </i>
    <i name="ewald">  -1201.74735428 </i>
    <i name="hartreedc">   -183.70571963 </i>
    <i name="XCdc">      8.65106071 </i>
    <i name="pawpsdc">   1480.55588752 </i>
    <i name="pawaedc">  -1498.87422943 </i>
    <i name="eentropy">      0.00567737 </i>
    <i name="bandstr">     62.84936918 </i>
    <i name="atom">   1188.58965621 </i>
    <i name="e_fr_energy">    -16.49347934 </i>
    <i name="e_wo_entrp">    -16.49915671 </i>
    <i name="e_0_energy">    -16.49537180 </i>
   </energy>
  </scstep>
  <structure>
   <crystal>
    <varray name="basis" >
     <v>       2.79082619      -0.00000000       0.00000000 </v>
     <v>       0.00000000       2.79082619       0.00000000 </v>
     <v>      -0.00000000      -0.00000000       2.79082619 </v>
    </varray>
    <i name="volume">     21.73693824 </i>
    <varray name="rec_basis" >
     <v>       0.35831683      -0.00000000       0.00000000 </v>
     <v>       0.00000000       0.35831683       0.00000000 </v>
     <v>      -0.00000000      -0.00000000       0.35831683 </v>
    </varray>
   </crystal>
   <varray name="positions" >
    <v>       0.00000000       0.00000000       0.00000000 </v>
    <v>       0.50000000       0.50000000       0.50000000 </v>
   </varray>
  </structure>
  <varray name="forces" >
   <v>       0.00000000       0.00000000       0.00000000 </v>
   <v>      -0.00000000      -0.00000000      -0.00000000 </v>
  </varray>
  <varray name="stress" >
   <v>      70.59003192       0.00000000       0.00000000 </v>
   <v>       0.00000000      70.59003192       0.00000000 </v>
   <v>       0.00000000       0.00000000      70.59003192 </v>
  </varray>
  <energy>
   <i name="e_fr_energy">    -16.49347934 </i>
   <i name="e_wo_entrp">    -16.49915671 </i>
   <i name="e_0_energy">    -16.49537180 </i>
  </energy>
  <time name="totalsc">   26.66   26.95</time>
 </calculation>
 <calculation>
  <scstep>
   <time name="dav">    0.61    0.61</time>
   <time name="total">    2.27    2.28</time>
   <energy>
    <i name="alphaZ">    123.22772940 </i>
    <i name="ewald">  -1189.16077785 </i>
    <i name="hartreedc">   -181.78151564 </i>
    <i name="XCdc">      8.05149819 </i>
    <i name="pawpsdc">   1480.54334468 </i>
    <i name="pawaedc">  -1498.86187553 </i>
    <i name="eentropy">      0.00096520 </i>
    <i name="bandstr">     52.73632886 </i>
    <i name="atom">   1188.58965621 </i>
    <i name="e_fr_energy">    -16.65464648 </i>
    <i name="e_wo_entrp">    -16.65561168 </i>
    <i name="e_0_energy">    -16.65496821 </i>
   </energy>
  </scstep>
  <scstep>
   <time name="dav">    0.62    0.62</time>
   <time name="total">    2.27    2.29</time>
   <energy>
    <i name="e_fr_energy">    -16.52006955 </i>
    <i name="e_wo_entrp">    -16.52360144 </i>
    <i name="e_0_energy">    -16.52124685 </i>
   </energy>
  </scstep>
  <scstep>
   <time name="dav">    0.65    0.65</time>
   <time name="total">    2.31    2.33</time>
   <energy>
    <i name="e_fr_energy">    -16.51115258 </i>
    <i name="e_wo_entrp">    -16.51500272 </i>
    <i name="e_0_energy">    -16.51243596 </i>
   </energy>
  </scstep>
  <scstep>
   <time name="dav">    0.69    0.69</time>
   <time name="total">    2.35    2.37</time>
   <energy>
    <i name="e_fr_energy">    -16.50945888 </i>
    <i name="e_wo_entrp">    -16.51355981 </i>
    <i name="e_0_energy">    -16.51082585 </i>
   </energy>
  </scstep>
  <scstep>
   <time name="dav">    0.63    0.63</time>
   <time name="total">    2.29    2.30</time>
   <energy>
    <i name="e_fr_energy">    -16.50813660 </i>
    <i name="e_wo_entrp">    -16.51266721 </i>
    <i name="e_0_energy">    -16.50964680 </i>
   </energy>
  </scstep>
  <scstep>
   <time name="dav">    0.62    0.67</time>
   <time name="total">    2.28    2.35</time>
   <energy>
    <i name="e_fr_energy">    -16.50815808 </i>
    <i name="e_wo_entrp">    -16.51264877 </i>
    <i name="e_0_energy">    -16.50965498 </i>
   </energy>
  </scstep>
  <scstep>
   <time name="dav">    0.59    0.59</time>
   <time name="total">    2.24    2.26</time>
   <energy>
    <i name="e_fr_energy">    -16.50816300 </i>
    <i name="e_wo_entrp">    -16.51263579 </i>
    <i name="e_0_energy">    -16.50965393 </i>
   </energy>
  </scstep>
  <scstep>
   <time name="dav">    0.43    0.44</time>
   <time name="total">    2.09    2.11</time>
   <energy>
    <i name="e_fr_energy">    -16.50816568 </i>
    <i name="e_wo_entrp">    -16.51264370 </i>
    <i name="e_0_energy">    -16.50965835 </i>
   </energy>
  </scstep>
  <scstep>
   <time name="dav">    0.39    0.39</time>
   <time name="total">    1.98    2.00</time>
   <energy>
    <i name="alphaZ">    123.22772940 </i>
    <i name="ewald">  -1189.16077785 </i>
    <i name="hartreedc">   -188.44273988 </i>
    <i name="XCdc">      8.53917047 </i>
    <i name="pawpsdc">   1448.74438553 </i>
    <i name="pawaedc">  -1466.83842448 </i>
    <i name="eentropy">      0.00447968 </i>
    <i name="bandstr">     58.82835505 </i>
    <i name="atom">   1188.58965621 </i>
    <i name="e_fr_energy">    -16.50816586 </i>
    <i name="e_wo_entrp">    -16.51264554 </i>
    <i name="e_0_energy">    -16.50965908 </i>
   </energy>
  </scstep>
  <structure>
   <crystal>
    <varray name="basis" >
     <v>       2.82036547      -0.00000000       0.00000000 </v>
     <v>       0.00000000       2.82036547       0.00000000 </v>
     <v>      -0.00000000      -0.00000000       2.82036547 </v>
    </varray>
    <i name="volume">     22.43448819 </i>
    <varray name="rec_basis" >
     <v>       0.35456398      -0.00000000       0.00000000 </v>
     <v>       0.00000000       0.35456398       0.00000000 </v>
     <v>      -0.00000000      -0.00000000       0.35456398 </v>
    </varray>
   </crystal>
   <varray name="positions" >
    <v>       0.00000000       0.00000000       0.00000000 </v>
    <v>       0.50000000       0.50000000       0.50000000 </v>
   </varray>
  </structure>
  <varray name="forces" >
   <v>      -0.00000000      -0.00000000      -0.00000000 </v>
   <v>       0.00000000       0.00000000       0.00000000 </v>
  </varray>
  <varray name="stress" >
   <v>       0.09229513      -0.00000000       0.00000000 </v>
   <v>       0.00000000       0.09229513       0.00000000 </v>
   <v>      -0.00000000       0.00000000       0.09229513 </v>
  </varray>
  <energy>
   <i name="e_fr_energy">    -16.50816586 </i>
   <i name="e_wo_entrp">    -16.51264554 </i>
   <i name="e_0_energy">    -16.50965908 </i>
  </energy>
  <time name="totalsc">   24.47   24.95</time>
  <eigenvalues>
   <array>
    <dimension dim="1">band</dimension>
    <dimension dim="2">kpoint</dimension>
    <dimension dim="3">spin</dimension>
    <field>eigene</field>
    <field>occ</field>
    <set>
     <set comment="spin 1">
      <set comment="kpoint 1">
       <r>   -2.5326    1.0000 </r>
       <r>    1.0680    1.0000 </r>
       <r>    1.0680    1.0000 </r>
       <r>    3.6794    1.0000 </r>
       <r>    3.6794    1.0000 </r>
       <r>    3.6794    1.0000 </r>
       <r>    4.9065    1.0000 </r>
       <r>    4.9065    1.0000 </r>
       <r>    6.1489    0.0333 </r>
       <r>    6.1489    0.0333 </r>
       <r>    6.1489    0.0333 </r>
       <r>   16.0060    0.0000 </r>
       <r>   16.0060    0.0000 </r>
       <r>   16.0060    0.0000 </r>
       <r>   21.7653    0.0000 </r>
       <r>   21.7653    0.0000 </r>
       <r>   27.0243    0.0000 </r>
       <r>   31.1224    0.0000 </r>
       <r>   31.1224    0.0000 </r>
       <r>   31.1224    0.0000 </r>
      </set>
      <set comment="kpoint 2">
       <r>   -1.9596    1.0000 </r>
       <r>    1.3093    1.0000 </r>
       <r>    1.3152    1.0000 </r>
       <r>    3.6811    1.0000 </r>
       <r>    3.6811    1.0000 </r>
       <r>    3.8379    1.0000 </r>
       <r>    4.6469    1.0000 </r>
       <r>    5.0082    1.0000 </r>
       <r>    5.7005    1.0266 </r>
       <r>    5.7005    1.0266 </r>
       <r>    5.9771    0.6165 </r>
       <r>   13.0156    0.0000 </r>
       <r>   17.0635    0.0000 </r>
       <r>   17.0635    0.0000 </r>
       <r>   21.9345    0.0000 </r>
       <r>   23.5230    0.0000 </r>
       <r>   28.5539    0.0000 </r>
       <r>   29.1302    0.0000 </r>
       <r>   30.3581    0.0000 </r>
       <r>   30.3581    0.0000 </r>
      </set>
      <set comment="kpoint 3">
       <r>   -0.4163    1.0000 </r>
       <r>    1.7150    1.0000 </r>
       <r>    2.0009    1.0000 </r>
       <r>    3.7747    1.0000 </r>
       <r>    3.7747    1.0000 </r>
       <r>    3.9329    1.0000 </r>
       <r>    4.2762    1.0000 </r>
       <r>    4.8327    1.0000 </r>
       <r>    4.8327    1.0000 </r>
       <r>    5.3119    1.0000 </r>
       <r>    5.5115    1.0013 </r>
       <r>    8.9399   -0.0000 </r>
       <r>   19.7176    0.0000 </r>
       <r>   19.7176    0.0000 </r>
       <r>   22.5027    0.0000 </r>
       <r>   24.6156    0.0000 </r>
       <r>   25.6164    0.0000 </r>
       <r>   27.1374    0.0000 </r>
       <r>   27.1374    0.0000 </r>
       <r>   28.9310    0.0000 </r>
      </set>
      <set comment="kpoint 4">
       <r>    1.2817    1.0000 </r>
       <r>    1.2817    1.0000 </r>
       <r>    2.9594    1.0000 </r>
       <r>    2.9594    1.0000 </r>
       <r>    4.1316    1.0000 </r>
       <r>    4.1316    1.0000 </r>
       <r>    4.1316    1.0000 </r>
       <r>    4.1316    1.0000 </r>
       <r>    4.8872    1.0000 </r>
       <r>    4.8872    1.0000 </r>
       <r>    6.2338   -0.0344 </r>
       <r>    6.2338   -0.0344 </r>
       <r>   23.2461    0.0000 </r>
       <r>   23.2461    0.0000 </r>
       <r>   23.2461    0.0000 </r>
       <r>   23.2461    0.0000 </r>
       <r>   23.6483    0.0000 </r>
       <r>   23.6483    0.0000 </r>
       <r>   26.0986    0.0000 </r>
       <r>   26.0986    0.0000 </r>
      </set>
      <set comment="kpoint 5">
       <r>   -1.4197    1.0000 </r>
       <r>    1.4868    1.0000 </r>
       <r>    1.5923    1.0000 </r>
       <r>    3.3871    1.0000 </r>
       <r>    3.6016    1.0000 </r>
       <r>    4.2805    1.0000 </r>
       <r>    4.7194    1.0000 </r>
       <r>    4.9359    1.0000 </r>
       <r>    4.9981    1.0000 </r>
       <r>    5.2835    1.0000 </r>
       <r>    6.2176   -0.0305 </r>
       <r>   13.1744    0.0000 </r>
       <r>   14.6094    0.0000 </r>
       <r>   17.9675    0.0000 </r>
       <r>   22.7974    0.0000 </r>
       <r>   25.6677    0.0000 </r>
       <r>   25.8589    0.0000 </r>
       <r>   29.1915    0.0000 </r>
       <r>   30.4412    0.0000 </r>
       <r>   30.5433    0.0000 </r>
      </set>
      <set comment="kpoint 6">
       <r>   -0.0223    1.0000 </r>
       <r>    1.7803    1.0000 </r>
       <r>    2.2425    1.0000 </r>
       <r>    3.2618    1.0000 </r>
       <r>    3.4764    1.0000 </r>
       <r>    4.1076    1.0000 </r>
       <r>    4.4902    1.0000 </r>
       <r>    4.6509    1.0000 </r>
       <r>    4.8914    1.0000 </r>
       <r>    5.2127    1.0000 </r>
       <r>    6.0403    0.3528 </r>
       <r>    9.4433   -0.0000 </r>
       <r>   16.2099    0.0000 </r>
       <r>   20.3720    0.0000 </r>
       <r>   22.1381    0.0000 </r>
       <r>   23.4246    0.0000 </r>
       <r>   26.8007    0.0000 </r>
       <r>   27.6469    0.0000 </r>
       <r>   27.9292    0.0000 </r>
       <r>   32.8495    0.0000 </r>
      </set>
      <set comment="kpoint 7">
       <r>    1.3742    1.0000 </r>
       <r>    1.3742    1.0000 </r>
       <r>    2.9856    1.0000 </r>
       <r>    2.9856    1.0000 </r>
       <r>    3.4860    1.0000 </r>
       <r>    3.4860    1.0000 </r>
       <r>    4.4799    1.0000 </r>
       <r>    4.4799    1.0000 </r>
       <r>    5.5279    1.0019 </r>
       <r>    5.5279    1.0019 </r>
       <r>    6.3883   -0.0104 </r>
       <r>    6.3883   -0.0104 </r>
       <r>   18.9035    0.0000 </r>
       <r>   18.9035    0.0000 </r>
       <r>   23.7435    0.0000 </r>
       <r>   23.7435    0.0000 </r>
       <r>   24.6484    0.0000 </r>
       <r>   24.6484    0.0000 </r>
       <r>   30.0521    0.0000 </r>
       <r>   30.0521    0.0000 </r>
      </set>
      <set comment="kpoint 8">
       <r>    0.7074    1.0000 </r>
       <r>    1.5329    1.0000 </r>
       <r>    2.8348    1.0000 </r>
       <r>    3.1411    1.0000 </r>
       <r>    3.2779    1.0000 </r>
       <r>    4.0074    1.0000 </r>
       <r>    4.6023    1.0000 </r>
       <r>    4.9011    1.0000 </r>
       <r>    5.0332    1.0000 </r>
       <r>    5.6383    1.0132 </r>
       <r>    6.3558   -0.0163 </r>
       <r>    9.2832   -0.0000 </r>
       <r>   13.6422    0.0000 </r>
       <r>   18.1562    0.0000 </r>
       <r>   22.2520    0.0000 </r>
       <r>   23.7794    0.0000 </r>
       <r>   25.8027    0.0000 </r>
       <r>   28.3085    0.0000 </r>
       <r>   29.8876    0.0000 </r>
       <r>   32.9719    0.0000 </r>
      </set>
      <set comment="kpoint 9">
       <r>    1.1628    1.0000 </r>
       <r>    1.1628    1.0000 </r>
       <r>    2.8207    1.0000 </r>
       <r>    2.8207    1.0000 </r>
       <r>    4.0332    1.0000 </r>
       <r>    4.0332    1.0000 </r>
       <r>    4.8647    1.0000 </r>
       <r>    4.8647    1.0000 </r>
       <r>    6.1830   -0.0097 </r>
       <r>    6.1830   -0.0097 </r>
       <r>    6.6230   -0.0001 </r>
       <r>    6.6230   -0.0001 </r>
       <r>   15.0884    0.0000 </r>
       <r>   15.0884    0.0000 </r>
       <r>   24.5408    0.0000 </r>
       <r>   24.5408    0.0000 </r>
       <r>   25.1210    0.0000 </r>
       <r>   25.1210    0.0000 </r>
       <r>   31.7645    0.0000 </r>
       <r>   31.7645    0.0000 </r>
      </set>
      <set comment="kpoint 10">
       <r>    1.0023    1.0000 </r>
       <r>    1.0023    1.0000 </r>
       <r>    2.5728    1.0000 </r>
       <r>    2.5728    1.0000 </r>
       <r>    4.9802    1.0000 </r>
       <r>    4.9802    1.0000 </r>
       <r>    5.1023    1.0000 </r>
       <r>    5.1023    1.0000 </r>
       <r>    6.4254   -0.0057 </r>
       <r>    6.4254   -0.0057 </r>
       <r>    6.4925   -0.0015 </r>
       <r>    6.4925   -0.0015 </r>
       <r>   13.4632    0.0000 </r>
       <r>   13.4632    0.0000 </r>
       <r>   24.4462    0.0000 </r>
       <r>   24.4462    0.0000 </r>
       <r>   26.4051    0.0000 </r>
       <r>   26.4051    0.0000 </r>
       <r>   29.6717    0.0000 </r>
       <r>   29.6717    0.0000 </r>
      </set>
      <set comment="kpoint 11">
       <r>   -0.8981    1.0000 </r>
       <r>    1.7619    1.0000 </r>
       <r>    1.7619    1.0000 </r>
       <r>    3.2926    1.0000 </r>
       <r>    3.2926    1.0000 </r>
       <r>    4.1704    1.0000 </r>
       <r>    4.7636    1.0000 </r>
       <r>    4.8434    1.0000 </r>
       <r>    4.8434    1.0000 </r>
       <r>    5.7752    1.0345 </r>
       <r>    5.7752    1.0345 </r>
       <r>   14.0764    0.0000 </r>
       <r>   14.0764    0.0000 </r>
       <r>   15.7776    0.0000 </r>
       <r>   25.6931    0.0000 </r>
       <r>   25.6931    0.0000 </r>
       <r>   26.0409    0.0000 </r>
       <r>   26.0409    0.0000 </r>
       <r>   29.1530    0.0000 </r>
       <r>   31.2453    0.0000 </r>
      </set>
      <set comment="kpoint 12">
       <r>    0.4083    1.0000 </r>
       <r>    2.1358    1.0000 </r>
       <r>    2.1997    1.0000 </r>
       <r>    3.0616    1.0000 </r>
       <r>    3.1779    1.0000 </r>
       <r>    3.4856    1.0000 </r>
       <r>    4.6337    1.0000 </r>
       <r>    5.0171    1.0000 </r>
       <r>    5.1121    1.0000 </r>
       <r>    5.5826    1.0055 </r>
       <r>    5.8157    1.0186 </r>
       <r>   10.1358   -0.0000 </r>
       <r>   16.1955    0.0000 </r>
       <r>   17.1433    0.0000 </r>
       <r>   22.0172    0.0000 </r>
       <r>   23.0514    0.0000 </r>
       <r>   27.2147    0.0000 </r>
       <r>   28.2711    0.0000 </r>
       <r>   28.5571    0.0000 </r>
       <r>   31.8057    0.0000 </r>
      </set>
      <set comment="kpoint 13">
       <r>    1.6270    1.0000 </r>
       <r>    1.6270    1.0000 </r>
       <r>    2.7010    1.0000 </r>
       <r>    2.7010    1.0000 </r>
       <r>    3.4407    1.0000 </r>
       <r>    3.4407    1.0000 </r>
       <r>    4.5905    1.0000 </r>
       <r>    4.5905    1.0000 </r>
       <r>    5.4506    1.0003 </r>
       <r>    5.4506    1.0003 </r>
       <r>    7.0734   -0.0000 </r>
       <r>    7.0734   -0.0000 </r>
       <r>   18.8853    0.0000 </r>
       <r>   18.8853    0.0000 </r>
       <r>   19.6861    0.0000 </r>
       <r>   19.6861    0.0000 </r>
       <r>   29.0003    0.0000 </r>
       <r>   29.0003    0.0000 </r>
       <r>   29.2472    0.0000 </r>
       <r>   29.2472    0.0000 </r>
      </set>
      <set comment="kpoint 14">
       <r>    1.1860    1.0000 </r>
       <r>    1.8875    1.0000 </r>
       <r>    2.7492    1.0000 </r>
       <r>    2.9122    1.0000 </r>
       <r>    3.0695    1.0000 </r>
       <r>    3.3318    1.0000 </r>
       <r>    4.9061    1.0000 </r>
       <r>    4.9139    1.0000 </r>
       <r>    5.0408    1.0000 </r>
       <r>    5.7889    1.0316 </r>
       <r>    6.6019   -0.0001 </r>
       <r>   10.4667   -0.0000 </r>
       <r>   13.7271    0.0000 </r>
       <r>   18.1486    0.0000 </r>
       <r>   18.4653    0.0000 </r>
       <r>   22.9597    0.0000 </r>
       <r>   24.7799    0.0000 </r>
       <r>   27.6741    0.0000 </r>
       <r>   31.0269    0.0000 </r>
       <r>   33.2042    0.0000 </r>
      </set>
      <set comment="kpoint 15">
       <r>    1.5449    1.0000 </r>
       <r>    1.5449    1.0000 </r>
       <r>    2.6868    1.0000 </r>
       <r>    2.6868    1.0000 </r>
       <r>    3.7382    1.0000 </r>
       <r>    3.7382    1.0000 </r>
       <r>    4.9113    1.0000 </r>
       <r>    4.9113    1.0000 </r>
       <r>    5.4006    1.0001 </r>
       <r>    5.4006    1.0001 </r>
       <r>    8.1522   -0.0000 </r>
       <r>    8.1522   -0.0000 </r>
       <r>   15.3303    0.0000 </r>
       <r>   15.3303    0.0000 </r>
       <r>   20.4317    0.0000 </r>
       <r>   20.4317    0.0000 </r>
       <r>   25.7707    0.0000 </r>
       <r>   25.7707    0.0000 </r>
       <r>   31.9030    0.0000 </r>
       <r>   31.9030    0.0000 </r>
      </set>
      <set comment="kpoint 16">
       <r>    1.3856    1.0000 </r>
       <r>    1.3856    1.0000 </r>
       <r>    2.5265    1.0000 </r>
       <r>    2.5265    1.0000 </r>
       <r>    4.6563    1.0000 </r>
       <r>    4.6563    1.0000 </r>
       <r>    5.0274    1.0000 </r>
       <r>    5.0274    1.0000 </r>
       <r>    5.1116    1.0000 </r>
       <r>    5.1116    1.0000 </r>
       <r>    8.7763   -0.0000 </r>
       <r>    8.7763   -0.0000 </r>
       <r>   13.5524    0.0000 </r>
       <r>   13.5524    0.0000 </r>
       <r>   21.9088    0.0000 </r>
       <r>   21.9088    0.0000 </r>
       <r>   23.3204    0.0000 </r>
       <r>   23.3204    0.0000 </r>
       <r>   32.8561    0.0000 </r>
       <r>   32.8561    0.0000 </r>
      </set>
      <set comment="kpoint 17">
       <r>    2.2695    1.0000 </r>
       <r>    2.2726    1.0000 </r>
       <r>    2.6120    1.0000 </r>
       <r>    2.6120    1.0000 </r>
       <r>    2.8471    1.0000 </r>
       <r>    2.8471    1.0000 </r>
       <r>    5.0428    1.0000 </r>
       <r>    5.0428    1.0000 </r>
       <r>    5.2208    1.0000 </r>
       <r>    5.2208    1.0000 </r>
       <r>    8.1138   -0.0000 </r>
       <r>   12.8606    0.0000 </r>
       <r>   12.8606    0.0000 </r>
       <r>   15.5731    0.0000 </r>
       <r>   19.2085    0.0000 </r>
       <r>   19.2085    0.0000 </r>
       <r>   20.7828    0.0000 </r>
       <r>   25.2513    0.0000 </r>
       <r>   34.6230    0.0000 </r>
       <r>   34.6230    0.0000 </r>
      </set>
      <set comment="kpoint 18">
       <r>    2.1629    1.0000 </r>
       <r>    2.1629    1.0000 </r>
       <r>    2.6290    1.0000 </r>
       <r>    2.6290    1.0000 </r>
       <r>    3.1970    1.0000 </r>
       <r>    3.1970    1.0000 </r>
       <r>    5.0530    1.0000 </r>
       <r>    5.0530    1.0000 </r>
       <r>    5.1806    1.0000 </r>
       <r>    5.1806    1.0000 </r>
       <r>   10.0963   -0.0000 </r>
       <r>   10.0963   -0.0000 </r>
       <r>   15.8122    0.0000 </r>
       <r>   15.8122    0.0000 </r>
       <r>   16.9674    0.0000 </r>
       <r>   16.9674    0.0000 </r>
       <r>   22.0303    0.0000 </r>
       <r>   22.0303    0.0000 </r>
       <r>   36.5191    0.0000 </r>
       <r>   36.5191    0.0000 </r>
      </set>
      <set comment="kpoint 19">
       <r>    2.2397    1.0000 </r>
       <r>    2.2397    1.0000 </r>
       <r>    2.4990    1.0000 </r>
       <r>    2.4990    1.0000 </r>
       <r>    3.4147    1.0000 </r>
       <r>    3.4147    1.0000 </r>
       <r>    5.1103    1.0000 </r>
       <r>    5.1103    1.0000 </r>
       <r>    5.1298    1.0000 </r>
       <r>    5.1298    1.0000 </r>
       <r>   11.5464    0.0000 </r>
       <r>   11.5464    0.0000 </r>
       <r>   13.9914    0.0000 </r>
       <r>   13.9914    0.0000 </r>
       <r>   18.2140    0.0000 </r>
       <r>   18.2140    0.0000 </r>
       <r>   19.2003    0.0000 </r>
       <r>   19.2003    0.0000 </r>
       <r>   38.5350    0.0000 </r>
       <r>   38.5350    0.0000 </r>
      </set>
      <set comment="kpoint 20">
       <r>    2.7274    1.0000 </r>
       <r>    2.7274    1.0000 </r>
       <r>    2.7274    1.0000 </r>
       <r>    2.7274    1.0000 </r>
       <r>    2.7274    1.0000 </r>
       <r>    2.7274    1.0000 </r>
       <r>    5.1388    1.0000 </r>
       <r>    5.1388    1.0000 </r>
       <r>    5.1388    1.0000 </r>
       <r>    5.1388    1.0000 </r>
       <r>   14.7124    0.0000 </r>
       <r>   14.7124    0.0000 </r>
       <r>   14.7124    0.0000 </r>
       <r>   14.7124    0.0000 </r>
       <r>   14.7124    0.0000 </r>
       <r>   14.7124    0.0000 </r>
       <r>   16.9853    0.0000 </r>
       <r>   16.9853    0.0000 </r>
       <r>   45.2232    0.0000 </r>
       <r>   45.2232    0.0000 </r>
      </set>
     </set>
     <set comment="spin 2">
      <set comment="kpoint 1">
       <r>   -2.4071    1.0000 </r>
       <r>    2.8242    1.0000 </r>
       <r>    2.8243    1.0000 </r>
       <r>    5.4961    1.0009 </r>
       <r>    5.4963    1.0010 </r>
       <r>    5.4963    1.0010 </r>
       <r>    7.5870   -0.0000 </r>
       <r>    7.5871   -0.0000 </r>
       <r>    8.2352   -0.0000 </r>
       <r>    8.2353   -0.0000 </r>
       <r>    8.2353   -0.0000 </r>
       <r>   16.2273    0.0000 </r>
       <r>   16.2273    0.0000 </r>
       <r>   16.2273    0.0000 </r>
       <r>   22.7795    0.0000 </r>
       <r>   22.7796    0.0000 </r>
       <r>   28.0843    0.0000 </r>
       <r>   30.8329    0.0000 </r>
       <r>   30.8329    0.0000 </r>
       <r>   30.8329    0.0000 </r>
      </set>
      <set comment="kpoint 2">
       <r>   -1.8299    1.0000 </r>
       <r>    3.0051    1.0000 </r>
       <r>    3.1172    1.0000 </r>
       <r>    5.4784    1.0006 </r>
       <r>    5.4786    1.0006 </r>
       <r>    5.6705    1.0198 </r>
       <r>    7.2509   -0.0000 </r>
       <r>    7.6647   -0.0000 </r>
       <r>    7.6649   -0.0000 </r>
       <r>    7.7114   -0.0000 </r>
       <r>    8.0430   -0.0000 </r>
       <r>   13.6593    0.0000 </r>
       <r>   17.4110    0.0000 </r>
       <r>   17.4110    0.0000 </r>
       <r>   22.8982    0.0000 </r>
       <r>   24.2620    0.0000 </r>
       <r>   28.5357    0.0000 </r>
       <r>   30.0772    0.0000 </r>
       <r>   30.3543    0.0000 </r>
       <r>   30.3543    0.0000 </r>
      </set>
      <set comment="kpoint 3">
       <r>   -0.2349    1.0000 </r>
       <r>    3.0515    1.0000 </r>
       <r>    3.9392    1.0000 </r>
       <r>    5.5358    1.0022 </r>
       <r>    5.5359    1.0022 </r>
       <r>    6.1531    0.0266 </r>
       <r>    6.3354   -0.0207 </r>
       <r>    6.6458   -0.0000 </r>
       <r>    6.6460   -0.0000 </r>
       <r>    7.5230   -0.0000 </r>
       <r>    8.0070   -0.0000 </r>
       <r>   10.2528   -0.0000 </r>
       <r>   20.2250    0.0000 </r>
       <r>   20.2250    0.0000 </r>
       <r>   23.3162    0.0000 </r>
       <r>   25.1804    0.0000 </r>
       <r>   25.8964    0.0000 </r>
       <r>   27.5990    0.0000 </r>
       <r>   27.5990    0.0000 </r>
       <r>   29.3078    0.0000 </r>
      </set>
      <set comment="kpoint 4">
       <r>    1.8257    1.0000 </r>
       <r>    1.8257    1.0000 </r>
       <r>    5.1126    1.0000 </r>
       <r>    5.1126    1.0000 </r>
       <r>    5.8845    0.9211 </r>
       <r>    5.8845    0.9211 </r>
       <r>    5.8846    0.9208 </r>
       <r>    5.8846    0.9208 </r>
       <r>    6.8290   -0.0000 </r>
       <r>    6.8290   -0.0000 </r>
       <r>    8.5278   -0.0000 </r>
       <r>    8.5278   -0.0000 </r>
       <r>   23.8094    0.0000 </r>
       <r>   23.8094    0.0000 </r>
       <r>   23.8094    0.0000 </r>
       <r>   23.8094    0.0000 </r>
       <r>   24.2217    0.0000 </r>
       <r>   24.2217    0.0000 </r>
       <r>   26.5102    0.0000 </r>
       <r>   26.5102    0.0000 </r>
      </set>
      <set comment="kpoint 5">
       <r>   -1.2795    1.0000 </r>
       <r>    3.2511    1.0000 </r>
       <r>    3.3032    1.0000 </r>
       <r>    5.1475    1.0000 </r>
       <r>    5.3768    1.0000 </r>
       <r>    6.1504    0.0310 </r>
       <r>    6.8613   -0.0000 </r>
       <r>    7.1631   -0.0000 </r>
       <r>    7.2998   -0.0000 </r>
       <r>    7.6214   -0.0000 </r>
       <r>    8.3116   -0.0000 </r>
       <r>   13.9136    0.0000 </r>
       <r>   15.3469    0.0000 </r>
       <r>   18.3729    0.0000 </r>
       <r>   23.5891    0.0000 </r>
       <r>   26.1786    0.0000 </r>
       <r>   26.1804    0.0000 </r>
       <r>   29.1806    0.0000 </r>
       <r>   30.5527    0.0000 </r>
       <r>   31.3780    0.0000 </r>
      </set>
      <set comment="kpoint 6">
       <r>    0.2137    1.0000 </r>
       <r>    3.2181    1.0000 </r>
       <r>    4.0080    1.0000 </r>
       <r>    4.9801    1.0000 </r>
       <r>    5.2160    1.0000 </r>
       <r>    5.8608    0.9669 </r>
       <r>    6.5638   -0.0003 </r>
       <r>    6.8199   -0.0000 </r>
       <r>    6.8459   -0.0000 </r>
       <r>    7.8998   -0.0000 </r>
       <r>    8.1051   -0.0000 </r>
       <r>   10.7060   -0.0000 </r>
       <r>   17.0433    0.0000 </r>
       <r>   20.8757    0.0000 </r>
       <r>   22.7220    0.0000 </r>
       <r>   24.0367    0.0000 </r>
       <r>   26.9749    0.0000 </r>
       <r>   28.1295    0.0000 </r>
       <r>   28.3258    0.0000 </r>
       <r>   33.2425    0.0000 </r>
      </set>
      <set comment="kpoint 7">
       <r>    2.0654    1.0000 </r>
       <r>    2.0654    1.0000 </r>
       <r>    4.8199    1.0000 </r>
       <r>    4.8199    1.0000 </r>
       <r>    5.1939    1.0000 </r>
       <r>    5.1939    1.0000 </r>
       <r>    6.5176   -0.0009 </r>
       <r>    6.5176   -0.0009 </r>
       <r>    7.5257   -0.0000 </r>
       <r>    7.5257   -0.0000 </r>
       <r>    8.5593   -0.0000 </r>
       <r>    8.5593   -0.0000 </r>
       <r>   19.6680    0.0000 </r>
       <r>   19.6680    0.0000 </r>
       <r>   24.2964    0.0000 </r>
       <r>   24.2964    0.0000 </r>
       <r>   25.0276    0.0000 </r>
       <r>   25.0276    0.0000 </r>
       <r>   30.4100    0.0000 </r>
       <r>   30.4100    0.0000 </r>
      </set>
      <set comment="kpoint 8">
       <r>    1.2738    1.0000 </r>
       <r>    2.9346    1.0000 </r>
       <r>    4.4976    1.0000 </r>
       <r>    4.7331    1.0000 </r>
       <r>    4.9525    1.0000 </r>
       <r>    5.2236    1.0000 </r>
       <r>    6.7707   -0.0000 </r>
       <r>    7.3132   -0.0000 </r>
       <r>    7.6515   -0.0000 </r>
       <r>    7.7510   -0.0000 </r>
       <r>    8.4654   -0.0000 </r>
       <r>   10.4281   -0.0000 </r>
       <r>   14.8281    0.0000 </r>
       <r>   18.9692    0.0000 </r>
       <r>   22.7605    0.0000 </r>
       <r>   24.1703    0.0000 </r>
       <r>   25.8551    0.0000 </r>
       <r>   28.9305    0.0000 </r>
       <r>   30.2172    0.0000 </r>
       <r>   33.1313    0.0000 </r>
      </set>
      <set comment="kpoint 9">
       <r>    2.2522    1.0000 </r>
       <r>    2.2522    1.0000 </r>
       <r>    4.4646    1.0000 </r>
       <r>    4.4646    1.0000 </r>
       <r>    5.4426    1.0003 </r>
       <r>    5.4426    1.0003 </r>
       <r>    7.1991   -0.0000 </r>
       <r>    7.1991   -0.0000 </r>
       <r>    8.2662   -0.0000 </r>
       <r>    8.2662   -0.0000 </r>
       <r>    8.4259   -0.0000 </r>
       <r>    8.4259   -0.0000 </r>
       <r>   16.1463    0.0000 </r>
       <r>   16.1463    0.0000 </r>
       <r>   24.6886    0.0000 </r>
       <r>   24.6886    0.0000 </r>
       <r>   25.6515    0.0000 </r>
       <r>   25.6515    0.0000 </r>
       <r>   32.1872    0.0000 </r>
       <r>   32.1872    0.0000 </r>
      </set>
      <set comment="kpoint 10">
       <r>    2.2133    1.0000 </r>
       <r>    2.2133    1.0000 </r>
       <r>    4.1929    1.0000 </r>
       <r>    4.1929    1.0000 </r>
       <r>    6.5598   -0.0003 </r>
       <r>    6.5598   -0.0003 </r>
       <r>    7.4385   -0.0000 </r>
       <r>    7.4385   -0.0000 </r>
       <r>    7.8492   -0.0000 </r>
       <r>    7.8492   -0.0000 </r>
       <r>    8.5429   -0.0000 </r>
       <r>    8.5429   -0.0000 </r>
       <r>   14.7642    0.0000 </r>
       <r>   14.7642    0.0000 </r>
       <r>   24.4605    0.0000 </r>
       <r>   24.4605    0.0000 </r>
       <r>   26.9261    0.0000 </r>
       <r>   26.9261    0.0000 </r>
       <r>   30.1054    0.0000 </r>
       <r>   30.1054    0.0000 </r>
      </set>
      <set comment="kpoint 11">
       <r>   -0.7468    1.0000 </r>
       <r>    3.4937    1.0000 </r>
       <r>    3.4938    1.0000 </r>
       <r>    5.0351    1.0000 </r>
       <r>    5.0352    1.0000 </r>
       <r>    5.8630    0.9632 </r>
       <r>    6.6459   -0.0000 </r>
       <r>    7.4716   -0.0000 </r>
       <r>    7.4718   -0.0000 </r>
       <r>    7.7912   -0.0000 </r>
       <r>    7.7913   -0.0000 </r>
       <r>   14.9052    0.0000 </r>
       <r>   14.9052    0.0000 </r>
       <r>   16.4394    0.0000 </r>
       <r>   25.9912    0.0000 </r>
       <r>   25.9912    0.0000 </r>
       <r>   26.5142    0.0000 </r>
       <r>   26.5142    0.0000 </r>
       <r>   29.9194    0.0000 </r>
       <r>   32.1475    0.0000 </r>
      </set>
      <set comment="kpoint 12">
       <r>    0.6742    1.0000 </r>
       <r>    3.5203    1.0000 </r>
       <r>    3.9687    1.0000 </r>
       <r>    4.7838    1.0000 </r>
       <r>    4.8186    1.0000 </r>
       <r>    5.1687    1.0000 </r>
       <r>    7.0226   -0.0000 </r>
       <r>    7.0874   -0.0000 </r>
       <r>    7.4221   -0.0000 </r>
       <r>    7.8498   -0.0000 </r>
       <r>    7.9101   -0.0000 </r>
       <r>   11.3915   -0.0000 </r>
       <r>   17.0729    0.0000 </r>
       <r>   17.8294    0.0000 </r>
       <r>   22.5703    0.0000 </r>
       <r>   23.5552    0.0000 </r>
       <r>   27.5932    0.0000 </r>
       <r>   28.8108    0.0000 </r>
       <r>   28.9189    0.0000 </r>
       <r>   31.8277    0.0000 </r>
      </set>
      <set comment="kpoint 13">
       <r>    2.3750    1.0000 </r>
       <r>    2.3750    1.0000 </r>
       <r>    4.4556    1.0000 </r>
       <r>    4.4556    1.0000 </r>
       <r>    5.0192    1.0000 </r>
       <r>    5.0192    1.0000 </r>
       <r>    6.7794   -0.0000 </r>
       <r>    6.7794   -0.0000 </r>
       <r>    7.7666   -0.0000 </r>
       <r>    7.7666   -0.0000 </r>
       <r>    8.9383   -0.0000 </r>
       <r>    8.9383   -0.0000 </r>
       <r>   19.6572    0.0000 </r>
       <r>   19.6572    0.0000 </r>
       <r>   20.3066    0.0000 </r>
       <r>   20.3066    0.0000 </r>
       <r>   29.3907    0.0000 </r>
       <r>   29.3907    0.0000 </r>
       <r>   29.5011    0.0000 </r>
       <r>   29.5011    0.0000 </r>
      </set>
      <set comment="kpoint 14">
       <r>    1.7503    1.0000 </r>
       <r>    3.2987    1.0000 </r>
       <r>    4.3727    1.0000 </r>
       <r>    4.5343    1.0000 </r>
       <r>    4.5912    1.0000 </r>
       <r>    4.7023    1.0000 </r>
       <r>    7.1461   -0.0000 </r>
       <r>    7.4260   -0.0000 </r>
       <r>    7.7469   -0.0000 </r>
       <r>    7.9759   -0.0000 </r>
       <r>    8.4218   -0.0000 </r>
       <r>   11.6091    0.0000 </r>
       <r>   14.8536    0.0000 </r>
       <r>   18.8106    0.0000 </r>
       <r>   19.2172    0.0000 </r>
       <r>   23.3184    0.0000 </r>
       <r>   25.4121    0.0000 </r>
       <r>   27.9931    0.0000 </r>
       <r>   31.4293    0.0000 </r>
       <r>   33.2032    0.0000 </r>
      </set>
      <set comment="kpoint 15">
       <r>    2.6627    1.0000 </r>
       <r>    2.6627    1.0000 </r>
       <r>    4.2816    1.0000 </r>
       <r>    4.2816    1.0000 </r>
       <r>    4.9924    1.0000 </r>
       <r>    4.9924    1.0000 </r>
       <r>    7.3214   -0.0000 </r>
       <r>    7.3214   -0.0000 </r>
       <r>    7.8946   -0.0000 </r>
       <r>    7.8946   -0.0000 </r>
       <r>    9.6804   -0.0000 </r>
       <r>    9.6804   -0.0000 </r>
       <r>   16.3103    0.0000 </r>
       <r>   16.3103    0.0000 </r>
       <r>   20.9695    0.0000 </r>
       <r>   20.9695    0.0000 </r>
       <r>   26.1930    0.0000 </r>
       <r>   26.1930    0.0000 </r>
       <r>   32.1167    0.0000 </r>
       <r>   32.1167    0.0000 </r>
      </set>
      <set comment="kpoint 16">
       <r>    2.6214    1.0000 </r>
       <r>    2.6214    1.0000 </r>
       <r>    4.0979    1.0000 </r>
       <r>    4.0979    1.0000 </r>
       <r>    5.6045    1.0079 </r>
       <r>    5.6045    1.0079 </r>
       <r>    7.5370   -0.0000 </r>
       <r>    7.5370   -0.0000 </r>
       <r>    7.8613   -0.0000 </r>
       <r>    7.8613   -0.0000 </r>
       <r>   10.0082   -0.0000 </r>
       <r>   10.0082   -0.0000 </r>
       <r>   14.7806    0.0000 </r>
       <r>   14.7806    0.0000 </r>
       <r>   22.2441    0.0000 </r>
       <r>   22.2441    0.0000 </r>
       <r>   23.8904    0.0000 </r>
       <r>   23.8904    0.0000 </r>
       <r>   32.9898    0.0000 </r>
       <r>   32.9898    0.0000 </r>
      </set>
      <set comment="kpoint 17">
       <r>    2.8535    1.0000 </r>
       <r>    3.7089    1.0000 </r>
       <r>    4.1441    1.0000 </r>
       <r>    4.1442    1.0000 </r>
       <r>    4.2759    1.0000 </r>
       <r>    4.2759    1.0000 </r>
       <r>    7.6361   -0.0000 </r>
       <r>    7.6363   -0.0000 </r>
       <r>    7.7075   -0.0000 </r>
       <r>    7.7076   -0.0000 </r>
       <r>    9.7357   -0.0000 </r>
       <r>   13.8754    0.0000 </r>
       <r>   13.8754    0.0000 </r>
       <r>   16.4175    0.0000 </r>
       <r>   19.8260    0.0000 </r>
       <r>   19.8260    0.0000 </r>
       <r>   21.4367    0.0000 </r>
       <r>   25.7352    0.0000 </r>
       <r>   34.7122    0.0000 </r>
       <r>   34.7122    0.0000 </r>
      </set>
      <set comment="kpoint 18">
       <r>    3.4231    1.0000 </r>
       <r>    3.4231    1.0000 </r>
       <r>    4.0745    1.0000 </r>
       <r>    4.0745    1.0000 </r>
       <r>    4.4014    1.0000 </r>
       <r>    4.4014    1.0000 </r>
       <r>    7.6304   -0.0000 </r>
       <r>    7.6304   -0.0000 </r>
       <r>    7.8468   -0.0000 </r>
       <r>    7.8468   -0.0000 </r>
       <r>   11.3814   -0.0000 </r>
       <r>   11.3814   -0.0000 </r>
       <r>   16.6439    0.0000 </r>
       <r>   16.6439    0.0000 </r>
       <r>   17.6894    0.0000 </r>
       <r>   17.6894    0.0000 </r>
       <r>   22.5619    0.0000 </r>
       <r>   22.5619    0.0000 </r>
       <r>   36.4911    0.0000 </r>
       <r>   36.4911    0.0000 </r>
      </set>
      <set comment="kpoint 19">
       <r>    3.5267    1.0000 </r>
       <r>    3.5267    1.0000 </r>
       <r>    3.9512    1.0000 </r>
       <r>    3.9512    1.0000 </r>
       <r>    4.5716    1.0000 </r>
       <r>    4.5716    1.0000 </r>
       <r>    7.7621   -0.0000 </r>
       <r>    7.7621   -0.0000 </r>
       <r>    7.8855   -0.0000 </r>
       <r>    7.8855   -0.0000 </r>
       <r>   12.5551    0.0000 </r>
       <r>   12.5551    0.0000 </r>
       <r>   15.0128    0.0000 </r>
       <r>   15.0128    0.0000 </r>
       <r>   18.8334    0.0000 </r>
       <r>   18.8334    0.0000 </r>
       <r>   19.8142    0.0000 </r>
       <r>   19.8142    0.0000 </r>
       <r>   38.4488    0.0000 </r>
       <r>   38.4488    0.0000 </r>
      </set>
      <set comment="kpoint 20">
       <r>    4.0358    1.0000 </r>
       <r>    4.0358    1.0000 </r>
       <r>    4.0359    1.0000 </r>
       <r>    4.0359    1.0000 </r>
       <r>    4.0359    1.0000 </r>
       <r>    4.0359    1.0000 </r>
       <r>    7.8972   -0.0000 </r>
       <r>    7.8972   -0.0000 </r>
       <r>    7.8974   -0.0000 </r>
       <r>    7.8974   -0.0000 </r>
       <r>   15.5408    0.0000 </r>
       <r>   15.5408    0.0000 </r>
       <r>   15.5408    0.0000 </r>
       <r>   15.5408    0.0000 </r>
       <r>   15.5408    0.0000 </r>
       <r>   15.5408    0.0000 </r>
       <r>   17.6728    0.0000 </r>
       <r>   17.6728    0.0000 </r>
       <r>   44.9586    0.0000 </r>
       <r>   44.9586    0.0000 </r>
      </set>
     </set>
    </set>
   </array>
  </eigenvalues>
  <separator name="orbital magnetization" >
   <v name="MAGDIPOLOUT">      0.00000000      0.00000000      0.00000000</v>
  </separator>
  <dos>
   <i name="efermi">      6.00494263 </i>
   <total>
    <array>
     <dimension dim="1">gridpoints</dimension>
     <dimension dim="2">spin</dimension>
     <field>energy</field>
     <field>total</field>
     <field>integrated</field>
     <set>
      <set comment="spin 1">
       <r>    -4.9204     0.0000     0.0000 </r>
       <r>    -4.7453     0.0000     0.0000 </r>
       <r>    -4.5702     0.0000     0.0000 </r>
       <r>    -4.3951     0.0000     0.0000 </r>
       <r>    -4.2200    -0.0000    -0.0000 </r>
       <r>    -4.0449    -0.0000    -0.0000 </r>
       <r>    -3.8698    -0.0000    -0.0000 </r>
       <r>    -3.6947    -0.0000    -0.0000 </r>
       <r>    -3.5195    -0.0000    -0.0000 </r>
       <r>    -3.3444    -0.0000    -0.0000 </r>
       <r>    -3.1693    -0.0000    -0.0000 </r>
       <r>    -2.9942    -0.0001    -0.0000 </r>
       <r>    -2.8191    -0.0007    -0.0001 </r>
       <r>    -2.6440     0.0035     0.0005 </r>
       <r>    -2.4689     0.0172     0.0035 </r>
       <r>    -2.2938     0.0044     0.0042 </r>
       <r>    -2.1187     0.0041     0.0050 </r>
       <r>    -1.9436     0.0879     0.0204 </r>
       <r>    -1.7685     0.0667     0.0320 </r>
       <r>    -1.5934     0.0025     0.0325 </r>
       <r>    -1.4183     0.1601     0.0605 </r>
       <r>    -1.2432     0.1557     0.0878 </r>
       <r>    -1.0681     0.0058     0.0888 </r>
       <r>    -0.8930     0.1055     0.1073 </r>
       <r>    -0.7179     0.0994     0.1247 </r>
       <r>    -0.5428     0.0151     0.1273 </r>
       <r>    -0.3677     0.0867     0.1425 </r>
       <r>    -0.1926     0.0626     0.1535 </r>
       <r>    -0.0175     0.3244     0.2103 </r>
       <r>     0.1577     0.2909     0.2612 </r>
       <r>     0.3328     0.1509     0.2876 </r>
       <r>     0.5079     0.4079     0.3591 </r>
       <r>     0.6830     0.2317     0.3996 </r>
       <r>     0.8581     0.1421     0.4245 </r>
       <r>     1.0332     0.1750     0.4552 </r>
       <r>     1.2083     0.9073     0.6140 </r>
       <r>     1.3834     1.3662     0.8533 </r>
       <r>     1.5585     1.8979     1.1856 </r>
       <r>     1.7336     1.8724     1.5135 </r>
       <r>     1.9087     1.1084     1.7075 </r>
       <r>     2.0838     0.8608     1.8583 </r>
       <r>     2.2589     1.9214     2.1947 </r>
       <r>     2.4340     1.0693     2.3820 </r>
       <r>     2.6091     1.3637     2.6208 </r>
       <r>     2.7842     2.9385     3.1353 </r>
       <r>     2.9593     2.3673     3.5498 </r>
       <r>     3.1344     2.1100     3.9193 </r>
       <r>     3.3095     2.5528     4.3663 </r>
       <r>     3.4846     2.7472     4.8473 </r>
       <r>     3.6597     1.9543     5.1896 </r>
       <r>     3.8348     1.3928     5.4334 </r>
       <r>     4.0100     1.0315     5.6141 </r>
       <r>     4.1851     1.2899     5.8399 </r>
       <r>     4.3602     0.7157     5.9652 </r>
       <r>     4.5353     1.2927     6.1916 </r>
       <r>     4.7104     2.3250     6.5987 </r>
       <r>     4.8855     3.5473     7.2199 </r>
       <r>     5.0606     5.5351     8.1891 </r>
       <r>     5.2357     3.8691     8.8666 </r>
       <r>     5.4108     2.0116     9.2188 </r>
       <r>     5.5859     1.8796     9.5479 </r>
       <r>     5.7610     1.5882     9.8260 </r>
       <r>     5.9361     1.2014    10.0364 </r>
       <r>     6.1112     0.8138    10.1789 </r>
       <r>     6.2863     1.0761    10.3673 </r>
       <r>     6.4614     1.0589    10.5528 </r>
       <r>     6.6365     1.0508    10.7368 </r>
       <r>     6.8116     0.4903    10.8226 </r>
       <r>     6.9867     0.1044    10.8409 </r>
       <r>     7.1618     0.4089    10.9125 </r>
       <r>     7.3369     0.1249    10.9344 </r>
       <r>     7.5120    -0.0192    10.9310 </r>
       <r>     7.6871    -0.0067    10.9298 </r>
       <r>     7.8623    -0.0412    10.9226 </r>
       <r>     8.0374     0.2044    10.9584 </r>
       <r>     8.2125     0.9663    11.1276 </r>
       <r>     8.3876     0.4036    11.1983 </r>
       <r>     8.5627    -0.0507    11.1894 </r>
       <r>     8.7378     0.1062    11.2080 </r>
       <r>     8.9129     0.2557    11.2528 </r>
       <r>     9.0880     0.1031    11.2708 </r>
       <r>     9.2631     0.1417    11.2956 </r>
       <r>     9.4382     0.4874    11.3810 </r>
       <r>     9.6133     0.3422    11.4409 </r>
       <r>     9.7884    -0.0220    11.4371 </r>
       <r>     9.9635     0.0468    11.4452 </r>
       <r>    10.1386     0.7084    11.5693 </r>
       <r>    10.3137     0.5684    11.6688 </r>
       <r>    10.4888     0.3533    11.7307 </r>
       <r>    10.6639     0.2581    11.7759 </r>
       <r>    10.8390    -0.0078    11.7745 </r>
       <r>    11.0141    -0.0077    11.7732 </r>
       <r>    11.1892    -0.0048    11.7723 </r>
       <r>    11.3643     0.0006    11.7724 </r>
       <r>    11.5394     0.1534    11.7993 </r>
       <r>    11.7146     0.1679    11.8287 </r>
       <r>    11.8897     0.0058    11.8297 </r>
       <r>    12.0648    -0.0054    11.8287 </r>
       <r>    12.2399    -0.0003    11.8287 </r>
       <r>    12.4150    -0.0015    11.8284 </r>
       <r>    12.5901    -0.0135    11.8261 </r>
       <r>    12.7652     0.0676    11.8379 </r>
       <r>    12.9403     0.3111    11.8924 </r>
       <r>    13.1154     0.2911    11.9433 </r>
       <r>    13.2905     0.2038    11.9790 </r>
       <r>    13.4656     0.1599    12.0070 </r>
       <r>    13.6407     0.5639    12.1058 </r>
       <r>    13.8158     0.6394    12.2177 </r>
       <r>    13.9909     0.3643    12.2815 </r>
       <r>    14.1660     0.4170    12.3545 </r>
       <r>    14.3411     0.0710    12.3670 </r>
       <r>    14.5162     0.0384    12.3737 </r>
       <r>    14.6913     0.2735    12.4216 </r>
       <r>    14.8664     0.1410    12.4463 </r>
       <r>    15.0415     0.1777    12.4774 </r>
       <r>    15.2166     0.5504    12.5738 </r>
       <r>    15.3917     0.8791    12.7277 </r>
       <r>    15.5669     0.4292    12.8029 </r>
       <r>    15.7420     0.3124    12.8576 </r>
       <r>    15.9171     0.5233    12.9492 </r>
       <r>    16.0922     0.3270    13.0065 </r>
       <r>    16.2673     0.8237    13.1507 </r>
       <r>    16.4424     0.3472    13.2115 </r>
       <r>    16.6175    -0.0492    13.2029 </r>
       <r>    16.7926    -0.0214    13.1991 </r>
       <r>    16.9677     0.4069    13.2704 </r>
       <r>    17.1428     0.8827    13.4249 </r>
       <r>    17.3179     0.4024    13.4954 </r>
       <r>    17.4930    -0.0148    13.4928 </r>
       <r>    17.6681    -0.0219    13.4890 </r>
       <r>    17.8432     0.0039    13.4897 </r>
       <r>    18.0183     0.2722    13.5373 </r>
       <r>    18.1934     0.8141    13.6799 </r>
       <r>    18.3685     0.6209    13.7886 </r>
       <r>    18.5436     0.3907    13.8570 </r>
       <r>    18.7187     0.1424    13.8820 </r>
       <r>    18.8938     0.6027    13.9875 </r>
       <r>    19.0689     0.6953    14.1092 </r>
       <r>    19.2441     0.4657    14.1908 </r>
       <r>    19.4192     0.2258    14.2303 </r>
       <r>    19.5943     0.1340    14.2538 </r>
       <r>    19.7694     0.6193    14.3622 </r>
       <r>    19.9445     0.2330    14.4030 </r>
       <r>    20.1196    -0.0764    14.3896 </r>
       <r>    20.2947     0.2319    14.4302 </r>
       <r>    20.4698     1.1946    14.6394 </r>
       <r>    20.6449     0.5949    14.7436 </r>
       <r>    20.8200     0.0836    14.7582 </r>
       <r>    20.9951     0.0655    14.7697 </r>
       <r>    21.1702    -0.0047    14.7689 </r>
       <r>    21.3453    -0.0024    14.7685 </r>
       <r>    21.5204    -0.0070    14.7672 </r>
       <r>    21.6955    -0.0256    14.7628 </r>
       <r>    21.8706     0.2271    14.8025 </r>
       <r>    22.0457     1.1442    15.0029 </r>
       <r>    22.2208     1.1339    15.2014 </r>
       <r>    22.3959     0.3205    15.2575 </r>
       <r>    22.5710     0.0721    15.2702 </r>
       <r>    22.7461     0.1051    15.2886 </r>
       <r>    22.9212     0.4768    15.3721 </r>
       <r>    23.0964     0.8103    15.5139 </r>
       <r>    23.2715     0.5654    15.6129 </r>
       <r>    23.4466     0.6795    15.7319 </r>
       <r>    23.6217     0.5407    15.8266 </r>
       <r>    23.7968     0.6847    15.9465 </r>
       <r>    23.9719     0.3377    16.0056 </r>
       <r>    24.1470    -0.0342    15.9997 </r>
       <r>    24.3221    -0.0271    15.9949 </r>
       <r>    24.4972     0.3522    16.0566 </r>
       <r>    24.6723     1.0043    16.2324 </r>
       <r>    24.8474     0.7630    16.3661 </r>
       <r>    25.0225     0.2404    16.4081 </r>
       <r>    25.1976     0.4583    16.4884 </r>
       <r>    25.3727     0.2470    16.5316 </r>
       <r>    25.5478     0.0529    16.5409 </r>
       <r>    25.7229     1.0630    16.7270 </r>
       <r>    25.8980     1.5218    16.9935 </r>
       <r>    26.0731     0.5853    17.0960 </r>
       <r>    26.2482     0.2089    17.1326 </r>
       <r>    26.4233     0.0754    17.1458 </r>
       <r>    26.5984     0.0530    17.1551 </r>
       <r>    26.7735     0.2527    17.1993 </r>
       <r>    26.9487     0.3561    17.2617 </r>
       <r>    27.1238     0.3147    17.3168 </r>
       <r>    27.2989     0.5715    17.4169 </r>
       <r>    27.4740     0.1384    17.4411 </r>
       <r>    27.6491     0.5492    17.5373 </r>
       <r>    27.8242     0.7743    17.6729 </r>
       <r>    27.9993     0.4261    17.7475 </r>
       <r>    28.1744     0.2663    17.7941 </r>
       <r>    28.3495     0.5848    17.8965 </r>
       <r>    28.5246     0.5685    17.9960 </r>
       <r>    28.6997     0.4256    18.0706 </r>
       <r>    28.8748     0.1240    18.0923 </r>
       <r>    29.0499     0.5676    18.1917 </r>
       <r>    29.2250     0.9360    18.3556 </r>
       <r>    29.4001     0.5433    18.4507 </r>
       <r>    29.5752     0.0224    18.4546 </r>
       <r>    29.7503     0.0939    18.4711 </r>
       <r>    29.9254     0.2869    18.5213 </r>
       <r>    30.1005     0.4989    18.6087 </r>
       <r>    30.2756     0.2713    18.6562 </r>
       <r>    30.4507     0.4217    18.7300 </r>
       <r>    30.6258     0.4109    18.8020 </r>
       <r>    30.8010     0.0398    18.8089 </r>
       <r>    30.9761     0.1896    18.8421 </r>
       <r>    31.1512     0.4874    18.9275 </r>
       <r>    31.3263     0.2319    18.9681 </r>
       <r>    31.5014    -0.0154    18.9654 </r>
       <r>    31.6765     0.1396    18.9898 </r>
       <r>    31.8516     1.2330    19.2057 </r>
       <r>    32.0267     1.1561    19.4082 </r>
       <r>    32.2018     0.0919    19.4243 </r>
       <r>    32.3769    -0.0426    19.4168 </r>
       <r>    32.5520    -0.0290    19.4117 </r>
       <r>    32.7271     0.0824    19.4262 </r>
       <r>    32.9022     0.6718    19.5438 </r>
       <r>    33.0773     0.5799    19.6453 </r>
       <r>    33.2524     0.4234    19.7195 </r>
       <r>    33.4275     0.1965    19.7539 </r>
       <r>    33.6026    -0.0171    19.7509 </r>
       <r>    33.7777    -0.0051    19.7500 </r>
       <r>    33.9528    -0.0001    19.7500 </r>
       <r>    34.1279    -0.0005    19.7499 </r>
       <r>    34.3030    -0.0092    19.7483 </r>
       <r>    34.4782     0.0233    19.7524 </r>
       <r>    34.6533     0.2515    19.7964 </r>
       <r>    34.8284     0.1697    19.8261 </r>
       <r>    35.0035    -0.0071    19.8249 </r>
       <r>    35.1786    -0.0044    19.8241 </r>
       <r>    35.3537    -0.0001    19.8241 </r>
       <r>    35.5288    -0.0000    19.8241 </r>
       <r>    35.7039    -0.0000    19.8241 </r>
       <r>    35.8790    -0.0000    19.8241 </r>
       <r>    36.0541    -0.0015    19.8238 </r>
       <r>    36.2292    -0.0174    19.8208 </r>
       <r>    36.4043     0.0773    19.8343 </r>
       <r>    36.5794     0.4129    19.9066 </r>
       <r>    36.7545     0.1855    19.9391 </r>
       <r>    36.9296    -0.0180    19.9359 </r>
       <r>    37.1047    -0.0042    19.9352 </r>
       <r>    37.2798    -0.0001    19.9352 </r>
       <r>    37.4549    -0.0000    19.9352 </r>
       <r>    37.6300    -0.0000    19.9352 </r>
       <r>    37.8051    -0.0000    19.9352 </r>
       <r>    37.9802    -0.0001    19.9352 </r>
       <r>    38.1553    -0.0034    19.9346 </r>
       <r>    38.3305    -0.0052    19.9337 </r>
       <r>    38.5056     0.1283    19.9561 </r>
       <r>    38.6807     0.1879    19.9890 </r>
       <r>    38.8558     0.0170    19.9920 </r>
       <r>    39.0309    -0.0069    19.9908 </r>
       <r>    39.2060    -0.0004    19.9907 </r>
       <r>    39.3811    -0.0000    19.9907 </r>
       <r>    39.5562    -0.0000    19.9907 </r>
       <r>    39.7313    -0.0000    19.9907 </r>
       <r>    39.9064    -0.0000    19.9907 </r>
       <r>    40.0815     0.0000    19.9907 </r>
       <r>    40.2566     0.0000    19.9907 </r>
       <r>    40.4317     0.0000    19.9907 </r>
       <r>    40.6068     0.0000    19.9907 </r>
       <r>    40.7819     0.0000    19.9907 </r>
       <r>    40.9570     0.0000    19.9907 </r>
       <r>    41.1321     0.0000    19.9907 </r>
       <r>    41.3072     0.0000    19.9907 </r>
       <r>    41.4823     0.0000    19.9907 </r>
       <r>    41.6574     0.0000    19.9907 </r>
       <r>    41.8325     0.0000    19.9907 </r>
       <r>    42.0076     0.0000    19.9907 </r>
       <r>    42.1828     0.0000    19.9907 </r>
       <r>    42.3579     0.0000    19.9907 </r>
       <r>    42.5330     0.0000    19.9907 </r>
       <r>    42.7081     0.0000    19.9907 </r>
       <r>    42.8832     0.0000    19.9907 </r>
       <r>    43.0583     0.0000    19.9907 </r>
       <r>    43.2334     0.0000    19.9907 </r>
       <r>    43.4085     0.0000    19.9907 </r>
       <r>    43.5836    -0.0000    19.9907 </r>
       <r>    43.7587    -0.0000    19.9907 </r>
       <r>    43.9338    -0.0000    19.9907 </r>
       <r>    44.1089    -0.0000    19.9907 </r>
       <r>    44.2840    -0.0000    19.9907 </r>
       <r>    44.4591    -0.0000    19.9907 </r>
       <r>    44.6342    -0.0000    19.9907 </r>
       <r>    44.8093    -0.0003    19.9907 </r>
[...]
       </set>
       <set comment="band 16">
        <r>  0.0000  0.0697  0.0000  0.0697  0.0000  0.0801  0.0000  0.0801  0.0000 </r>
        <r>  0.0000  0.0697  0.0000  0.0697  0.0000  0.0801  0.0000  0.0801  0.0000 </r>
       </set>
       <set comment="band 17">
        <r>  0.0921  0.0000  0.2630  0.0000  0.0147  0.0000  0.0244  0.0000  0.0000 </r>
        <r>  0.0921  0.0000  0.2630  0.0000  0.0147  0.0000  0.0244  0.0000  0.0000 </r>
       </set>
       <set comment="band 18">
        <r>  0.0921  0.0000  0.2630  0.0000  0.0147  0.0000  0.0244  0.0000  0.0000 </r>
        <r>  0.0921  0.0000  0.2630  0.0000  0.0147  0.0000  0.0244  0.0000  0.0000 </r>
       </set>
       <set comment="band 19">
        <r>  0.0000  0.0016  0.0000  0.0016  0.0000  0.1842  0.0000  0.1842  0.0000 </r>
        <r>  0.0000  0.0016  0.0000  0.0016  0.0000  0.1842  0.0000  0.1842  0.0000 </r>
       </set>
       <set comment="band 20">
        <r>  0.0000  0.0016  0.0000  0.0016  0.0000  0.1842  0.0000  0.1842  0.0000 </r>
        <r>  0.0000  0.0016  0.0000  0.0016  0.0000  0.1842  0.0000  0.1842  0.0000 </r>
       </set>
      </set>
      <set comment="kpoint 17">
       <set comment="band 1">
        <r>  0.1299  0.0444  0.0444  0.0444  0.0445  0.0445  0.0000  0.0445  0.0000 </r>
        <r>  0.1299  0.0444  0.0444  0.0444  0.0445  0.0445  0.0000  0.0445  0.0000 </r>
       </set>
       <set comment="band 2">
        <r>  0.0331  0.0010  0.0010  0.0010  0.1427  0.1426  0.0000  0.1426  0.0000 </r>
        <r>  0.0331  0.0010  0.0010  0.0010  0.1427  0.1426  0.0000  0.1426  0.0000 </r>
       </set>
       <set comment="band 3">
        <r>  0.0000  0.0044  0.0190  0.0051  0.2710  0.0724  0.0292  0.0633  0.0000 </r>
        <r>  0.0000  0.0044  0.0190  0.0051  0.2710  0.0724  0.0292  0.0633  0.0000 </r>
       </set>
       <set comment="band 4">
        <r>  0.0000  0.0146  0.0000  0.0139  0.0001  0.1987  0.0000  0.2078  0.0292 </r>
        <r>  0.0000  0.0146  0.0000  0.0139  0.0001  0.1987  0.0000  0.2078  0.0292 </r>
       </set>
       <set comment="band 5">
        <r>  0.0000  0.0182  0.0659  0.0148  0.1371  0.0309  0.1277  0.0379  0.0001 </r>
        <r>  0.0000  0.0182  0.0659  0.0148  0.1371  0.0309  0.1277  0.0379  0.0001 </r>
       </set>
       <set comment="band 6">
        <r>  0.0000  0.0478  0.0001  0.0512  0.0001  0.1064  0.0001  0.0994  0.1277 </r>
        <r>  0.0000  0.0478  0.0001  0.0512  0.0001  0.1064  0.0001  0.0994  0.1277 </r>
       </set>
       <set comment="band 7">
        <r>  0.0000  0.0006  0.0021  0.0004  0.1146  0.0229  0.3128  0.0350  0.0012 </r>
        <r>  0.0000  0.0006  0.0021  0.0004  0.1146  0.0229  0.3128  0.0350  0.0012 </r>
       </set>
       <set comment="band 8">
        <r>  0.0000  0.0014  0.0000  0.0016  0.0004  0.0921  0.0012  0.0800  0.3128 </r>
        <r>  0.0000  0.0014  0.0000  0.0016  0.0004  0.0921  0.0012  0.0800  0.3128 </r>
       </set>
       <set comment="band 9">
        <r>  0.0000  0.0000  0.0000  0.0000  0.0248  0.0045  0.4498  0.0082  0.0033 </r>
        <r>  0.0000  0.0000  0.0000  0.0000  0.0248  0.0045  0.4498  0.0082  0.0033 </r>
       </set>
       <set comment="band 10">
        <r>  0.0000  0.0000  0.0000  0.0000  0.0002  0.0205  0.0033  0.0168  0.4498 </r>
        <r>  0.0000  0.0000  0.0000  0.0000  0.0002  0.0205  0.0033  0.0168  0.4498 </r>
       </set>
       <set comment="band 11">
        <r>  0.0256  0.0209  0.0209  0.0209  0.1273  0.1273  0.0000  0.1273  0.0000 </r>
        <r>  0.0256  0.0209  0.0209  0.0209  0.1273  0.1273  0.0000  0.1273  0.0000 </r>
       </set>
       <set comment="band 12">
        <r>  0.0000  0.0367  0.1291  0.0281  0.1119  0.0244  0.0700  0.0318  0.0001 </r>
        <r>  0.0000  0.0367  0.1291  0.0281  0.1119  0.0244  0.0700  0.0318  0.0001 </r>
       </set>
       <set comment="band 13">
        <r>  0.0000  0.0925  0.0002  0.1012  0.0002  0.0877  0.0001  0.0802  0.0700 </r>
        <r>  0.0000  0.0925  0.0002  0.1012  0.0002  0.0877  0.0001  0.0802  0.0700 </r>
       </set>
       <set comment="band 14">
        <r>  0.2859  0.0003  0.0003  0.0003  0.0445  0.0445  0.0000  0.0445  0.0000 </r>
        <r>  0.2859  0.0003  0.0003  0.0003  0.0445  0.0445  0.0000  0.0445  0.0000 </r>
       </set>
       <set comment="band 15">
        <r>  0.0000  0.0282  0.1051  0.0244  0.1328  0.0309  0.0327  0.0356  0.0000 </r>
        <r>  0.0000  0.0282  0.1051  0.0244  0.1328  0.0309  0.0327  0.0356  0.0000 </r>
       </set>
       <set comment="band 16">
        <r>  0.0000  0.0770  0.0000  0.0807  0.0001  0.1020  0.0000  0.0973  0.0327 </r>
        <r>  0.0000  0.0770  0.0000  0.0807  0.0001  0.1020  0.0000  0.0973  0.0327 </r>
       </set>
       <set comment="band 17">
        <r>  0.2343  0.0538  0.0538  0.0538  0.0042  0.0042  0.0000  0.0042  0.0000 </r>
        <r>  0.2343  0.0538  0.0538  0.0538  0.0042  0.0042  0.0000  0.0042  0.0000 </r>
       </set>
       <set comment="band 18">
        <r>  0.0409  0.0683  0.0683  0.0683  0.0427  0.0427  0.0000  0.0427  0.0000 </r>
        <r>  0.0409  0.0683  0.0683  0.0683  0.0427  0.0427  0.0000  0.0427  0.0000 </r>
       </set>
       <set comment="band 19">
        <r>  0.0000  0.0188  0.0005  0.0130  0.0007  0.0166  0.0041  0.0240  0.1662 </r>
        <r>  0.0000  0.0188  0.0005  0.0130  0.0007  0.0166  0.0041  0.0240  0.1662 </r>
       </set>
       <set comment="band 20">
        <r>  0.0000  0.0028  0.0211  0.0085  0.0269  0.0109  0.1662  0.0035  0.0041 </r>
        <r>  0.0000  0.0028  0.0211  0.0085  0.0269  0.0109  0.1662  0.0035  0.0041 </r>
       </set>
      </set>
      <set comment="kpoint 18">
       <set comment="band 1">
        <r>  0.0492  0.0220  0.0220  0.0089  0.1488  0.0229  0.0047  0.1488  0.0140 </r>
        <r>  0.0492  0.0220  0.0220  0.0089  0.1488  0.0229  0.0047  0.1488  0.0140 </r>
       </set>
       <set comment="band 2">
        <r>  0.0492  0.0220  0.0220  0.0089  0.1488  0.0229  0.0047  0.1488  0.0140 </r>
        <r>  0.0492  0.0220  0.0220  0.0089  0.1488  0.0229  0.0047  0.1488  0.0140 </r>
       </set>
       <set comment="band 3">
        <r>  0.0000  0.0307  0.0307  0.0000  0.1621  0.0000  0.0478  0.1622  0.0159 </r>
        <r>  0.0000  0.0307  0.0307  0.0000  0.1621  0.0000  0.0478  0.1622  0.0159 </r>
       </set>
       <set comment="band 4">
        <r>  0.0000  0.0307  0.0307  0.0000  0.1621  0.0000  0.0478  0.1622  0.0159 </r>
        <r>  0.0000  0.0307  0.0307  0.0000  0.1621  0.0000  0.0478  0.1622  0.0159 </r>
       </set>
       <set comment="band 5">
        <r>  0.0075  0.0090  0.0090  0.0825  0.0011  0.3230  0.0021  0.0011  0.0063 </r>
        <r>  0.0075  0.0090  0.0090  0.0825  0.0011  0.3230  0.0021  0.0011  0.0063 </r>
       </set>
       <set comment="band 6">
        <r>  0.0075  0.0090  0.0090  0.0825  0.0011  0.3230  0.0021  0.0011  0.0063 </r>
        <r>  0.0075  0.0090  0.0090  0.0825  0.0011  0.3230  0.0021  0.0011  0.0063 </r>
       </set>
       <set comment="band 7">
        <r>  0.0000  0.0002  0.0002  0.0000  0.0420  0.0000  0.3042  0.0420  0.1012 </r>
        <r>  0.0000  0.0002  0.0002  0.0000  0.0420  0.0000  0.3042  0.0420  0.1012 </r>
       </set>
       <set comment="band 8">
        <r>  0.0000  0.0002  0.0002  0.0000  0.0420  0.0000  0.3042  0.0420  0.1012 </r>
        <r>  0.0000  0.0002  0.0002  0.0000  0.0420  0.0000  0.3042  0.0420  0.1012 </r>
       </set>
       <set comment="band 9">
        <r>  0.0009  0.0001  0.0001  0.0003  0.0166  0.0112  0.1117  0.0166  0.3355 </r>
        <r>  0.0009  0.0001  0.0001  0.0003  0.0166  0.0112  0.1117  0.0166  0.3355 </r>
       </set>
       <set comment="band 10">
        <r>  0.0009  0.0001  0.0001  0.0003  0.0166  0.0112  0.1117  0.0166  0.3355 </r>
        <r>  0.0009  0.0001  0.0001  0.0003  0.0166  0.0112  0.1117  0.0166  0.3355 </r>
       </set>
       <set comment="band 11">
        <r>  0.0317  0.0247  0.0247  0.0673  0.0781  0.1235  0.0052  0.0781  0.0157 </r>
        <r>  0.0317  0.0247  0.0247  0.0673  0.0781  0.1235  0.0052  0.0781  0.0157 </r>
       </set>
       <set comment="band 12">
        <r>  0.0317  0.0247  0.0247  0.0673  0.0781  0.1235  0.0052  0.0781  0.0157 </r>
        <r>  0.0317  0.0247  0.0247  0.0673  0.0781  0.1235  0.0052  0.0781  0.0157 </r>
       </set>
       <set comment="band 13">
        <r>  0.0000  0.0915  0.0915  0.0000  0.0945  0.0000  0.0341  0.0945  0.0114 </r>
        <r>  0.0000  0.0915  0.0915  0.0000  0.0945  0.0000  0.0341  0.0945  0.0114 </r>
       </set>
       <set comment="band 14">
        <r>  0.0000  0.0915  0.0915  0.0000  0.0945  0.0000  0.0341  0.0945  0.0114 </r>
        <r>  0.0000  0.0915  0.0915  0.0000  0.0945  0.0000  0.0341  0.0945  0.0114 </r>
       </set>
       <set comment="band 15">
        <r>  0.2099  0.0028  0.0028  0.0646  0.0337  0.0578  0.0001  0.0337  0.0002 </r>
        <r>  0.2099  0.0028  0.0028  0.0646  0.0337  0.0578  0.0001  0.0337  0.0002 </r>
       </set>
       <set comment="band 16">
        <r>  0.2099  0.0028  0.0028  0.0646  0.0337  0.0578  0.0001  0.0337  0.0002 </r>
        <r>  0.2099  0.0028  0.0028  0.0646  0.0337  0.0578  0.0001  0.0337  0.0002 </r>
       </set>
       <set comment="band 17">
        <r>  0.0862  0.0790  0.0790  0.0279  0.0231  0.0595  0.0009  0.0231  0.0028 </r>
        <r>  0.0862  0.0790  0.0790  0.0279  0.0231  0.0595  0.0009  0.0231  0.0028 </r>
       </set>
       <set comment="band 18">
        <r>  0.0862  0.0790  0.0790  0.0279  0.0231  0.0595  0.0009  0.0231  0.0028 </r>
        <r>  0.0862  0.0790  0.0790  0.0279  0.0231  0.0595  0.0009  0.0231  0.0028 </r>
       </set>
       <set comment="band 19">
        <r>  0.0000  0.0082  0.0082  0.0000  0.0383  0.0000  0.0654  0.0383  0.0218 </r>
        <r>  0.0000  0.0082  0.0082  0.0000  0.0383  0.0000  0.0654  0.0383  0.0218 </r>
       </set>
       <set comment="band 20">
        <r>  0.0000  0.0082  0.0082  0.0000  0.0383  0.0000  0.0654  0.0383  0.0218 </r>
        <r>  0.0000  0.0082  0.0082  0.0000  0.0383  0.0000  0.0654  0.0383  0.0218 </r>
       </set>
      </set>
      <set comment="kpoint 19">
       <set comment="band 1">
        <r>  0.0275  0.0000  0.0561  0.0000  0.3221  0.0000  0.0384  0.0000  0.0000 </r>
        <r>  0.0275  0.0000  0.0561  0.0000  0.3221  0.0000  0.0384  0.0000  0.0000 </r>
       </set>
       <set comment="band 2">
        <r>  0.0275  0.0000  0.0561  0.0000  0.3221  0.0000  0.0384  0.0000  0.0000 </r>
        <r>  0.0275  0.0000  0.0561  0.0000  0.3221  0.0000  0.0384  0.0000  0.0000 </r>
       </set>
       <set comment="band 3">
        <r>  0.0000  0.0176  0.0000  0.0176  0.0000  0.2144  0.0000  0.2144  0.0000 </r>
        <r>  0.0000  0.0176  0.0000  0.0176  0.0000  0.2144  0.0000  0.2144  0.0000 </r>
       </set>
       <set comment="band 4">
        <r>  0.0000  0.0176  0.0000  0.0176  0.0000  0.2144  0.0000  0.2144  0.0000 </r>
        <r>  0.0000  0.0176  0.0000  0.0176  0.0000  0.2144  0.0000  0.2144  0.0000 </r>
       </set>
       <set comment="band 5">
        <r>  0.0000  0.0679  0.0000  0.0679  0.0000  0.1481  0.0000  0.1481  0.0000 </r>
        <r>  0.0000  0.0679  0.0000  0.0679  0.0000  0.1481  0.0000  0.1481  0.0000 </r>
       </set>
       <set comment="band 6">
        <r>  0.0000  0.0679  0.0000  0.0679  0.0000  0.1481  0.0000  0.1481  0.0000 </r>
        <r>  0.0000  0.0679  0.0000  0.0679  0.0000  0.1481  0.0000  0.1481  0.0000 </r>
       </set>
       <set comment="band 7">
        <r>  0.0004  0.0000  0.0001  0.0000  0.0530  0.0000  0.4387  0.0000  0.0000 </r>
        <r>  0.0004  0.0000  0.0001  0.0000  0.0530  0.0000  0.4386  0.0000  0.0000 </r>
       </set>
       <set comment="band 8">
        <r>  0.0004  0.0000  0.0001  0.0000  0.0530  0.0000  0.4386  0.0000  0.0000 </r>
        <r>  0.0004  0.0000  0.0001  0.0000  0.0530  0.0000  0.4387  0.0000  0.0000 </r>
       </set>
       <set comment="band 9">
        <r>  0.0000  0.0000  0.0000  0.0000  0.0000  0.0000  0.0000  0.0000  0.4936 </r>
        <r>  0.0000  0.0000  0.0000  0.0000  0.0000  0.0000  0.0000  0.0000  0.4936 </r>
       </set>
       <set comment="band 10">
        <r>  0.0000  0.0000  0.0000  0.0000  0.0000  0.0000  0.0000  0.0000  0.4936 </r>
        <r>  0.0000  0.0000  0.0000  0.0000  0.0000  0.0000  0.0000  0.0000  0.4936 </r>
       </set>
       <set comment="band 11">
        <r>  0.0000  0.0874  0.0000  0.0874  0.0000  0.1264  0.0000  0.1264  0.0000 </r>
        <r>  0.0000  0.0874  0.0000  0.0874  0.0000  0.1264  0.0000  0.1264  0.0000 </r>
       </set>
       <set comment="band 12">
        <r>  0.0000  0.0874  0.0000  0.0874  0.0000  0.1264  0.0000  0.1264  0.0000 </r>
        <r>  0.0000  0.0874  0.0000  0.0874  0.0000  0.1264  0.0000  0.1264  0.0000 </r>
       </set>
       <set comment="band 13">
        <r>  0.1436  0.0000  0.0679  0.0000  0.2027  0.0000  0.0223  0.0000  0.0000 </r>
        <r>  0.1436  0.0000  0.0679  0.0000  0.2027  0.0000  0.0223  0.0000  0.0000 </r>
       </set>
       <set comment="band 14">
        <r>  0.1436  0.0000  0.0679  0.0000  0.2027  0.0000  0.0223  0.0000  0.0000 </r>
        <r>  0.1436  0.0000  0.0679  0.0000  0.2027  0.0000  0.0223  0.0000  0.0000 </r>
       </set>
       <set comment="band 15">
        <r>  0.0000  0.0832  0.0000  0.0832  0.0000  0.1098  0.0000  0.1098  0.0000 </r>
        <r>  0.0000  0.0832  0.0000  0.0832  0.0000  0.1098  0.0000  0.1098  0.0000 </r>
       </set>
       <set comment="band 16">
        <r>  0.0000  0.0832  0.0000  0.0832  0.0000  0.1098  0.0000  0.1098  0.0000 </r>
        <r>  0.0000  0.0832  0.0000  0.0832  0.0000  0.1098  0.0000  0.1098  0.0000 </r>
       </set>
       <set comment="band 17">
        <r>  0.2248  0.0000  0.1407  0.0000  0.0252  0.0000  0.0078  0.0000  0.0000 </r>
        <r>  0.2248  0.0000  0.1407  0.0000  0.0252  0.0000  0.0078  0.0000  0.0000 </r>
       </set>
       <set comment="band 18">
        <r>  0.2248  0.0000  0.1407  0.0000  0.0252  0.0000  0.0078  0.0000  0.0000 </r>
        <r>  0.2248  0.0000  0.1407  0.0000  0.0252  0.0000  0.0078  0.0000  0.0000 </r>
       </set>
       <set comment="band 19">
        <r>  0.0000  0.0000  0.0000  0.0000  0.0000  0.0831  0.0000  0.0831  0.0000 </r>
        <r>  0.0000  0.0000  0.0000  0.0000  0.0000  0.0831  0.0000  0.0831  0.0000 </r>
       </set>
       <set comment="band 20">
        <r>  0.0000  0.0000  0.0000  0.0000  0.0000  0.0831  0.0000  0.0831  0.0000 </r>
        <r>  0.0000  0.0000  0.0000  0.0000  0.0000  0.0831  0.0000  0.0831  0.0000 </r>
       </set>
      </set>
      <set comment="kpoint 20">
       <set comment="band 1">
        <r>  0.0000  0.0000  0.0719  0.0000  0.3993  0.0000  0.0000  0.0000  0.0000 </r>
        <r>  0.0000  0.0000  0.0832  0.0000  0.3453  0.0000  0.0000  0.0000  0.0000 </r>
       </set>
       <set comment="band 2">
        <r>  0.0000  0.0000  0.0832  0.0000  0.3453  0.0000  0.0000  0.0000  0.0000 </r>
        <r>  0.0000  0.0000  0.0719  0.0000  0.3993  0.0000  0.0000  0.0000  0.0000 </r>
       </set>
       <set comment="band 3">
        <r>  0.0000  0.0000  0.0000  0.0006  0.0000  0.7420  0.0000  0.0000  0.0000 </r>
        <r>  0.0000  0.0000  0.0000  0.1546  0.0000  0.0026  0.0000  0.0000  0.0000 </r>
       </set>
       <set comment="band 4">
        <r>  0.0000  0.0000  0.0000  0.1546  0.0000  0.0026  0.0000  0.0000  0.0000 </r>
        <r>  0.0000  0.0000  0.0000  0.0006  0.0000  0.7420  0.0000  0.0000  0.0000 </r>
       </set>
       <set comment="band 5">
        <r>  0.0000  0.1226  0.0000  0.0000  0.0000  0.0000  0.0000  0.1563  0.0000 </r>
        <r>  0.0000  0.0326  0.0000  0.0000  0.0000  0.0000  0.0000  0.5883  0.0000 </r>
       </set>
       <set comment="band 6">
        <r>  0.0000  0.0326  0.0000  0.0000  0.0000  0.0000  0.0000  0.5883  0.0000 </r>
        <r>  0.0000  0.1226  0.0000  0.0000  0.0000  0.0000  0.0000  0.1563  0.0000 </r>
       </set>
       <set comment="band 7">
        <r>  0.0000  0.0000  0.0000  0.0000  0.0000  0.0000  0.9253  0.0000  0.0077 </r>
        <r>  0.0000  0.0000  0.0000  0.0000  0.0000  0.0000  0.0545  0.0000  0.0005 </r>
       </set>
       <set comment="band 8">
        <r>  0.0000  0.0000  0.0000  0.0000  0.0000  0.0000  0.0545  0.0000  0.0005 </r>
        <r>  0.0000  0.0000  0.0000  0.0000  0.0000  0.0000  0.9253  0.0000  0.0077 </r>
       </set>
       <set comment="band 9">
        <r>  0.0000  0.0000  0.0000  0.0000  0.0000  0.0000  0.0080  0.0000  0.9637 </r>
        <r>  0.0000  0.0000  0.0000  0.0000  0.0000  0.0000  0.0001  0.0000  0.0161 </r>
       </set>
       <set comment="band 10">
        <r>  0.0000  0.0000  0.0000  0.0000  0.0000  0.0000  0.0001  0.0000  0.0161 </r>
        <r>  0.0000  0.0000  0.0000  0.0000  0.0000  0.0000  0.0080  0.0000  0.9637 </r>
       </set>
       <set comment="band 11">
        <r>  0.0000  0.0000  0.2515  0.0000  0.1442  0.0000  0.0000  0.0000  0.0000 </r>
        <r>  0.0000  0.0000  0.1144  0.0000  0.3171  0.0000  0.0000  0.0000  0.0000 </r>
       </set>
       <set comment="band 12">
        <r>  0.0000  0.0000  0.1144  0.0000  0.3171  0.0000  0.0000  0.0000  0.0000 </r>
        <r>  0.0000  0.0000  0.2515  0.0000  0.1442  0.0000  0.0000  0.0000  0.0000 </r>
       </set>
       <set comment="band 13">
        <r>  0.0000  0.0000  0.0000  0.0375  0.0000  0.4141  0.0000  0.0000  0.0000 </r>
        <r>  0.0000  0.0000  0.0000  0.3284  0.0000  0.0473  0.0000  0.0000  0.0000 </r>
       </set>
       <set comment="band 14">
        <r>  0.0000  0.0000  0.0000  0.3284  0.0000  0.0473  0.0000  0.0000  0.0000 </r>
        <r>  0.0000  0.0000  0.0000  0.0375  0.0000  0.4141  0.0000  0.0000  0.0000 </r>
       </set>
       <set comment="band 15">
        <r>  0.0000  0.2798  0.0000  0.0000  0.0000  0.0000  0.0000  0.1086  0.0000 </r>
        <r>  0.0000  0.0861  0.0000  0.0000  0.0000  0.0000  0.0000  0.3528  0.0000 </r>
       </set>
       <set comment="band 16">
        <r>  0.0000  0.0861  0.0000  0.0000  0.0000  0.0000  0.0000  0.3528  0.0000 </r>
        <r>  0.0000  0.2798  0.0000  0.0000  0.0000  0.0000  0.0000  0.1086  0.0000 </r>
       </set>
       <set comment="band 17">
        <r>  0.2582  0.0000  0.0000  0.0000  0.0000  0.0000  0.0000  0.0000  0.0000 </r>
        <r>  0.5571  0.0000  0.0000  0.0000  0.0000  0.0000  0.0000  0.0000  0.0000 </r>
       </set>
       <set comment="band 18">
        <r>  0.5571  0.0000  0.0000  0.0000  0.0000  0.0000  0.0000  0.0000  0.0000 </r>
        <r>  0.2582  0.0000  0.0000  0.0000  0.0000  0.0000  0.0000  0.0000  0.0000 </r>
       </set>
       <set comment="band 19">
        <r>  0.0000  0.0000  0.0000  0.0000  0.0000  0.0000  0.0000  0.0000  0.0000 </r>
        <r>  0.0000  0.0000  0.0000  0.0000  0.0000  0.0000  0.0000  0.0000  0.0000 </r>
       </set>
       <set comment="band 20">
        <r>  0.0000  0.0000  0.0000  0.0000  0.0000  0.0000  0.0000  0.0000  0.0000 </r>
        <r>  0.0000  0.0000  0.0000  0.0000  0.0000  0.0000  0.0000  0.0000  0.0000 </r>
       </set>
      </set>
     </set>
    </set>
   </array>
  </projected>
 </calculation>
 <structure name="finalpos" >
  <crystal>
   <varray name="basis" >
    <v>       2.82036547      -0.00000000       0.00000000 </v>
    <v>       0.00000000       2.82036547       0.00000000 </v>
    <v>      -0.00000000      -0.00000000       2.82036547 </v>
   </varray>
   <i name="volume">     22.43448819 </i>
   <varray name="rec_basis" >
    <v>       0.35456398      -0.00000000       0.00000000 </v>
    <v>       0.00000000       0.35456398       0.00000000 </v>
    <v>      -0.00000000      -0.00000000       0.35456398 </v>
   </varray>
  </crystal>
  <varray name="positions" >
   <v>       0.00000000       0.00000000       0.00000000 </v>
   <v>       0.50000000       0.50000000       0.50000000 </v>
  </varray>
 </structure>
</modeling>
