    1    1  100    1
  0.1386300E+02  0.2621157E-09  0.2621157E-09  0.2621157E-09  0.5000000E-15
  1.000000000000000E-004
  CAR 
 unknown system                          
      4    120      8
 
  0.0000000E+00  0.0000000E+00  0.0000000E+00  0.2962963E-03
    1       -4.313534   1.000000
    2       21.306473   0.000000
    3       21.306473   0.000000
    4       21.306474   0.000000
    5       22.479281   0.000000
    6       22.479281   0.000000
    7       22.479281   0.000000
    8       26.158701   0.000000
 
  0.6666667E-01  0.0000000E+00  0.0000000E+00  0.3555556E-02
    1       -4.177400   1.000000
    2       19.701115   0.000000
    3       20.178474   0.000000
    4       21.114550   0.000000
    5       22.030814   0.000000
    6       23.234503   0.000000
    7       23.834233   0.000000
    8       25.250519   0.000000
 
  0.1333333E+00  0.0000000E+00  0.0000000E+00  0.3555556E-02
    1       -3.769528   1.000000
    2       17.086813   0.000000
    3       18.837958   0.000000
    4       20.595273   0.000000
    5       21.050423   0.000000
    6       22.996989   0.000000
    7       25.177560   0.000000
    8       25.848630   0.000000
 
  0.2000000E+00  0.0000000E+00  0.0000000E+00  0.3555556E-02
    1       -3.091544   1.000000
    2       14.264515   0.000000
    3       17.701375   0.000000
    4       19.909258   0.000000
    5       19.994020   0.000000
    6       22.047628   0.000000
    7       26.047588   0.000000
    8       26.224207   0.000000
 
  0.2666667E+00  0.0000000E+00  0.0000000E+00  0.3555556E-02
    1       -2.146149   1.000000
    2       11.488540   0.000000
    3       16.788041   0.000000
    4       19.059145   0.000000
    5       19.226746   0.000000
    6       21.187120   0.000000
    7       26.849707   0.000000
    8       27.124406   0.000000
 
  0.3333333E+00  0.0000000E+00  0.0000000E+00  0.3555556E-02
    1       -0.937214   1.000000
    2        8.865236   1.000000
    3       16.103062   0.000000
    4       18.327043   0.000000
    5       18.656893   0.000000
    6       20.513732   0.000000
    7       27.762424   0.000000
    8       28.345267   0.000000
 
  0.4000000E+00  0.0000000E+00  0.0000000E+00  0.3555556E-02
    1        0.529416   1.000000
    2        6.439918   1.000000
    3       15.646272   0.000000
    4       17.826549   0.000000
    5       18.255458   0.000000
    6       20.046708   0.000000
    7       28.873331   0.000000
    8       29.615086   0.000000
 
  0.4666667E+00  0.0000000E+00  0.0000000E+00  0.3555556E-02
    1        2.238794   1.000000
    2        4.248212   1.000000
    3       15.418067   0.000000
    4       17.573632   0.000000
    5       18.049370   0.000000
    6       19.810344   0.000000
    7       29.959395   0.000000
    8       30.642651   0.000000
 
  0.6666667E-01  0.6666667E-01  0.0000000E+00  0.7111111E-02
    1       -3.905406   1.000000
    2       18.204032   0.000000
    3       18.751938   0.000000
    4       20.101375   0.000000
    5       22.181095   0.000000
    6       23.531473   0.000000
    7       24.489991   0.000000
    8       25.036348   0.000000
 
  0.1333333E+00  0.6666667E-01 -0.6938894E-17  0.1422222E-01
    1       -3.362473   1.000000
    2       15.731212   0.000000
    3       17.294723   0.000000
    4       19.132153   0.000000
    5       21.700111   0.000000
    6       23.085104   0.000000
    7       24.804454   0.000000
    8       26.427632   0.000000
 
  0.2000000E+00  0.6666667E-01 -0.6938894E-17  0.1422222E-01
    1       -2.550778   1.000000
    2       12.945634   0.000000
    3       16.228942   0.000000
    4       18.217064   0.000000
    5       20.966806   0.000000
    6       22.423350   0.000000
    7       25.361015   0.000000
    8       27.693580   0.000000
 
  0.2666667E+00  0.6666667E-01  0.6938894E-17  0.1422222E-01
    1       -1.473561   1.000000
    2       10.245949   0.000000
    3       15.402662   0.000000
    4       17.447383   0.000000
    5       20.262454   0.000000
    6       21.835496   0.000000
    7       26.157680   0.000000
    8       28.846712   0.000000
 
  0.3333333E+00  0.6666667E-01 -0.2081668E-16  0.1422222E-01
    1       -0.135497   1.000000
    2        7.720471   1.000000
    3       14.811027   0.000000
    4       16.876572   0.000000
    5       19.717083   0.000000
    6       21.367752   0.000000
    7       27.226613   0.000000
    8       29.967318   0.000000
 
  0.4000000E+00  0.6666667E-01  0.6938894E-17  0.1422222E-01
    1        1.455613   1.000000
    2        5.408828   1.000000
    3       14.455157   0.000000
    4       16.527825   0.000000
    5       19.377688   0.000000
    6       21.069629   0.000000
    7       28.494546   0.000000
    8       30.588406   0.000000
 
  0.4666667E+00  0.6666667E-01  0.6938894E-17  0.7111111E-02
    1        3.112414   1.000000
    2        3.510754   1.000000
    3       14.336180   0.000000
    4       16.410184   0.000000
    5       19.262622   0.000000
    6       20.966984   0.000000
    7       29.651818   0.000000
    8       30.004267   0.000000
 
  0.1333333E+00  0.1333333E+00  0.0000000E+00  0.7111111E-02
    1       -2.685819   1.000000
    2       14.367304   0.000000
    3       14.833587   0.000000
    4       18.072919   0.000000
    5       21.909640   0.000000
    6       23.003167   0.000000
    7       25.488752   0.000000
    8       26.793883   0.000000
 
  0.2000000E+00  0.1333333E+00  0.1387779E-16  0.1422222E-01
    1       -1.742230   1.000000
    2       11.836254   0.000000
    3       13.660761   0.000000
    4       17.208685   0.000000
    5       21.558107   0.000000
    6       23.057076   0.000000
    7       25.794978   0.000000
    8       28.229662   0.000000
 
  0.2666667E+00  0.1333333E+00  0.0000000E+00  0.1422222E-01
    1       -0.535625   1.000000
    2        9.238160   1.000000
    3       12.917644   0.000000
    4       16.534696   0.000000
    5       21.003309   0.000000
    6       23.292317   0.000000
    7       26.056512   0.000000
    8       29.836583   0.000000
 
  0.3333333E+00  0.1333333E+00  0.0000000E+00  0.1422222E-01
    1        0.928270   1.000000
    2        6.823535   1.000000
    3       12.423809   0.000000
    4       16.074840   0.000000
    5       20.577797   0.000000
    6       23.336608   0.000000
    7       26.846226   0.000000
    8       30.384992   0.000000
 
  0.4000000E+00  0.1333333E+00  0.0000000E+00  0.1422222E-01
    1        2.634847   1.000000
    2        4.637471   1.000000
    3       12.176593   0.000000
    4       15.842535   0.000000
    5       20.356571   0.000000
    6       23.297546   0.000000
    7       28.040475   0.000000
    8       29.481570   0.000000
 
  0.2000000E+00  0.2000000E+00  0.0000000E+00  0.7111111E-02
    1       -0.669190   1.000000
    2       10.814224   0.000000
    3       11.165424   0.000000
    4       16.439273   0.000000
    5       22.076856   0.000000
    6       22.957760   0.000000
    7       27.364272   0.000000
    8       28.301683   0.000000
 
  0.2666667E+00  0.2000000E+00  0.1387779E-16  0.1422222E-01
    1        0.663651   1.000000
    2        8.472116   1.000000
    3       10.378355   0.000000
    4       15.873219   0.000000
    5       21.929192   0.000000
    6       23.606892   0.000000
    7       27.498272   0.000000
    8       29.451884   0.000000
 
  0.3333333E+00  0.2000000E+00  0.1387779E-16  0.1422222E-01
    1        2.248649   1.000000
    2        6.180070   1.000000
    3        9.994435   0.001124
    4       15.527451   0.000000
    5       21.665813   0.000000
    6       24.516707   0.000000
    7       27.335917   0.000000
    8       29.393059   0.000000
 
  0.4000000E+00  0.2000000E+00  0.1387779E-16  0.7111111E-02
    1        3.906786   1.000000
    2        4.283926   1.000000
    3        9.867622   0.702421
    4       15.411336   0.000000
    5       21.568035   0.000000
    6       24.978172   0.000000
    7       27.312252   0.000000
    8       28.955967   0.000000
 
  0.2666667E+00  0.2666667E+00  0.0000000E+00  0.7111111E-02
    1        2.118436   1.000000
    2        7.823021   1.000000
    3        8.130347   1.000000
    4       15.421072   0.000000
    5       22.800934   0.000000
    6       23.696107   0.000000
    7       27.905409   0.000000
    8       29.752717   0.000000
 
  0.3333333E+00  0.2666667E+00  0.0000000E+00  0.1422222E-01
    1        3.814168   1.000000
    2        5.794311   1.000000
    3        7.735290   1.000000
    4       15.191177   0.000000
    5       22.923143   0.000000
    6       24.706268   0.000000
    7       26.564914   0.000000
    8       30.575346   0.000000
 
  0.3333333E+00  0.3333333E+00  0.0000000E+00  0.2370370E-02
    1        5.326406   1.000000
    2        5.826932   1.000000
    3        5.826933   1.000000
    4       15.077667   0.000000
    5       23.737970   0.000000
    6       25.174392   0.000000
    7       25.174392   0.000000
    8       32.573816   0.000000
 
  0.6666667E-01  0.6666667E-01  0.6666667E-01  0.2370370E-02
    1       -3.498078   1.000000
    2       16.734763   0.000000
    3       17.725258   0.000000
    4       17.725258   0.000000
    5       23.395095   0.000000
    6       23.395095   0.000000
    7       25.531665   0.000000
    8       25.531665   0.000000
 
  0.1333333E+00  0.6666667E-01  0.6666667E-01  0.7111111E-02
    1       -2.820992   1.000000
    2       14.450277   0.000000
    3       16.008403   0.000000
    4       16.664191   0.000000
    5       23.096263   0.000000
    6       23.758297   0.000000
    7       25.864443   0.000000
    8       26.338709   0.000000
 
  0.2000000E+00  0.6666667E-01  0.6666667E-01  0.7111111E-02
    1       -1.876812   1.000000
    2       11.729547   0.000000
    3       15.006308   0.000000
    4       15.745783   0.000000
    5       22.651504   0.000000
    6       23.198095   0.000000
    7       27.082411   0.000000
    8       27.087082   0.000000
 
  0.2666667E+00  0.6666667E-01  0.6666667E-01  0.7111111E-02
    1       -0.669426   1.000000
    2        9.116944   1.000000
    3       14.282412   0.000000
    4       15.031393   0.000000
    5       22.196304   0.000000
    6       22.632072   0.000000
    7       27.996514   0.000000
    8       28.412206   0.000000
 
  0.3333333E+00  0.6666667E-01  0.6666667E-01  0.7111111E-02
    1        0.795492   1.000000
    2        6.697344   1.000000
    3       13.802409   0.000000
    4       14.546367   0.000000
    5       21.846165   0.000000
    6       22.223310   0.000000
    7       29.087287   0.000000
    8       29.730478   0.000000
 
  0.4000000E+00  0.6666667E-01  0.6666667E-01  0.7111111E-02
    1        2.503132   1.000000
    2        4.508566   1.000000
    3       13.562428   0.000000
    4       14.301093   0.000000
    5       21.658618   0.000000
    6       22.012384   0.000000
    7       30.123715   0.000000
    8       30.770377   0.000000
 
 -0.6666667E-01  0.6666667E-01  0.6666667E-01  0.1777778E-02
    1       -4.041364   1.000000
    2       19.252089   0.000000
    3       19.252089   0.000000
    4       20.271302   0.000000
    5       22.742122   0.000000
    6       23.669667   0.000000
    7       23.815650   0.000000
    8       23.815650   0.000000
 
  0.1333333E+00  0.1333333E+00  0.6666667E-01  0.7111111E-02
    1       -2.011417   1.000000
    2       13.179617   0.000000
    3       13.693072   0.000000
    4       15.345524   0.000000
    5       23.690580   0.000000
    6       24.563297   0.000000
    7       26.181615   0.000000
    8       27.153902   0.000000
 
  0.2000000E+00  0.1333333E+00  0.6666667E-01  0.1422222E-01
    1       -0.936941   1.000000
    2       10.732835   0.000000
    3       12.606254   0.000000
    4       14.501162   0.000000
    5       23.618273   0.000000
    6       24.649671   0.000000
    7       26.991098   0.000000
    8       28.399563   0.000000
 
  0.2666667E+00  0.1333333E+00  0.6666667E-01  0.1422222E-01
    1        0.397780   1.000000
    2        8.229195   1.000000
    3       11.977171   0.000000
    4       13.896576   0.000000
    5       23.300877   0.000000
    6       24.570584   0.000000
    7       27.887332   0.000000
    8       29.840471   0.000000
 
  0.3333333E+00  0.1333333E+00  0.6666667E-01  0.1422222E-01
    1        1.985084   1.000000
    2        5.926077   1.000000
    3       11.602745   0.000000
    4       13.531062   0.000000
    5       23.047713   0.000000
    6       24.454433   0.000000
    7       29.005969   0.000000
    8       30.714609   0.000000
 
  0.4000000E+00  0.1333333E+00  0.6666667E-01  0.7111111E-02
    1        3.642723   1.000000
    2        4.028444   1.000000
    3       11.478360   0.000000
    4       13.408769   0.000000
    5       22.956193   0.000000
    6       24.405019   0.000000
    7       29.961100   0.000000
    8       30.455936   0.000000
 
 -0.1333333E+00  0.1333333E+00  0.6666667E-01  0.7111111E-02
    1       -3.633731   1.000000
    2       17.089118   0.000000
    3       17.951790   0.000000
    4       19.731756   0.000000
    5       22.116397   0.000000
    6       22.400584   0.000000
    7       24.277820   0.000000
    8       25.446820   0.000000
 
  0.2000000E+00  0.2000000E+00  0.6666667E-01  0.7111111E-02
    1        0.264969   1.000000
    2        9.825720   0.956969
    3       10.183862   0.000000
    4       13.766440   0.000000
    5       24.253626   0.000000
    6       25.254679   0.000000
    7       28.127683   0.000000
    8       28.978360   0.000000
 
  0.2666667E+00  0.2000000E+00  0.6666667E-01  0.1422222E-01
    1        1.723239   1.000000
    2        7.586372   1.000000
    3        9.515686   1.000000
    4       13.279527   0.000000
    5       24.343173   0.000000
    6       25.846708   0.000000
    7       28.630978   0.000000
    8       30.089939   0.000000
 
  0.3333333E+00  0.2000000E+00  0.6666667E-01  0.1422222E-01
    1        3.423632   1.000000
    2        5.414632   1.000000
    3        9.256448   1.000000
    4       13.035349   0.000000
    5       24.252145   0.000000
    6       26.370884   0.000000
    7       28.951989   0.000000
    8       30.298239   0.000000
 
 -0.2000000E+00  0.2000000E+00  0.6666667E-01  0.7111111E-02
    1       -2.956175   1.000000
    2       14.351178   0.000000
    3       16.806618   0.000000
    4       19.106351   0.000000
    5       21.111616   0.000000
    6       21.858333   0.000000
    7       24.329541   0.000000
    8       27.683873   0.000000
 
 -0.1333333E+00  0.2000000E+00  0.6666667E-01  0.7111111E-02
    1       -3.091484   1.000000
    2       15.692283   0.000000
    3       16.009124   0.000000
    4       19.137756   0.000000
    5       21.354477   0.000000
    6       21.864390   0.000000
    7       25.164616   0.000000
    8       26.079184   0.000000
 
  0.2666667E+00  0.2666667E+00  0.6666667E-01  0.7111111E-02
    1        3.298786   1.000000
    2        7.061180   1.000000
    3        7.375159   1.000000
    4       12.913611   0.000000
    5       25.203955   0.000000
    6       26.372496   0.000000
    7       28.897811   0.000000
    8       30.646959   0.000000
 
  0.3333333E+00  0.2666667E+00  0.6666667E-01  0.7111111E-02
    1        4.943322   1.000000
    2        5.318394   1.000000
    3        7.108107   1.000000
    4       12.791688   0.000000
    5       25.419688   0.000000
    6       27.077196   0.000000
    7       28.063740   0.000000
    8       31.434065   0.000000
 
 -0.2666667E+00  0.2666667E+00  0.6666667E-01  0.7111111E-02
    1       -2.011373   1.000000
    2       11.600594   0.000000
    3       15.875183   0.000000
    4       18.376504   0.000000
    5       20.209912   0.000000
    6       21.563370   0.000000
    7       24.576423   0.000000
    8       29.428799   0.000000
 
 -0.2000000E+00  0.2666667E+00  0.6666667E-01  0.1422222E-01
    1       -2.280830   1.000000
    2       13.141017   0.000000
    3       14.809158   0.000000
    4       18.615479   0.000000
    5       20.810087   0.000000
    6       21.445924   0.000000
    7       25.174694   0.000000
    8       27.848368   0.000000
 
 -0.3333333E+00  0.3333333E+00  0.6666667E-01  0.7111111E-02
    1       -0.803254   1.000000
    2        8.987022   1.000000
    3       15.171338   0.000000
    4       17.747217   0.000000
    5       19.499939   0.000000
    6       21.242988   0.000000
    7       25.284564   0.000000
    8       30.344265   0.000000
 
 -0.2666667E+00  0.3333333E+00  0.6666667E-01  0.1422222E-01
    1       -1.204986   1.000000
    2       10.479434   0.000000
    3       13.961977   0.000000
    4       17.993460   0.000000
    5       20.122014   0.000000
    6       21.746709   0.000000
    7       24.941725   0.000000
    8       29.723362   0.000000
 
 -0.2000000E+00  0.3333333E+00  0.6666667E-01  0.7111111E-02
    1       -1.339038   1.000000
    2       12.015674   0.000000
    3       12.344000   0.000000
    4       18.378376   0.000000
    5       20.711271   0.000000
    6       20.871740   0.000000
    7       26.822638   0.000000
    8       27.723532   0.000000
 
 -0.4000000E+00  0.4000000E+00  0.6666667E-01  0.7111111E-02
    1        0.662449   1.000000
    2        6.566507   1.000000
    3       14.700295   0.000000
    4       17.303521   0.000000
    5       19.016894   0.000000
    6       20.956116   0.000000
    7       26.377367   0.000000
    8       30.397348   0.000000
 
 -0.3333333E+00  0.4000000E+00  0.6666667E-01  0.1422222E-01
    1        0.131305   1.000000
    2        7.968801   1.000000
    3       13.355609   0.000000
    4       17.478553   0.000000
    5       19.556096   0.000000
    6       22.135058   0.000000
    7       25.114100   0.000000
    8       29.976891   0.000000
 
 -0.2666667E+00  0.4000000E+00  0.6666667E-01  0.1422222E-01
    1       -0.134888   1.000000
    2        9.594748   1.000000
    3       11.451159   0.000000
    4       17.964654   0.000000
    5       20.178254   0.000000
    6       21.431741   0.000000
    7       26.711385   0.000000
    8       28.909021   0.000000
 
 -0.4666667E+00  0.4666667E+00  0.6666667E-01  0.7111111E-02
    1        2.370825   1.000000
    2        4.377359   1.000000
    3       14.464427   0.000000
    4       17.076411   0.000000
    5       18.772999   0.000000
    6       20.793876   0.000000
    7       27.734731   0.000000
    8       29.237284   0.000000
 
 -0.4000000E+00  0.4666667E+00  0.6666667E-01  0.1422222E-01
    1        1.720249   1.000000
    2        5.664575   1.000000
    3       12.990035   0.000000
    4       17.153103   0.000000
    5       19.201493   0.000000
    6       22.301581   0.000000
    7       25.908089   0.000000
    8       28.780792   0.000000
 
 -0.3333333E+00  0.4666667E+00  0.6666667E-01  0.1422222E-01
    1        1.325922   1.000000
    2        7.200032   1.000000
    3       10.946632   0.000000
    4       17.601249   0.000000
    5       19.724915   0.000000
    6       22.425759   0.000000
    7       26.198441   0.000000
    8       28.647539   0.000000
 
 -0.2666667E+00  0.4666667E+00  0.6666667E-01  0.7111111E-02
    1        1.194109   1.000000
    2        8.827570   1.000000
    3        9.122973   1.000000
    4       17.711205   0.000000
    5       20.854729   0.000000
    6       21.092161   0.000000
    7       27.098981   0.000000
    8       29.009929   0.000000
 
 -0.4666667E+00 -0.4666667E+00  0.6666667E-01  0.7111111E-02
    1        3.378679   1.000000
    2        3.766438   1.000000
    3       12.868415   0.000000
    4       17.042673   0.000000
    5       19.082466   0.000000
    6       22.328861   0.000000
    7       26.899498   0.000000
    8       27.598767   0.000000
 
 -0.4000000E+00 -0.4666667E+00  0.6666667E-01  0.1422222E-01
    1        3.029068   1.000000
    2        5.022957   1.000000
    3       10.695374   0.000000
    4       17.403696   0.000000
    5       19.491306   0.000000
    6       23.390983   0.000000
    7       25.646223   0.000000
    8       27.936413   0.000000
 
 -0.3333333E+00 -0.4666667E+00  0.6666667E-01  0.1422222E-01
    1        2.774125   1.000000
    2        6.682799   1.000000
    3        8.606514   1.000000
    4       17.471104   0.000000
    5       20.635023   0.000000
    6       22.218368   0.000000
    7       25.531309   0.000000
    8       29.736060   0.000000
 
 -0.4000000E+00 -0.4000000E+00  0.6666667E-01  0.7111111E-02
    1        4.431530   1.000000
    2        4.793497   1.000000
    3        8.475717   1.000000
    4       17.381705   0.000000
    5       20.529660   0.000000
    6       23.328000   0.000000
    7       24.275993   0.000000
    8       29.823172   0.000000
 
 -0.3333333E+00 -0.4000000E+00  0.6666667E-01  0.7111111E-02
    1        4.458131   1.000000
    2        6.301296   1.000000
    3        6.585310   1.000000
    4       17.336937   0.000000
    5       21.737921   0.000000
    6       22.304647   0.000000
    7       23.830613   0.000000
    8       31.709053   0.000000
 
  0.1333333E+00  0.1333333E+00  0.1333333E+00  0.2370370E-02
    1       -1.070871   1.000000
    2       12.064181   0.000000
    3       12.732885   0.000000
    4       12.732885   0.000000
    5       25.349975   0.000000
    6       25.349975   0.000000
    7       27.387633   0.000000
    8       27.387633   0.000000
 
  0.2000000E+00  0.1333333E+00  0.1333333E+00  0.7111111E-02
    1        0.131849   1.000000
    2        9.854331   0.817877
    3       11.595461   0.000000
    4       11.996185   0.000000
    5       25.591292   0.000000
    6       25.923042   0.000000
    7       28.431550   0.000000
    8       28.577747   0.000000
 
  0.2666667E+00  0.1333333E+00  0.1333333E+00  0.7111111E-02
    1        1.591260   1.000000
    2        7.464944   1.000000
    3       11.077614   0.000000
    4       11.498566   0.000000
    5       25.603138   0.000000
    6       25.829868   0.000000
    7       29.657054   0.000000
    8       29.928483   0.000000
 
  0.3333333E+00  0.1333333E+00  0.1333333E+00  0.7111111E-02
    1        3.293045   1.000000
    2        5.287005   1.000000
    3       10.824850   0.000000
    4       11.248408   0.000000
    5       25.564350   0.000000
    6       25.715151   0.000000
    7       30.524334   0.000000
    8       31.062096   0.000000
 
 -0.1333333E+00  0.1333333E+00  0.1333333E+00  0.1777778E-02
    1       -3.226893   1.000000
    2       16.648583   0.000000
    3       16.648583   0.000000
    4       18.277692   0.000000
    5       20.533757   0.000000
    6       23.533496   0.000000
    7       25.061959   0.000000
    8       25.061959   0.000000
 
  0.2000000E+00  0.2000000E+00  0.1333333E+00  0.7111111E-02
    1        1.459558   1.000000
    2        9.065879   1.000000
    3        9.435288   1.000000
    4       11.193487   0.000000
    5       26.504329   0.000000
    6       27.219123   0.000000
    7       29.143003   0.000000
    8       29.632813   0.000000
 
  0.2666667E+00  0.2000000E+00  0.1333333E+00  0.1422222E-01
    1        3.038491   1.000000
    2        6.948537   1.000000
    3        8.886529   1.000000
    4       10.812640   0.000000
    5       26.816338   0.000000
    6       27.760071   0.000000
    7       30.044926   0.000000
    8       30.697860   0.000000
 
  0.3333333E+00  0.2000000E+00  0.1333333E+00  0.7111111E-02
    1        4.691039   1.000000
    2        5.063373   1.000000
    3        8.753882   1.000000
    4       10.686610   0.000000
    5       26.859866   0.000000
    6       27.929839   0.000000
    7       30.436778   0.000000
    8       31.209183   0.000000
 
 -0.2000000E+00  0.2000000E+00  0.1333333E+00  0.7111111E-02
    1       -2.550627   1.000000
    2       14.551138   0.000000
    3       15.488715   0.000000
    4       17.683107   0.000000
    5       19.654420   0.000000
    6       23.078422   0.000000
    7       25.252030   0.000000
    8       26.809770   0.000000
 
  0.2666667E+00  0.2666667E+00  0.1333333E+00  0.7111111E-02
    1        4.721000   1.000000
    2        6.560123   1.000000
    3        6.868494   1.000000
    4       10.556076   0.000000
    5       27.610824   0.000000
    6       28.879623   0.000000
    7       29.963952   0.000000
    8       31.523347   0.000000
 
 -0.2666667E+00  0.2666667E+00  0.1333333E+00  0.7111111E-02
    1       -1.607607   1.000000
    2       11.923937   0.000000
    3       14.542617   0.000000
    4       17.045713   0.000000
    5       19.851754   0.000000
    6       22.253687   0.000000
    7       24.929845   0.000000
    8       29.279709   0.000000
 
 -0.2000000E+00  0.2666667E+00  0.1333333E+00  0.7111111E-02
    1       -1.741981   1.000000
    2       13.365307   0.000000
    3       13.594501   0.000000
    4       17.302963   0.000000
    5       18.784592   0.000000
    6       22.903868   0.000000
    7       26.496094   0.000000
    8       27.189826   0.000000
 
 -0.3333333E+00  0.3333333E+00  0.1333333E+00  0.7111111E-02
    1       -0.401863   1.000000
    2        9.348451   1.000000
    3       13.826737   0.000000
    4       16.403044   0.000000
    5       20.523754   0.000000
    6       21.573718   0.000000
    7       24.613555   0.000000
    8       29.531230   0.000000
 
 -0.2666667E+00  0.3333333E+00  0.1333333E+00  0.1422222E-01
    1       -0.668954   1.000000
    2       10.927880   0.000000
    3       12.640898   0.000000
    4       16.942881   0.000000
    5       18.989679   0.000000
    6       22.284254   0.000000
    7       26.248388   0.000000
    8       28.514110   0.000000
 
 -0.4000000E+00  0.4000000E+00  0.1333333E+00  0.7111111E-02
    1        1.060843   1.000000
    2        6.944612   1.000000
    3       13.347133   0.000000
    4       15.938812   0.000000
    5       21.105353   0.000000
    6       21.236344   0.000000
    7       24.620613   0.000000
    8       28.284814   0.000000
 
 -0.3333333E+00  0.4000000E+00  0.1333333E+00  0.1422222E-01
    1        0.663632   1.000000
    2        8.459592   1.000000
    3       12.024142   0.000000
    4       16.449278   0.000000
    5       19.806273   0.000000
    6       21.847870   0.000000
    7       25.510951   0.000000
    8       28.118362   0.000000
 
 -0.2666667E+00  0.4000000E+00  0.1333333E+00  0.7111111E-02
    1        0.531015   1.000000
    2       10.053173   0.000001
    3       10.324102   0.000000
    4       17.364610   0.000000
    5       18.698399   0.000000
    6       21.824563   0.000000
    7       26.508369   0.000000
    8       28.469569   0.000000
 
 -0.4666667E+00  0.4666667E+00  0.1333333E+00  0.7111111E-02
    1        2.765971   1.000000
    2        4.763669   1.000000
    3       13.106729   0.000000
    4       15.700375   0.000000
    5       20.867030   0.000000
    6       21.659813   0.000000
    7       25.106985   0.000000
    8       26.948752   0.000000
 
 -0.4000000E+00  0.4666667E+00  0.1333333E+00  0.1422222E-01
    1        2.248040   1.000000
    2        6.173227   1.000000
    3       11.654181   0.000000
    4       16.114450   0.000000
    5       20.523617   0.000000
    6       21.939459   0.000000
    7       24.556105   0.000000
    8       27.331246   0.000000
 
 -0.3333333E+00  0.4666667E+00  0.1333333E+00  0.1422222E-01
    1        1.986404   1.000000
    2        7.818145   1.000000
    3        9.696460   1.000000
    4       17.283357   0.000000
    5       19.377877   0.000000
    6       21.533895   0.000000
    7       24.819270   0.000000
    8       29.081633   0.000000
 
 -0.4666667E+00 -0.4666667E+00  0.1333333E+00  0.7111111E-02
    1        3.908630   1.000000
    2        4.276477   1.000000
    3       11.531085   0.000000
    4       15.999196   0.000000
    5       20.685624   0.000000
    6       22.464406   0.000000
    7       23.807174   0.000000
    8       27.041453   0.000000
 
 -0.4000000E+00 -0.4666667E+00  0.1333333E+00  0.1422222E-01
    1        3.683081   1.000000
    2        5.661328   1.000000
    3        9.440304   1.000000
    4       17.121410   0.000000
    5       20.129447   0.000000
    6       21.855561   0.000000
    7       23.135945   0.000000
    8       29.107843   0.000000
 
 -0.3333333E+00 -0.4666667E+00  0.1333333E+00  0.7111111E-02
    1        3.557864   1.000000
    2        7.308166   1.000000
    3        7.584673   1.000000
    4       17.944068   0.000000
    5       19.603079   0.000000
    6       21.281929   0.000000
    7       23.084230   0.000000
    8       30.988661   0.000000
 
 -0.4000000E+00 -0.4000000E+00  0.1333333E+00  0.7111111E-02
    1        5.207195   1.000000
    2        5.553843   1.000000
    3        7.333164   1.000000
    4       18.073241   0.000000
    5       20.191060   0.000000
    6       21.331035   0.000000
    7       21.910331   0.000000
    8       31.588747   0.000000
 
  0.2000000E+00  0.2000000E+00  0.2000000E+00  0.2370370E-02
    1        2.908707   1.000000
    2        8.427893   1.000000
    3        8.931618   1.000000
    4        8.931618   1.000000
    5       28.442116   0.000000
    6       28.442116   0.000000
    7       30.244747   0.000000
    8       30.244747   0.000000
 
  0.2666667E+00  0.2000000E+00  0.2000000E+00  0.7111111E-02
    1        4.596854   1.000000
    2        6.566076   1.000000
    3        8.374438   1.000000
    4        8.679318   1.000000
    5       28.979073   0.000000
    6       29.320023   0.000000
    7       30.944849   0.000000
    8       31.210970   0.000000
 
 -0.2000000E+00  0.2000000E+00  0.2000000E+00  0.1777778E-02
    1       -1.876431   1.000000
    2       14.316363   0.000000
    3       14.316363   0.000000
    4       16.230760   0.000000
    5       17.833316   0.000000
    6       24.852892   0.000000
    7       26.388112   0.000000
    8       26.388112   0.000000
 